   14   14    1    1
  0.1021960E+02  0.5697000E-09  0.4047900E-09  0.6204200E-09  0.5000000E-15
  1.000000000000000E-004
  CAR 
 Kpoints                                 
     42    175     48
 
  0.5000000E-01  0.3571429E-01  0.0000000E+00  0.3174603E-02
      1        -12.727501   1.000000
      2        -11.583240   1.000000
      3         -8.658066   1.000000
      4         -8.420999   1.000000
      5         -6.061901   1.000000
      6         -5.127867   1.000000
      7         -4.663369   1.000000
      8         -4.271024   1.000000
      9         -4.027946   1.000000
     10         -3.540804   1.000000
     11         -2.591966   1.000000
     12         -2.323381   1.000000
     13         -1.831104   1.000000
     14         -1.089775   1.000000
     15         -0.062737   1.000000
     16         -0.032615   1.000000
     17          0.163432   1.000000
     18          0.183772   1.000000
     19          0.574296   1.000000
     20          2.024299   0.000077
     21          2.088809   0.000000
     22          2.224381   0.000000
     23          5.462679   0.000000
     24          5.755482   0.000000
     25          5.846059   0.000000
     26          5.966402   0.000000
     27          6.821326   0.000000
     28          7.552323   0.000000
     29          7.882037   0.000000
     30          8.535931   0.000000
     31          8.802084   0.000000
     32          8.948887   0.000000
     33          9.050011   0.000000
     34         10.124419   0.000000
     35         11.186020   0.000000
     36         11.342894   0.000000
     37         11.672889   0.000000
     38         11.784383   0.000000
     39         11.944214   0.000000
     40         12.407018   0.000000
     41         12.873264   0.000000
     42         13.459881   0.000000
     43         13.489964   0.000000
     44         15.387221   0.000000
     45         15.574735   0.000000
     46         16.066928   0.000000
     47         16.339512   0.000000
     48         16.365952   0.000000
 
  0.1500000E+00  0.3571429E-01  0.0000000E+00  0.3174603E-02
      1        -12.683723   1.000000
      2        -11.657069   1.000000
      3         -8.636999   1.000000
      4         -8.409472   1.000000
      5         -5.994350   1.000000
      6         -5.469067   1.000000
      7         -4.785727   1.000000
      8         -4.004934   1.000000
      9         -3.788528   1.000000
     10         -3.203024   1.000000
     11         -2.661982   1.000000
     12         -2.303190   1.000000
     13         -1.909482   1.000000
     14         -1.397002   1.000000
     15         -0.022654   1.000000
     16         -0.012249   1.000000
     17          0.100152   1.000000
     18          0.205521   1.000000
     19          0.477408   1.000000
     20          1.937845   0.090418
     21          2.010936   0.000330
     22          2.102446   0.000000
     23          5.551897   0.000000
     24          5.764711   0.000000
     25          5.872247   0.000000
     26          6.311733   0.000000
     27          6.734890   0.000000
     28          7.189743   0.000000
     29          8.091337   0.000000
     30          8.672516   0.000000
     31          9.057753   0.000000
     32          9.131800   0.000000
     33          9.203815   0.000000
     34         10.236982   0.000000
     35         10.950217   0.000000
     36         11.137582   0.000000
     37         11.259235   0.000000
     38         11.700831   0.000000
     39         12.162339   0.000000
     40         12.496175   0.000000
     41         13.127693   0.000000
     42         13.133486   0.000000
     43         14.019718   0.000000
     44         14.873165   0.000000
     45         15.755267   0.000000
     46         15.834416   0.000000
     47         16.233321   0.000000
     48         16.521874   0.000000
 
  0.2500000E+00  0.3571429E-01  0.0000000E+00  0.3174603E-02
      1        -12.597946   1.000000
      2        -11.790271   1.000000
      3         -8.593289   1.000000
      4         -8.394758   1.000000
      5         -5.973216   1.000000
      6         -5.796332   1.000000
      7         -4.740004   1.000000
      8         -3.877681   1.000000
      9         -3.277455   1.000000
     10         -2.830337   1.000000
     11         -2.710899   1.000000
     12         -2.263014   1.000000
     13         -2.019825   1.000000
     14         -1.902292   1.000000
     15         -0.214286   1.000000
     16          0.020008   1.000000
     17          0.150269   1.000000
     18          0.163660   1.000000
     19          0.446585   1.000000
     20          1.790444   0.997679
     21          1.872278   0.697190
     22          1.877384   0.645022
     23          5.672453   0.000000
     24          5.720136   0.000000
     25          6.180855   0.000000
     26          6.607274   0.000000
     27          6.768458   0.000000
     28          6.935621   0.000000
     29          8.241157   0.000000
     30          8.821713   0.000000
     31          9.000421   0.000000
     32          9.575785   0.000000
     33          9.648898   0.000000
     34         10.287572   0.000000
     35         10.489214   0.000000
     36         10.627820   0.000000
     37         11.379625   0.000000
     38         11.842816   0.000000
     39         12.397176   0.000000
     40         12.570756   0.000000
     41         12.797713   0.000000
     42         12.923336   0.000000
     43         14.643660   0.000000
     44         14.922899   0.000000
     45         15.230714   0.000000
     46         15.989231   0.000000
     47         16.007214   0.000000
     48         16.298230   0.000000
 
  0.3500000E+00  0.3571429E-01  0.0000000E+00  0.3174603E-02
      1        -12.474112   1.000000
      2        -11.960233   1.000000
      3         -8.531178   1.000000
      4         -8.391414   1.000000
      5         -6.053948   1.000000
      6         -6.029858   1.000000
      7         -4.412867   1.000000
      8         -3.709018   1.000000
      9         -3.024434   1.000000
     10         -2.892162   1.000000
     11         -2.440121   1.000000
     12         -2.249059   1.000000
     13         -2.144600   1.000000
     14         -2.120162   1.000000
     15         -0.514365   1.000000
     16         -0.240293   1.000000
     17          0.178823   1.000000
     18          0.254626   1.000000
     19          0.620098   1.000000
     20          1.536857   1.000000
     21          1.668240   1.000000
     22          1.728368   0.999998
     23          5.704663   0.000000
     24          5.758054   0.000000
     25          6.505326   0.000000
     26          6.676058   0.000000
     27          6.704769   0.000000
     28          7.418632   0.000000
     29          8.364978   0.000000
     30          8.692287   0.000000
     31          8.810066   0.000000
     32          9.541580   0.000000
     33         10.056765   0.000000
     34         10.120624   0.000000
     35         10.400534   0.000000
     36         11.149856   0.000000
     37         11.407206   0.000000
     38         11.949604   0.000000
     39         12.206777   0.000000
     40         12.279087   0.000000
     41         12.524320   0.000000
     42         13.262876   0.000000
     43         14.718225   0.000000
     44         14.982199   0.000000
     45         15.269782   0.000000
     46         15.381061   0.000000
     47         15.580299   0.000000
     48         16.385001   0.000000
 
  0.4500000E+00  0.3571429E-01  0.0000000E+00  0.3174603E-02
      1        -12.319098   1.000000
      2        -12.142913   1.000000
      3         -8.465112   1.000000
      4         -8.414216   1.000000
      5         -6.143615   1.000000
      6         -6.139398   1.000000
      7         -3.896855   1.000000
      8         -3.501193   1.000000
      9         -3.297081   1.000000
     10         -3.263377   1.000000
     11         -2.357505   1.000000
     12         -2.229547   1.000000
     13         -1.959255   1.000000
     14         -1.904496   1.000000
     15         -0.736423   1.000000
     16         -0.600126   1.000000
     17          0.261761   1.000000
     18          0.295506   1.000000
     19          0.881012   1.000000
     20          1.198068   1.000000
     21          1.588159   1.000000
     22          1.615380   1.000000
     23          5.731649   0.000000
     24          5.768558   0.000000
     25          6.482971   0.000000
     26          6.546852   0.000000
     27          7.373828   0.000000
     28          8.079962   0.000000
     29          8.100724   0.000000
     30          8.481938   0.000000
     31          8.620042   0.000000
     32          8.795948   0.000000
     33         10.503614   0.000000
     34         10.519329   0.000000
     35         10.762773   0.000000
     36         11.221692   0.000000
     37         11.405289   0.000000
     38         11.601746   0.000000
     39         11.935059   0.000000
     40         12.484881   0.000000
     41         12.720077   0.000000
     42         13.257629   0.000000
     43         14.595590   0.000000
     44         14.740699   0.000000
     45         14.873678   0.000000
     46         14.934332   0.000000
     47         16.110847   0.000000
     48         16.455390   0.000000
 
  0.5000000E-01  0.1071429E+00  0.0000000E+00  0.3174603E-02
      1        -12.703481   1.000000
      2        -11.561617   1.000000
      3         -8.639441   1.000000
      4         -8.398212   1.000000
      5         -6.035246   1.000000
      6         -5.094403   1.000000
      7         -4.641237   1.000000
      8         -4.570136   1.000000
      9         -4.174284   1.000000
     10         -3.517868   1.000000
     11         -3.285784   1.000000
     12         -1.791007   1.000000
     13         -1.084968   1.000000
     14         -1.030983   1.000000
     15         -0.297015   1.000000
     16         -0.268695   1.000000
     17          0.176205   1.000000
     18          0.253872   1.000000
     19          0.652729   1.000000
     20          1.756873   0.999922
     21          1.838021   0.931262
     22          2.275902   0.000000
     23          5.582038   0.000000
     24          5.713340   0.000000
     25          5.747968   0.000000
     26          6.015486   0.000000
     27          7.107393   0.000000
     28          7.837734   0.000000
     29          8.077346   0.000000
     30          8.191922   0.000000
     31          8.806685   0.000000
     32          9.097966   0.000000
     33          9.148973   0.000000
     34         10.578030   0.000000
     35         11.273667   0.000000
     36         11.400904   0.000000
     37         11.606971   0.000000
     38         11.887135   0.000000
     39         12.055367   0.000000
     40         12.687183   0.000000
     41         12.873797   0.000000
     42         13.198761   0.000000
     43         13.202368   0.000000
     44         15.335505   0.000000
     45         15.386971   0.000000
     46         15.865841   0.000000
     47         15.874941   0.000000
     48         16.229260   0.000000
 
  0.1500000E+00  0.1071429E+00  0.0000000E+00  0.3174603E-02
      1        -12.659745   1.000000
      2        -11.635252   1.000000
      3         -8.618025   1.000000
      4         -8.386967   1.000000
      5         -5.965577   1.000000
      6         -5.439195   1.000000
      7         -4.765985   1.000000
      8         -4.487493   1.000000
      9         -3.749568   1.000000
     10         -3.366188   1.000000
     11         -3.165284   1.000000
     12         -1.769419   1.000000
     13         -1.391940   1.000000
     14         -1.150069   1.000000
     15         -0.257864   1.000000
     16         -0.189252   1.000000
     17          0.143332   1.000000
     18          0.225942   1.000000
     19          0.548113   1.000000
     20          1.676575   1.000000
     21          1.760563   0.999882
     22          2.145033   0.000000
     23          5.658521   0.000000
     24          5.811200   0.000000
     25          5.942167   0.000000
     26          6.117856   0.000000
     27          7.022794   0.000000
     28          7.511884   0.000000
     29          8.223572   0.000000
     30          8.361836   0.000000
     31          9.129100   0.000000
     32          9.161330   0.000000
     33          9.415464   0.000000
     34         10.503790   0.000000
     35         10.880757   0.000000
     36         11.088795   0.000000
     37         11.455589   0.000000
     38         11.873887   0.000000
     39         12.275813   0.000000
     40         12.742461   0.000000
     41         12.873116   0.000000
     42         13.157363   0.000000
     43         13.735605   0.000000
     44         14.957970   0.000000
     45         15.404820   0.000000
     46         15.756660   0.000000
     47         15.802332   0.000000
     48         16.409042   0.000000
 
  0.2500000E+00  0.1071429E+00  0.0000000E+00  0.3174603E-02
      1        -12.574048   1.000000
      2        -11.768237   1.000000
      3         -8.573855   1.000000
      4         -8.372573   1.000000
      5         -5.941676   1.000000
      6         -5.765688   1.000000
      7         -4.723003   1.000000
      8         -4.378541   1.000000
      9         -3.487912   1.000000
     10         -3.222539   1.000000
     11         -2.698061   1.000000
     12         -1.897446   1.000000
     13         -1.724688   1.000000
     14         -1.312729   1.000000
     15         -0.216585   1.000000
     16         -0.210745   1.000000
     17          0.059067   1.000000
     18          0.213486   1.000000
     19          0.471312   1.000000
     20          1.542524   1.000000
     21          1.631333   1.000000
     22          1.897154   0.425728
     23          5.862240   0.000000
     24          5.939657   0.000000
     25          6.017730   0.000000
     26          6.566653   0.000000
     27          6.901143   0.000000
     28          7.284208   0.000000
     29          8.430926   0.000000
     30          8.494767   0.000000
     31          9.100835   0.000000
     32          9.613929   0.000000
     33          9.874993   0.000000
     34         10.132001   0.000000
     35         10.359264   0.000000
     36         10.824535   0.000000
     37         11.522208   0.000000
     38         12.109185   0.000000
     39         12.312941   0.000000
     40         12.559739   0.000000
     41         12.962992   0.000000
     42         13.028114   0.000000
     43         14.313521   0.000000
     44         15.090229   0.000000
     45         15.168609   0.000000
     46         15.652109   0.000000
     47         15.715135   0.000000
     48         16.428517   0.000000
 
  0.3500000E+00  0.1071429E+00  0.0000000E+00  0.3174603E-02
      1        -12.450530   1.000000
      2        -11.937880   1.000000
      3         -8.511843   1.000000
      4         -8.370245   1.000000
      5         -6.021437   1.000000
      6         -5.998439   1.000000
      7         -4.398021   1.000000
      8         -4.231594   1.000000
      9         -3.659400   1.000000
     10         -2.842394   1.000000
     11         -2.358216   1.000000
     12         -2.214519   1.000000
     13         -1.660388   1.000000
     14         -1.475635   1.000000
     15         -0.476235   1.000000
     16         -0.302842   1.000000
     17          0.090176   1.000000
     18          0.119985   1.000000
     19          0.630817   1.000000
     20          1.402645   1.000000
     21          1.485409   1.000000
     22          1.573041   1.000000
     23          5.879263   0.000000
     24          6.013309   0.000000
     25          6.523103   0.000000
     26          6.810512   0.000000
     27          6.883606   0.000000
     28          7.376934   0.000000
     29          8.421852   0.000000
     30          8.601889   0.000000
     31          8.940395   0.000000
     32          9.377766   0.000000
     33         10.075777   0.000000
     34         10.099382   0.000000
     35         10.443047   0.000000
     36         11.226696   0.000000
     37         11.366808   0.000000
     38         11.844180   0.000000
     39         12.295803   0.000000
     40         12.549065   0.000000
     41         12.724863   0.000000
     42         13.465427   0.000000
     43         14.773048   0.000000
     44         14.779065   0.000000
     45         15.159459   0.000000
     46         15.313230   0.000000
     47         15.657904   0.000000
     48         16.397831   0.000000
 
  0.4500000E+00  0.1071429E+00  0.0000000E+00  0.3174603E-02
      1        -12.295870   1.000000
      2        -12.120182   1.000000
      3         -8.445404   1.000000
      4         -8.393880   1.000000
      5         -6.111592   1.000000
      6         -6.106764   1.000000
      7         -4.052589   1.000000
      8         -3.889799   1.000000
      9         -3.848943   1.000000
     10         -3.283957   1.000000
     11         -2.103203   1.000000
     12         -1.909269   1.000000
     13         -1.592418   1.000000
     14         -1.588514   1.000000
     15         -0.697976   1.000000
     16         -0.596128   1.000000
     17          0.122409   1.000000
     18          0.153811   1.000000
     19          0.890440   1.000000
     20          1.204602   1.000000
     21          1.349026   1.000000
     22          1.373131   1.000000
     23          5.929702   0.000000
     24          5.995392   0.000000
     25          6.798994   0.000000
     26          6.849566   0.000000
     27          7.190421   0.000000
     28          7.902987   0.000000
     29          7.948481   0.000000
     30          8.630946   0.000000
     31          8.693912   0.000000
     32          8.806366   0.000000
     33         10.322621   0.000000
     34         10.570086   0.000000
     35         10.807257   0.000000
     36         10.912065   0.000000
     37         11.552541   0.000000
     38         11.661145   0.000000
     39         12.014266   0.000000
     40         12.654165   0.000000
     41         13.029334   0.000000
     42         13.489623   0.000000
     43         14.553958   0.000000
     44         14.738695   0.000000
     45         14.836469   0.000000
     46         15.054295   0.000000
     47         16.134854   0.000000
     48         16.429870   0.000000
 
  0.5000000E-01  0.1785714E+00  0.0000000E+00  0.3174603E-02
      1        -12.658986   1.000000
      2        -11.521361   1.000000
      3         -8.604950   1.000000
      4         -8.355464   1.000000
      5         -5.985908   1.000000
      6         -5.128007   1.000000
      7         -5.003943   1.000000
      8         -4.599597   1.000000
      9         -4.157345   1.000000
     10         -3.907938   1.000000
     11         -3.464099   1.000000
     12         -1.200382   1.000000
     13         -1.075833   1.000000
     14         -0.640734   1.000000
     15         -0.534133   1.000000
     16         -0.170645   1.000000
     17          0.197137   1.000000
     18          0.307095   1.000000
     19          0.730715   1.000000
     20          1.374898   1.000000
     21          1.439517   1.000000
     22          2.313946   0.000000
     23          5.292867   0.000000
     24          5.458921   0.000000
     25          6.128179   0.000000
     26          6.204263   0.000000
     27          7.541634   0.000000
     28          7.625104   0.000000
     29          8.320013   0.000000
     30          8.727865   0.000000
     31          8.886124   0.000000
     32          9.240439   0.000000
     33          9.370335   0.000000
     34         10.888011   0.000000
     35         11.324375   0.000000
     36         11.578575   0.000000
     37         11.701949   0.000000
     38         12.088520   0.000000
     39         12.272234   0.000000
     40         12.751758   0.000000
     41         12.766899   0.000000
     42         13.010945   0.000000
     43         13.227809   0.000000
     44         14.682950   0.000000
     45         15.166790   0.000000
     46         15.347864   0.000000
     47         15.436527   0.000000
     48         15.968823   0.000000
 
  0.1500000E+00  0.1785714E+00  0.0000000E+00  0.3174603E-02
      1        -12.615415   1.000000
      2        -11.594892   1.000000
      3         -8.583167   1.000000
      4         -8.344958   1.000000
      5         -5.912644   1.000000
      6         -5.390838   1.000000
      7         -5.030225   1.000000
      8         -4.728058   1.000000
      9         -3.974240   1.000000
     10         -3.706637   1.000000
     11         -3.125259   1.000000
     12         -1.383740   1.000000
     13         -1.173951   1.000000
     14         -0.748506   1.000000
     15         -0.496628   1.000000
     16         -0.090061   1.000000
     17          0.177434   1.000000
     18          0.251122   1.000000
     19          0.617222   1.000000
     20          1.295999   1.000000
     21          1.368624   1.000000
     22          2.178946   0.000000
     23          5.373117   0.000000
     24          5.804465   0.000000
     25          6.149247   0.000000
     26          6.242894   0.000000
     27          7.461226   0.000000
     28          7.782010   0.000000
     29          8.052230   0.000000
     30          8.819809   0.000000
     31          9.252878   0.000000
     32          9.288940   0.000000
     33          9.655134   0.000000
     34         10.523274   0.000000
     35         10.786087   0.000000
     36         11.278455   0.000000
     37         11.720407   0.000000
     38         12.201262   0.000000
     39         12.435772   0.000000
     40         12.505359   0.000000
     41         13.168347   0.000000
     42         13.276088   0.000000
     43         13.444115   0.000000
     44         14.693536   0.000000
     45         14.826723   0.000000
     46         15.286751   0.000000
     47         15.499498   0.000000
     48         15.994745   0.000000
 
  0.2500000E+00  0.1785714E+00  0.0000000E+00  0.3174603E-02
      1        -12.530090   1.000000
      2        -11.727489   1.000000
      3         -8.538512   1.000000
      4         -8.332181   1.000000
      5         -5.883323   1.000000
      6         -5.710847   1.000000
      7         -4.938428   1.000000
      8         -4.692043   1.000000
      9         -4.097751   1.000000
     10         -3.172375   1.000000
     11         -2.653882   1.000000
     12         -1.881557   1.000000
     13         -1.133295   1.000000
     14         -0.887699   1.000000
     15         -0.444260   1.000000
     16         -0.081697   1.000000
     17          0.018758   1.000000
     18          0.262867   1.000000
     19          0.501102   1.000000
     20          1.164330   1.000000
     21          1.250233   1.000000
     22          1.921438   0.191026
     23          5.694495   0.000000
     24          6.102008   0.000000
     25          6.280873   0.000000
     26          6.372417   0.000000
     27          7.357307   0.000000
     28          7.862716   0.000000
     29          8.017210   0.000000
     30          8.948737   0.000000
     31          9.247456   0.000000
     32          9.720646   0.000000
     33          9.857780   0.000000
     34         10.139304   0.000000
     35         10.258055   0.000000
     36         11.063067   0.000000
     37         11.589694   0.000000
     38         12.107767   0.000000
     39         12.512781   0.000000
     40         12.805552   0.000000
     41         13.048660   0.000000
     42         13.450851   0.000000
     43         13.967746   0.000000
     44         14.600992   0.000000
     45         14.876125   0.000000
     46         15.306763   0.000000
     47         15.518816   0.000000
     48         16.205068   0.000000
 
  0.3500000E+00  0.1785714E+00  0.0000000E+00  0.3174603E-02
      1        -12.407072   1.000000
      2        -11.896528   1.000000
      3         -8.476046   1.000000
      4         -8.331263   1.000000
      5         -5.961182   1.000000
      6         -5.940517   1.000000
      7         -4.801491   1.000000
      8         -4.371291   1.000000
      9         -4.261864   1.000000
     10         -2.803597   1.000000
     11         -2.317388   1.000000
     12         -2.172881   1.000000
     13         -1.076697   1.000000
     14         -1.024509   1.000000
     15         -0.450067   1.000000
     16         -0.368090   1.000000
     17          0.061791   1.000000
     18          0.066537   1.000000
     19          0.648674   1.000000
     20          1.034621   1.000000
     21          1.117698   1.000000
     22          1.586993   1.000000
     23          6.112692   0.000000
     24          6.229368   0.000000
     25          6.404216   0.000000
     26          6.807987   0.000000
     27          7.301416   0.000000
     28          7.784585   0.000000
     29          8.074335   0.000000
     30          9.048564   0.000000
     31          9.108986   0.000000
     32          9.179524   0.000000
     33          9.891126   0.000000
     34         10.187923   0.000000
     35         10.702825   0.000000
     36         11.080414   0.000000
     37         11.325979   0.000000
     38         11.953037   0.000000
     39         12.358622   0.000000
     40         12.989736   0.000000
     41         13.039700   0.000000
     42         13.796513   0.000000
     43         14.386967   0.000000
     44         14.405139   0.000000
     45         15.036830   0.000000
     46         15.129921   0.000000
     47         15.619075   0.000000
     48         16.381565   0.000000
 
  0.4500000E+00  0.1785714E+00  0.0000000E+00  0.3174603E-02
      1        -12.252919   1.000000
      2        -12.077951   1.000000
      3         -8.408951   1.000000
      4         -8.356225   1.000000
      5         -6.051812   1.000000
      6         -6.046032   1.000000
      7         -4.633595   1.000000
      8         -4.447998   1.000000
      9         -3.858207   1.000000
     10         -3.260956   1.000000
     11         -2.034333   1.000000
     12         -1.868311   1.000000
     13         -1.096448   1.000000
     14         -1.035455   1.000000
     15         -0.625164   1.000000
     16         -0.619337   1.000000
     17          0.012638   1.000000
     18          0.056146   1.000000
     19          0.906224   1.000000
     20          0.972733   1.000000
     21          1.013492   1.000000
     22          1.233610   1.000000
     23          6.203712   0.000000
     24          6.322501   0.000000
     25          6.882500   0.000000
     26          7.221181   0.000000
     27          7.279086   0.000000
     28          7.626998   0.000000
     29          7.933368   0.000000
     30          8.446097   0.000000
     31          9.104177   0.000000
     32          9.135421   0.000000
     33         10.014005   0.000000
     34         10.486318   0.000000
     35         10.710140   0.000000
     36         10.980727   0.000000
     37         11.733175   0.000000
     38         11.751796   0.000000
     39         12.135252   0.000000
     40         12.912048   0.000000
     41         13.420572   0.000000
     42         13.768553   0.000000
     43         14.234170   0.000000
     44         14.389529   0.000000
     45         15.000288   0.000000
     46         15.140711   0.000000
     47         15.998074   0.000000
     48         16.302719   0.000000
 
  0.5000000E-01  0.2500000E+00  0.0000000E+00  0.3174603E-02
      1        -12.601124   1.000000
      2        -11.469584   1.000000
      3         -8.560813   1.000000
      4         -8.300023   1.000000
      5         -5.921540   1.000000
      6         -5.609740   1.000000
      7         -4.933183   1.000000
      8         -4.542913   1.000000
      9         -4.428877   1.000000
     10         -4.117550   1.000000
     11         -3.401631   1.000000
     12         -1.213352   1.000000
     13         -1.062101   1.000000
     14         -0.994914   1.000000
     15         -0.188067   1.000000
     16          0.225455   1.000000
     17          0.350326   1.000000
     18          0.601460   1.000000
     19          0.793979   1.000000
     20          0.990885   1.000000
     21          1.005587   1.000000
     22          2.348609   0.000000
     23          4.949139   0.000000
     24          5.164958   0.000000
     25          6.364466   0.000000
     26          6.590258   0.000000
     27          7.266424   0.000000
     28          7.972375   0.000000
     29          8.701777   0.000000
     30          9.061357   0.000000
     31          9.465062   0.000000
     32          9.584502   0.000000
     33          9.652844   0.000000
     34         10.750972   0.000000
     35         11.276662   0.000000
     36         11.970769   0.000000
     37         12.018737   0.000000
     38         12.298765   0.000000
     39         12.429880   0.000000
     40         12.452034   0.000000
     41         12.570392   0.000000
     42         12.995196   0.000000
     43         13.799742   0.000000
     44         13.884293   0.000000
     45         14.421715   0.000000
     46         15.108119   0.000000
     47         15.408870   0.000000
     48         15.866130   0.000000
 
  0.1500000E+00  0.2500000E+00  0.0000000E+00  0.3174603E-02
      1        -12.557976   1.000000
      2        -11.542788   1.000000
      3         -8.538528   1.000000
      4         -8.290529   1.000000
      5         -5.843750   1.000000
      6         -5.574765   1.000000
      7         -5.270901   1.000000
      8         -4.678054   1.000000