<?xml version="1.0" encoding="ISO-8859-1"?>
<modeling>
 <generator>
  <i name="program" type="string">vasp </i>
  <i name="version" type="string">6.4.3  </i>
  <i name="subversion" type="string">19Mar24 (build May 31 2024 16:31:43) complex                          parallel </i>
  <i name="platform" type="string">LinuxIFC </i>
  <i name="date" type="string">2024 10 30 </i>
  <i name="time" type="string">19:27:18 </i>
 </generator>
 <incar>
  <i type="string" name="SYSTEM">Kpoints</i>
  <i type="int" name="ISTART">     0</i>
  <i type="string" name="PREC">Accurate</i>
  <i type="string" name="ALGO">Normal</i>
  <i type="int" name="ISPIN">     1</i>
  <i type="int" name="ICHARG">     2</i>
  <i type="int" name="NELM">   100</i>
  <i type="int" name="IBRION">    -1</i>
  <i name="EDIFF">      0.00000100</i>
  <i name="EDIFFG">     -0.00100000</i>
  <i type="int" name="NSW">     0</i>
  <i type="int" name="ISIF">     2</i>
  <i name="ENCUT">    620.00000000</i>
  <i name="POTIM">      0.50000000</i>
  <i type="int" name="ISMEAR">     0</i>
  <i name="SIGMA">      0.05000000</i>
  <i type="logical" name="LWAVE"> F  </i>
  <i type="logical" name="LCHARG"> F  </i>
  <i type="string" name="GGA">PE</i>
 </incar>
 <primitive_cell>
  <structure name="primitive_cell" >
   <crystal>
    <varray name="basis" >
     <v>       5.69700000       0.00000000       0.00000000 </v>
     <v>       0.00000000       4.04790000       0.00000000 </v>
     <v>       0.00000000       0.00000000       6.20420000 </v>
    </varray>
    <i name="volume">    143.07435078 </i>
    <varray name="rec_basis" >
     <v>       0.17553098       0.00000000       0.00000000 </v>
     <v>       0.00000000       0.24704168       0.00000000 </v>
     <v>       0.00000000       0.00000000       0.16118114 </v>
    </varray>
   </crystal>
   <varray name="positions" >
    <v>       0.52123000       0.50000000       0.63796000 </v>
    <v>       0.47877000       0.50000000       0.36204000 </v>
    <v>       0.97877000       0.50000000       0.63796000 </v>
    <v>       0.02123000       0.50000000       0.36204000 </v>
    <v>       0.60090000       0.50000000       0.89991000 </v>
    <v>       0.39910000       0.50000000       0.10009000 </v>
    <v>       0.89910000       0.50000000       0.89991000 </v>
    <v>       0.10090000       0.50000000       0.10009000 </v>
    <v>       0.75000000       0.79171000       0.72973000 </v>
    <v>       0.25000000       0.20829000       0.27027000 </v>
    <v>       0.75000000       0.20829000       0.72973000 </v>
    <v>       0.25000000       0.79171000       0.27027000 </v>
    <v>       0.25000000       0.50000000       0.52367000 </v>
    <v>       0.75000000       0.50000000       0.47633000 </v>
   </varray>
  </structure>
  <varray name="primitive_index" >
   <v type="int" >        1 </v>
   <v type="int" >        2 </v>
   <v type="int" >        3 </v>
   <v type="int" >        4 </v>
   <v type="int" >        5 </v>
   <v type="int" >        6 </v>
   <v type="int" >        7 </v>
   <v type="int" >        8 </v>
   <v type="int" >        9 </v>
   <v type="int" >       10 </v>
   <v type="int" >       11 </v>
   <v type="int" >       12 </v>
   <v type="int" >       13 </v>
   <v type="int" >       14 </v>
  </varray>
 </primitive_cell>
 <kpoints>
  <generation param="Monkhorst-Pack">
   <v type="int" name="divisions">      10       14        9 </v>
   <v name="usershift">      0.00000000       0.00000000       0.00000000 </v>
   <v name="genvec1">      0.10000000       0.00000000       0.00000000 </v>
   <v name="genvec2">      0.00000000       0.07142857       0.00000000 </v>
   <v name="genvec3">      0.00000000       0.00000000       0.11111111 </v>
   <v name="shift">      0.50000000       0.50000000       0.00000000 </v>
  </generation>
  <varray name="kpointlist" >
   <v>       0.05000000       0.03571429       0.00000000 </v>
   <v>       0.15000000       0.03571429       0.00000000 </v>
   <v>       0.25000000       0.03571429       0.00000000 </v>
   <v>       0.35000000       0.03571429       0.00000000 </v>
   <v>       0.45000000       0.03571429       0.00000000 </v>
   <v>       0.05000000       0.10714286       0.00000000 </v>
   <v>       0.15000000       0.10714286       0.00000000 </v>
   <v>       0.25000000       0.10714286       0.00000000 </v>
   <v>       0.35000000       0.10714286       0.00000000 </v>
   <v>       0.45000000       0.10714286       0.00000000 </v>
   <v>       0.05000000       0.17857143       0.00000000 </v>
   <v>       0.15000000       0.17857143       0.00000000 </v>
   <v>       0.25000000       0.17857143       0.00000000 </v>
   <v>       0.35000000       0.17857143       0.00000000 </v>
   <v>       0.45000000       0.17857143       0.00000000 </v>
   <v>       0.05000000       0.25000000       0.00000000 </v>
   <v>       0.15000000       0.25000000       0.00000000 </v>
   <v>       0.25000000       0.25000000       0.00000000 </v>
   <v>       0.35000000       0.25000000       0.00000000 </v>
   <v>       0.45000000       0.25000000       0.00000000 </v>
   <v>       0.05000000       0.32142857       0.00000000 </v>
   <v>       0.15000000       0.32142857       0.00000000 </v>
   <v>       0.25000000       0.32142857       0.00000000 </v>
   <v>       0.35000000       0.32142857       0.00000000 </v>
   <v>       0.45000000       0.32142857       0.00000000 </v>
   <v>       0.05000000       0.39285714       0.00000000 </v>
   <v>       0.15000000       0.39285714       0.00000000 </v>
   <v>       0.25000000       0.39285714       0.00000000 </v>
   <v>       0.35000000       0.39285714       0.00000000 </v>
   <v>       0.45000000       0.39285714       0.00000000 </v>
   <v>       0.05000000       0.46428571       0.00000000 </v>
   <v>       0.15000000       0.46428571       0.00000000 </v>
   <v>       0.25000000       0.46428571       0.00000000 </v>
   <v>       0.35000000       0.46428571       0.00000000 </v>
   <v>       0.45000000       0.46428571       0.00000000 </v>
   <v>       0.05000000       0.03571429       0.11111111 </v>
   <v>       0.15000000       0.03571429       0.11111111 </v>
   <v>       0.25000000       0.03571429       0.11111111 </v>
   <v>       0.35000000       0.03571429       0.11111111 </v>
   <v>       0.45000000       0.03571429       0.11111111 </v>
   <v>       0.05000000       0.10714286       0.11111111 </v>
   <v>       0.15000000       0.10714286       0.11111111 </v>
   <v>       0.25000000       0.10714286       0.11111111 </v>
   <v>       0.35000000       0.10714286       0.11111111 </v>
   <v>       0.45000000       0.10714286       0.11111111 </v>
   <v>       0.05000000       0.17857143       0.11111111 </v>
   <v>       0.15000000       0.17857143       0.11111111 </v>
   <v>       0.25000000       0.17857143       0.11111111 </v>
   <v>       0.35000000       0.17857143       0.11111111 </v>
   <v>       0.45000000       0.17857143       0.11111111 </v>
   <v>       0.05000000       0.25000000       0.11111111 </v>
   <v>       0.15000000       0.25000000       0.11111111 </v>
   <v>       0.25000000       0.25000000       0.11111111 </v>
   <v>       0.35000000       0.25000000       0.11111111 </v>
   <v>       0.45000000       0.25000000       0.11111111 </v>
   <v>       0.05000000       0.32142857       0.11111111 </v>
   <v>       0.15000000       0.32142857       0.11111111 </v>
   <v>       0.25000000       0.32142857       0.11111111 </v>
   <v>       0.35000000       0.32142857       0.11111111 </v>
   <v>       0.45000000       0.32142857       0.11111111 </v>
   <v>       0.05000000       0.39285714       0.11111111 </v>
   <v>       0.15000000       0.39285714       0.11111111 </v>
   <v>       0.25000000       0.39285714       0.11111111 </v>
   <v>       0.35000000       0.39285714       0.11111111 </v>
   <v>       0.45000000       0.39285714       0.11111111 </v>
   <v>       0.05000000       0.46428571       0.11111111 </v>
   <v>       0.15000000       0.46428571       0.11111111 </v>
   <v>       0.25000000       0.46428571       0.11111111 </v>
   <v>       0.35000000       0.46428571       0.11111111 </v>
   <v>       0.45000000       0.46428571       0.11111111 </v>
   <v>       0.05000000       0.03571429       0.22222222 </v>
   <v>       0.15000000       0.03571429       0.22222222 </v>
   <v>       0.25000000       0.03571429       0.22222222 </v>
   <v>       0.35000000       0.03571429       0.22222222 </v>
   <v>       0.45000000       0.03571429       0.22222222 </v>
   <v>       0.05000000       0.10714286       0.22222222 </v>
   <v>       0.15000000       0.10714286       0.22222222 </v>
   <v>       0.25000000       0.10714286       0.22222222 </v>
   <v>       0.35000000       0.10714286       0.22222222 </v>
   <v>       0.45000000       0.10714286       0.22222222 </v>
   <v>       0.05000000       0.17857143       0.22222222 </v>
   <v>       0.15000000       0.17857143       0.22222222 </v>
   <v>       0.25000000       0.17857143       0.22222222 </v>
   <v>       0.35000000       0.17857143       0.22222222 </v>
   <v>       0.45000000       0.17857143       0.22222222 </v>
   <v>       0.05000000       0.25000000       0.22222222 </v>
   <v>       0.15000000       0.25000000       0.22222222 </v>
   <v>       0.25000000       0.25000000       0.22222222 </v>
   <v>       0.35000000       0.25000000       0.22222222 </v>
   <v>       0.45000000       0.25000000       0.22222222 </v>
   <v>       0.05000000       0.32142857       0.22222222 </v>
   <v>       0.15000000       0.32142857       0.22222222 </v>
   <v>       0.25000000       0.32142857       0.22222222 </v>
   <v>       0.35000000       0.32142857       0.22222222 </v>
   <v>       0.45000000       0.32142857       0.22222222 </v>
   <v>       0.05000000       0.39285714       0.22222222 </v>
   <v>       0.15000000       0.39285714       0.22222222 </v>
   <v>       0.25000000       0.39285714       0.22222222 </v>
   <v>       0.35000000       0.39285714       0.22222222 </v>
   <v>       0.45000000       0.39285714       0.22222222 </v>
   <v>       0.05000000       0.46428571       0.22222222 </v>
   <v>       0.15000000       0.46428571       0.22222222 </v>
   <v>       0.25000000       0.46428571       0.22222222 </v>
   <v>       0.35000000       0.46428571       0.22222222 </v>
   <v>       0.45000000       0.46428571       0.22222222 </v>
   <v>       0.05000000       0.03571429       0.33333333 </v>
   <v>       0.15000000       0.03571429       0.33333333 </v>
   <v>       0.25000000       0.03571429       0.33333333 </v>
   <v>       0.35000000       0.03571429       0.33333333 </v>
   <v>       0.45000000       0.03571429       0.33333333 </v>
   <v>       0.05000000       0.10714286       0.33333333 </v>
   <v>       0.15000000       0.10714286       0.33333333 </v>
   <v>       0.25000000       0.10714286       0.33333333 </v>
   <v>       0.35000000       0.10714286       0.33333333 </v>
   <v>       0.45000000       0.10714286       0.33333333 </v>
   <v>       0.05000000       0.17857143       0.33333333 </v>
   <v>       0.15000000       0.17857143       0.33333333 </v>
   <v>       0.25000000       0.17857143       0.33333333 </v>
   <v>       0.35000000       0.17857143       0.33333333 </v>
   <v>       0.45000000       0.17857143       0.33333333 </v>
   <v>       0.05000000       0.25000000       0.33333333 </v>
   <v>       0.15000000       0.25000000       0.33333333 </v>
   <v>       0.25000000       0.25000000       0.33333333 </v>
   <v>       0.35000000       0.25000000       0.33333333 </v>
   <v>       0.45000000       0.25000000       0.33333333 </v>
   <v>       0.05000000       0.32142857       0.33333333 </v>
   <v>       0.15000000       0.32142857       0.33333333 </v>
   <v>       0.25000000       0.32142857       0.33333333 </v>
   <v>       0.35000000       0.32142857       0.33333333 </v>
   <v>       0.45000000       0.32142857       0.33333333 </v>
   <v>       0.05000000       0.39285714       0.33333333 </v>
   <v>       0.15000000       0.39285714       0.33333333 </v>
   <v>       0.25000000       0.39285714       0.33333333 </v>
   <v>       0.35000000       0.39285714       0.33333333 </v>
   <v>       0.45000000       0.39285714       0.33333333 </v>
   <v>       0.05000000       0.46428571       0.33333333 </v>
   <v>       0.15000000       0.46428571       0.33333333 </v>
   <v>       0.25000000       0.46428571       0.33333333 </v>
   <v>       0.35000000       0.46428571       0.33333333 </v>
   <v>       0.45000000       0.46428571       0.33333333 </v>
   <v>       0.05000000       0.03571429       0.44444444 </v>
   <v>       0.15000000       0.03571429       0.44444444 </v>
   <v>       0.25000000       0.03571429       0.44444444 </v>
   <v>       0.35000000       0.03571429       0.44444444 </v>
   <v>       0.45000000       0.03571429       0.44444444 </v>
   <v>       0.05000000       0.10714286       0.44444444 </v>
   <v>       0.15000000       0.10714286       0.44444444 </v>
   <v>       0.25000000       0.10714286       0.44444444 </v>
   <v>       0.35000000       0.10714286       0.44444444 </v>
   <v>       0.45000000       0.10714286       0.44444444 </v>
   <v>       0.05000000       0.17857143       0.44444444 </v>
   <v>       0.15000000       0.17857143       0.44444444 </v>
   <v>       0.25000000       0.17857143       0.44444444 </v>
   <v>       0.35000000       0.17857143       0.44444444 </v>
   <v>       0.45000000       0.17857143       0.44444444 </v>
   <v>       0.05000000       0.25000000       0.44444444 </v>
   <v>       0.15000000       0.25000000       0.44444444 </v>
   <v>       0.25000000       0.25000000       0.44444444 </v>
   <v>       0.35000000       0.25000000       0.44444444 </v>
   <v>       0.45000000       0.25000000       0.44444444 </v>
   <v>       0.05000000       0.32142857       0.44444444 </v>
   <v>       0.15000000       0.32142857       0.44444444 </v>
   <v>       0.25000000       0.32142857       0.44444444 </v>
   <v>       0.35000000       0.32142857       0.44444444 </v>
   <v>       0.45000000       0.32142857       0.44444444 </v>
   <v>       0.05000000       0.39285714       0.44444444 </v>
   <v>       0.15000000       0.39285714       0.44444444 </v>
   <v>       0.25000000       0.39285714       0.44444444 </v>
   <v>       0.35000000       0.39285714       0.44444444 </v>
   <v>       0.45000000       0.39285714       0.44444444 </v>
   <v>       0.05000000       0.46428571       0.44444444 </v>
   <v>       0.15000000       0.46428571       0.44444444 </v>
   <v>       0.25000000       0.46428571       0.44444444 </v>
   <v>       0.35000000       0.46428571       0.44444444 </v>
   <v>       0.45000000       0.46428571       0.44444444 </v>
  </varray>
  <varray name="weights" >
   <v>       0.00317460 </v>
   <v>       0.00317460 </v>
   <v>       0.00317460 </v>
   <v>       0.00317460 </v>
   <v>       0.00317460 </v>
   <v>       0.00317460 </v>
   <v>       0.00317460 </v>
   <v>       0.00317460 </v>
   <v>       0.00317460 </v>
   <v>       0.00317460 </v>
   <v>       0.00317460 </v>
   <v>       0.00317460 </v>
   <v>       0.00317460 </v>
   <v>       0.00317460 </v>
   <v>       0.00317460 </v>
   <v>       0.00317460 </v>
   <v>       0.00317460 </v>
   <v>       0.00317460 </v>
   <v>       0.00317460 </v>
   <v>       0.00317460 </v>
   <v>       0.00317460 </v>
   <v>       0.00317460 </v>
   <v>       0.00317460 </v>
   <v>       0.00317460 </v>
   <v>       0.00317460 </v>
   <v>       0.00317460 </v>
   <v>       0.00317460 </v>
   <v>       0.00317460 </v>
   <v>       0.00317460 </v>
   <v>       0.00317460 </v>
   <v>       0.00317460 </v>
   <v>       0.00317460 </v>
   <v>       0.00317460 </v>
   <v>       0.00317460 </v>
   <v>       0.00317460 </v>
   <v>       0.00634921 </v>
   <v>       0.00634921 </v>
   <v>       0.00634921 </v>
   <v>       0.00634921 </v>
   <v>       0.00634921 </v>
   <v>       0.00634921 </v>
   <v>       0.00634921 </v>
   <v>       0.00634921 </v>
   <v>       0.00634921 </v>
   <v>       0.00634921 </v>
   <v>       0.00634921 </v>
   <v>       0.00634921 </v>
   <v>       0.00634921 </v>
   <v>       0.00634921 </v>
   <v>       0.00634921 </v>
   <v>       0.00634921 </v>
   <v>       0.00634921 </v>
   <v>       0.00634921 </v>
   <v>       0.00634921 </v>
   <v>       0.00634921 </v>
   <v>       0.00634921 </v>
   <v>       0.00634921 </v>
   <v>       0.00634921 </v>
   <v>       0.00634921 </v>
   <v>       0.00634921 </v>
   <v>       0.00634921 </v>
   <v>       0.00634921 </v>
   <v>       0.00634921 </v>
   <v>       0.00634921 </v>
   <v>       0.00634921 </v>
   <v>       0.00634921 </v>
   <v>       0.00634921 </v>
   <v>       0.00634921 </v>
   <v>       0.00634921 </v>
   <v>       0.00634921 </v>
   <v>       0.00634921 </v>
   <v>       0.00634921 </v>
   <v>       0.00634921 </v>
   <v>       0.00634921 </v>
   <v>       0.00634921 </v>
   <v>       0.00634921 </v>
   <v>       0.00634921 </v>
   <v>       0.00634921 </v>
   <v>       0.00634921 </v>
   <v>       0.00634921 </v>
   <v>       0.00634921 </v>
   <v>       0.00634921 </v>
   <v>       0.00634921 </v>
   <v>       0.00634921 </v>
   <v>       0.00634921 </v>
   <v>       0.00634921 </v>
   <v>       0.00634921 </v>
   <v>       0.00634921 </v>
   <v>       0.00634921 </v>
   <v>       0.00634921 </v>
   <v>       0.00634921 </v>
   <v>       0.00634921 </v>
   <v>       0.00634921 </v>
   <v>       0.00634921 </v>
   <v>       0.00634921 </v>
   <v>       0.00634921 </v>
   <v>       0.00634921 </v>
   <v>       0.00634921 </v>
   <v>       0.00634921 </v>
   <v>       0.00634921 </v>
   <v>       0.00634921 </v>
   <v>       0.00634921 </v>
   <v>       0.00634921 </v>
   <v>       0.00634921 </v>
   <v>       0.00634921 </v>
   <v>       0.00634921 </v>
   <v>       0.00634921 </v>
   <v>       0.00634921 </v>
   <v>       0.00634921 </v>
   <v>       0.00634921 </v>
   <v>       0.00634921 </v>
   <v>       0.00634921 </v>
   <v>       0.00634921 </v>
   <v>       0.00634921 </v>
   <v>       0.00634921 </v>
   <v>       0.00634921 </v>
   <v>       0.00634921 </v>
   <v>       0.00634921 </v>
   <v>       0.00634921 </v>
   <v>       0.00634921 </v>
   <v>       0.00634921 </v>
   <v>       0.00634921 </v>
   <v>       0.00634921 </v>
   <v>       0.00634921 </v>
   <v>       0.00634921 </v>
   <v>       0.00634921 </v>
   <v>       0.00634921 </v>
   <v>       0.00634921 </v>
   <v>       0.00634921 </v>
   <v>       0.00634921 </v>
   <v>       0.00634921 </v>
   <v>       0.00634921 </v>
   <v>       0.00634921 </v>
   <v>       0.00634921 </v>
   <v>       0.00634921 </v>
   <v>       0.00634921 </v>
   <v>       0.00634921 </v>
   <v>       0.00634921 </v>
   <v>       0.00634921 </v>
   <v>       0.00634921 </v>
   <v>       0.00634921 </v>
   <v>       0.00634921 </v>
   <v>       0.00634921 </v>
   <v>       0.00634921 </v>
   <v>       0.00634921 </v>
   <v>       0.00634921 </v>
   <v>       0.00634921 </v>
   <v>       0.00634921 </v>
   <v>       0.00634921 </v>
   <v>       0.00634921 </v>
   <v>       0.00634921 </v>
   <v>       0.00634921 </v>
   <v>       0.00634921 </v>
   <v>       0.00634921 </v>
   <v>       0.00634921 </v>
   <v>       0.00634921 </v>
   <v>       0.00634921 </v>
   <v>       0.00634921 </v>
   <v>       0.00634921 </v>
   <v>       0.00634921 </v>
   <v>       0.00634921 </v>
   <v>       0.00634921 </v>
   <v>       0.00634921 </v>
   <v>       0.00634921 </v>
   <v>       0.00634921 </v>
   <v>       0.00634921 </v>
   <v>       0.00634921 </v>
   <v>       0.00634921 </v>
   <v>       0.00634921 </v>
   <v>       0.00634921 </v>
   <v>       0.00634921 </v>
   <v>       0.00634921 </v>
   <v>       0.00634921 </v>
   <v>       0.00634921 </v>
   <v>       0.00634921 </v>
  </varray>
 </kpoints>
 <parameters>
  <separator name="general" >
   <i type="string" name="SYSTEM">Kpoints</i>
   <i type="logical" name="LCOMPAT"> F  </i>
  </separator>
  <separator name="electronic" >
   <i type="string" name="PREC">accura</i>
   <i name="ENMAX">    620.00000000</i>
   <i name="ENAUG">    535.51400000</i>
   <i name="EDIFF">      0.00000100</i>
   <i type="int" name="IALGO">    38</i>
   <i type="int" name="IWAVPR">    10</i>
   <i type="int" name="NBANDS">    48</i>
   <i type="int" name="NBANDSLOW">    -1</i>
   <i type="int" name="NBANDSHIGH">    -1</i>
   <i name="NELECT">     42.00000000</i>
   <i type="int" name="TURBO">     0</i>
   <i type="int" name="IRESTART">     0</i>
   <i type="int" name="NREBOOT">     0</i>
   <i type="int" name="NMIN">     0</i>
   <i name="EREF">      0.00000000</i>
   <separator name="electronic smearing" >
    <i type="int" name="ISMEAR">     0</i>
    <i name="SIGMA">      0.05000000</i>
    <i name="KSPACING">      0.50000000</i>
    <i type="logical" name="KGAMMA"> T  </i>
    <i type="logical" name="KBLOWUP"> T  </i>
   </separator>
   <separator name="electronic projectors" >
    <i type="logical" name="LREAL"> F  </i>
    <v name="ROPT">      0.00000000</v>
    <i type="int" name="LMAXPAW">  -100</i>
    <i type="int" name="LMAXMIX">     2</i>
    <i type="logical" name="NLSPLINE"> F  </i>
   </separator>
   <separator name="electronic startup" >
    <i type="int" name="ISTART">     0</i>
    <i type="int" name="ICHARG">     2</i>
    <i type="int" name="INIWAV">     1</i>
   </separator>
   <separator name="electronic spin" >
    <i type="int" name="ISPIN">     1</i>
    <i type="logical" name="LNONCOLLINEAR"> F  </i>
    <v name="MAGMOM">      1.00000000      1.00000000      1.00000000      1.00000000      1.00000000      1.00000000      1.00000000      1.00000000      1.00000000      1.00000000      1.00000000      1.00000000      1.00000000      1.00000000</v>
    <i name="NUPDOWN">     -1.00000000</i>
    <i type="logical" name="LSORBIT"> F  </i>
    <v name="SAXIS">      0.00000000      0.00000000      1.00000000</v>
    <i type="logical" name="LSPIRAL"> F  </i>
    <v name="QSPIRAL">      0.00000000      0.00000000      0.00000000</v>
    <i type="logical" name="LZEROZ"> F  </i>
   </separator>
   <separator name="electronic exchange-correlation" >
    <i type="logical" name="LASPH"> F  </i>
   </separator>
   <separator name="electronic convergence" >
    <i type="int" name="NELM">   100</i>
    <i type="int" name="NELMDL">    -5</i>
    <i type="int" name="NELMIN">     2</i>
    <i name="ENINI">    620.00000000</i>
    <separator name="electronic convergence detail" >
     <i type="logical" name="LDIAG"> T  </i>
     <i type="logical" name="LSUBROT"> F  </i>
     <i name="WEIMIN">      0.00000000</i>
     <i name="EBREAK">      0.00000001</i>
     <i name="DEPER">      0.30000000</i>
     <i type="int" name="NRMM">     4</i>
     <i name="TIME">      0.40000000</i>
    </separator>
   </separator>
   <separator name="electronic mixer" >
    <i name="AMIX">      0.40000000</i>
    <i name="BMIX">      1.00000000</i>
    <i name="AMIN">      0.10000000</i>
    <i name="AMIX_MAG">      1.60000000</i>
    <i name="BMIX_MAG">      1.00000000</i>
    <separator name="electronic mixer details" >
     <i type="int" name="IMIX">     4</i>
     <i type="logical" name="MIXFIRST"> F  </i>
     <i type="int" name="MAXMIX">   -45</i>
     <i name="WC">    100.00000000</i>
     <i type="int" name="INIMIX">     1</i>
     <i type="int" name="MIXPRE">     1</i>
     <i type="int" name="MREMOVE">     5</i>
    </separator>
   </separator>
   <separator name="electronic dipolcorrection" >
    <i type="logical" name="LDIPOL"> F  </i>
    <i type="logical" name="LMONO"> F  </i>
    <i type="int" name="IDIPOL">     0</i>
    <i name="EPSILON">      1.00000000</i>
    <v name="DIPOL">   -100.00000000   -100.00000000   -100.00000000</v>
    <i name="EFIELD">      0.00000000</i>
    <i type="logical" name="LVACPOTAV"> F  </i>
   </separator>
  </separator>
  <separator name="grids" >
   <i type="int" name="NGX">    48</i>
   <i type="int" name="NGY">    36</i>
   <i type="int" name="NGZ">    50</i>
   <i type="int" name="NGXF">    96</i>
   <i type="int" name="NGYF">    72</i>
   <i type="int" name="NGZF">   100</i>
   <i type="logical" name="ADDGRID"> F  </i>
  </separator>
  <separator name="ionic" >
   <i type="int" name="NSW">     0</i>
   <i type="int" name="IBRION">    -1</i>
   <i type="int" name="MDALGO">     0</i>
   <i type="int" name="ISIF">     2</i>
   <i name="PSTRESS">      0.00000000</i>
   <i name="EDIFFG">     -0.00100000</i>
   <i type="int" name="NFREE">     0</i>
   <i name="POTIM">      0.50000000</i>
   <i name="SMASS">     -3.00000000</i>
   <i name="SCALEE">      1.00000000</i>
  </separator>
  <separator name="ionic md" >
   <i name="TEBEG">      0.00010000</i>
   <i name="TEEND">      0.00010000</i>
   <i type="int" name="NBLOCK">     1</i>
   <i type="int" name="KBLOCK">     1</i>
   <i type="int" name="NPACO">   256</i>
   <i name="APACO">     10.00000000</i>
  </separator>
  <separator name="symmetry" >
   <i type="int" name="ISYM">     2</i>
   <i name="SYMPREC">      0.00001000</i>
  </separator>
  <separator name="dos" >
   <i type="int" name="LORBIT">     0</i>
   <v name="RWIGS">     -1.00000000</v>
   <i type="int" name="NEDOS">   301</i>
   <i name="EMIN">     10.00000000</i>
   <i name="EMAX">    -10.00000000</i>
   <i name="EFERMI">      0.00000000</i>
  </separator>
  <separator name="writing" >
   <i type="int" name="NWRITE">     2</i>
   <i type="logical" name="LWAVE"> F  </i>
   <i type="logical" name="LDOWNSAMPLE"> F  </i>
   <i type="logical" name="LCHARG"> F  </i>
   <i type="logical" name="LPARD"> F  </i>
   <i type="logical" name="LVTOT"> F  </i>
   <i type="logical" name="LVHAR"> F  </i>
   <i type="logical" name="LELF"> F  </i>
   <i type="logical" name="LOPTICS"> F  </i>
   <v name="STM">      0.00000000      0.00000000      0.00000000      0.00000000      0.00000000      0.00000000      0.00000000</v>
  </separator>
  <separator name="performance" >
   <i type="int" name="NPAR">    24</i>
   <i type="int" name="NSIM">     4</i>
   <i type="int" name="NBLK">    -1</i>
   <i type="logical" name="LPLANE"> T  </i>
   <i type="logical" name="LSCALAPACK"> T  </i>
   <i type="logical" name="LSCAAWARE"> F  </i>
   <i type="logical" name="LSCALU"> F  </i>
   <i type="logical" name="LASYNC"> F  </i>
   <i type="logical" name="LORBITALREAL"> F  </i>
  </separator>
  <separator name="miscellaneous" >
   <i type="int" name="IDIOT">     3</i>
   <i type="int" name="PHON_NSTRUCT">    -1</i>
   <i type="logical" name="LMUSIC"> F  </i>
   <v name="POMASS">     10.81100000</v>
   <v name="DARWINR">      0.00000000</v>
   <v name="DARWINV">      1.00000000</v>
   <i type="logical" name="LCORR"> T  </i>
  </separator>
  <i type="logical" name="GGA_COMPAT"> T  </i>
  <i type="logical" name="LBERRY"> F  </i>
  <i type="int" name="ICORELEVEL">     0</i>
  <i type="logical" name="LDAU"> F  </i>
  <i type="int" name="I_CONSTRAINED_M">     0</i>
  <separator name="electronic exchange-correlation" >
   <i type="string" name="GGA    ">PE</i>
   <i type="string" name="XC_C">1</i>
   <i type="int" name="VOSKOWN">     0</i>
   <i type="logical" name="LHFCALC"> F  </i>
   <i type="string" name="PRECFOCK"></i>
   <i type="logical" name="LSYMGRAD"> F  </i>
   <i type="logical" name="LHFONE"> F  </i>
   <i type="logical" name="LRHFCALC"> F  </i>
   <i type="logical" name="LTHOMAS"> F  </i>
   <i type="logical" name="LMODELHF"> F  </i>
   <i type="logical" name="LFOCKACE"> F  </i>
   <i name="ENCUT4O">     -1.00000000</i>
   <i type="int" name="EXXOEP">     0</i>
   <i type="int" name="FOURORBIT">     0</i>
   <i name="AEXX">      0.00000000</i>
   <i name="HFALPHA">      0.00000000</i>
   <i name="MCALPHA">      0.00000000</i>
   <i name="ALDAX">      1.00000000</i>
   <i name="AGGAX">      1.00000000</i>
   <i name="AMGGAX">      1.00000000</i>
   <i name="ALDAC">      1.00000000</i>
   <i name="AGGAC">      1.00000000</i>
   <i name="AMGGAC">      1.00000000</i>
   <i type="int" name="NKREDX">     1</i>
   <i type="int" name="NKREDY">     1</i>
   <i type="int" name="NKREDZ">     1</i>
   <i type="logical" name="SHIFTRED"> F  </i>
   <i type="logical" name="ODDONLY"> F  </i>
   <i type="logical" name="EVENONLY"> F  </i>
   <i type="int" name="LMAXFOCK">     0</i>
   <i type="int" name="NMAXFOCKAE">     0</i>
   <i type="logical" name="LFOCKAEDFT"> F  </i>
   <i name="HFSCREEN">      0.00000000</i>
   <i name="HFSCREENC">      0.00000000</i>
   <i type="int" name="NBANDSGWLOW">     0</i>
  </separator>
  <separator name="vdW DFT" >
   <i type="logical" name="LUSE_VDW"> F  </i>
   <i type="int" name="IVDW_NL">    -1</i>
   <i type="logical" name="LSPIN_VDW"> F  </i>
   <i name="ZAB_VDW">     -0.84910000</i>
   <i name="GAMMA_VDW">      1.39626340</i>
   <i name="ALPHA_VDW">      0.00000000</i>
   <i name="PARAM1">      0.12340000</i>
   <i name="PARAM2">      1.00000000</i>
   <i name="BPARAM">      6.30000000</i>
   <i name="CPARAM">      0.00930000</i>
  </separator>
  <separator name="model GW" >
   <i type="int" name="MODEL_GW">     0</i>
   <i name="MODEL_EPS0">      6.13175789</i>
   <i name="MODEL_ALPHA">      1.00000000</i>
  </separator>
  <separator name="linear response parameters" >
   <i type="logical" name="LEPSILON"> F  </i>
   <i type="logical" name="LRPA"> F  </i>
   <i type="logical" name="LNABLA"> F  </i>
   <i type="logical" name="LVEL"> F  </i>
   <i name="CSHIFT">      0.10000000</i>
   <i name="OMEGAMAX">     -1.00000000</i>
   <i name="DEG_THRESHOLD">      0.00200000</i>
   <i name="RTIME">     -0.10000000</i>
   <i name="WPLASMAI">      0.00000000</i>
   <v name="DFIELD">      0.00000000      0.00000000      0.00000000</v>
   <v name="WPLASMA">      0.00000000      0.00000000      0.00000000      0.00000000      0.00000000      0.00000000      0.00000000      0.00000000      0.00000000</v>
  </separator>
  <separator name="orbital magnetization" >
   <i type="logical" name="NUCIND"> F  </i>
   <v name="MAGPOS">      0.00000000      0.00000000      0.00000000</v>
   <i type="logical" name="LNICSALL"> T  </i>
   <i type="logical" name="ORBITALMAG"> F  </i>
   <i type="logical" name="LMAGBLOCH"> F  </i>
   <i type="logical" name="LCHIMAG"> F  </i>
   <i type="logical" name="LGAUGE"> T  </i>
   <i type="int" name="MAGATOM">     0</i>
   <v name="MAGDIPOL">      0.00000000      0.00000000      0.00000000</v>
   <v name="AVECCONST">      0.00000000      0.00000000      0.00000000</v>
  </separator>
  <separator name="response functions" >
   <i type="logical" name="LALL_IN_ONE"> F  </i>
   <i type="int" name="IALL_IN_ONE">    -1</i>
   <i type="int" name="NBANDS_WAVE">    -1</i>
   <i type="logical" name="LFINITE_TEMPERATURE"> F  </i>
   <i type="logical" name="LADDER"> F  </i>
   <i type="logical" name="LRPAFORCE"> F  </i>
   <i type="logical" name="LFXC"> F  </i>
   <i type="logical" name="LHARTREE"> T  </i>
   <i type="int" name="IBSE">     0</i>
   <v type="int" name="KPOINT">    -1     0     0     0</v>
   <i type="logical" name="LTCTC"> F  </i>
   <i type="logical" name="LTCTE"> F  </i>
   <i type="logical" name="LTETE"> F  </i>
   <i type="logical" name="LTRIPLET"> F  </i>
   <i type="logical" name="LFXCEPS"> F  </i>
   <i type="logical" name="LFXHEG"> F  </i>
   <i type="int" name="NATURALO">     2</i>
   <i type="logical" name="LHOLEGF"> F  </i>
   <i type="logical" name="L2ORDER"> F  </i>
   <i type="logical" name="LDMP1"> F  </i>
   <i type="logical" name="LMP2LT"> F  </i>
   <i type="logical" name="LSMP2LT"> F  </i>
   <i type="logical" name="LGWLF"> F  </i>
   <i name="ENCUTGW">     -1.60000002</i>
   <i name="ENCUTGWSOFT">     -1.60000002</i>
   <i name="ENCUTLF">     -1.00000000</i>
   <i type="logical" name="ESF_SPLINES"> F  </i>
   <i name="ESF_CONV">      0.01000000</i>
   <i type="int" name="ESF_NINTER">    15</i>
   <i type="int" name="LMAXMP2">    -1</i>
   <i name="SCISSOR">      0.00000000</i>
   <i type="int" name="NOMEGA">     0</i>
   <i type="int" name="NOMEGAR">     0</i>
   <i type="int" name="NBANDSGW">    -1</i>
   <i type="int" name="NBANDSO">    -1</i>
   <i type="int" name="NBANDSV">    -1</i>
   <i type="int" name="NELMGW">     1</i>
   <i type="int" name="NELMHF">     1</i>
   <i type="int" name="DIM">     3</i>
   <i type="int" name="IESPILON">     4</i>
   <i type="int" name="ANTIRES">     0</i>
   <i name="OMEGAMAX">    -30.00000000</i>
   <i name="OMEGAMIN">    -30.00000000</i>
   <i name="OMEGATL">   -200.00000000</i>
   <i type="int" name="OMEGAGRID">     0</i>
   <i name="CSHIFT">     -0.10000000</i>
   <i type="logical" name="LSELFENERGY"> F  </i>
   <i type="logical" name="LSPECTRAL"> F  </i>
   <i type="logical" name="LSPECTRALGW"> F  </i>
   <i type="logical" name="LSINGLES"> F  </i>
   <i type="logical" name="LFERMIGW"> F  </i>
   <i type="logical" name="ODDONLYGW"> F  </i>
   <i type="logical" name="EVENONLYGW"> F  </i>
   <i type="int" name="NKREDLFX">     1</i>
   <i type="int" name="NKREDLFY">     1</i>
   <i type="int" name="NKREDLFZ">     1</i>
   <i type="int" name="MAXMEM">  2800</i>
   <i type="int" name="TELESCOPE">     0</i>
   <i type="int" name="NTAUPAR">    -1</i>
   <i type="int" name="NOMEGAPAR">    -1</i>
   <i name="DAMP_NEWTON">      0.80000001</i>
   <i name="LAMBDA">      1.00000000</i>
  </separator>
  <separator name="External order field" >
   <i name="OFIELD_KAPPA">      0.00000000</i>
   <v name="OFIELD_K">      0.00000000      0.00000000      0.00000000</v>
   <i name="OFIELD_Q6_NEAR">      0.00000000</i>
   <i name="OFIELD_Q6_FAR">      0.00000000</i>
   <i name="OFIELD_A">      0.00000000</i>
  </separator>
  <separator name="optional k-points parameters" >
   <i type="int" name="KPOINTS_OPT_MODE">     1</i>
   <i type="logical" name="LKPOINTS_OPT"> F  </i>
  </separator>
 </parameters>
 <atominfo>
  <atoms>      14 </atoms>
  <types>       1 </types>
  <array name="atoms" >
   <dimension dim="1">ion</dimension>
   <field type="string">element</field>
   <field type="int">atomtype</field>
   <set>
    <rc><c>B </c><c>   1</c></rc>
    <rc><c>B </c><c>   1</c></rc>
    <rc><c>B </c><c>   1</c></rc>
    <rc><c>B </c><c>   1</c></rc>
    <rc><c>B </c><c>   1</c></rc>
    <rc><c>B </c><c>   1</c></rc>
    <rc><c>B </c><c>   1</c></rc>
    <rc><c>B </c><c>   1</c></rc>
    <rc><c>B </c><c>   1</c></rc>
    <rc><c>B </c><c>   1</c></rc>
    <rc><c>B </c><c>   1</c></rc>
    <rc><c>B </c><c>   1</c></rc>
    <rc><c>B </c><c>   1</c></rc>
    <rc><c>B </c><c>   1</c></rc>
   </set>
  </array>
  <array name="atomtypes" >
   <dimension dim="1">type</dimension>
   <field type="int">atomspertype</field>
   <field type="string">element</field>
   <field>mass</field>
   <field>valence</field>
   <field type="string">pseudopotential</field>
   <set>
    <rc><c>  14</c><c>B </c><c>     10.81100000</c><c>      3.00000000</c><c>  PAW_PBE B 06Sep2000                   </c></rc>
   </set>
  </array>
 </atominfo>
 <structure name="initialpos" >
  <crystal>
   <varray name="basis" >
    <v>       5.69700000       0.00000000       0.00000000 </v>
    <v>       0.00000000       4.04790000       0.00000000 </v>
    <v>       0.00000000       0.00000000       6.20420000 </v>
   </varray>
   <i name="volume">    143.07435078 </i>
   <varray name="rec_basis" >
    <v>       0.17553098       0.00000000       0.00000000 </v>
    <v>       0.00000000       0.24704168       0.00000000 </v>
    <v>       0.00000000       0.00000000       0.16118114 </v>
   </varray>
  </crystal>
  <varray name="positions" >
   <v>       0.52123000       0.50000000       0.63796000 </v>
   <v>       0.47877000       0.50000000       0.36204000 </v>
   <v>       0.97877000       0.50000000       0.63796000 </v>
   <v>       0.02123000       0.50000000       0.36204000 </v>
   <v>       0.60090000       0.50000000       0.89991000 </v>
   <v>       0.39910000       0.50000000       0.10009000 </v>
   <v>       0.89910000       0.50000000       0.89991000 </v>
   <v>       0.10090000       0.50000000       0.10009000 </v>
   <v>       0.75000000       0.79171000       0.72973000 </v>
   <v>       0.25000000       0.20829000       0.27027000 </v>
   <v>       0.75000000       0.20829000       0.72973000 </v>
   <v>       0.25000000       0.79171000       0.27027000 </v>
   <v>       0.25000000       0.50000000       0.52367000 </v>
   <v>       0.75000000       0.50000000       0.47633000 </v>
  </varray>
 </structure>
 <calculation>
  <scstep>
   <time name="dav">    5.35    5.35</time>
   <time name="total">    5.37    5.37</time>
   <energy>
    <i name="alphaZ">     94.24357992 </i>
    <i name="ewald">   -795.76658092 </i>
    <i name="hartreedc">   -271.33601302 </i>
    <i name="XCdc">     97.50108054 </i>
    <i name="pawpsdc">    608.99811708 </i>
    <i name="pawaedc">   -597.02363782 </i>
    <i name="eentropy">     -0.00265980 </i>
    <i name="bandstr">    -49.27937948 </i>
    <i name="atom">    996.37551544 </i>
    <i name="e_fr_energy">     83.71002194 </i>
    <i name="e_wo_entrp">     83.71268174 </i>
    <i name="e_0_energy">     83.71135184 </i>
   </energy>
  </scstep>
  <scstep>
   <time name="dav">    7.11    7.11</time>
   <time name="total">    7.11    7.11</time>
   <energy>
    <i name="e_fr_energy">    -91.57485706 </i>
    <i name="e_wo_entrp">    -91.57170156 </i>
    <i name="e_0_energy">    -91.57327931 </i>
   </energy>
  </scstep>
  <scstep>
   <time name="dav">    7.56    7.56</time>
   <time name="total">    7.56    7.56</time>
   <energy>
    <i name="e_fr_energy">    -97.60979802 </i>
    <i name="e_wo_entrp">    -97.60614021 </i>
    <i name="e_0_energy">    -97.60796911 </i>
   </energy>
  </scstep>
  <scstep>
   <time name="dav">    6.22    6.22</time>
   <time name="total">    6.22    6.22</time>
   <energy>
    <i name="e_fr_energy">    -97.64558990 </i>
    <i name="e_wo_entrp">    -97.64193453 </i>
    <i name="e_0_energy">    -97.64376221 </i>
   </energy>
  </scstep>
  <scstep>
   <time name="dav">    7.55    7.55</time>
   <time name="total">    7.66    7.67</time>
   <energy>
    <i name="e_fr_energy">    -97.64598862 </i>
    <i name="e_wo_entrp">    -97.64233323 </i>
    <i name="e_0_energy">    -97.64416092 </i>
   </energy>
  </scstep>
  <scstep>
   <time name="dav">    7.45    7.45</time>
   <time name="total">    7.57    7.58</time>
   <energy>
    <i name="e_fr_energy">    -92.23019870 </i>
    <i name="e_wo_entrp">    -92.22676690 </i>
    <i name="e_0_energy">    -92.22848280 </i>
   </energy>
  </scstep>
  <scstep>
   <time name="dav">    7.68    7.68</time>
   <time name="total">    7.80    7.80</time>
   <energy>
    <i name="e_fr_energy">    -90.57875407 </i>
    <i name="e_wo_entrp">    -90.57561981 </i>
    <i name="e_0_energy">    -90.57718694 </i>
   </energy>
  </scstep>
  <scstep>
   <time name="dav">    5.80    5.80</time>
   <time name="total">    5.92    5.92</time>
   <energy>
    <i name="e_fr_energy">    -90.59113064 </i>
    <i name="e_wo_entrp">    -90.58795289 </i>
    <i name="e_0_energy">    -90.58954176 </i>
   </energy>
  </scstep>
  <scstep>
   <time name="dav">    7.15    7.15</time>
   <time name="total">    7.27    7.27</time>
   <energy>
    <i name="e_fr_energy">    -90.60529598 </i>
    <i name="e_wo_entrp">    -90.60203228 </i>
    <i name="e_0_energy">    -90.60366413 </i>
   </energy>
  </scstep>
  <scstep>
   <time name="dav">    5.99    5.99</time>
   <time name="total">    6.11    6.11</time>
   <energy>
    <i name="e_fr_energy">    -90.60934872 </i>
    <i name="e_wo_entrp">    -90.60613114 </i>
    <i name="e_0_energy">    -90.60773993 </i>
   </energy>
  </scstep>
  <scstep>
   <time name="dav">    6.60    6.60</time>
   <time name="total">    6.72    6.72</time>
   <energy>
    <i name="e_fr_energy">    -90.61041704 </i>
    <i name="e_wo_entrp">    -90.60721021 </i>
    <i name="e_0_energy">    -90.60881363 </i>
   </energy>
  </scstep>
  <scstep>
   <time name="dav">    6.46    6.46</time>
   <time name="total">    6.58    6.58</time>
   <energy>
    <i name="e_fr_energy">    -90.61053279 </i>
    <i name="e_wo_entrp">    -90.60731978 </i>
    <i name="e_0_energy">    -90.60892629 </i>
   </energy>
  </scstep>
  <scstep>
   <time name="dav">    7.12    7.12</time>
   <time name="total">    7.24    7.24</time>
   <energy>
    <i name="e_fr_energy">    -90.61053768 </i>
    <i name="e_wo_entrp">    -90.60732437 </i>
    <i name="e_0_energy">    -90.60893103 </i>
   </energy>
  </scstep>
  <scstep>
   <time name="dav">    6.42    6.42</time>
   <time name="total">    6.43    6.43</time>
   <energy>
    <i name="alphaZ">     94.24357992 </i>
    <i name="ewald">   -795.76658092 </i>
    <i name="hartreedc">   -349.11302766 </i>
    <i name="XCdc">    101.59652951 </i>
    <i name="pawpsdc">   3737.49348873 </i>
    <i name="pawaedc">  -3726.68051418 </i>
    <i name="eentropy">     -0.00321342 </i>
    <i name="bandstr">   -148.75631578 </i>
    <i name="atom">    996.37551544 </i>
    <i name="e_fr_energy">    -90.61053837 </i>
    <i name="e_wo_entrp">    -90.60732495 </i>
    <i name="e_0_energy">    -90.60893166 </i>
   </energy>
  </scstep>
  <structure>
   <crystal>
    <varray name="basis" >
     <v>       5.69700000       0.00000000       0.00000000 </v>
     <v>       0.00000000       4.04790000       0.00000000 </v>
     <v>       0.00000000       0.00000000       6.20420000 </v>
    </varray>
    <i name="volume">    143.07435078 </i>
    <varray name="rec_basis" >
     <v>       0.17553098       0.00000000       0.00000000 </v>
     <v>       0.00000000       0.24704168       0.00000000 </v>
     <v>       0.00000000       0.00000000       0.16118114 </v>
    </varray>
   </crystal>
   <varray name="positions" >
    <v>       0.52123000       0.50000000       0.63796000 </v>
    <v>       0.47877000       0.50000000       0.36204000 </v>
    <v>       0.97877000       0.50000000       0.63796000 </v>
    <v>       0.02123000       0.50000000       0.36204000 </v>
    <v>       0.60090000       0.50000000       0.89991000 </v>
    <v>       0.39910000       0.50000000       0.10009000 </v>
    <v>       0.89910000       0.50000000       0.89991000 </v>
    <v>       0.10090000       0.50000000       0.10009000 </v>
    <v>       0.75000000       0.79171000       0.72973000 </v>
    <v>       0.25000000       0.20829000       0.27027000 </v>
    <v>       0.75000000       0.20829000       0.72973000 </v>
    <v>       0.25000000       0.79171000       0.27027000 </v>
    <v>       0.25000000       0.50000000       0.52367000 </v>
    <v>       0.75000000       0.50000000       0.47633000 </v>
   </varray>
  </structure>
  <varray name="forces" >
   <v>      -0.00354261      -0.00000000       0.05112920 </v>
   <v>       0.00354261      -0.00000000      -0.05112920 </v>
   <v>       0.00354261      -0.00000000       0.05112920 </v>
   <v>      -0.00354261      -0.00000000      -0.05112920 </v>
   <v>      -0.83222551      -0.00000000       0.27675588 </v>
   <v>       0.83222551      -0.00000000      -0.27675588 </v>
   <v>       0.83222551      -0.00000000       0.27675588 </v>
   <v>      -0.83222551      -0.00000000      -0.27675588 </v>
   <v>      -0.00000000       0.06197086      -0.07818245 </v>
   <v>      -0.00000000      -0.06197086       0.07818245 </v>
   <v>      -0.00000000      -0.06197086      -0.07818245 </v>
   <v>      -0.00000000       0.06197086       0.07818245 </v>
   <v>      -0.00000000      -0.00000000       0.07067559 </v>
   <v>      -0.00000000      -0.00000000      -0.07067559 </v>
  </varray>
  <varray name="stress" >
   <v>      14.09610851       0.00000000       0.00000000 </v>
   <v>       0.00000000       0.67213535       0.00000000 </v>
   <v>      -0.00000000       0.00000000      -7.04423956 </v>
  </varray>
  <energy>
   <i name="e_fr_energy">    -90.61053837 </i>
   <i name="e_wo_entrp">    -90.60732495 </i>
   <i name="e_0_energy">    -90.60893166 </i>
  </energy>
  <time name="totalsc">  100.45  100.47</time>
  <eigenvalues>
   <array>
    <dimension dim="1">band</dimension>
    <dimension dim="2">kpoint</dimension>
    <dimension dim="3">spin</dimension>
    <field>eigene</field>
    <field>occ</field>
    <set>
     <set comment="spin 1">
      <set comment="kpoint 1">
       <r>  -12.7248    1.0000 </r>
       <r>  -11.5829    1.0000 </r>
       <r>   -8.6579    1.0000 </r>
       <r>   -8.4212    1.0000 </r>
       <r>   -6.0636    1.0000 </r>
       <r>   -5.1300    1.0000 </r>
       <r>   -4.6657    1.0000 </r>
       <r>   -4.2748    1.0000 </r>
       <r>   -4.0329    1.0000 </r>
       <r>   -3.5437    1.0000 </r>
       <r>   -2.5935    1.0000 </r>
       <r>   -2.3244    1.0000 </r>
       <r>   -1.8334    1.0000 </r>
       <r>   -1.0959    1.0000 </r>
       <r>   -0.0697    1.0000 </r>
       <r>   -0.0395    1.0000 </r>
       <r>    0.1563    1.0000 </r>
       <r>    0.1779    1.0000 </r>
       <r>    0.5658    1.0000 </r>
       <r>    2.0188    0.0001 </r>
       <r>    2.0819    0.0000 </r>
       <r>    2.2171    0.0000 </r>
       <r>    5.4578    0.0000 </r>
       <r>    5.7490    0.0000 </r>
       <r>    5.8381    0.0000 </r>
       <r>    5.9591    0.0000 </r>
       <r>    6.8144    0.0000 </r>
       <r>    7.5484    0.0000 </r>
       <r>    7.8777    0.0000 </r>
       <r>    8.5353    0.0000 </r>
       <r>    8.8021    0.0000 </r>
       <r>    8.9496    0.0000 </r>
       <r>    9.0519    0.0000 </r>
       <r>   10.1231    0.0000 </r>
       <r>   11.1839    0.0000 </r>
       <r>   11.3341    0.0000 </r>
       <r>   11.6643    0.0000 </r>
       <r>   11.7815    0.0000 </r>
       <r>   11.9407    0.0000 </r>
       <r>   12.4031    0.0000 </r>
       <r>   12.8682    0.0000 </r>
       <r>   13.4519    0.0000 </r>
       <r>   13.4792    0.0000 </r>
       <r>   15.3810    0.0000 </r>
       <r>   15.5704    0.0000 </r>
       <r>   16.0610    0.0000 </r>
       <r>   16.3325    0.0000 </r>
       <r>   16.3556    0.0000 </r>
      </set>
      <set comment="kpoint 2">
       <r>  -12.6811    1.0000 </r>
       <r>  -11.6567    1.0000 </r>
       <r>   -8.6368    1.0000 </r>
       <r>   -8.4097    1.0000 </r>
       <r>   -5.9954    1.0000 </r>
       <r>   -5.4710    1.0000 </r>
       <r>   -4.7882    1.0000 </r>
       <r>   -4.0095    1.0000 </r>
       <r>   -3.7919    1.0000 </r>
       <r>   -3.2062    1.0000 </r>
       <r>   -2.6637    1.0000 </r>
       <r>   -2.3044    1.0000 </r>
       <r>   -1.9121    1.0000 </r>
       <r>   -1.4028    1.0000 </r>
       <r>   -0.0294    1.0000 </r>
       <r>   -0.0182    1.0000 </r>
       <r>    0.0939    1.0000 </r>
       <r>    0.1982    1.0000 </r>
       <r>    0.4707    1.0000 </r>
       <r>    1.9326    0.0844 </r>
       <r>    2.0040    0.0003 </r>
       <r>    2.0959    0.0000 </r>
       <r>    5.5466    0.0000 </r>
       <r>    5.7575    0.0000 </r>
       <r>    5.8659    0.0000 </r>
       <r>    6.3047    0.0000 </r>
       <r>    6.7289    0.0000 </r>
       <r>    7.1866    0.0000 </r>
       <r>    8.0876    0.0000 </r>
       <r>    8.6717    0.0000 </r>
       <r>    9.0590    0.0000 </r>
       <r>    9.1313    0.0000 </r>
       <r>    9.2040    0.0000 </r>
       <r>   10.2359    0.0000 </r>
       <r>   10.9417    0.0000 </r>
       <r>   11.1301    0.0000 </r>
       <r>   11.2569    0.0000 </r>
       <r>   11.6987    0.0000 </r>
       <r>   12.1580    0.0000 </r>
       <r>   12.4925    0.0000 </r>
       <r>   13.1207    0.0000 </r>
       <r>   13.1274    0.0000 </r>
       <r>   14.0107    0.0000 </r>
       <r>   14.8692    0.0000 </r>
       <r>   15.7498    0.0000 </r>
       <r>   15.8288    0.0000 </r>
       <r>   16.2261    0.0000 </r>
       <r>   16.5129    0.0000 </r>
      </set>
      <set comment="kpoint 3">
       <r>  -12.5955    1.0000 </r>
       <r>  -11.7897    1.0000 </r>
       <r>   -8.5933    1.0000 </r>
       <r>   -8.3950    1.0000 </r>
       <r>   -5.9739    1.0000 </r>
       <r>   -5.7976    1.0000 </r>
       <r>   -4.7423    1.0000 </r>
       <r>   -3.8821    1.0000 </r>
       <r>   -3.2809    1.0000 </r>
       <r>   -2.8325    1.0000 </r>
       <r>   -2.7138    1.0000 </r>
       <r>   -2.2639    1.0000 </r>
       <r>   -2.0228    1.0000 </r>
       <r>   -1.9071    1.0000 </r>
       <r>   -0.2191    1.0000 </r>
       <r>    0.0142    1.0000 </r>
       <r>    0.1438    1.0000 </r>
       <r>    0.1572    1.0000 </r>
       <r>    0.4405    1.0000 </r>
       <r>    1.7850    0.9974 </r>
       <r>    1.8662    0.6920 </r>
       <r>    1.8712    0.6409 </r>
       <r>    5.6674    0.0000 </r>
       <r>    5.7140    0.0000 </r>
       <r>    6.1749    0.0000 </r>
       <r>    6.6028    0.0000 </r>
       <r>    6.7633    0.0000 </r>
       <r>    6.9320    0.0000 </r>
       <r>    8.2385    0.0000 </r>
       <r>    8.8201    0.0000 </r>
       <r>    9.0003    0.0000 </r>
       <r>    9.5753    0.0000 </r>
       <r>    9.6479    0.0000 </r>
       <r>   10.2805    0.0000 </r>
       <r>   10.4857    0.0000 </r>
       <r>   10.6256    0.0000 </r>
       <r>   11.3772    0.0000 </r>
       <r>   11.8408    0.0000 </r>
       <r>   12.3929    0.0000 </r>
       <r>   12.5656    0.0000 </r>
       <r>   12.7929    0.0000 </r>
       <r>   12.9181    0.0000 </r>
       <r>   14.6363    0.0000 </r>
       <r>   14.9178    0.0000 </r>
       <r>   15.2256    0.0000 </r>
       <r>   15.9827    0.0000 </r>
       <r>   16.0018    0.0000 </r>
       <r>   16.2906    0.0000 </r>
      </set>
      <set comment="kpoint 4">
       <r>  -12.4720    1.0000 </r>
       <r>  -11.9590    1.0000 </r>
       <r>   -8.5315    1.0000 </r>
       <r>   -8.3918    1.0000 </r>
       <r>   -6.0546    1.0000 </r>
       <r>   -6.0307    1.0000 </r>
       <r>   -4.4149    1.0000 </r>
       <r>   -3.7131    1.0000 </r>
       <r>   -3.0267    1.0000 </r>
       <r>   -2.8965    1.0000 </r>
       <r>   -2.4439    1.0000 </r>
       <r>   -2.2525    1.0000 </r>
       <r>   -2.1455    1.0000 </r>
       <r>   -2.1238    1.0000 </r>
       <r>   -0.5182    1.0000 </r>
       <r>   -0.2450    1.0000 </r>
       <r>    0.1729    1.0000 </r>
       <r>    0.2483    1.0000 </r>
       <r>    0.6136    1.0000 </r>
       <r>    1.5305    1.0000 </r>
       <r>    1.6622    1.0000 </r>
       <r>    1.7229    1.0000 </r>
       <r>    5.6987    0.0000 </r>
       <r>    5.7527    0.0000 </r>
       <r>    6.5015    0.0000 </r>
       <r>    6.6730    0.0000 </r>
       <r>    6.6989    0.0000 </r>
       <r>    7.4130    0.0000 </r>
       <r>    8.3629    0.0000 </r>
       <r>    8.6889    0.0000 </r>
       <r>    8.8094    0.0000 </r>
       <r>    9.5348    0.0000 </r>
       <r>   10.0560    0.0000 </r>
       <r>   10.1184    0.0000 </r>
       <r>   10.3984    0.0000 </r>
       <r>   11.1489    0.0000 </r>
       <r>   11.4046    0.0000 </r>
       <r>   11.9458    0.0000 </r>
       <r>   12.2042    0.0000 </r>
       <r>   12.2755    0.0000 </r>
       <r>   12.5212    0.0000 </r>
       <r>   13.2572    0.0000 </r>
       <r>   14.7131    0.0000 </r>
       <r>   14.9768    0.0000 </r>
       <r>   15.2633    0.0000 </r>
       <r>   15.3746    0.0000 </r>
       <r>   15.5729    0.0000 </r>
       <r>   16.3771    0.0000 </r>
      </set>
      <set comment="kpoint 5">
       <r>  -12.3172    1.0000 </r>
       <r>  -12.1414    1.0000 </r>
       <r>   -8.4653    1.0000 </r>
       <r>   -8.4144    1.0000 </r>
       <r>   -6.1443    1.0000 </r>
       <r>   -6.1399    1.0000 </r>
       <r>   -3.8995    1.0000 </r>
       <r>   -3.5038    1.0000 </r>
       <r>   -3.3001    1.0000 </r>
       <r>   -3.2657    1.0000 </r>
       <r>   -2.3615    1.0000 </r>
       <r>   -2.2329    1.0000 </r>
       <r>   -1.9612    1.0000 </r>
       <r>   -1.9082    1.0000 </r>
       <r>   -0.7387    1.0000 </r>
       <r>   -0.6032    1.0000 </r>
       <r>    0.2561    1.0000 </r>
       <r>    0.2897    1.0000 </r>
       <r>    0.8743    1.0000 </r>
       <r>    1.1917    1.0000 </r>
       <r>    1.5816    1.0000 </r>
       <r>    1.6091    1.0000 </r>
       <r>    5.7267    0.0000 </r>
       <r>    5.7641    0.0000 </r>
       <r>    6.4800    0.0000 </r>
       <r>    6.5439    0.0000 </r>
       <r>    7.3681    0.0000 </r>
       <r>    8.0740    0.0000 </r>
       <r>    8.0956    0.0000 </r>
       <r>    8.4807    0.0000 </r>
       <r>    8.6194    0.0000 </r>
       <r>    8.7896    0.0000 </r>
       <r>   10.5014    0.0000 </r>
       <r>   10.5178    0.0000 </r>
       <r>   10.7611    0.0000 </r>
       <r>   11.2192    0.0000 </r>
       <r>   11.4037    0.0000 </r>
       <r>   11.5999    0.0000 </r>
       <r>   11.9335    0.0000 </r>
       <r>   12.4826    0.0000 </r>
       <r>   12.7166    0.0000 </r>
       <r>   13.2527    0.0000 </r>
       <r>   14.5907    0.0000 </r>
       <r>   14.7351    0.0000 </r>
       <r>   14.8694    0.0000 </r>
       <r>   14.9281    0.0000 </r>
       <r>   16.1019    0.0000 </r>
       <r>   16.4464    0.0000 </r>
      </set>
      <set comment="kpoint 6">
       <r>  -12.7008    1.0000 </r>
       <r>  -11.5614    1.0000 </r>
       <r>   -8.6392    1.0000 </r>
       <r>   -8.3981    1.0000 </r>
       <r>   -6.0369    1.0000 </r>
       <r>   -5.0962    1.0000 </r>
       <r>   -4.6436    1.0000 </r>
       <r>   -4.5730    1.0000 </r>
       <r>   -4.1768    1.0000 </r>
       <r>   -3.5209    1.0000 </r>
       <r>   -3.2868    1.0000 </r>
       <r>   -1.7936    1.0000 </r>
       <r>   -1.0913    1.0000 </r>
       <r>   -1.0346    1.0000 </r>
       <r>   -0.3035    1.0000 </r>
       <r>   -0.2755    1.0000 </r>
       <r>    0.1698    1.0000 </r>
       <r>    0.2481    1.0000 </r>
       <r>    0.6441    1.0000 </r>
       <r>    1.7510    0.9999 </r>
       <r>    1.8310    0.9329 </r>
       <r>    2.2693    0.0000 </r>
       <r>    5.5762    0.0000 </r>
       <r>    5.7078    0.0000 </r>
       <r>    5.7416    0.0000 </r>
       <r>    6.0069    0.0000 </r>
       <r>    7.1004    0.0000 </r>
       <r>    7.8339    0.0000 </r>
       <r>    8.0770    0.0000 </r>
       <r>    8.1878    0.0000 </r>
       <r>    8.8063    0.0000 </r>
       <r>    9.0991    0.0000 </r>
       <r>    9.1502    0.0000 </r>
       <r>   10.5753    0.0000 </r>
       <r>   11.2656    0.0000 </r>
       <r>   11.3990    0.0000 </r>
       <r>   11.5983    0.0000 </r>
       <r>   11.8843    0.0000 </r>
       <r>   12.0514    0.0000 </r>
       <r>   12.6833    0.0000 </r>
       <r>   12.8683    0.0000 </r>
       <r>   13.1886    0.0000 </r>
       <r>   13.1948    0.0000 </r>
       <r>   15.3307    0.0000 </r>
       <r>   15.3803    0.0000 </r>
       <r>   15.8577    0.0000 </r>
       <r>   15.8684    0.0000 </r>
       <r>   16.2198    0.0000 </r>
      </set>
      <set comment="kpoint 7">
       <r>  -12.6572    1.0000 </r>
       <r>  -11.6350    1.0000 </r>
       <r>   -8.6179    1.0000 </r>
       <r>   -8.3869    1.0000 </r>
       <r>   -5.9669    1.0000 </r>
       <r>   -5.4409    1.0000 </r>
       <r>   -4.7682    1.0000 </r>
       <r>   -4.4902    1.0000 </r>
       <r>   -3.7526    1.0000 </r>
       <r>   -3.3676    1.0000 </r>
       <r>   -3.1681    1.0000 </r>
       <r>   -1.7719    1.0000 </r>
       <r>   -1.3974    1.0000 </r>
       <r>   -1.1538    1.0000 </r>
       <r>   -0.2645    1.0000 </r>
       <r>   -0.1948    1.0000 </r>
       <r>    0.1374    1.0000 </r>
       <r>    0.2196    1.0000 </r>
       <r>    0.5414    1.0000 </r>
       <r>    1.6705    1.0000 </r>
       <r>    1.7545    0.9999 </r>
       <r>    2.1385    0.0000 </r>
       <r>    5.6520    0.0000 </r>
       <r>    5.8064    0.0000 </r>
       <r>    5.9351    0.0000 </r>
       <r>    6.1116    0.0000 </r>
       <r>    7.0169    0.0000 </r>
       <r>    7.5088    0.0000 </r>
       <r>    8.2229    0.0000 </r>
       <r>    8.3585    0.0000 </r>
       <r>    9.1301    0.0000 </r>
       <r>    9.1605    0.0000 </r>
       <r>    9.4160    0.0000 </r>
       <r>   10.5003    0.0000 </r>
       <r>   10.8730    0.0000 </r>
       <r>   11.0827    0.0000 </r>
       <r>   11.4535    0.0000 </r>
       <r>   11.8715    0.0000 </r>
       <r>   12.2711    0.0000 </r>
       <r>   12.7383    0.0000 </r>
       <r>   12.8665    0.0000 </r>
       <r>   13.1515    0.0000 </r>
       <r>   13.7280    0.0000 </r>
       <r>   14.9544    0.0000 </r>
       <r>   15.3979    0.0000 </r>
       <r>   15.7497    0.0000 </r>
       <r>   15.7954    0.0000 </r>
       <r>   16.4000    0.0000 </r>
      </set>
      <set comment="kpoint 8">
       <r>  -12.5717    1.0000 </r>
       <r>  -11.7677    1.0000 </r>
       <r>   -8.5741    1.0000 </r>
       <r>   -8.3729    1.0000 </r>
       <r>   -5.9425    1.0000 </r>
       <r>   -5.7672    1.0000 </r>
       <r>   -4.7257    1.0000 </r>
       <r>   -4.3816    1.0000 </r>
       <r>   -3.4896    1.0000 </r>
       <r>   -3.2266    1.0000 </r>
       <r>   -2.7016    1.0000 </r>
       <r>   -1.9025    1.0000 </r>
       <r>   -1.7276    1.0000 </r>
       <r>   -1.3170    1.0000 </r>
       <r>   -0.2214    1.0000 </r>
       <r>   -0.2174    1.0000 </r>
       <r>    0.0527    1.0000 </r>
       <r>    0.2068    1.0000 </r>
       <r>    0.4651    1.0000 </r>
       <r>    1.5355    1.0000 </r>
       <r>    1.6244    1.0000 </r>
       <r>    1.8902    0.4299 </r>
       <r>    5.8556    0.0000 </r>
       <r>    5.9340    0.0000 </r>
       <r>    6.0118    0.0000 </r>
       <r>    6.5604    0.0000 </r>
       <r>    6.8962    0.0000 </r>
       <r>    7.2809    0.0000 </r>
       <r>    8.4291    0.0000 </r>
       <r>    8.4916    0.0000 </r>
       <r>    9.1005    0.0000 </r>
       <r>    9.6131    0.0000 </r>
       <r>    9.8737    0.0000 </r>
       <r>   10.1244    0.0000 </r>
       <r>   10.3529    0.0000 </r>
       <r>   10.8230    0.0000 </r>
       <r>   11.5193    0.0000 </r>
       <r>   12.1060    0.0000 </r>
       <r>   12.3080    0.0000 </r>
       <r>   12.5549    0.0000 </r>
       <r>   12.9577    0.0000 </r>
       <r>   13.0229    0.0000 </r>
       <r>   14.3050    0.0000 </r>
       <r>   15.0858    0.0000 </r>
       <r>   15.1617    0.0000 </r>
       <r>   15.6452    0.0000 </r>
       <r>   15.7085    0.0000 </r>
       <r>   16.4202    0.0000 </r>
      </set>
      <set comment="kpoint 9">
       <r>  -12.4485    1.0000 </r>
       <r>  -11.9367    1.0000 </r>
       <r>   -8.5121    1.0000 </r>
       <r>   -8.3706    1.0000 </r>
       <r>   -6.0221    1.0000 </r>
       <r>   -5.9994    1.0000 </r>
       <r>   -4.4004    1.0000 </r>
       <r>   -4.2344    1.0000 </r>
       <r>   -3.6613    1.0000 </r>
       <r>   -2.8469    1.0000 </r>
       <r>   -2.3622    1.0000 </r>
       <r>   -2.2183    1.0000 </r>
       <r>   -1.6633    1.0000 </r>
       <r>   -1.4803    1.0000 </r>
       <r>   -0.4796    1.0000 </r>
       <r>   -0.3080    1.0000 </r>
       <r>    0.0847    1.0000 </r>
       <r>    0.1146    1.0000 </r>
       <r>    0.6243    1.0000 </r>
       <r>    1.3959    1.0000 </r>
       <r>    1.4790    1.0000 </r>
       <r>    1.5662    1.0000 </r>
       <r>    5.8737    0.0000 </r>
       <r>    6.0076    0.0000 </r>
       <r>    6.5170    0.0000 </r>
       <r>    6.8066    0.0000 </r>
       <r>    6.8795    0.0000 </r>
       <r>    7.3718    0.0000 </r>
       <r>    8.4176    0.0000 </r>
       <r>    8.5995    0.0000 </r>
       <r>    8.9393    0.0000 </r>
       <r>    9.3703    0.0000 </r>
       <r>   10.0720    0.0000 </r>
       <r>   10.0985    0.0000 </r>
       <r>   10.4413    0.0000 </r>
       <r>   11.2261    0.0000 </r>
       <r>   11.3637    0.0000 </r>
       <r>   11.8413    0.0000 </r>
       <r>   12.2928    0.0000 </r>
       <r>   12.5454    0.0000 </r>
       <r>   12.7213    0.0000 </r>
       <r>   13.4596    0.0000 </r>
       <r>   14.7654    0.0000 </r>
       <r>   14.7730    0.0000 </r>
       <r>   15.1537    0.0000 </r>
       <r>   15.3074    0.0000 </r>
       <r>   15.6517    0.0000 </r>
       <r>   16.3902    0.0000 </r>
      </set>
      <set comment="kpoint 10">
       <r>  -12.2941    1.0000 </r>
       <r>  -12.1186    1.0000 </r>
       <r>   -8.4456    1.0000 </r>
       <r>   -8.3941    1.0000 </r>
       <r>   -6.1122    1.0000 </r>
       <r>   -6.1073    1.0000 </r>
       <r>   -4.0553    1.0000 </r>
       <r>   -3.8922    1.0000 </r>
       <r>   -3.8511    1.0000 </r>
       <r>   -3.2873    1.0000 </r>
       <r>   -2.1081    1.0000 </r>
       <r>   -1.9142    1.0000 </r>
       <r>   -1.5952    1.0000 </r>
       <r>   -1.5924    1.0000 </r>
       <r>   -0.7004    1.0000 </r>
       <r>   -0.5995    1.0000 </r>
       <r>    0.1177    1.0000 </r>
       <r>    0.1489    1.0000 </r>
       <r>    0.8837    1.0000 </r>
       <r>    1.1981    1.0000 </r>
       <r>    1.3424    1.0000 </r>
       <r>    1.3665    1.0000 </r>
       <r>    5.9247    0.0000 </r>
       <r>    5.9905    0.0000 </r>
       <r>    6.7955    0.0000 </r>
       <r>    6.8460    0.0000 </r>
       <r>    7.1847    0.0000 </r>
       <r>    7.8972    0.0000 </r>
       <r>    7.9423    0.0000 </r>
       <r>    8.6249    0.0000 </r>
       <r>    8.6921    0.0000 </r>
       <r>    8.8050    0.0000 </r>
       <r>   10.3201    0.0000 </r>
       <r>   10.5684    0.0000 </r>
       <r>   10.8052    0.0000 </r>
       <r>   10.9096    0.0000 </r>
       <r>   11.5509    0.0000 </r>
       <r>   11.6592    0.0000 </r>
       <r>   12.0127    0.0000 </r>
       <r>   12.6518    0.0000 </r>
       <r>   13.0252    0.0000 </r>
       <r>   13.4841    0.0000 </r>
       <r>   14.5486    0.0000 </r>
       <r>   14.7332    0.0000 </r>
       <r>   14.8302    0.0000 </r>
       <r>   15.0477    0.0000 </r>
       <r>   16.1262    0.0000 </r>
       <r>   16.4207    0.0000 </r>
      </set>
      <set comment="kpoint 11">
       <r>  -12.6565    1.0000 </r>
       <r>  -11.5216    1.0000 </r>
       <r>   -8.6048    1.0000 </r>
       <r>   -8.3554    1.0000 </r>
       <r>   -5.9874    1.0000 </r>
       <r>   -5.1300    1.0000 </r>
       <r>   -5.0053    1.0000 </r>
       <r>   -4.6018    1.0000 </r>
       <r>   -4.1607    1.0000 </r>
       <r>   -3.9089    1.0000 </r>
       <r>   -3.4676    1.0000 </r>
       <r>   -1.2046    1.0000 </r>
       <r>   -1.0820    1.0000 </r>
       <r>   -0.6476    1.0000 </r>
       <r>   -0.5416    1.0000 </r>
       <r>   -0.1761    1.0000 </r>
       <r>    0.1910    1.0000 </r>
       <r>    0.3011    1.0000 </r>
       <r>    0.7226    1.0000 </r>
       <r>    1.3682    1.0000 </r>
       <r>    1.4318    1.0000 </r>
       <r>    2.3074    0.0000 </r>
       <r>    5.2868    0.0000 </r>
       <r>    5.4525    0.0000 </r>
       <r>    6.1228    0.0000 </r>
       <r>    6.1953    0.0000 </r>
       <r>    7.5359    0.0000 </r>
       <r>    7.6247    0.0000 </r>
       <r>    8.3165    0.0000 </r>
       <r>    8.7260    0.0000 </r>
       <r>    8.8820    0.0000 </r>
       <r>    9.2409    0.0000 </r>
       <r>    9.3708    0.0000 </r>
       <r>   10.8805    0.0000 </r>
       <r>   11.3174    0.0000 </r>
       <r>   11.5713    0.0000 </r>
       <r>   11.7002    0.0000 </r>
       <r>   12.0850    0.0000 </r>
       <r>   12.2676    0.0000 </r>
       <r>   12.7451    0.0000 </r>
       <r>   12.7585    0.0000 </r>
       <r>   13.0053    0.0000 </r>
       <r>   13.2234    0.0000 </r>
       <r>   14.6747    0.0000 </r>
       <r>   15.1599    0.0000 </r>
       <r>   15.3418    0.0000 </r>
       <r>   15.4294    0.0000 </r>
       <r>   15.9605    0.0000 </r>
      </set>
      <set comment="kpoint 12">
       <r>  -12.6130    1.0000 </r>
       <r>  -11.5950    1.0000 </r>
       <r>   -8.5832    1.0000 </r>
       <r>   -8.3449    1.0000 </r>
       <r>   -5.9140    1.0000 </r>
       <r>   -5.3928    1.0000 </r>
       <r>   -5.0313    1.0000 </r>
       <r>   -4.7304    1.0000 </r>
       <r>   -3.9751    1.0000 </r>
       <r>   -3.7104    1.0000 </r>
       <r>   -3.1286    1.0000 </r>
       <r>   -1.3891    1.0000 </r>
       <r>   -1.1781    1.0000 </r>
       <r>   -0.7548    1.0000 </r>
       <r>   -0.5036    1.0000 </r>
       <r>   -0.0950    1.0000 </r>
       <r>    0.1716    1.0000 </r>
       <r>    0.2448    1.0000 </r>
       <r>    0.6102    1.0000 </r>
       <r>    1.2891    1.0000 </r>
       <r>    1.3621    1.0000 </r>
       <r>    2.1716    0.0000 </r>
       <r>    5.3671    0.0000 </r>
       <r>    5.7985    0.0000 </r>
       <r>    6.1413    0.0000 </r>
       <r>    6.2373    0.0000 </r>
       <r>    7.4552    0.0000 </r>
       <r>    7.7813    0.0000 </r>
       <r>    8.0488    0.0000 </r>
       <r>    8.8169    0.0000 </r>
       <r>    9.2527    0.0000 </r>
       <r>    9.2858    0.0000 </r>
       <r>    9.6554    0.0000 </r>
       <r>   10.5160    0.0000 </r>
       <r>   10.7784    0.0000 </r>
       <r>   11.2752    0.0000 </r>
       <r>   11.7181    0.0000 </r>
       <r>   12.1972    0.0000 </r>
       <r>   12.4300    0.0000 </r>
       <r>   12.4998    0.0000 </r>
       <r>   13.1614    0.0000 </r>
       <r>   13.2719    0.0000 </r>
       <r>   13.4363    0.0000 </r>
       <r>   14.6849    0.0000 </r>
       <r>   14.8214    0.0000 </r>
       <r>   15.2826    0.0000 </r>
       <r>   15.4932    0.0000 </r>
       <r>   15.9865    0.0000 </r>
      </set>
      <set comment="kpoint 13">
       <r>  -12.5279    1.0000 </r>
       <r>  -11.7271    1.0000 </r>
       <r>   -8.5390    1.0000 </r>
       <r>   -8.3323    1.0000 </r>
       <r>   -5.8842    1.0000 </r>
       <r>   -5.7124    1.0000 </r>
       <r>   -4.9396    1.0000 </r>
       <r>   -4.6946    1.0000 </r>
       <r>   -4.0988    1.0000 </r>
       <r>   -3.1763    1.0000 </r>
       <r>   -2.6576    1.0000 </r>
       <r>   -1.8861    1.0000 </r>
       <r>   -1.1375    1.0000 </r>
       <r>   -0.8936    1.0000 </r>
       <r>   -0.4506    1.0000 </r>
       <r>   -0.0859    1.0000 </r>
       <r>    0.0136    1.0000 </r>
       <r>    0.2567    1.0000 </r>
       <r>    0.4950    1.0000 </r>
       <r>    1.1576    1.0000 </r>
       <r>    1.2438    1.0000 </r>
       <r>    1.9150    0.1899 </r>
       <r>    5.6884    0.0000 </r>
       <r>    6.0964    0.0000 </r>
       <r>    6.2748    0.0000 </r>
       <r>    6.3671    0.0000 </r>
       <r>    7.3527    0.0000 </r>
       <r>    7.8596    0.0000 </r>
       <r>    8.0152    0.0000 </r>
       <r>    8.9455    0.0000 </r>
       <r>    9.2463    0.0000 </r>
       <r>    9.7189    0.0000 </r>
       <r>    9.8511    0.0000 </r>
       <r>   10.1374    0.0000 </r>
       <r>   10.2534    0.0000 </r>
       <r>   11.0620    0.0000 </r>
       <r>   11.5860    0.0000 </r>
       <r>   12.1043    0.0000 </r>
       <r>   12.5085    0.0000 </r>
       <r>   12.8006    0.0000 </r>
       <r>   13.0437    0.0000 </r>
       <r>   13.4458    0.0000 </r>
       <r>   13.9587    0.0000 </r>
       <r>   14.5935    0.0000 </r>
       <r>   14.8711    0.0000 </r>
       <r>   15.3028    0.0000 </r>
       <r>   15.5123    0.0000 </r>
       <r>   16.1972    0.0000 </r>
      </set>
      <set comment="kpoint 14">
       <r>  -12.4052    1.0000 </r>
       <r>  -11.8954    1.0000 </r>
       <r>   -8.4765    1.0000 </r>
       <r>   -8.3317    1.0000 </r>
       <r>   -5.9615    1.0000 </r>
       <r>   -5.9417    1.0000 </r>
       <r>   -4.8036    1.0000 </r>
       <r>   -4.3736    1.0000 </r>
       <r>   -4.2635    1.0000 </r>
       <r>   -2.8082    1.0000 </r>
       <r>   -2.3212    1.0000 </r>
       <r>   -2.1772    1.0000 </r>
       <r>   -1.0809    1.0000 </r>
       <r>   -1.0304    1.0000 </r>
       <r>   -0.4559    1.0000 </r>
       <r>   -0.3719    1.0000 </r>
       <r>    0.0575    1.0000 </r>
       <r>    0.0614    1.0000 </r>
       <r>    0.6419    1.0000 </r>
       <r>    1.0280    1.0000 </r>
       <r>    1.1111    1.0000 </r>
       <r>    1.5800    1.0000 </r>
       <r>    6.1076    0.0000 </r>
       <r>    6.2236    0.0000 </r>
       <r>    6.3987    0.0000 </r>
       <r>    6.8019    0.0000 </r>
       <r>    7.2968    0.0000 </r>
       <r>    7.7808    0.0000 </r>
       <r>    8.0702    0.0000 </r>
       <r>    9.0451    0.0000 </r>
       <r>    9.1034    0.0000 </r>
       <r>    9.1758    0.0000 </r>
       <r>    9.8875    0.0000 </r>
       <r>   10.1864    0.0000 </r>
       <r>   10.7009    0.0000 </r>
       <r>   11.0774    0.0000 </r>
       <r>   11.3252    0.0000 </r>
       <r>   11.9504    0.0000 </r>
       <r>   12.3553    0.0000 </r>
       <r>   12.9851    0.0000 </r>
       <r>   13.0361    0.0000 </r>
       <r>   13.7898    0.0000 </r>
       <r>   14.3800    0.0000 </r>
       <r>   14.3959    0.0000 </r>
       <r>   15.0297    0.0000 </r>
       <r>   15.1230    0.0000 </r>
       <r>   15.6135    0.0000 </r>
       <r>   16.3745    0.0000 </r>
      </set>
      <set comment="kpoint 15">
       <r>  -12.2514    1.0000 </r>
       <r>  -12.0767    1.0000 </r>
       <r>   -8.4094    1.0000 </r>
       <r>   -8.3567    1.0000 </r>
       <r>   -6.0526    1.0000 </r>
       <r>   -6.0467    1.0000 </r>
       <r>   -4.6357    1.0000 </r>
       <r>   -4.4499    1.0000 </r>
       <r>   -3.8610    1.0000 </r>
       <r>   -3.2647    1.0000 </r>
       <r>   -2.0392    1.0000 </r>
       <r>   -1.8736    1.0000 </r>
       <r>   -1.1020    1.0000 </r>
       <r>   -1.0404    1.0000 </r>
       <r>   -0.6294    1.0000 </r>
       <r>   -0.6228    1.0000 </r>
       <r>    0.0078    1.0000 </r>
       <r>    0.0514    1.0000 </r>
       <r>    0.8994    1.0000 </r>
       <r>    0.9657    1.0000 </r>
       <r>    1.0065    1.0000 </r>
       <r>    1.2266    1.0000 </r>
       <r>    6.1992    0.0000 </r>
       <r>    6.3174    0.0000 </r>
       <r>    6.8765    0.0000 </r>
       <r>    7.2161    0.0000 </r>
       <r>    7.2747    0.0000 </r>
       <r>    7.6210    0.0000 </r>
       <r>    7.9279    0.0000 </r>
       <r>    8.4393    0.0000 </r>
       <r>    9.1011    0.0000 </r>
       <r>    9.1333    0.0000 </r>
       <r>   10.0113    0.0000 </r>
       <r>   10.4833    0.0000 </r>
       <r>   10.7075    0.0000 </r>
       <r>   10.9778    0.0000 </r>
       <r>   11.7311    0.0000 </r>
       <r>   11.7494    0.0000 </r>
       <r>   12.1337    0.0000 </r>
       <r>   12.9093    0.0000 </r>
       <r>   13.4151    0.0000 </r>
       <r>   13.7625    0.0000 </r>
       <r>   14.2276    0.0000 </r>
       <r>   14.3822    0.0000 </r>
       <r>   14.9926    0.0000 </r>
       <r>   15.1325    0.0000 </r>
       <r>   15.9900    0.0000 </r>
       <r>   16.2939    0.0000 </r>
      </set>
      <set comment="kpoint 16">
       <r>  -12.5990    1.0000 </r>
       <r>  -11.4702    1.0000 </r>
       <r>   -8.5608    1.0000 </r>
       <r>   -8.3001    1.0000 </r>
       <r>   -5.9231    1.0000 </r>
       <r>   -5.6110    1.0000 </r>
       <r>   -4.9351    1.0000 </r>
       <r>   -4.5455    1.0000 </r>
       <r>   -4.4292    1.0000 </r>
       <r>   -4.1213    1.0000 </r>
       <r>   -3.4056    1.0000 </r>
       <r>   -1.2201    1.0000 </r>
       <r>   -1.0677    1.0000 </r>
       <r>   -1.0023    1.0000 </r>
       <r>   -0.1944    1.0000 </r>
       <r>    0.2193    1.0000 </r>
       <r>    0.3445    1.0000 </r>
       <r>    0.5948    1.0000 </r>
       <r>    0.7863    1.0000 </r>
       <r>    0.9830    1.0000 </r>
       <r>    0.9972    1.0000 </r>
       <r>    2.3417    0.0000 </r>
       <r>    4.9432    0.0000 </r>
       <r>    5.1588    0.0000 </r>
       <r>    6.3557    0.0000 </r>
       <r>    6.5852    0.0000 </r>
       <r>    7.2663    0.0000 </r>
       <r>    7.9670    0.0000 </r>
       <r>    8.7004    0.0000 </r>
       <r>    9.0577    0.0000 </r>
       <r>    9.4638    0.0000 </r>
       <r>    9.5786    0.0000 </r>
       <r>    9.6520    0.0000 </r>
       <r>   10.7420    0.0000 </r>
       <r>   11.2679    0.0000 </r>
       <r>   11.9650    0.0000 </r>
       <r>   12.0166    0.0000 </r>
       <r>   12.2938    0.0000 </r>
       <r>   12.4224    0.0000 </r>
       <r>   12.4468    0.0000 </r>
       <r>   12.5638    0.0000 </r>
       <r>   12.9906    0.0000 </r>
       <r>   13.7924    0.0000 </r>
       <r>   13.8790    0.0000 </r>
       <r>   14.4166    0.0000 </r>
       <r>   15.1014    0.0000 </r>
       <r>   15.4019    0.0000 </r>
       <r>   15.8588    0.0000 </r>
      </set>
      <set comment="kpoint 17">
       <r>  -12.5557    1.0000 </r>
       <r>  -11.5432    1.0000 </r>
       <r>   -8.5389    1.0000 </r>
       <r>   -8.2907    1.0000 </r>
       <r>   -5.8451    1.0000 </r>
       <r>   -5.5762    1.0000 </r>
       <r>   -5.2723    1.0000 </r>
       <r>   -4.6805    1.0000 </r>
       <r>   -4.4947    1.0000 </r>
       <r>   -3.6565    1.0000 </r>
       <r>   -3.0670    1.0000 </r>
       <r>   -1.3831    1.0000 </r>
       <r>   -1.1626    1.0000 </r>
       <r>   -1.0170    1.0000 </r>
       <r>   -0.1957    1.0000 </r>
       <r>    0.2044    1.0000 </r>
       <r>    0.2764    1.0000 </r>
       <r>    0.5741    1.0000 </r>
       <r>    0.6650    1.0000 </r>
       <r>    0.9177    1.0000 </r>
       <r>    0.9557    1.0000 </r>
       <r>    2.2039    0.0000 </r>
       <r>    5.0392    0.0000 </r>
       <r>    5.4905    0.0000 </r>
       <r>    6.3018    0.0000 </r>
       <r>    6.7169    0.0000 </r>
       <r>    7.4018    0.0000 </r>
       <r>    7.9245    0.0000 </r>
       <r>    8.6333    0.0000 </r>
       <r>    9.1739    0.0000 </r>
       <r>    9.4276    0.0000 </r>
       <r>    9.7888    0.0000 </r>
       <r>    9.8961    0.0000 </r>
       <r>   10.3342    0.0000 </r>
       <r>   10.7057    0.0000 </r>
       <r>   11.7044    0.0000 </r>
       <r>   11.8843    0.0000 </r>
       <r>   12.2440    0.0000 </r>
       <r>   12.4774    0.0000 </r>
       <r>   12.6411    0.0000 </r>
       <r>   12.9597    0.0000 </r>
       <r>   13.3902    0.0000 </r>
       <r>   13.7901    0.0000 </r>
       <r>   13.9229    0.0000 </r>
       <r>   14.2533    0.0000 </r>
       <r>   15.0762    0.0000 </r>
       <r>   15.4309    0.0000 </r>
       <r>   15.7298    0.0000 </r>
      </set>
      <set comment="kpoint 18">
       <r>  -12.4711    1.0000 </r>
       <r>  -11.6747    1.0000 </r>
       <r>   -8.4941    1.0000 </r>
       <r>   -8.2798    1.0000 </r>
       <r>   -5.8078    1.0000 </r>
       <r>   -5.6604    1.0000 </r>
       <r>   -5.4206    1.0000 </r>
       <r>   -4.6547    1.0000 </r>
       <r>   -4.6171    1.0000 </r>
       <r>   -3.1170    1.0000 </r>
       <r>   -2.5972    1.0000 </r>
       <r>   -1.8672    1.0000 </r>
       <r>   -1.1020    1.0000 </r>
       <r>   -1.0357    1.0000 </r>
       <r>   -0.2141    1.0000 </r>
       <r>   -0.0499    1.0000 </r>
       <r>    0.3147    1.0000 </r>
       <r>    0.5062    1.0000 </r>
       <r>    0.5224    1.0000 </r>
       <r>    0.8293    1.0000 </r>
       <r>    0.8888    1.0000 </r>
       <r>    1.9436    0.0459 </r>
       <r>    5.3649    0.0000 </r>
       <r>    5.9653    0.0000 </r>
       <r>    6.2746    0.0000 </r>
       <r>    6.8298    0.0000 </r>
       <r>    7.5694    0.0000 </r>
       <r>    7.9447    0.0000 </r>
       <r>    8.5588    0.0000 </r>
       <r>    9.3630    0.0000 </r>
       <r>    9.3935    0.0000 </r>
       <r>    9.5909    0.0000 </r>
       <r>   10.0422    0.0000 </r>
       <r>   10.1111    0.0000 </r>
       <r>   10.5588    0.0000 </r>
       <r>   11.3861    0.0000 </r>
       <r>   11.3965    0.0000 </r>
       <r>   12.2374    0.0000 </r>
       <r>   12.7396    0.0000 </r>
       <r>   12.9551    0.0000 </r>
       <r>   13.1788    0.0000 </r>
       <r>   13.5207    0.0000 </r>
       <r>   13.7638    0.0000 </r>
       <r>   14.0152    0.0000 </r>
       <r>   14.3889    0.0000 </r>
       <r>   15.1676    0.0000 </r>
       <r>   15.3571    0.0000 </r>
       <r>   15.9910    0.0000 </r>
      </set>
      <set comment="kpoint 19">
       <r>  -12.3491    1.0000 </r>
       <r>  -11.8421    1.0000 </r>
       <r>   -8.4310    1.0000 </r>
       <r>   -8.2815    1.0000 </r>
       <r>   -5.8818    1.0000 </r>
       <r>   -5.8691    1.0000 </r>
       <r>   -5.3075    1.0000 </r>
       <r>   -4.7815    1.0000 </r>
       <r>   -4.3379    1.0000 </r>
       <r>   -2.7634    1.0000 </r>
       <r>   -2.2786    1.0000 </r>
       <r>   -2.1215    1.0000 </r>
       <r>   -1.0439    1.0000 </r>
       <r>   -1.0173    1.0000 </r>
       <r>   -0.3740    1.0000 </r>
       <r>   -0.3293    1.0000 </r>
       <r>    0.1516    1.0000 </r>
       <r>    0.3756    1.0000 </r>
       <r>    0.6619    1.0000 </r>
       <r>    0.7734    1.0000 </r>
       <r>    0.8225    1.0000 </r>
       <r>    1.6047    1.0000 </r>
       <r>    5.8924    0.0000 </r>
       <r>    6.3067    0.0000 </r>
       <r>    6.5443    0.0000 </r>
       <r>    6.7819    0.0000 </r>
       <r>    7.5688    0.0000 </r>
       <r>    8.0029    0.0000 </r>
       <r>    8.5127    0.0000 </r>
       <r>    8.9141    0.0000 </r>
       <r>    9.2704    0.0000 </r>
       <r>    9.5816    0.0000 </r>
       <r>    9.9035    0.0000 </r>
       <r>   10.3440    0.0000 </r>
       <r>   10.7933    0.0000 </r>
       <r>   11.0921    0.0000 </r>
       <r>   11.4421    0.0000 </r>
       <r>   12.1668    0.0000 </r>
       <r>   12.4210    0.0000 </r>
       <r>   13.1579    0.0000 </r>
       <r>   13.2790    0.0000 </r>
       <r>   13.6588    0.0000 </r>
       <r>   13.8996    0.0000 </r>
       <r>   14.1504    0.0000 </r>
       <r>   14.7567    0.0000 </r>
       <r>   14.9909    0.0000 </r>
       <r>   15.4329    0.0000 </r>
       <r>   16.3267    0.0000 </r>
      </set>
      <set comment="kpoint 20">
       <r>  -12.1962    1.0000 </r>
       <r>  -12.0224    1.0000 </r>
       <r>   -8.3629    1.0000 </r>
       <r>   -8.3087    1.0000 </r>
       <r>   -5.9752    1.0000 </r>
       <r>   -5.9673    1.0000 </r>
       <r>   -5.1462    1.0000 </r>
       <r>   -4.9645    1.0000 </r>
       <r>   -3.8288    1.0000 </r>
       <r>   -3.2345    1.0000 </r>
       <r>   -1.9823    1.0000 </r>
       <r>   -1.8276    1.0000 </r>
       <r>   -0.9806    1.0000 </r>
       <r>   -0.9213    1.0000 </r>
       <r>   -0.6717    1.0000 </r>
       <r>   -0.6286    1.0000 </r>
       <r>    0.1272    1.0000 </r>
       <r>    0.2277    1.0000 </r>
       <r>    0.7578    1.0000 </r>
       <r>    0.7737    1.0000 </r>
       <r>    0.9252    1.0000 </r>
       <r>    1.2483    1.0000 </r>
       <r>    6.4399    0.0000 </r>
       <r>    6.5534    0.0000 </r>
       <r>    6.6191    0.0000 </r>
       <r>    7.1344    0.0000 </r>
       <r>    7.2047    0.0000 </r>
       <r>    7.6915    0.0000 </r>
       <r>    8.5014    0.0000 </r>
       <r>    8.5656    0.0000 </r>
       <r>    9.4646    0.0000 </r>
       <r>    9.6375    0.0000 </r>
       <r>    9.8435    0.0000 </r>
       <r>   10.1404    0.0000 </r>
       <r>   10.8576    0.0000 </r>
       <r>   11.2321    0.0000 </r>
       <r>   11.8684    0.0000 </r>
       <r>   11.9434    0.0000 </r>
       <r>   12.2553    0.0000 </r>
       <r>   13.1459    0.0000 </r>
       <r>   13.4366    0.0000 </r>
       <r>   13.6223    0.0000 </r>
       <r>   13.8377    0.0000 </r>
       <r>   13.9464    0.0000 </r>
       <r>   15.0989    0.0000 </r>
       <r>   15.1164    0.0000 </r>
       <r>   15.6662    0.0000 </r>
       <r>   15.9683    0.0000 </r>
      </set>
      <set comment="kpoint 21">
       <r>  -12.5389    1.0000 </r>
[...]
       <r>   -2.3158    1.0000 </r>
       <r>   -2.1473    1.0000 </r>
       <r>   -1.9835    1.0000 </r>
       <r>   -1.4913    1.0000 </r>
       <r>   -0.7383    1.0000 </r>
       <r>   -0.2024    1.0000 </r>
       <r>    0.1653    1.0000 </r>
       <r>    0.3846    1.0000 </r>
       <r>    0.5125    1.0000 </r>
       <r>    1.5881    1.0000 </r>
       <r>    1.6154    1.0000 </r>
       <r>    1.8707    0.6457 </r>
       <r>    5.5111    0.0000 </r>
       <r>    6.1458    0.0000 </r>
       <r>    6.6663    0.0000 </r>
       <r>    7.2165    0.0000 </r>
       <r>    7.7806    0.0000 </r>
       <r>    8.2237    0.0000 </r>
       <r>    8.9902    0.0000 </r>
       <r>    9.1494    0.0000 </r>
       <r>    9.7189    0.0000 </r>
       <r>    9.9544    0.0000 </r>
       <r>   10.5853    0.0000 </r>
       <r>   11.0297    0.0000 </r>
       <r>   11.2045    0.0000 </r>
       <r>   11.4763    0.0000 </r>
       <r>   11.5651    0.0000 </r>
       <r>   11.9480    0.0000 </r>
       <r>   12.8355    0.0000 </r>
       <r>   13.1427    0.0000 </r>
       <r>   13.3660    0.0000 </r>
       <r>   13.7463    0.0000 </r>
       <r>   13.8703    0.0000 </r>
       <r>   14.1534    0.0000 </r>
       <r>   14.4745    0.0000 </r>
       <r>   14.9649    0.0000 </r>
       <r>   15.0918    0.0000 </r>
       <r>   15.3922    0.0000 </r>
      </set>
      <set comment="kpoint 175">
       <r>  -12.0208    1.0000 </r>
       <r>  -11.8817    1.0000 </r>
       <r>   -8.5471    1.0000 </r>
       <r>   -8.4348    1.0000 </r>
       <r>   -5.9267    1.0000 </r>
       <r>   -5.8205    1.0000 </r>
       <r>   -4.8921    1.0000 </r>
       <r>   -4.5685    1.0000 </r>
       <r>   -4.4139    1.0000 </r>
       <r>   -3.9757    1.0000 </r>
       <r>   -2.1995    1.0000 </r>
       <r>   -2.1379    1.0000 </r>
       <r>   -2.0581    1.0000 </r>
       <r>   -1.7738    1.0000 </r>
       <r>   -0.2201    1.0000 </r>
       <r>   -0.0065    1.0000 </r>
       <r>    0.3876    1.0000 </r>
       <r>    0.4755    1.0000 </r>
       <r>    0.5474    1.0000 </r>
       <r>    0.8736    1.0000 </r>
       <r>    1.6294    1.0000 </r>
       <r>    1.7290    1.0000 </r>
       <r>    5.8581    0.0000 </r>
       <r>    6.0437    0.0000 </r>
       <r>    6.8685    0.0000 </r>
       <r>    7.4053    0.0000 </r>
       <r>    7.4724    0.0000 </r>
       <r>    7.5751    0.0000 </r>
       <r>    9.3948    0.0000 </r>
       <r>    9.5787    0.0000 </r>
       <r>    9.7875    0.0000 </r>
       <r>    9.9651    0.0000 </r>
       <r>   10.4618    0.0000 </r>
       <r>   10.8116    0.0000 </r>
       <r>   11.2340    0.0000 </r>
       <r>   11.5071    0.0000 </r>
       <r>   11.5175    0.0000 </r>
       <r>   11.6106    0.0000 </r>
       <r>   13.0800    0.0000 </r>
       <r>   13.1860    0.0000 </r>
       <r>   13.7191    0.0000 </r>
       <r>   14.0518    0.0000 </r>
       <r>   14.1860    0.0000 </r>
       <r>   14.2888    0.0000 </r>
       <r>   14.5908    0.0000 </r>
       <r>   14.7349    0.0000 </r>
       <r>   14.8833    0.0000 </r>
       <r>   15.0445    0.0000 </r>
      </set>
     </set>
    </set>
   </array>
  </eigenvalues>
  <separator name="orbital magnetization" >
   <v name="MAGDIPOLOUT">      0.00000000      0.00000000      0.00000000</v>
  </separator>
  <dos>
   <i name="efermi">      1.88396078 </i>
   <total>
    <array>
     <dimension dim="1">gridpoints</dimension>
     <dimension dim="2">spin</dimension>
     <field>energy</field>
     <field>total</field>
     <field>integrated</field>
     <set>
      <set comment="spin 1">
       <r>   -14.1867     0.0000     0.0000 </r>
       <r>   -14.0795     0.0000     0.0000 </r>
       <r>   -13.9723     0.0000     0.0000 </r>
       <r>   -13.8651     0.0000     0.0000 </r>
       <r>   -13.7579     0.0000     0.0000 </r>
       <r>   -13.6507     0.0000     0.0000 </r>
       <r>   -13.5435     0.0000     0.0000 </r>
       <r>   -13.4363     0.0000     0.0000 </r>
       <r>   -13.3291     0.0000     0.0000 </r>
       <r>   -13.2219     0.0000     0.0000 </r>
       <r>   -13.1147     0.0000     0.0000 </r>
       <r>   -13.0075     0.0000     0.0000 </r>
       <r>   -12.9003     0.0000     0.0000 </r>
       <r>   -12.7930     0.0038     0.0004 </r>
       <r>   -12.6858     0.5087     0.0549 </r>
       <r>   -12.5786     2.3906     0.3112 </r>
       <r>   -12.4714     3.5644     0.6933 </r>
       <r>   -12.3642     4.3714     1.1620 </r>
       <r>   -12.2570     3.5388     1.5414 </r>
       <r>   -12.1498     2.7350     1.8346 </r>
       <r>   -12.0426     2.7510     2.1295 </r>
       <r>   -11.9354     2.5051     2.3981 </r>
       <r>   -11.8282     2.7711     2.6951 </r>
       <r>   -11.7210     3.4275     3.0626 </r>
       <r>   -11.6138     3.5353     3.4416 </r>
       <r>   -11.5066     3.1143     3.7754 </r>
       <r>   -11.3994     1.6669     3.9541 </r>
       <r>   -11.2922     0.4205     3.9992 </r>
       <r>   -11.1850     0.0072     4.0000 </r>
       <r>   -11.0778     0.0000     4.0000 </r>
       <r>   -10.9706     0.0000     4.0000 </r>
       <r>   -10.8634     0.0000     4.0000 </r>
       <r>   -10.7562     0.0000     4.0000 </r>
       <r>   -10.6490     0.0000     4.0000 </r>
       <r>   -10.5417     0.0000     4.0000 </r>
       <r>   -10.4345     0.0000     4.0000 </r>
       <r>   -10.3273     0.0000     4.0000 </r>
       <r>   -10.2201     0.0000     4.0000 </r>
       <r>   -10.1129     0.0000     4.0000 </r>
       <r>   -10.0057     0.0000     4.0000 </r>
       <r>    -9.8985     0.0000     4.0000 </r>
       <r>    -9.7913     0.0000     4.0000 </r>
       <r>    -9.6841     0.0000     4.0000 </r>
       <r>    -9.5769     0.0000     4.0000 </r>
       <r>    -9.4697     0.0000     4.0000 </r>
       <r>    -9.3625     0.0000     4.0000 </r>
       <r>    -9.2553     0.0000     4.0000 </r>
       <r>    -9.1481     0.0000     4.0000 </r>
       <r>    -9.0409     0.0000     4.0000 </r>
       <r>    -8.9337     0.0006     4.0001 </r>
       <r>    -8.8265     0.2765     4.0297 </r>
       <r>    -8.7193     2.0913     4.2539 </r>
       <r>    -8.6121     5.3329     4.8256 </r>
       <r>    -8.5049     6.9884     5.5748 </r>
       <r>    -8.3976     6.2968     6.2499 </r>
       <r>    -8.2904     5.3255     6.8208 </r>
       <r>    -8.1832     4.8353     7.3391 </r>
       <r>    -8.0760     3.8716     7.7542 </r>
       <r>    -7.9688     1.6647     7.9327 </r>
       <r>    -7.8616     0.5764     7.9945 </r>
       <r>    -7.7544     0.0517     8.0000 </r>
       <r>    -7.6472     0.0000     8.0000 </r>
       <r>    -7.5400     0.0000     8.0000 </r>
       <r>    -7.4328     0.0000     8.0000 </r>
       <r>    -7.3256     0.0000     8.0000 </r>
       <r>    -7.2184     0.0000     8.0000 </r>
       <r>    -7.1112     0.0000     8.0000 </r>
       <r>    -7.0040     0.0004     8.0000 </r>
       <r>    -6.8968     0.1130     8.0122 </r>
       <r>    -6.7896     0.2577     8.0398 </r>
       <r>    -6.6824     0.4263     8.0855 </r>
       <r>    -6.5752     0.7662     8.1676 </r>
       <r>    -6.4680     0.8511     8.2589 </r>
       <r>    -6.3608     1.4449     8.4138 </r>
       <r>    -6.2535     1.9635     8.6243 </r>
       <r>    -6.1463     3.0571     8.9520 </r>
       <r>    -6.0391     3.7836     9.3576 </r>
       <r>    -5.9319     4.1145     9.7987 </r>
       <r>    -5.8247     4.0452    10.2324 </r>
       <r>    -5.7175     3.8617    10.6464 </r>
       <r>    -5.6103     4.0727    11.0830 </r>
       <r>    -5.5031     4.2206    11.5354 </r>
       <r>    -5.3959     4.5452    12.0227 </r>
       <r>    -5.2887     4.5991    12.5158 </r>
       <r>    -5.1815     4.4909    12.9972 </r>
       <r>    -5.0743     3.8688    13.4120 </r>
       <r>    -4.9671     3.2275    13.7580 </r>
       <r>    -4.8599     2.9523    14.0745 </r>
       <r>    -4.7527     2.3370    14.3250 </r>
       <r>    -4.6455     2.8963    14.6355 </r>
       <r>    -4.5383     3.3690    14.9967 </r>
       <r>    -4.4311     3.4718    15.3689 </r>
       <r>    -4.3239     3.3318    15.7261 </r>
       <r>    -4.2167     2.9543    16.0428 </r>
       <r>    -4.1095     2.9074    16.3544 </r>
       <r>    -4.0022     2.9455    16.6702 </r>
       <r>    -3.8950     2.8602    16.9769 </r>
       <r>    -3.7878     3.1198    17.3113 </r>
       <r>    -3.6806     2.8745    17.6195 </r>
       <r>    -3.5734     2.7051    17.9095 </r>
       <r>    -3.4662     3.0651    18.2381 </r>
       <r>    -3.3590     2.6379    18.5209 </r>
       <r>    -3.2518     2.8619    18.8277 </r>
       <r>    -3.1446     2.7438    19.1218 </r>
       <r>    -3.0374     2.7402    19.4156 </r>
       <r>    -2.9302     3.0452    19.7420 </r>
       <r>    -2.8230     2.9746    20.0609 </r>
       <r>    -2.7158     2.4303    20.3215 </r>
       <r>    -2.6086     2.6572    20.6063 </r>
       <r>    -2.5014     3.0213    20.9302 </r>
       <r>    -2.3942     2.9852    21.2503 </r>
       <r>    -2.2870     3.1934    21.5926 </r>
       <r>    -2.1798     4.0094    22.0224 </r>
       <r>    -2.0726     3.6561    22.4144 </r>
       <r>    -1.9654     3.2744    22.7654 </r>
       <r>    -1.8581     5.1292    23.3153 </r>
       <r>    -1.7509     5.5780    23.9133 </r>
       <r>    -1.6437     5.6042    24.5141 </r>
       <r>    -1.5365     6.1836    25.1770 </r>
       <r>    -1.4293     6.1104    25.8321 </r>
       <r>    -1.3221     5.5674    26.4289 </r>
       <r>    -1.2149     4.6835    26.9310 </r>
       <r>    -1.1077     6.4979    27.6276 </r>
       <r>    -1.0005     3.9746    28.0537 </r>
       <r>    -0.8933     2.2702    28.2971 </r>
       <r>    -0.7861     2.6990    28.5864 </r>
       <r>    -0.6789     2.8799    28.8952 </r>
       <r>    -0.5717     4.5241    29.3802 </r>
       <r>    -0.4645     6.8634    30.1160 </r>
       <r>    -0.3573     5.6581    30.7225 </r>
       <r>    -0.2501     6.7057    31.4414 </r>
       <r>    -0.1429     6.3604    32.1233 </r>
       <r>    -0.0357     6.7467    32.8466 </r>
       <r>     0.0715     6.7554    33.5708 </r>
       <r>     0.1787     6.3002    34.2462 </r>
       <r>     0.2859     8.8054    35.1902 </r>
       <r>     0.3932     7.9827    36.0460 </r>
       <r>     0.5004     8.6973    36.9784 </r>
       <r>     0.6076     5.2408    37.5402 </r>
       <r>     0.7148     2.9336    37.8547 </r>
       <r>     0.8220     3.2939    38.2078 </r>
       <r>     0.9292     3.5872    38.5924 </r>
       <r>     1.0364     3.5602    38.9740 </r>
       <r>     1.1436     2.7911    39.2733 </r>
       <r>     1.2508     3.3925    39.6370 </r>
       <r>     1.3580     4.4982    40.1192 </r>
       <r>     1.4652     3.7780    40.5242 </r>
       <r>     1.5724     3.7245    40.9235 </r>
       <r>     1.6796     4.5765    41.4141 </r>
       <r>     1.7868     3.2271    41.7601 </r>
       <r>     1.8940     2.4803    42.0260 </r>
       <r>     2.0012     2.6596    42.3111 </r>
       <r>     2.1084     2.0925    42.5354 </r>
       <r>     2.2156     2.6527    42.8198 </r>
       <r>     2.3228     2.5697    43.0953 </r>
       <r>     2.4300     1.9346    43.3027 </r>
       <r>     2.5373     0.8493    43.3937 </r>
       <r>     2.6445     0.3782    43.4343 </r>
       <r>     2.7517     0.5723    43.4956 </r>
       <r>     2.8589     0.4196    43.5406 </r>
       <r>     2.9661     0.3056    43.5734 </r>
       <r>     3.0733     0.7600    43.6548 </r>
       <r>     3.1805     1.0136    43.7635 </r>
       <r>     3.2877     0.5354    43.8209 </r>
       <r>     3.3949     0.0128    43.8223 </r>
       <r>     3.5021     0.1321    43.8364 </r>
       <r>     3.6093     0.3960    43.8789 </r>
       <r>     3.7165     0.3293    43.9142 </r>
       <r>     3.8237     0.3730    43.9542 </r>
       <r>     3.9309     0.4011    43.9972 </r>
       <r>     4.0381     0.0262    44.0000 </r>
       <r>     4.1453     0.0000    44.0000 </r>
       <r>     4.2525     0.0314    44.0034 </r>
       <r>     4.3597     0.1763    44.0223 </r>
       <r>     4.4669     0.4025    44.0654 </r>
       <r>     4.5741     0.4710    44.1159 </r>
       <r>     4.6814     0.6340    44.1839 </r>
       <r>     4.7886     0.8890    44.2792 </r>
       <r>     4.8958     0.8414    44.3694 </r>
       <r>     5.0030     0.8572    44.4613 </r>
       <r>     5.1102     1.2772    44.5982 </r>
       <r>     5.2174     1.1523    44.7217 </r>
       <r>     5.3246     1.6333    44.8968 </r>
       <r>     5.4318     2.1914    45.1318 </r>
       <r>     5.5390     2.4870    45.3984 </r>
       <r>     5.6462     2.7890    45.6974 </r>
       <r>     5.7534     3.3685    46.0585 </r>
       <r>     5.8606     3.2186    46.4036 </r>
       <r>     5.9678     4.3142    46.8661 </r>
       <r>     6.0750     4.7577    47.3761 </r>
       <r>     6.1822     4.0452    47.8098 </r>
       <r>     6.2894     4.6237    48.3055 </r>
       <r>     6.3966     4.1514    48.7505 </r>
       <r>     6.5038     4.0185    49.1813 </r>
       <r>     6.6110     4.4788    49.6615 </r>
       <r>     6.7182     3.2271    50.0074 </r>
       <r>     6.8254     3.9982    50.4360 </r>
       <r>     6.9327     4.6132    50.9306 </r>
       <r>     7.0399     4.5507    51.4185 </r>
       <r>     7.1471     4.3411    51.8838 </r>
       <r>     7.2543     5.6006    52.4843 </r>
       <r>     7.3615     4.9217    53.0119 </r>
       <r>     7.4687     4.4529    53.4893 </r>
       <r>     7.5759     4.1904    53.9385 </r>
       <r>     7.6831     3.5662    54.3208 </r>
       <r>     7.7903     3.1249    54.6558 </r>
       <r>     7.8975     3.0095    54.9784 </r>
       <r>     8.0047     2.9786    55.2978 </r>
       <r>     8.1119     4.1687    55.7447 </r>
       <r>     8.2191     3.8872    56.1614 </r>
       <r>     8.3263     3.6895    56.5569 </r>
       <r>     8.4335     3.9910    56.9848 </r>
       <r>     8.5407     4.2152    57.4367 </r>
       <r>     8.6479     4.4582    57.9146 </r>
       <r>     8.7551     4.2207    58.3671 </r>
       <r>     8.8623     5.2654    58.9316 </r>
       <r>     8.9695     4.9428    59.4615 </r>
       <r>     9.0768     5.2926    60.0288 </r>
       <r>     9.1840     5.2371    60.5903 </r>
       <r>     9.2912     4.9702    61.1231 </r>
       <r>     9.3984     4.6900    61.6259 </r>
       <r>     9.5056     4.3693    62.0943 </r>
       <r>     9.6128     5.1051    62.6416 </r>
       <r>     9.7200     5.0265    63.1805 </r>
       <r>     9.8272     5.3006    63.7487 </r>
       <r>     9.9344     4.4794    64.2289 </r>
       <r>    10.0416     3.6354    64.6187 </r>
       <r>    10.1488     5.1778    65.1738 </r>
       <r>    10.2560     4.7143    65.6792 </r>
       <r>    10.3632     4.1174    66.1206 </r>
       <r>    10.4704     5.4173    66.7013 </r>
       <r>    10.5776     5.8091    67.3241 </r>
       <r>    10.6848     4.0654    67.7599 </r>
       <r>    10.7920     3.8846    68.1764 </r>
       <r>    10.8992     3.2366    68.5233 </r>
       <r>    11.0064     4.6677    69.0237 </r>
       <r>    11.1136     5.4834    69.6116 </r>
       <r>    11.2208     6.1902    70.2752 </r>
       <r>    11.3281     5.9931    70.9177 </r>
       <r>    11.4353     5.2846    71.4842 </r>
       <r>    11.5425     4.3011    71.9453 </r>
       <r>    11.6497     4.4735    72.4249 </r>
       <r>    11.7569     4.9330    72.9537 </r>
       <r>    11.8641     4.8058    73.4689 </r>
       <r>    11.9713     6.0354    74.1160 </r>
       <r>    12.0785     5.9598    74.7549 </r>
       <r>    12.1857     5.9905    75.3971 </r>
       <r>    12.2929     5.6163    75.9992 </r>
       <r>    12.4001     5.0077    76.5360 </r>
       <r>    12.5073     5.6877    77.1458 </r>
       <r>    12.6145     5.9886    77.7878 </r>
       <r>    12.7217     6.0216    78.4333 </r>
       <r>    12.8289     5.8882    79.0646 </r>
       <r>    12.9361     5.8635    79.6932 </r>
       <r>    13.0433     5.5953    80.2930 </r>
       <r>    13.1505     6.3488    80.9737 </r>
       <r>    13.2577     6.2642    81.6452 </r>
       <r>    13.3649     5.3869    82.2227 </r>
       <r>    13.4722     6.1335    82.8803 </r>
       <r>    13.5794     5.3420    83.4530 </r>
       <r>    13.6866     4.8107    83.9687 </r>
       <r>    13.7938     6.1298    84.6258 </r>
       <r>    13.9010     5.5239    85.2180 </r>
       <r>    14.0082     5.3447    85.7910 </r>
       <r>    14.1154     5.4754    86.3780 </r>
       <r>    14.2226     4.6857    86.8803 </r>
       <r>    14.3298     4.9059    87.4063 </r>
       <r>    14.4370     5.0184    87.9443 </r>
       <r>    14.5442     4.9612    88.4761 </r>
       <r>    14.6514     5.2728    89.0414 </r>
       <r>    14.7586     5.1669    89.5953 </r>
       <r>    14.8658     4.0923    90.0340 </r>
       <r>    14.9730     5.0808    90.5787 </r>
       <r>    15.0802     6.1864    91.2419 </r>
       <r>    15.1874     5.6403    91.8466 </r>
       <r>    15.2946     5.6734    92.4548 </r>
       <r>    15.4018     6.0288    93.1011 </r>
       <r>    15.5090     5.7346    93.7159 </r>
       <r>    15.6163     5.9514    94.3539 </r>
       <r>    15.7235     4.5933    94.8463 </r>
       <r>    15.8307     2.4695    95.1111 </r>
       <r>    15.9379     2.7059    95.4012 </r>
       <r>    16.0451     1.8609    95.6007 </r>
       <r>    16.1523     1.1450    95.7234 </r>
       <r>    16.2595     0.8906    95.8189 </r>
       <r>    16.3667     0.6977    95.8937 </r>
       <r>    16.4739     0.8144    95.9810 </r>
       <r>    16.5811     0.1756    95.9998 </r>
       <r>    16.6883     0.0017    96.0000 </r>
       <r>    16.7955     0.0000    96.0000 </r>
       <r>    16.9027     0.0000    96.0000 </r>
       <r>    17.0099     0.0000    96.0000 </r>
       <r>    17.1171     0.0000    96.0000 </r>
       <r>    17.2243     0.0000    96.0000 </r>
       <r>    17.3315     0.0000    96.0000 </r>
       <r>    17.4387     0.0000    96.0000 </r>
       <r>    17.5459     0.0000    96.0000 </r>
       <r>    17.6531     0.0000    96.0000 </r>
       <r>    17.7603     0.0000    96.0000 </r>
       <r>    17.8676     0.0000    96.0000 </r>
       <r>    17.9748     0.0000    96.0000 </r>
      </set>
     </set>
    </array>
   </total>
  </dos>
 </calculation>
 <structure name="finalpos" >
  <crystal>
   <varray name="basis" >
    <v>       5.69700000       0.00000000       0.00000000 </v>
    <v>       0.00000000       4.04790000       0.00000000 </v>
    <v>       0.00000000       0.00000000       6.20420000 </v>
   </varray>
   <i name="volume">    143.07435078 </i>
   <varray name="rec_basis" >
    <v>       0.17553098       0.00000000       0.00000000 </v>
    <v>       0.00000000       0.24704168       0.00000000 </v>
    <v>       0.00000000       0.00000000       0.16118114 </v>
   </varray>
  </crystal>
  <varray name="positions" >
   <v>       0.52123000       0.50000000       0.63796000 </v>
   <v>       0.47877000       0.50000000       0.36204000 </v>
   <v>       0.97877000       0.50000000       0.63796000 </v>
   <v>       0.02123000       0.50000000       0.36204000 </v>
   <v>       0.60090000       0.50000000       0.89991000 </v>
   <v>       0.39910000       0.50000000       0.10009000 </v>
   <v>       0.89910000       0.50000000       0.89991000 </v>
   <v>       0.10090000       0.50000000       0.10009000 </v>
   <v>       0.75000000       0.79171000       0.72973000 </v>
   <v>       0.25000000       0.20829000       0.27027000 </v>
   <v>       0.75000000       0.20829000       0.72973000 </v>
   <v>       0.25000000       0.79171000       0.27027000 </v>
   <v>       0.25000000       0.50000000       0.52367000 </v>
   <v>       0.75000000       0.50000000       0.47633000 </v>
  </varray>
 </structure>
</modeling>
