  14  14   0   0
  0.1021318E+02  0.5700971E-09  0.4044058E-09  0.6201871E-09  0.5000000E-15
  1.000000000000000E-004
  CAR 
 Dielectric                              
     46.70952756    -15.52883488 4000      1.91504332      1.00000000
    -15.529  0.0000E+00  0.0000E+00
    -15.513  0.0000E+00  0.0000E+00
    -15.498  0.0000E+00  0.0000E+00
    -15.482  0.0000E+00  0.0000E+00
    -15.467  0.0000E+00  0.0000E+00
    -15.451  0.0000E+00  0.0000E+00
    -15.435  0.0000E+00  0.0000E+00
    -15.420  0.0000E+00  0.0000E+00
    -15.404  0.0000E+00  0.0000E+00
    -15.389  0.0000E+00  0.0000E+00
    -15.373  0.0000E+00  0.0000E+00
    -15.358  0.0000E+00  0.0000E+00
    -15.342  0.0000E+00  0.0000E+00
    -15.327  0.0000E+00  0.0000E+00
    -15.311  0.0000E+00  0.0000E+00
    -15.295  0.0000E+00  0.0000E+00
    -15.280  0.0000E+00  0.0000E+00
    -15.264  0.0000E+00  0.0000E+00
    -15.249  0.0000E+00  0.0000E+00
    -15.233  0.0000E+00  0.0000E+00
    -15.218  0.0000E+00  0.0000E+00
    -15.202  0.0000E+00  0.0000E+00
    -15.186  0.0000E+00  0.0000E+00
    -15.171  0.0000E+00  0.0000E+00
    -15.155  0.0000E+00  0.0000E+00
    -15.140  0.0000E+00  0.0000E+00
    -15.124  0.0000E+00  0.0000E+00
    -15.109  0.0000E+00  0.0000E+00
    -15.093  0.0000E+00  0.0000E+00
    -15.077  0.0000E+00  0.0000E+00
    -15.062  0.0000E+00  0.0000E+00
    -15.046  0.0000E+00  0.0000E+00
    -15.031  0.0000E+00  0.0000E+00
    -15.015  0.0000E+00  0.0000E+00
    -15.000  0.0000E+00  0.0000E+00
    -14.984  0.0000E+00  0.0000E+00
    -14.969  0.0000E+00  0.0000E+00
    -14.953  0.0000E+00  0.0000E+00
    -14.937  0.0000E+00  0.0000E+00
    -14.922  0.0000E+00  0.0000E+00
    -14.906  0.0000E+00  0.0000E+00
    -14.891  0.0000E+00  0.0000E+00
    -14.875  0.0000E+00  0.0000E+00
    -14.860  0.0000E+00  0.0000E+00
    -14.844  0.0000E+00  0.0000E+00
    -14.828  0.0000E+00  0.0000E+00
    -14.813  0.0000E+00  0.0000E+00
    -14.797  0.0000E+00  0.0000E+00
    -14.782  0.0000E+00  0.0000E+00
    -14.766  0.0000E+00  0.0000E+00
    -14.751  0.0000E+00  0.0000E+00
    -14.735  0.0000E+00  0.0000E+00
    -14.720  0.0000E+00  0.0000E+00
    -14.704  0.0000E+00  0.0000E+00
    -14.688  0.0000E+00  0.0000E+00
    -14.673  0.0000E+00  0.0000E+00
    -14.657  0.0000E+00  0.0000E+00
    -14.642  0.0000E+00  0.0000E+00
    -14.626  0.0000E+00  0.0000E+00
    -14.611  0.0000E+00  0.0000E+00
    -14.595  0.0000E+00  0.0000E+00
    -14.579  0.0000E+00  0.0000E+00
    -14.564  0.0000E+00  0.0000E+00
    -14.548  0.0000E+00  0.0000E+00
    -14.533  0.0000E+00  0.0000E+00
    -14.517  0.0000E+00  0.0000E+00
    -14.502  0.0000E+00  0.0000E+00
    -14.486  0.0000E+00  0.0000E+00
    -14.471  0.0000E+00  0.0000E+00
    -14.455  0.0000E+00  0.0000E+00
    -14.439  0.0000E+00  0.0000E+00
    -14.424  0.0000E+00  0.0000E+00
    -14.408  0.0000E+00  0.0000E+00
    -14.393  0.0000E+00  0.0000E+00
    -14.377  0.0000E+00  0.0000E+00
    -14.362  0.0000E+00  0.0000E+00
    -14.346  0.0000E+00  0.0000E+00
    -14.330  0.0000E+00  0.0000E+00
    -14.315  0.0000E+00  0.0000E+00
    -14.299  0.0000E+00  0.0000E+00
    -14.284  0.0000E+00  0.0000E+00
    -14.268  0.0000E+00  0.0000E+00
    -14.253  0.0000E+00  0.0000E+00
    -14.237  0.0000E+00  0.0000E+00
    -14.222  0.0000E+00  0.0000E+00
    -14.206  0.0000E+00  0.0000E+00
    -14.190  0.0000E+00  0.0000E+00
    -14.175  0.0000E+00  0.0000E+00
    -14.159  0.0000E+00  0.0000E+00
    -14.144  0.0000E+00  0.0000E+00
    -14.128  0.0000E+00  0.0000E+00
    -14.113  0.0000E+00  0.0000E+00
    -14.097  0.0000E+00  0.0000E+00
    -14.081  0.0000E+00  0.0000E+00
    -14.066  0.0000E+00  0.0000E+00
    -14.050  0.0000E+00  0.0000E+00
    -14.035  0.0000E+00  0.0000E+00
    -14.019  0.0000E+00  0.0000E+00
    -14.004  0.0000E+00  0.0000E+00
    -13.988  0.0000E+00  0.0000E+00
    -13.972  0.0000E+00  0.0000E+00
    -13.957  0.0000E+00  0.0000E+00
    -13.941  0.0000E+00  0.0000E+00
    -13.926  0.0000E+00  0.0000E+00
    -13.910  0.0000E+00  0.0000E+00
    -13.895  0.0000E+00  0.0000E+00
    -13.879  0.0000E+00  0.0000E+00
    -13.864  0.0000E+00  0.0000E+00
    -13.848  0.0000E+00  0.0000E+00
    -13.832  0.0000E+00  0.0000E+00
    -13.817  0.0000E+00  0.0000E+00
    -13.801  0.0000E+00  0.0000E+00
    -13.786  0.0000E+00  0.0000E+00
    -13.770  0.0000E+00  0.0000E+00
    -13.755  0.0000E+00  0.0000E+00
    -13.739  0.0000E+00  0.0000E+00
    -13.723  0.0000E+00  0.0000E+00
    -13.708  0.0000E+00  0.0000E+00
    -13.692  0.0000E+00  0.0000E+00
    -13.677  0.0000E+00  0.0000E+00
    -13.661  0.0000E+00  0.0000E+00
    -13.646  0.0000E+00  0.0000E+00
    -13.630  0.0000E+00  0.0000E+00
    -13.615  0.0000E+00  0.0000E+00
    -13.599  0.0000E+00  0.0000E+00
    -13.583  0.0000E+00  0.0000E+00
    -13.568  0.0000E+00  0.0000E+00
    -13.552  0.0000E+00  0.0000E+00
    -13.537  0.0000E+00  0.0000E+00
    -13.521  0.0000E+00  0.0000E+00
    -13.506  0.0000E+00  0.0000E+00
    -13.490  0.0000E+00  0.0000E+00
    -13.474  0.0000E+00  0.0000E+00
    -13.459  0.0000E+00  0.0000E+00
    -13.443  0.0000E+00  0.0000E+00
    -13.428  0.0000E+00  0.0000E+00
    -13.412  0.0000E+00  0.0000E+00
    -13.397  0.0000E+00  0.0000E+00
    -13.381  0.0000E+00  0.0000E+00
    -13.366  0.0000E+00  0.0000E+00
    -13.350  0.0000E+00  0.0000E+00
    -13.334  0.0000E+00  0.0000E+00
    -13.319  0.0000E+00  0.0000E+00
    -13.303  0.0000E+00  0.0000E+00
    -13.288  0.0000E+00  0.0000E+00
    -13.272  0.0000E+00  0.0000E+00
    -13.257  0.0000E+00  0.0000E+00
    -13.241  0.0000E+00  0.0000E+00
    -13.225  0.0000E+00  0.0000E+00
    -13.210  0.0000E+00  0.0000E+00
    -13.194  0.0000E+00  0.0000E+00
    -13.179  0.0000E+00  0.0000E+00
    -13.163  0.0000E+00  0.0000E+00
    -13.148  0.0000E+00  0.0000E+00
    -13.132  0.0000E+00  0.0000E+00
    -13.116  0.0000E+00  0.0000E+00
    -13.101  0.0000E+00  0.0000E+00
    -13.085  0.0000E+00  0.0000E+00
    -13.070  0.0000E+00  0.0000E+00
    -13.054  0.0000E+00  0.0000E+00
    -13.039  0.0000E+00  0.0000E+00
    -13.023  0.0000E+00  0.0000E+00
    -13.008  0.0000E+00  0.0000E+00
    -12.992  0.0000E+00  0.0000E+00
    -12.976  0.0000E+00  0.0000E+00
    -12.961  0.0000E+00  0.0000E+00
    -12.945  0.0000E+00  0.0000E+00
    -12.930  0.0000E+00  0.0000E+00
    -12.914  0.0000E+00  0.0000E+00
    -12.899  0.0000E+00  0.0000E+00
    -12.883  0.0000E+00  0.0000E+00
    -12.867  0.0000E+00  0.0000E+00
    -12.852  0.0000E+00  0.0000E+00
    -12.836  0.0000E+00  0.0000E+00
    -12.821  0.0000E+00  0.0000E+00
    -12.805  0.0000E+00  0.0000E+00
    -12.790  0.0000E+00  0.0000E+00
    -12.774  0.0000E+00  0.0000E+00
    -12.759  0.3416E-18  0.5317E-20
    -12.743  0.9937E-11  0.1547E-12
    -12.727  0.1400E-05  0.2179E-07
    -12.712  0.2629E-02  0.4094E-04
    -12.696  0.1290E+00  0.2049E-02
    -12.681  0.5883E+00  0.1120E-01
    -12.665  0.9821E+00  0.2649E-01
    -12.650  0.1288E+01  0.4653E-01
    -12.634  0.1568E+01  0.7093E-01
    -12.618  0.1877E+01  0.1001E+00
    -12.603  0.2228E+01  0.1348E+00
    -12.587  0.2709E+01  0.1770E+00
    -12.572  0.2975E+01  0.2233E+00
    -12.556  0.3043E+01  0.2706E+00
    -12.541  0.3098E+01  0.3188E+00
    -12.525  0.3199E+01  0.3686E+00
    -12.510  0.3225E+01  0.4188E+00
    -12.494  0.3377E+01  0.4714E+00
    -12.478  0.3451E+01  0.5251E+00
    -12.463  0.3567E+01  0.5806E+00
    -12.447  0.3814E+01  0.6400E+00
    -12.432  0.3955E+01  0.7015E+00
    -12.416  0.4441E+01  0.7706E+00
    -12.401  0.4569E+01  0.8417E+00
    -12.385  0.4511E+01  0.9119E+00
    -12.369  0.4491E+01  0.9818E+00
    -12.354  0.4538E+01  0.1052E+01
    -12.338  0.4411E+01  0.1121E+01
    -12.323  0.4224E+01  0.1187E+01
    -12.307  0.3977E+01  0.1249E+01
    -12.292  0.3547E+01  0.1304E+01
    -12.276  0.3330E+01  0.1356E+01
    -12.261  0.3388E+01  0.1409E+01
    -12.245  0.3122E+01  0.1457E+01
    -12.229  0.3039E+01  0.1504E+01
    -12.214  0.2968E+01  0.1551E+01
    -12.198  0.2972E+01  0.1597E+01
    -12.183  0.2868E+01  0.1641E+01
    -12.167  0.2682E+01  0.1683E+01
    -12.152  0.2799E+01  0.1727E+01
    -12.136  0.2848E+01  0.1771E+01
    -12.120  0.2532E+01  0.1811E+01
    -12.105  0.2535E+01  0.1850E+01
    -12.089  0.2894E+01  0.1895E+01
    -12.074  0.2491E+01  0.1934E+01
    -12.058  0.2380E+01  0.1971E+01
    -12.043  0.2753E+01  0.2014E+01
    -12.027  0.2576E+01  0.2054E+01
    -12.011  0.2368E+01  0.2091E+01
    -11.996  0.2528E+01  0.2130E+01
    -11.980  0.2660E+01  0.2171E+01
    -11.965  0.2408E+01  0.2209E+01
    -11.949  0.2490E+01  0.2248E+01
    -11.934  0.2551E+01  0.2287E+01
    -11.918  0.2527E+01  0.2327E+01
    -11.903  0.2499E+01  0.2366E+01
    -11.887  0.2580E+01  0.2406E+01
    -11.871  0.2570E+01  0.2446E+01
    -11.856  0.2478E+01  0.2484E+01
    -11.840  0.2797E+01  0.2528E+01
    -11.825  0.2543E+01  0.2567E+01
    -11.809  0.2581E+01  0.2608E+01
    -11.794  0.2895E+01  0.2653E+01
    -11.778  0.2805E+01  0.2696E+01
    -11.762  0.2687E+01  0.2738E+01
    -11.747  0.3038E+01  0.2785E+01
    -11.731  0.3178E+01  0.2835E+01
    -11.716  0.3104E+01  0.2883E+01
    -11.700  0.3562E+01  0.2939E+01
    -11.685  0.3697E+01  0.2996E+01
    -11.669  0.3650E+01  0.3053E+01
    -11.654  0.3555E+01  0.3108E+01
    -11.638  0.3548E+01  0.3163E+01
    -11.622  0.3699E+01  0.3221E+01
    -11.607  0.3448E+01  0.3275E+01
    -11.591  0.3502E+01  0.3329E+01
    -11.576  0.3557E+01  0.3385E+01
    -11.560  0.3502E+01  0.3439E+01
    -11.545  0.3409E+01  0.3492E+01
    -11.529  0.3474E+01  0.3546E+01
    -11.513  0.3398E+01  0.3599E+01
    -11.498  0.3050E+01  0.3647E+01
    -11.482  0.2901E+01  0.3692E+01
    -11.467  0.2811E+01  0.3735E+01
    -11.451  0.2618E+01  0.3776E+01
    -11.436  0.2461E+01  0.3814E+01
    -11.420  0.2119E+01  0.3847E+01
    -11.405  0.1765E+01  0.3875E+01
    -11.389  0.1596E+01  0.3900E+01
    -11.373  0.1392E+01  0.3921E+01
    -11.358  0.1210E+01  0.3940E+01
    -11.342  0.1075E+01  0.3957E+01
    -11.327  0.8969E+00  0.3971E+01
    -11.311  0.7570E+00  0.3983E+01
    -11.296  0.5878E+00  0.3992E+01
    -11.280  0.3893E+00  0.3998E+01
    -11.264  0.1267E+00  0.4000E+01
    -11.249  0.5677E-02  0.4000E+01
    -11.233  0.8821E-05  0.4000E+01
    -11.218  0.1965E-09  0.4000E+01
    -11.202  0.4510E-16  0.4000E+01
    -11.187  0.0000E+00  0.4000E+01
    -11.171  0.0000E+00  0.4000E+01
    -11.155  0.0000E+00  0.4000E+01
    -11.140  0.0000E+00  0.4000E+01
    -11.124  0.0000E+00  0.4000E+01
    -11.109  0.0000E+00  0.4000E+01
    -11.093  0.0000E+00  0.4000E+01
    -11.078  0.0000E+00  0.4000E+01
    -11.062  0.0000E+00  0.4000E+01
    -11.047  0.0000E+00  0.4000E+01
    -11.031  0.0000E+00  0.4000E+01
    -11.015  0.0000E+00  0.4000E+01
    -11.000  0.0000E+00  0.4000E+01
    -10.984  0.0000E+00  0.4000E+01
    -10.969  0.0000E+00  0.4000E+01
    -10.953  0.0000E+00  0.4000E+01
    -10.938  0.0000E+00  0.4000E+01
    -10.922  0.0000E+00  0.4000E+01
    -10.906  0.0000E+00  0.4000E+01
    -10.891  0.0000E+00  0.4000E+01
    -10.875  0.0000E+00  0.4000E+01
    -10.860  0.0000E+00  0.4000E+01
    -10.844  0.0000E+00  0.4000E+01
    -10.829  0.0000E+00  0.4000E+01
    -10.813  0.0000E+00  0.4000E+01
    -10.798  0.0000E+00  0.4000E+01
    -10.782  0.0000E+00  0.4000E+01
    -10.766  0.0000E+00  0.4000E+01
    -10.751  0.0000E+00  0.4000E+01
    -10.735  0.0000E+00  0.4000E+01
    -10.720  0.0000E+00  0.4000E+01
    -10.704  0.0000E+00  0.4000E+01
    -10.689  0.0000E+00  0.4000E+01
    -10.673  0.0000E+00  0.4000E+01
    -10.657  0.0000E+00  0.4000E+01
    -10.642  0.0000E+00  0.4000E+01
    -10.626  0.0000E+00  0.4000E+01
    -10.611  0.0000E+00  0.4000E+01
    -10.595  0.0000E+00  0.4000E+01
    -10.580  0.0000E+00  0.4000E+01
    -10.564  0.0000E+00  0.4000E+01
    -10.549  0.0000E+00  0.4000E+01
    -10.533  0.0000E+00  0.4000E+01
    -10.517  0.0000E+00  0.4000E+01
    -10.502  0.0000E+00  0.4000E+01
    -10.486  0.0000E+00  0.4000E+01
    -10.471  0.0000E+00  0.4000E+01
    -10.455  0.0000E+00  0.4000E+01
    -10.440  0.0000E+00  0.4000E+01
    -10.424  0.0000E+00  0.4000E+01
    -10.408  0.0000E+00  0.4000E+01
    -10.393  0.0000E+00  0.4000E+01
    -10.377  0.0000E+00  0.4000E+01
    -10.362  0.0000E+00  0.4000E+01
    -10.346  0.0000E+00  0.4000E+01
    -10.331  0.0000E+00  0.4000E+01
    -10.315  0.0000E+00  0.4000E+01
    -10.300  0.0000E+00  0.4000E+01
    -10.284  0.0000E+00  0.4000E+01
    -10.268  0.0000E+00  0.4000E+01
    -10.253  0.0000E+00  0.4000E+01
    -10.237  0.0000E+00  0.4000E+01
    -10.222  0.0000E+00  0.4000E+01
    -10.206  0.0000E+00  0.4000E+01
    -10.191  0.0000E+00  0.4000E+01
    -10.175  0.0000E+00  0.4000E+01
    -10.159  0.0000E+00  0.4000E+01
    -10.144  0.0000E+00  0.4000E+01
    -10.128  0.0000E+00  0.4000E+01
    -10.113  0.0000E+00  0.4000E+01
    -10.097  0.0000E+00  0.4000E+01
    -10.082  0.0000E+00  0.4000E+01
    -10.066  0.0000E+00  0.4000E+01
    -10.050  0.0000E+00  0.4000E+01
    -10.035  0.0000E+00  0.4000E+01
    -10.019  0.0000E+00  0.4000E+01
    -10.004  0.0000E+00  0.4000E+01
     -9.988  0.0000E+00  0.4000E+01
     -9.973  0.0000E+00  0.4000E+01
     -9.957  0.0000E+00  0.4000E+01
     -9.942  0.0000E+00  0.4000E+01
     -9.926  0.0000E+00  0.4000E+01
     -9.910  0.0000E+00  0.4000E+01
     -9.895  0.0000E+00  0.4000E+01
     -9.879  0.0000E+00  0.4000E+01
     -9.864  0.0000E+00  0.4000E+01
     -9.848  0.0000E+00  0.4000E+01
     -9.833  0.0000E+00  0.4000E+01
     -9.817  0.0000E+00  0.4000E+01
     -9.801  0.0000E+00  0.4000E+01
     -9.786  0.0000E+00  0.4000E+01
     -9.770  0.0000E+00  0.4000E+01
     -9.755  0.0000E+00  0.4000E+01
     -9.739  0.0000E+00  0.4000E+01
     -9.724  0.0000E+00  0.4000E+01
     -9.708  0.0000E+00  0.4000E+01
     -9.693  0.0000E+00  0.4000E+01
     -9.677  0.0000E+00  0.4000E+01
     -9.661  0.0000E+00  0.4000E+01
     -9.646  0.0000E+00  0.4000E+01
     -9.630  0.0000E+00  0.4000E+01
     -9.615  0.0000E+00  0.4000E+01
     -9.599  0.0000E+00  0.4000E+01
     -9.584  0.0000E+00  0.4000E+01
     -9.568  0.0000E+00  0.4000E+01
     -9.552  0.0000E+00  0.4000E+01
     -9.537  0.0000E+00  0.4000E+01
     -9.521  0.0000E+00  0.4000E+01
     -9.506  0.0000E+00  0.4000E+01
     -9.490  0.0000E+00  0.4000E+01
     -9.475  0.0000E+00  0.4000E+01
     -9.459  0.0000E+00  0.4000E+01
     -9.444  0.0000E+00  0.4000E+01
     -9.428  0.0000E+00  0.4000E+01
     -9.412  0.0000E+00  0.4000E+01
     -9.397  0.0000E+00  0.4000E+01
     -9.381  0.0000E+00  0.4000E+01
     -9.366  0.0000E+00  0.4000E+01
     -9.350  0.0000E+00  0.4000E+01
     -9.335  0.0000E+00  0.4000E+01
     -9.319  0.0000E+00  0.4000E+01
     -9.303  0.0000E+00  0.4000E+01
     -9.288  0.0000E+00  0.4000E+01
     -9.272  0.0000E+00  0.4000E+01
     -9.257  0.0000E+00  0.4000E+01
     -9.241  0.0000E+00  0.4000E+01
     -9.226  0.0000E+00  0.4000E+01
     -9.210  0.0000E+00  0.4000E+01
     -9.194  0.0000E+00  0.4000E+01
     -9.179  0.0000E+00  0.4000E+01
     -9.163  0.0000E+00  0.4000E+01
     -9.148  0.0000E+00  0.4000E+01
     -9.132  0.0000E+00  0.4000E+01
     -9.117  0.0000E+00  0.4000E+01
     -9.101  0.0000E+00  0.4000E+01
     -9.086  0.0000E+00  0.4000E+01
     -9.070  0.0000E+00  0.4000E+01
     -9.054  0.0000E+00  0.4000E+01
     -9.039  0.0000E+00  0.4000E+01
     -9.023  0.0000E+00  0.4000E+01
     -9.008  0.0000E+00  0.4000E+01
     -8.992  0.0000E+00  0.4000E+01
     -8.977  0.0000E+00  0.4000E+01
     -8.961  0.0000E+00  0.4000E+01
     -8.945  0.0000E+00  0.4000E+01
     -8.930  0.0000E+00  0.4000E+01
     -8.914  0.0000E+00  0.4000E+01
     -8.899  0.0000E+00  0.4000E+01
     -8.883  0.2146E-15  0.4000E+01
     -8.868  0.7147E-09  0.4000E+01
     -8.852  0.2549E-04  0.4000E+01
     -8.837  0.1396E-01  0.4000E+01
     -8.821  0.2796E+00  0.4005E+01
     -8.805  0.8165E+00  0.4017E+01
     -8.790  0.1204E+01  0.4036E+01
     -8.774  0.1526E+01  0.4060E+01
     -8.759  0.1832E+01  0.4088E+01
     -8.743  0.2101E+01  0.4121E+01
     -8.728  0.2436E+01  0.4159E+01
     -8.712  0.2723E+01  0.4201E+01
     -8.696  0.3113E+01  0.4250E+01
     -8.681  0.3513E+01  0.4304E+01
     -8.665  0.4123E+01  0.4369E+01
     -8.650  0.5584E+01  0.4455E+01
     -8.634  0.6568E+01  0.4558E+01
     -8.619  0.6558E+01  0.4660E+01
     -8.603  0.6715E+01  0.4764E+01
     -8.588  0.6580E+01  0.4867E+01
     -8.572  0.6810E+01  0.4973E+01
     -8.556  0.6854E+01  0.5079E+01
     -8.541  0.6841E+01  0.5186E+01
     -8.525  0.6726E+01  0.5290E+01
     -8.510  0.6632E+01  0.5394E+01
     -8.494  0.6709E+01  0.5498E+01
     -8.479  0.6759E+01  0.5603E+01
     -8.463  0.6943E+01  0.5711E+01
     -8.447  0.7167E+01  0.5823E+01
     -8.432  0.6273E+01  0.5921E+01
     -8.416  0.4807E+01  0.5995E+01
     -8.401  0.3989E+01  0.6057E+01
     -8.385  0.3597E+01  0.6113E+01
     -8.370  0.3655E+01  0.6170E+01
     -8.354  0.4007E+01  0.6233E+01
     -8.339  0.4632E+01  0.6305E+01
     -8.323  0.5063E+01  0.6384E+01
     -8.307  0.5237E+01  0.6465E+01
     -8.292  0.5124E+01  0.6545E+01
     -8.276  0.4987E+01  0.6622E+01
     -8.261  0.4845E+01  0.6698E+01
     -8.245  0.4933E+01  0.6775E+01
     -8.230  0.4837E+01  0.6850E+01
     -8.214  0.4546E+01  0.6921E+01
     -8.198  0.4707E+01  0.6994E+01
     -8.183  0.4621E+01  0.7066E+01
     -8.167  0.4507E+01  0.7136E+01
     -8.152  0.4419E+01  0.7205E+01
     -8.136  0.4573E+01  0.7276E+01
     -8.121  0.4522E+01  0.7346E+01
     -8.105  0.4621E+01  0.7418E+01
     -8.089  0.4945E+01  0.7495E+01
     -8.074  0.4318E+01  0.7562E+01
     -8.058  0.3652E+01  0.7619E+01
     -8.043  0.3132E+01  0.7668E+01
     -8.027  0.2810E+01  0.7712E+01
     -8.012  0.2649E+01  0.7753E+01
     -7.996  0.2321E+01  0.7789E+01
     -7.981  0.1975E+01  0.7820E+01
     -7.965  0.1911E+01  0.7850E+01
     -7.949  0.1472E+01  0.7872E+01
     -7.934  0.1366E+01  0.7894E+01
     -7.918  0.1224E+01  0.7913E+01
     -7.903  0.1059E+01  0.7929E+01
     -7.887  0.9007E+00  0.7943E+01
     -7.872  0.8433E+00  0.7956E+01
     -7.856  0.6867E+00  0.7967E+01
     -7.840  0.6020E+00  0.7976E+01
     -7.825  0.5174E+00  0.7984E+01
     -7.809  0.4064E+00  0.7991E+01
     -7.794  0.3190E+00  0.7996E+01
     -7.778  0.2066E+00  0.7999E+01
     -7.763  0.6283E-01  0.8000E+01
     -7.747  0.2634E-02  0.8000E+01
     -7.732  0.3148E-05  0.8000E+01
     -7.716  0.4505E-10  0.8000E+01
     -7.700  0.5466E-17  0.8000E+01
     -7.685  0.0000E+00  0.8000E+01
     -7.669  0.0000E+00  0.8000E+01
     -7.654  0.0000E+00  0.8000E+01
     -7.638  0.0000E+00  0.8000E+01
     -7.623  0.0000E+00  0.8000E+01
     -7.607  0.0000E+00  0.8000E+01
     -7.591  0.0000E+00  0.8000E+01
     -7.576  0.0000E+00  0.8000E+01
     -7.560  0.0000E+00  0.8000E+01
     -7.545  0.0000E+00  0.8000E+01
     -7.529  0.0000E+00  0.8000E+01
     -7.514  0.0000E+00  0.8000E+01
     -7.498  0.0000E+00  0.8000E+01
     -7.483  0.0000E+00  0.8000E+01
     -7.467  0.0000E+00  0.8000E+01
     -7.451  0.0000E+00  0.8000E+01
     -7.436  0.0000E+00  0.8000E+01
     -7.420  0.0000E+00  0.8000E+01
     -7.405  0.0000E+00  0.8000E+01
     -7.389  0.0000E+00  0.8000E+01
     -7.374  0.0000E+00  0.8000E+01
     -7.358  0.0000E+00  0.8000E+01
     -7.342  0.0000E+00  0.8000E+01
     -7.327  0.0000E+00  0.8000E+01
     -7.311  0.0000E+00  0.8000E+01
     -7.296  0.0000E+00  0.8000E+01
     -7.280  0.0000E+00  0.8000E+01
     -7.265  0.0000E+00  0.8000E+01
     -7.249  0.0000E+00  0.8000E+01
     -7.233  0.0000E+00  0.8000E+01
     -7.218  0.0000E+00  0.8000E+01
     -7.202  0.0000E+00  0.8000E+01
     -7.187  0.0000E+00  0.8000E+01
     -7.171  0.0000E+00  0.8000E+01
     -7.156  0.0000E+00  0.8000E+01
     -7.140  0.0000E+00  0.8000E+01
     -7.125  0.0000E+00  0.8000E+01
     -7.109  0.0000E+00  0.8000E+01
     -7.093  0.0000E+00  0.8000E+01
     -7.078  0.0000E+00  0.8000E+01
     -7.062  0.0000E+00  0.8000E+01
     -7.047  0.0000E+00  0.8000E+01
     -7.031  0.0000E+00  0.8000E+01
     -7.016  0.5121E-13  0.8000E+01
     -7.000  0.3001E-07  0.8000E+01
     -6.984  0.1812E-03  0.8000E+01
     -6.969  0.1630E-01  0.8000E+01
     -6.953  0.6185E-01  0.8001E+01
     -6.938  0.1068E+00  0.8003E+01
     -6.922  0.1434E+00  0.8005E+01
     -6.907  0.1614E+00  0.8008E+01
     -6.891  0.1787E+00  0.8010E+01
     -6.876  0.2089E+00  0.8014E+01
     -6.860  0.2562E+00  0.8018E+01
     -6.844  0.2531E+00  0.8022E+01
     -6.829  0.2796E+00  0.8026E+01
     -6.813  0.3192E+00  0.8031E+01
     -6.798  0.2800E+00  0.8035E+01
     -6.782  0.3414E+00  0.8041E+01
     -6.767  0.4258E+00  0.8047E+01
     -6.751  0.4447E+00  0.8054E+01
     -6.735  0.4101E+00  0.8061E+01
     -6.720  0.4154E+00  0.8067E+01
     -6.704  0.4507E+00  0.8074E+01
     -6.689  0.4796E+00  0.8081E+01
     -6.673  0.6135E+00  0.8091E+01
     -6.658  0.6589E+00  0.8101E+01
     -6.642  0.6584E+00  0.8111E+01
     -6.627  0.6675E+00  0.8122E+01
     -6.611  0.6625E+00  0.8132E+01
     -6.595  0.7311E+00  0.8144E+01
     -6.580  0.7217E+00  0.8155E+01
     -6.564  0.7803E+00  0.8167E+01
     -6.549  0.8926E+00  0.8181E+01
     -6.533  0.8378E+00  0.8194E+01
     -6.518  0.7873E+00  0.8206E+01
     -6.502  0.8615E+00  0.8220E+01
     -6.486  0.8826E+00  0.8233E+01
     -6.471  0.8517E+00  0.8247E+01
     -6.455  0.9050E+00  0.8261E+01
     -6.440  0.1026E+01  0.8277E+01
     -6.424  0.1295E+01  0.8297E+01
     -6.409  0.1417E+01  0.8319E+01
     -6.393  0.1562E+01  0.8343E+01
     -6.378  0.1521E+01  0.8367E+01
     -6.362  0.1576E+01  0.8391E+01
     -6.346  0.1580E+01  0.8416E+01
     -6.331  0.1642E+01  0.8441E+01
     -6.315  0.1873E+01  0.8471E+01
     -6.300  0.2014E+01  0.8502E+01
     -6.284  0.2161E+01  0.8536E+01
     -6.269  0.2243E+01  0.8571E+01
     -6.253  0.2316E+01  0.8607E+01
     -6.237  0.2350E+01  0.8643E+01
     -6.222  0.2630E+01  0.8684E+01
     -6.206  0.2765E+01  0.8727E+01
     -6.191  0.3004E+01  0.8774E+01
     -6.175  0.3121E+01  0.8822E+01
     -6.160  0.3425E+01  0.8876E+01
     -6.144  0.3753E+01  0.8934E+01
     -6.128  0.3976E+01  0.8996E+01
     -6.113  0.3938E+01  0.9057E+01
     -6.097  0.3798E+01  0.9116E+01
     -6.082  0.3710E+01  0.9174E+01
     -6.066  0.3768E+01  0.9233E+01
     -6.051  0.4018E+01  0.9295E+01
     -6.035  0.3991E+01  0.9357E+01
     -6.020  0.4098E+01  0.9421E+01
     -6.004  0.4198E+01  0.9487E+01
     -5.988  0.4192E+01  0.9552E+01
     -5.973  0.4008E+01  0.9614E+01
     -5.957  0.3887E+01  0.9675E+01
     -5.942  0.4124E+01  0.9739E+01
     -5.926  0.4216E+01  0.9804E+01
     -5.911  0.3984E+01  0.9866E+01
     -5.895  0.3882E+01  0.9927E+01
     -5.879  0.3842E+01  0.9987E+01
     -5.864  0.4016E+01  0.1005E+02
     -5.848  0.3906E+01  0.1011E+02
     -5.833  0.3899E+01  0.1017E+02
     -5.817  0.3980E+01  0.1023E+02
     -5.802  0.4558E+01  0.1030E+02
     -5.786  0.4365E+01  0.1037E+02
     -5.771  0.4591E+01  0.1044E+02
     -5.755  0.4279E+01  0.1051E+02
     -5.739  0.4052E+01  0.1057E+02
     -5.724  0.4129E+01  0.1064E+02
     -5.708  0.3994E+01  0.1070E+02
     -5.693  0.3941E+01  0.1076E+02
     -5.677  0.3720E+01  0.1082E+02
     -5.662  0.3929E+01  0.1088E+02
     -5.646  0.4117E+01  0.1094E+02
     -5.630  0.3917E+01  0.1100E+02
     -5.615  0.3911E+01  0.1107E+02
     -5.599  0.4062E+01  0.1113E+02
     -5.584  0.4151E+01  0.1119E+02
     -5.568  0.4091E+01  0.1126E+02
     -5.553  0.4111E+01  0.1132E+02
     -5.537  0.4042E+01  0.1138E+02
     -5.522  0.4267E+01  0.1145E+02
     -5.506  0.4340E+01  0.1152E+02
     -5.490  0.4188E+01  0.1158E+02
     -5.475  0.4373E+01  0.1165E+02
     -5.459  0.4376E+01  0.1172E+02
     -5.444  0.4456E+01  0.1179E+02
     -5.428  0.4538E+01  0.1186E+02
     -5.413  0.4749E+01  0.1193E+02
     -5.397  0.4870E+01  0.1201E+02
     -5.381  0.4860E+01  0.1208E+02
     -5.366  0.4761E+01  0.1216E+02
     -5.350  0.4980E+01  0.1224E+02
     -5.335  0.5044E+01  0.1231E+02
     -5.319  0.4909E+01  0.1239E+02
     -5.304  0.4646E+01  0.1246E+02
     -5.288  0.4618E+01  0.1254E+02
     -5.273  0.4586E+01  0.1261E+02
     -5.257  0.4338E+01  0.1267E+02
     -5.241  0.4365E+01  0.1274E+02
     -5.226  0.4431E+01  0.1281E+02
     -5.210  0.4327E+01  0.1288E+02
     -5.195  0.4185E+01  0.1294E+02
     -5.179  0.4427E+01  0.1301E+02
     -5.164  0.4156E+01  0.1308E+02
     -5.148  0.3778E+01  0.1314E+02
     -5.132  0.3807E+01  0.1319E+02
     -5.117  0.3996E+01  0.1326E+02
     -5.101  0.3819E+01  0.1332E+02
     -5.086  0.3885E+01  0.1338E+02
     -5.070  0.3722E+01  0.1343E+02
     -5.055  0.3393E+01  0.1349E+02
     -5.039  0.3444E+01  0.1354E+02
     -5.023  0.3486E+01  0.1360E+02
     -5.008  0.3311E+01  0.1365E+02
     -4.992  0.3229E+01  0.1370E+02
     -4.977  0.3123E+01  0.1375E+02
     -4.961  0.2934E+01  0.1379E+02
     -4.946  0.2636E+01  0.1383E+02
     -4.930  0.2392E+01  0.1387E+02
     -4.915  0.2173E+01  0.1390E+02
     -4.899  0.2326E+01  0.1394E+02
     -4.883  0.2469E+01  0.1398E+02
     -4.868  0.2243E+01  0.1401E+02
     -4.852  0.2213E+01  0.1405E+02
     -4.837  0.2140E+01  0.1408E+02
     -4.821  0.2252E+01  0.1412E+02
     -4.806  0.2816E+01  0.1416E+02
     -4.790  0.2873E+01  0.1420E+02
     -4.774  0.2602E+01  0.1425E+02
     -4.759  0.2831E+01  0.1429E+02
     -4.743  0.3069E+01  0.1434E+02
     -4.728  0.3047E+01  0.1438E+02
     -4.712  0.2620E+01  0.1443E+02
     -4.697  0.3092E+01  0.1447E+02
     -4.681  0.3549E+01  0.1453E+02
     -4.666  0.3406E+01  0.1458E+02
     -4.650  0.3209E+01  0.1463E+02
     -4.634  0.3496E+01  0.1469E+02
     -4.619  0.3886E+01  0.1475E+02
     -4.603  0.4142E+01  0.1481E+02
     -4.588  0.3773E+01  0.1487E+02
     -4.572  0.3420E+01  0.1492E+02
     -4.557  0.3346E+01  0.1497E+02
     -4.541  0.3553E+01  0.1503E+02
     -4.525  0.3890E+01  0.1509E+02
     -4.510  0.3701E+01  0.1515E+02
     -4.494  0.3371E+01  0.1520E+02
     -4.479  0.3258E+01  0.1525E+02
     -4.463  0.3410E+01  0.1530E+02
     -4.448  0.3054E+01  0.1535E+02
     -4.432  0.3027E+01  0.1540E+02
     -4.417  0.3216E+01  0.1545E+02
     -4.401  0.3228E+01  0.1550E+02
     -4.385  0.2998E+01  0.1555E+02
     -4.370  0.3111E+01  0.1559E+02
     -4.354  0.3266E+01  0.1565E+02
     -4.339  0.3058E+01  0.1569E+02
     -4.323  0.3057E+01  0.1574E+02
     -4.308  0.2639E+01  0.1578E+02
     -4.292  0.2716E+01  0.1582E+02
     -4.276  0.2724E+01  0.1587E+02
     -4.261  0.2787E+01  0.1591E+02
     -4.245  0.3076E+01  0.1596E+02
     -4.230  0.3137E+01  0.1601E+02
     -4.214  0.2844E+01  0.1605E+02
     -4.199  0.2680E+01  0.1609E+02
     -4.183  0.2940E+01  0.1614E+02
     -4.167  0.2911E+01  0.1618E+02
     -4.152  0.2965E+01  0.1623E+02
     -4.136  0.3066E+01  0.1628E+02
     -4.121  0.2726E+01  0.1632E+02
     -4.105  0.2775E+01  0.1636E+02
     -4.090  0.2977E+01  0.1641E+02
     -4.074  0.3166E+01  0.1646E+02
     -4.059  0.2900E+01  0.1650E+02
     -4.043  0.2817E+01  0.1655E+02
     -4.027  0.3114E+01  0.1660E+02
     -4.012  0.2784E+01  0.1664E+02
     -3.996  0.2782E+01  0.1668E+02
     -3.981  0.3036E+01  0.1673E+02
     -3.965  0.2885E+01  0.1677E+02
     -3.950  0.3024E+01  0.1682E+02
     -3.934  0.3123E+01  0.1687E+02
     -3.918  0.3080E+01  0.1692E+02
     -3.903  0.3163E+01  0.1697E+02
     -3.887  0.3000E+01  0.1701E+02
     -3.872  0.2870E+01  0.1706E+02
     -3.856  0.2982E+01  0.1711E+02
     -3.841  0.3201E+01  0.1716E+02
     -3.825  0.2884E+01  0.1720E+02
     -3.810  0.2989E+01  0.1725E+02
     -3.794  0.3151E+01  0.1730E+02
     -3.778  0.2831E+01  0.1734E+02
     -3.763  0.2936E+01  0.1739E+02
     -3.747  0.3091E+01  0.1743E+02
     -3.732  0.3101E+01  0.1748E+02
     -3.716  0.2986E+01  0.1753E+02
     -3.701  0.2914E+01  0.1757E+02
     -3.685  0.2893E+01  0.1762E+02
     -3.669  0.2854E+01  0.1766E+02
     -3.654  0.2760E+01  0.1771E+02
     -3.638  0.2773E+01  0.1775E+02
     -3.623  0.2822E+01  0.1779E+02
     -3.607  0.2936E+01  0.1784E+02
     -3.592  0.2907E+01  0.1788E+02
     -3.576  0.2792E+01  0.1793E+02
     -3.561  0.2665E+01  0.1797E+02
     -3.545  0.2745E+01  0.1801E+02
     -3.529  0.2938E+01  0.1806E+02
     -3.514  0.2749E+01  0.1810E+02
     -3.498  0.2663E+01  0.1814E+02
     -3.483  0.2532E+01  0.1818E+02
     -3.467  0.2488E+01  0.1822E+02
     -3.452  0.2639E+01  0.1826E+02
     -3.436  0.2581E+01  0.1830E+02
     -3.420  0.2755E+01  0.1834E+02
     -3.405  0.2882E+01  0.1839E+02
     -3.389  0.2656E+01  0.1843E+02
     -3.374  0.2692E+01  0.1847E+02
     -3.358  0.2660E+01  0.1851E+02
     -3.343  0.2639E+01  0.1855E+02
     -3.327  0.2685E+01  0.1860E+02
     -3.312  0.2464E+01  0.1863E+02
     -3.296  0.2479E+01  0.1867E+02
     -3.280  0.2716E+01  0.1872E+02
     -3.265  0.2689E+01  0.1876E+02
     -3.249  0.2630E+01  0.1880E+02
     -3.234  0.2626E+01  0.1884E+02
     -3.218  0.2827E+01  0.1888E+02
     -3.203  0.2986E+01  0.1893E+02
     -3.187  0.2648E+01  0.1897E+02
     -3.171  0.2567E+01  0.1901E+02
     -3.156  0.2629E+01  0.1905E+02
     -3.140  0.2630E+01  0.1909E+02
     -3.125  0.2704E+01  0.1913E+02
     -3.109  0.2925E+01  0.1918E+02
     -3.094  0.2864E+01  0.1922E+02
     -3.078  0.3143E+01  0.1927E+02
     -3.062  0.3175E+01  0.1932E+02
     -3.047  0.3106E+01  0.1937E+02
     -3.031  0.3085E+01  0.1942E+02
     -3.016  0.3101E+01  0.1947E+02
     -3.000  0.3053E+01  0.1952E+02
     -2.985  0.3054E+01  0.1956E+02
     -2.969  0.2931E+01  0.1961E+02
     -2.954  0.2811E+01  0.1965E+02
     -2.938  0.3056E+01  0.1970E+02
     -2.922  0.3208E+01  0.1975E+02
     -2.907  0.3090E+01  0.1980E+02
     -2.891  0.3089E+01  0.1985E+02
     -2.876  0.2803E+01  0.1989E+02
     -2.860  0.2774E+01  0.1993E+02
     -2.845  0.2648E+01  0.1997E+02
     -2.829  0.2516E+01  0.2001E+02
     -2.813  0.2357E+01  0.2005E+02
     -2.798  0.2330E+01  0.2009E+02
     -2.782  0.2108E+01  0.2012E+02
     -2.767  0.2156E+01  0.2015E+02
     -2.751  0.2175E+01  0.2019E+02
     -2.736  0.2233E+01  0.2022E+02
     -2.720  0.2248E+01  0.2026E+02
     -2.705  0.2292E+01  0.2029E+02
     -2.689  0.2424E+01  0.2033E+02