Automatically generated mesh
    5520
Reciprocal lattice
    0.01562500000000    0.00000000000000    0.00000000000000             2
    0.04687500000000    0.00000000000000    0.00000000000000             2
    0.07812500000000    0.00000000000000    0.00000000000000             2
    0.10937500000000    0.00000000000000    0.00000000000000             2
    0.14062500000000    0.00000000000000    0.00000000000000             2
    0.17187500000000    0.00000000000000    0.00000000000000             2
    0.20312500000000    0.00000000000000    0.00000000000000             2
    0.23437500000000    0.00000000000000    0.00000000000000             2
    0.26562500000000    0.00000000000000    0.00000000000000             2
    0.29687500000000    0.00000000000000    0.00000000000000             2
    0.32812500000000    0.00000000000000    0.00000000000000             2
    0.35937500000000    0.00000000000000    0.00000000000000             2
    0.39062500000000    0.00000000000000    0.00000000000000             2
    0.42187500000000    0.00000000000000    0.00000000000000             2
    0.45312500000000    0.00000000000000    0.00000000000000             2
    0.48437500000000    0.00000000000000    0.00000000000000             2
    0.01562500000000    0.02222222222223    0.00000000000000             4
    0.04687500000000    0.02222222222223    0.00000000000000             4
    0.07812500000000    0.02222222222223    0.00000000000000             4
    0.10937500000000    0.02222222222223    0.00000000000000             4
    0.14062500000000    0.02222222222223    0.00000000000000             4
    0.17187500000000    0.02222222222223    0.00000000000000             4
    0.20312500000000    0.02222222222223    0.00000000000000             4
    0.23437500000000    0.02222222222223    0.00000000000000             4
    0.26562500000000    0.02222222222223    0.00000000000000             4
    0.29687500000000    0.02222222222223    0.00000000000000             4
    0.32812500000000    0.02222222222223    0.00000000000000             4
    0.35937500000000    0.02222222222223    0.00000000000000             4
    0.39062500000000    0.02222222222223    0.00000000000000             4
    0.42187500000000    0.02222222222223    0.00000000000000             4
    0.45312500000000    0.02222222222223    0.00000000000000             4
    0.48437500000000    0.02222222222223    0.00000000000000             4
    0.01562500000000    0.04444444444444    0.00000000000000             4
    0.04687500000000    0.04444444444444    0.00000000000000             4
    0.07812500000000    0.04444444444444    0.00000000000000             4
    0.10937500000000    0.04444444444444    0.00000000000000             4
    0.14062500000000    0.04444444444444    0.00000000000000             4
    0.17187500000000    0.04444444444444    0.00000000000000             4
    0.20312500000000    0.04444444444444    0.00000000000000             4
    0.23437500000000    0.04444444444444    0.00000000000000             4
    0.26562500000000    0.04444444444444    0.00000000000000             4
    0.29687500000000    0.04444444444444    0.00000000000000             4
    0.32812500000000    0.04444444444444    0.00000000000000             4
    0.35937500000000    0.04444444444444    0.00000000000000             4
    0.39062500000000    0.04444444444444    0.00000000000000             4
    0.42187500000000    0.04444444444444    0.00000000000000             4
    0.45312500000000    0.04444444444444    0.00000000000000             4
    0.48437500000000    0.04444444444444    0.00000000000000             4
    0.01562500000000    0.06666666666667    0.00000000000000             4
    0.04687500000000    0.06666666666667    0.00000000000000             4
    0.07812500000000    0.06666666666667    0.00000000000000             4
    0.10937500000000    0.06666666666667    0.00000000000000             4
    0.14062500000000    0.06666666666667    0.00000000000000             4
    0.17187500000000    0.06666666666667    0.00000000000000             4
    0.20312500000000    0.06666666666667    0.00000000000000             4
    0.23437500000000    0.06666666666667    0.00000000000000             4
    0.26562500000000    0.06666666666667    0.00000000000000             4
    0.29687500000000    0.06666666666667    0.00000000000000             4
    0.32812500000000    0.06666666666667    0.00000000000000             4
    0.35937500000000    0.06666666666667    0.00000000000000             4
    0.39062500000000    0.06666666666667    0.00000000000000             4
    0.42187500000000    0.06666666666667    0.00000000000000             4
    0.45312500000000    0.06666666666667    0.00000000000000             4
    0.48437500000000    0.06666666666667    0.00000000000000             4
    0.01562500000000    0.08888888888889    0.00000000000000             4
    0.04687500000000    0.08888888888889    0.00000000000000             4
    0.07812500000000    0.08888888888889    0.00000000000000             4
    0.10937500000000    0.08888888888889    0.00000000000000             4
    0.14062500000000    0.08888888888889    0.00000000000000             4
    0.17187500000000    0.08888888888889    0.00000000000000             4
    0.20312500000000    0.08888888888889    0.00000000000000             4
    0.23437500000000    0.08888888888889    0.00000000000000             4
    0.26562500000000    0.08888888888889    0.00000000000000             4
    0.29687500000000    0.08888888888889    0.00000000000000             4
    0.32812500000000    0.08888888888889    0.00000000000000             4
    0.35937500000000    0.08888888888889    0.00000000000000             4
    0.39062500000000    0.08888888888889    0.00000000000000             4
    0.42187500000000    0.08888888888889    0.00000000000000             4
    0.45312500000000    0.08888888888889    0.00000000000000             4
    0.48437500000000    0.08888888888889    0.00000000000000             4
    0.01562500000000    0.11111111111111    0.00000000000000             4
    0.04687500000000    0.11111111111111    0.00000000000000             4
    0.07812500000000    0.11111111111111    0.00000000000000             4
    0.10937500000000    0.11111111111111    0.00000000000000             4
    0.14062500000000    0.11111111111111    0.00000000000000             4
    0.17187500000000    0.11111111111111    0.00000000000000             4
    0.20312500000000    0.11111111111111    0.00000000000000             4
    0.23437500000000    0.11111111111111    0.00000000000000             4
    0.26562500000000    0.11111111111111    0.00000000000000             4
    0.29687500000000    0.11111111111111    0.00000000000000             4
    0.32812500000000    0.11111111111111    0.00000000000000             4
    0.35937500000000    0.11111111111111    0.00000000000000             4
    0.39062500000000    0.11111111111111    0.00000000000000             4
    0.42187500000000    0.11111111111111    0.00000000000000             4
    0.45312500000000    0.11111111111111    0.00000000000000             4
    0.48437500000000    0.11111111111111    0.00000000000000             4
    0.01562500000000    0.13333333333333    0.00000000000000             4
    0.04687500000000    0.13333333333333    0.00000000000000             4
    0.07812500000000    0.13333333333333    0.00000000000000             4
    0.10937500000000    0.13333333333333    0.00000000000000             4
    0.14062500000000    0.13333333333333    0.00000000000000             4
    0.17187500000000    0.13333333333333    0.00000000000000             4
    0.20312500000000    0.13333333333333    0.00000000000000             4
    0.23437500000000    0.13333333333333    0.00000000000000             4
    0.26562500000000    0.13333333333333    0.00000000000000             4
    0.29687500000000    0.13333333333333    0.00000000000000             4
    0.32812500000000    0.13333333333333    0.00000000000000             4
    0.35937500000000    0.13333333333333    0.00000000000000             4
    0.39062500000000    0.13333333333333    0.00000000000000             4
    0.42187500000000    0.13333333333333    0.00000000000000             4
    0.45312500000000    0.13333333333333    0.00000000000000             4
    0.48437500000000    0.13333333333333    0.00000000000000             4
    0.01562500000000    0.15555555555556    0.00000000000000             4
    0.04687500000000    0.15555555555556    0.00000000000000             4
    0.07812500000000    0.15555555555556    0.00000000000000             4
    0.10937500000000    0.15555555555556    0.00000000000000             4
    0.14062500000000    0.15555555555556    0.00000000000000             4
    0.17187500000000    0.15555555555556    0.00000000000000             4
    0.20312500000000    0.15555555555556    0.00000000000000             4
    0.23437500000000    0.15555555555556    0.00000000000000             4
    0.26562500000000    0.15555555555556    0.00000000000000             4
    0.29687500000000    0.15555555555556    0.00000000000000             4
    0.32812500000000    0.15555555555556    0.00000000000000             4
    0.35937500000000    0.15555555555556    0.00000000000000             4
    0.39062500000000    0.15555555555556    0.00000000000000             4
    0.42187500000000    0.15555555555556    0.00000000000000             4
    0.45312500000000    0.15555555555556    0.00000000000000             4
    0.48437500000000    0.15555555555556    0.00000000000000             4
    0.01562500000000    0.17777777777778    0.00000000000000             4
    0.04687500000000    0.17777777777778    0.00000000000000             4
    0.07812500000000    0.17777777777778    0.00000000000000             4
    0.10937500000000    0.17777777777778    0.00000000000000             4
    0.14062500000000    0.17777777777778    0.00000000000000             4
    0.17187500000000    0.17777777777778    0.00000000000000             4
    0.20312500000000    0.17777777777778    0.00000000000000             4
    0.23437500000000    0.17777777777778    0.00000000000000             4
    0.26562500000000    0.17777777777778    0.00000000000000             4
    0.29687500000000    0.17777777777778    0.00000000000000             4
    0.32812500000000    0.17777777777778    0.00000000000000             4
    0.35937500000000    0.17777777777778    0.00000000000000             4
    0.39062500000000    0.17777777777778    0.00000000000000             4
    0.42187500000000    0.17777777777778    0.00000000000000             4
    0.45312500000000    0.17777777777778    0.00000000000000             4
    0.48437500000000    0.17777777777778    0.00000000000000             4
    0.01562500000000    0.20000000000000    0.00000000000000             4
    0.04687500000000    0.20000000000000    0.00000000000000             4
    0.07812500000000    0.20000000000000    0.00000000000000             4
    0.10937500000000    0.20000000000000    0.00000000000000             4
    0.14062500000000    0.20000000000000    0.00000000000000             4
    0.17187500000000    0.20000000000000    0.00000000000000             4
    0.20312500000000    0.20000000000000    0.00000000000000             4
    0.23437500000000    0.20000000000000    0.00000000000000             4
    0.26562500000000    0.20000000000000    0.00000000000000             4
    0.29687500000000    0.20000000000000    0.00000000000000             4
    0.32812500000000    0.20000000000000    0.00000000000000             4
    0.35937500000000    0.20000000000000    0.00000000000000             4
    0.39062500000000    0.20000000000000    0.00000000000000             4
    0.42187500000000    0.20000000000000    0.00000000000000             4
    0.45312500000000    0.20000000000000    0.00000000000000             4
    0.48437500000000    0.20000000000000    0.00000000000000             4
    0.01562500000000    0.22222222222222    0.00000000000000             4
    0.04687500000000    0.22222222222222    0.00000000000000             4
    0.07812500000000    0.22222222222222    0.00000000000000             4
    0.10937500000000    0.22222222222222    0.00000000000000             4
    0.14062500000000    0.22222222222222    0.00000000000000             4
    0.17187500000000    0.22222222222222    0.00000000000000             4
    0.20312500000000    0.22222222222222    0.00000000000000             4
    0.23437500000000    0.22222222222222    0.00000000000000             4
    0.26562500000000    0.22222222222222    0.00000000000000             4
    0.29687500000000    0.22222222222222    0.00000000000000             4
    0.32812500000000    0.22222222222222    0.00000000000000             4
    0.35937500000000    0.22222222222222    0.00000000000000             4
    0.39062500000000    0.22222222222222    0.00000000000000             4
    0.42187500000000    0.22222222222222    0.00000000000000             4
    0.45312500000000    0.22222222222222    0.00000000000000             4
    0.48437500000000    0.22222222222222    0.00000000000000             4
    0.01562500000000    0.24444444444445    0.00000000000000             4
    0.04687500000000    0.24444444444445    0.00000000000000             4
    0.07812500000000    0.24444444444445    0.00000000000000             4
    0.10937500000000    0.24444444444445    0.00000000000000             4
    0.14062500000000    0.24444444444445    0.00000000000000             4
    0.17187500000000    0.24444444444445    0.00000000000000             4
    0.20312500000000    0.24444444444445    0.00000000000000             4
    0.23437500000000    0.24444444444445    0.00000000000000             4
    0.26562500000000    0.24444444444445    0.00000000000000             4
    0.29687500000000    0.24444444444445    0.00000000000000             4
    0.32812500000000    0.24444444444445    0.00000000000000             4
    0.35937500000000    0.24444444444445    0.00000000000000             4
    0.39062500000000    0.24444444444445    0.00000000000000             4
    0.42187500000000    0.24444444444445    0.00000000000000             4
    0.45312500000000    0.24444444444445    0.00000000000000             4
    0.48437500000000    0.24444444444445    0.00000000000000             4
    0.01562500000000    0.26666666666667    0.00000000000000             4
    0.04687500000000    0.26666666666667    0.00000000000000             4
    0.07812500000000    0.26666666666667    0.00000000000000             4
    0.10937500000000    0.26666666666667    0.00000000000000             4
    0.14062500000000    0.26666666666667    0.00000000000000             4
    0.17187500000000    0.26666666666667    0.00000000000000             4
    0.20312500000000    0.26666666666667    0.00000000000000             4
    0.23437500000000    0.26666666666667    0.00000000000000             4
    0.26562500000000    0.26666666666667    0.00000000000000             4
    0.29687500000000    0.26666666666667    0.00000000000000             4
    0.32812500000000    0.26666666666667    0.00000000000000             4
    0.35937500000000    0.26666666666667    0.00000000000000             4
    0.39062500000000    0.26666666666667    0.00000000000000             4
    0.42187500000000    0.26666666666667    0.00000000000000             4
    0.45312500000000    0.26666666666667    0.00000000000000             4
    0.48437500000000    0.26666666666667    0.00000000000000             4
    0.01562500000000    0.28888888888889    0.00000000000000             4
    0.04687500000000    0.28888888888889    0.00000000000000             4
    0.07812500000000    0.28888888888889    0.00000000000000             4
    0.10937500000000    0.28888888888889    0.00000000000000             4
    0.14062500000000    0.28888888888889    0.00000000000000             4
    0.17187500000000    0.28888888888889    0.00000000000000             4
    0.20312500000000    0.28888888888889    0.00000000000000             4
    0.23437500000000    0.28888888888889    0.00000000000000             4
    0.26562500000000    0.28888888888889    0.00000000000000             4
    0.29687500000000    0.28888888888889    0.00000000000000             4
    0.32812500000000    0.28888888888889    0.00000000000000             4
    0.35937500000000    0.28888888888889    0.00000000000000             4
    0.39062500000000    0.28888888888889    0.00000000000000             4
    0.42187500000000    0.28888888888889    0.00000000000000             4
    0.45312500000000    0.28888888888889    0.00000000000000             4
    0.48437500000000    0.28888888888889    0.00000000000000             4
    0.01562500000000    0.31111111111111    0.00000000000000             4
    0.04687500000000    0.31111111111111    0.00000000000000             4
    0.07812500000000    0.31111111111111    0.00000000000000             4
    0.10937500000000    0.31111111111111    0.00000000000000             4
    0.14062500000000    0.31111111111111    0.00000000000000             4
    0.17187500000000    0.31111111111111    0.00000000000000             4
    0.20312500000000    0.31111111111111    0.00000000000000             4
    0.23437500000000    0.31111111111111    0.00000000000000             4
    0.26562500000000    0.31111111111111    0.00000000000000             4
    0.29687500000000    0.31111111111111    0.00000000000000             4
    0.32812500000000    0.31111111111111    0.00000000000000             4
    0.35937500000000    0.31111111111111    0.00000000000000             4
    0.39062500000000    0.31111111111111    0.00000000000000             4
    0.42187500000000    0.31111111111111    0.00000000000000             4
    0.45312500000000    0.31111111111111    0.00000000000000             4
    0.48437500000000    0.31111111111111    0.00000000000000             4
    0.01562500000000    0.33333333333334    0.00000000000000             4
    0.04687500000000    0.33333333333334    0.00000000000000             4
    0.07812500000000    0.33333333333334    0.00000000000000             4
    0.10937500000000    0.33333333333334    0.00000000000000             4
    0.14062500000000    0.33333333333334    0.00000000000000             4
    0.17187500000000    0.33333333333334    0.00000000000000             4
    0.20312500000000    0.33333333333334    0.00000000000000             4
    0.23437500000000    0.33333333333334    0.00000000000000             4
    0.26562500000000    0.33333333333334    0.00000000000000             4
    0.29687500000000    0.33333333333334    0.00000000000000             4
    0.32812500000000    0.33333333333334    0.00000000000000             4
    0.35937500000000    0.33333333333334    0.00000000000000             4
    0.39062500000000    0.33333333333334    0.00000000000000             4
    0.42187500000000    0.33333333333334    0.00000000000000             4
    0.45312500000000    0.33333333333334    0.00000000000000             4
    0.48437500000000    0.33333333333334    0.00000000000000             4
    0.01562500000000    0.35555555555555    0.00000000000000             4
    0.04687500000000    0.35555555555555    0.00000000000000             4
    0.07812500000000    0.35555555555555    0.00000000000000             4
    0.10937500000000    0.35555555555555    0.00000000000000             4
    0.14062500000000    0.35555555555555    0.00000000000000             4
    0.17187500000000    0.35555555555555    0.00000000000000             4
    0.20312500000000    0.35555555555555    0.00000000000000             4
    0.23437500000000    0.35555555555555    0.00000000000000             4
    0.26562500000000    0.35555555555555    0.00000000000000             4
    0.29687500000000    0.35555555555555    0.00000000000000             4
    0.32812500000000    0.35555555555555    0.00000000000000             4
    0.35937500000000    0.35555555555555    0.00000000000000             4
    0.39062500000000    0.35555555555555    0.00000000000000             4
    0.42187500000000    0.35555555555555    0.00000000000000             4
    0.45312500000000    0.35555555555555    0.00000000000000             4
    0.48437500000000    0.35555555555555    0.00000000000000             4
    0.01562500000000    0.37777777777778    0.00000000000000             4
    0.04687500000000    0.37777777777778    0.00000000000000             4
    0.07812500000000    0.37777777777778    0.00000000000000             4
    0.10937500000000    0.37777777777778    0.00000000000000             4
    0.14062500000000    0.37777777777778    0.00000000000000             4
    0.17187500000000    0.37777777777778    0.00000000000000             4
    0.20312500000000    0.37777777777778    0.00000000000000             4
    0.23437500000000    0.37777777777778    0.00000000000000             4
    0.26562500000000    0.37777777777778    0.00000000000000             4
    0.29687500000000    0.37777777777778    0.00000000000000             4
    0.32812500000000    0.37777777777778    0.00000000000000             4
    0.35937500000000    0.37777777777778    0.00000000000000             4
    0.39062500000000    0.37777777777778    0.00000000000000             4
    0.42187500000000    0.37777777777778    0.00000000000000             4
    0.45312500000000    0.37777777777778    0.00000000000000             4
    0.48437500000000    0.37777777777778    0.00000000000000             4
    0.01562500000000    0.40000000000000    0.00000000000000             4
    0.04687500000000    0.40000000000000    0.00000000000000             4
    0.07812500000000    0.40000000000000    0.00000000000000             4
    0.10937500000000    0.40000000000000    0.00000000000000             4
    0.14062500000000    0.40000000000000    0.00000000000000             4
    0.17187500000000    0.40000000000000    0.00000000000000             4
    0.20312500000000    0.40000000000000    0.00000000000000             4
    0.23437500000000    0.40000000000000    0.00000000000000             4
    0.26562500000000    0.40000000000000    0.00000000000000             4
    0.29687500000000    0.40000000000000    0.00000000000000             4
    0.32812500000000    0.40000000000000    0.00000000000000             4
    0.35937500000000    0.40000000000000    0.00000000000000             4
    0.39062500000000    0.40000000000000    0.00000000000000             4
    0.42187500000000    0.40000000000000    0.00000000000000             4
    0.45312500000000    0.40000000000000    0.00000000000000             4
    0.48437500000000    0.40000000000000    0.00000000000000             4
    0.01562500000000    0.42222222222222    0.00000000000000             4
    0.04687500000000    0.42222222222222    0.00000000000000             4
    0.07812500000000    0.42222222222222    0.00000000000000             4
    0.10937500000000    0.42222222222222    0.00000000000000             4
    0.14062500000000    0.42222222222222    0.00000000000000             4
    0.17187500000000    0.42222222222222    0.00000000000000             4
    0.20312500000000    0.42222222222222    0.00000000000000             4
    0.23437500000000    0.42222222222222    0.00000000000000             4
    0.26562500000000    0.42222222222222    0.00000000000000             4
    0.29687500000000    0.42222222222222    0.00000000000000             4
    0.32812500000000    0.42222222222222    0.00000000000000             4
    0.35937500000000    0.42222222222222    0.00000000000000             4
    0.39062500000000    0.42222222222222    0.00000000000000             4
    0.42187500000000    0.42222222222222    0.00000000000000             4
    0.45312500000000    0.42222222222222    0.00000000000000             4
    0.48437500000000    0.42222222222222    0.00000000000000             4
    0.01562500000000    0.44444444444444    0.00000000000000             4
    0.04687500000000    0.44444444444444    0.00000000000000             4
    0.07812500000000    0.44444444444444    0.00000000000000             4
    0.10937500000000    0.44444444444444    0.00000000000000             4
    0.14062500000000    0.44444444444444    0.00000000000000             4
    0.17187500000000    0.44444444444444    0.00000000000000             4
    0.20312500000000    0.44444444444444    0.00000000000000             4
    0.23437500000000    0.44444444444444    0.00000000000000             4
    0.26562500000000    0.44444444444444    0.00000000000000             4
    0.29687500000000    0.44444444444444    0.00000000000000             4
    0.32812500000000    0.44444444444444    0.00000000000000             4
    0.35937500000000    0.44444444444444    0.00000000000000             4
    0.39062500000000    0.44444444444444    0.00000000000000             4
    0.42187500000000    0.44444444444444    0.00000000000000             4
    0.45312500000000    0.44444444444444    0.00000000000000             4
    0.48437500000000    0.44444444444444    0.00000000000000             4
    0.01562500000000    0.46666666666667    0.00000000000000             4
    0.04687500000000    0.46666666666667    0.00000000000000             4
    0.07812500000000    0.46666666666667    0.00000000000000             4
    0.10937500000000    0.46666666666667    0.00000000000000             4
    0.14062500000000    0.46666666666667    0.00000000000000             4
    0.17187500000000    0.46666666666667    0.00000000000000             4
    0.20312500000000    0.46666666666667    0.00000000000000             4
    0.23437500000000    0.46666666666667    0.00000000000000             4
    0.26562500000000    0.46666666666667    0.00000000000000             4
    0.29687500000000    0.46666666666667    0.00000000000000             4
    0.32812500000000    0.46666666666667    0.00000000000000             4
    0.35937500000000    0.46666666666667    0.00000000000000             4
    0.39062500000000    0.46666666666667    0.00000000000000             4
    0.42187500000000    0.46666666666667    0.00000000000000             4
    0.45312500000000    0.46666666666667    0.00000000000000             4
    0.48437500000000    0.46666666666667    0.00000000000000             4
    0.01562500000000    0.48888888888889    0.00000000000000             4
    0.04687500000000    0.48888888888889    0.00000000000000             4
    0.07812500000000    0.48888888888889    0.00000000000000             4
    0.10937500000000    0.48888888888889    0.00000000000000             4
    0.14062500000000    0.48888888888889    0.00000000000000             4
    0.17187500000000    0.48888888888889    0.00000000000000             4
    0.20312500000000    0.48888888888889    0.00000000000000             4
    0.23437500000000    0.48888888888889    0.00000000000000             4
    0.26562500000000    0.48888888888889    0.00000000000000             4
    0.29687500000000    0.48888888888889    0.00000000000000             4
    0.32812500000000    0.48888888888889    0.00000000000000             4
    0.35937500000000    0.48888888888889    0.00000000000000             4
    0.39062500000000    0.48888888888889    0.00000000000000             4
    0.42187500000000    0.48888888888889    0.00000000000000             4
    0.45312500000000    0.48888888888889    0.00000000000000             4
    0.48437500000000    0.48888888888889    0.00000000000000             4
    0.01562500000000    0.00000000000000    0.03448275862069             4
    0.04687500000000    0.00000000000000    0.03448275862069             4
    0.07812500000000    0.00000000000000    0.03448275862069             4
    0.10937500000000    0.00000000000000    0.03448275862069             4
    0.14062500000000    0.00000000000000    0.03448275862069             4
    0.17187500000000    0.00000000000000    0.03448275862069             4
    0.20312500000000    0.00000000000000    0.03448275862069             4
    0.23437500000000    0.00000000000000    0.03448275862069             4
    0.26562500000000    0.00000000000000    0.03448275862069             4
    0.29687500000000    0.00000000000000    0.03448275862069             4
    0.32812500000000    0.00000000000000    0.03448275862069             4
    0.35937500000000    0.00000000000000    0.03448275862069             4
    0.39062500000000    0.00000000000000    0.03448275862069             4
    0.42187500000000    0.00000000000000    0.03448275862069             4
    0.45312500000000    0.00000000000000    0.03448275862069             4
    0.48437500000000    0.00000000000000    0.03448275862069             4
    0.01562500000000    0.02222222222223    0.03448275862069             8
    0.04687500000000    0.02222222222223    0.03448275862069             8
    0.07812500000000    0.02222222222223    0.03448275862069             8
    0.10937500000000    0.02222222222223    0.03448275862069             8
    0.14062500000000    0.02222222222223    0.03448275862069             8
    0.17187500000000    0.02222222222223    0.03448275862069             8
    0.20312500000000    0.02222222222223    0.03448275862069             8
    0.23437500000000    0.02222222222223    0.03448275862069             8
    0.26562500000000    0.02222222222223    0.03448275862069             8
    0.29687500000000    0.02222222222223    0.03448275862069             8
    0.32812500000000    0.02222222222223    0.03448275862069             8
    0.35937500000000    0.02222222222223    0.03448275862069             8
    0.39062500000000    0.02222222222223    0.03448275862069             8
    0.42187500000000    0.02222222222223    0.03448275862069             8
    0.45312500000000    0.02222222222223    0.03448275862069             8