       N       E                     dE             d eps       ncg     rms          rms(c)
DAV:   1     0.789447630231E+02    0.78945E+02   -0.20028E+04120960   0.863E+02
DAV:   2    -0.918025758881E+02   -0.17075E+03   -0.15998E+03166752   0.168E+02
DAV:   3    -0.976003036014E+02   -0.57977E+01   -0.57633E+01178176   0.274E+01
DAV:   4    -0.976344541430E+02   -0.34151E-01   -0.34149E-01144720   0.244E+00
DAV:   5    -0.976348351801E+02   -0.38104E-03   -0.38103E-03177912   0.246E-01    0.123E+01
DAV:   6    -0.922209688943E+02    0.54139E+01   -0.39467E+00175008   0.658E+00    0.680E+00
DAV:   7    -0.905700449495E+02    0.16509E+01   -0.32091E+00180552   0.585E+00    0.172E+00
