 running   24 mpi-ranks, with    1 threads/rank, on    1 nodes
 distrk:  each k-point on   24 cores,    1 groups
 distr:  one band on    1 cores,   24 groups
 vasp.6.4.3 19Mar24 (build May 31 2024 16:31:43) complex                        
  
 POSCAR found type information on POSCAR B 
 POSCAR found :  1 types and      14 ions
 Reading from existing POTCAR
 scaLAPACK will be used
 Reading from existing POTCAR
 LDA part: xc-table for (Slater+PW92), standard interpolation
 POSCAR, INCAR and KPOINTS ok, starting setup
 FFT: planning ... GRIDC
 FFT: planning ... GRID_SOFT
 FFT: planning ... GRID
 WAVECAR not read
 entering main loop
       N       E                     dE             d eps       ncg     rms          rms(c)
DAV:   1     0.789447630231E+02    0.78945E+02   -0.20028E+04120960   0.863E+02
DAV:   2    -0.918025758881E+02   -0.17075E+03   -0.15998E+03166752   0.168E+02
DAV:   3    -0.976003036014E+02   -0.57977E+01   -0.57633E+01178176   0.274E+01
DAV:   4    -0.976344541430E+02   -0.34151E-01   -0.34149E-01144720   0.244E+00
DAV:   5    -0.976348351801E+02   -0.38104E-03   -0.38103E-03177912   0.246E-01    0.123E+01
DAV:   6    -0.922209688943E+02    0.54139E+01   -0.39467E+00175008   0.658E+00    0.680E+00
DAV:   7    -0.905700449495E+02    0.16509E+01   -0.32091E+00180552   0.585E+00    0.172E+00
DAV:   8    -0.905811190583E+02   -0.11074E-01   -0.22946E-01133080   0.165E+00    0.752E-01
DAV:   9    -0.905957859064E+02   -0.14667E-01   -0.17551E-02170736   0.457E-01    0.206E-01
DAV:  10    -0.906001562041E+02   -0.43703E-02   -0.26179E-03133704   0.181E-01    0.664E-02
DAV:  11    -0.906013344242E+02   -0.11782E-02   -0.68681E-04159624   0.917E-02    0.337E-02
DAV:  12    -0.906014343577E+02   -0.99934E-04   -0.69219E-05150912   0.327E-02    0.653E-03
DAV:  13    -0.906014440876E+02   -0.97299E-05   -0.76035E-06166440   0.110E-02    0.205E-03
DAV:  14    -0.906014451687E+02   -0.10811E-05   -0.66001E-07152784   0.359E-03    0.712E-04
DAV:  15    -0.906014453629E+02   -0.19416E-06   -0.12769E-07144672   0.159E-03
   1 F= -.90601445E+02 E0= -.90599619E+02  d E =-.365309E-02
