 vasp.6.4.3 19Mar24 (build May 31 2024 16:31:43) complex                        
  
 executed on             LinuxIFC date 2024.11.03  02:05:38
 running   24 mpi-ranks, with    1 threads/rank, on    1 nodes
 distrk:  each k-point on   24 cores,    1 groups
 distr:  one band on NCORE=   1 cores,   24 groups


--------------------------------------------------------------------------------------------------------


 INCAR:
   SYSTEM = Convergence
   ISTART = 0
   ICHARG = 2
   PREC = Accurate
   ENCUT = 760
   LCHARG = .FALSE.
   LWAVE = .FALSE.
   ALGO = Normal
   NELM = 100
   EDIFF = 1E-6
   EDIFFG = -1E-3
   SIGMA = 0.05
   ISMEAR = 0
   ISPIN = 1
   NSW = 0
   IBRION = -1
   POTIM = .5
   ISIF = 2
   GGA = PE

 POTCAR:    PAW_PBE B 06Sep2000                   
 POTCAR:    PAW_PBE B 06Sep2000                   
   SHA256 =  a32ced30f5ae56fd4d10b4325ff17eb3e4e38ee0f4288bc219fb012fddfa6e97 B/POTCAR              
   COPYR  = (c) Copyright 06Sep2000 Georg Kresse                                                    
   COPYR  = This file is part of the software VASP. Any use, copying, and all other rights are regul
   COPYR  = If you do not have a valid VASP license, you may not use, copy or distribute this file. 
   VRHFIN =B: s2p1                                                                                  
   LEXCH  = PE                                                                                      
   EATOM  =    71.1703 eV,    5.2309 Ry                                                             
                                                                                                    
   TITEL  = PAW_PBE B 06Sep2000                                                                     
   LULTRA =        F    use ultrasoft PP ?                                                          
   IUNSCR =        1    unscreen: 0-lin 1-nonlin 2-no                                               
   RPACOR =    1.200    partial core radius                                                         
   POMASS =   10.811; ZVAL   =    3.000    mass and valenz                                          
   RCORE  =    1.700    outmost cutoff radius                                                       
   RWIGS  =    1.710; RWIGS  =    0.905    wigner-seitz radius (au A)                               
   ENMAX  =  318.614; ENMIN  =  238.960 eV                                                          
   ICORE  =        2    local potential                                                             
   LCOR   =        T    correct aug charges                                                         
   LPAW   =        T    paw PP                                                                      
   EAUG   =  535.514                                                                                
   DEXC   =    0.000                                                                                
   RMAX   =    1.732    core radius for proj-oper                                                   
   RAUG   =    1.300    factor for augmentation sphere                                              
   RDEP   =    1.757    radius for radial grids                                                     
   RDEPT  =    1.436    core radius for aug-charge                                                  
                                                                                                    
   Atomic configuration                                                                             
    4 entries                                                                                       
     n  l   j            E        occ.                                                              
     1  0  0.50      -180.5896   2.0000                                                             
     2  0  0.50        -9.4431   2.0000                                                             
     2  1  0.50        -3.6068   1.0000                                                             
     3  2  1.50        -4.0817   0.0000                                                             
   Description                                                                                      
     l       E           TYP  RCUT    TYP  RCUT                                                     
     0     -9.4430752     23  1.500                                                                 
     0      0.8675899     23  1.500                                                                 
     1     -3.6067955     23  1.700                                                                 
     1      6.1086146     23  1.700                                                                 
     2     -4.0817478      7  1.700                                                                 
  local pseudopotential read in
  partial core-charges read in
  partial kinetic energy density read in
  atomic valenz-charges read in
  non local Contribution for L=           0  read in
    real space projection operators read in
  non local Contribution for L=           0  read in
    real space projection operators read in
  non local Contribution for L=           1  read in
    real space projection operators read in
  non local Contribution for L=           1  read in
    real space projection operators read in
    PAW grid and wavefunctions read in
 
   number of l-projection  operators is LMAX  =           4
   number of lm-projection operators is LMMAX =           8
 
  PAW_PBE B 06Sep2000                   :
 energy of atom  1       EATOM=  -71.1703
 kinetic energy error for atom=    0.0003 (will be added to EATOM!!)
 
 
 POSCAR: B1
  positions in direct lattice
  No initial velocities read in


 exchange-correlation table for PE
   RHO(1)=    0.500       N(1)  =     2000
   RHO(2)=  100.500       N(2)  =     4000
 


--------------------------------------------------------------------------------------------------------


 ion  position               nearest neighbor table
   1  0.521  0.545  0.638-
 
  LATTYP: Found a simple orthorhombic cell.
 ALAT       =    12.5000000000
 B/A-ratio  =     1.2000000000
 C/A-ratio  =     1.4400000000
  
  Lattice vectors:
  
 A1 = (   0.0000000000, -12.5000000000,   0.0000000000)
 A2 = (  15.0000000000,   0.0000000000,   0.0000000000)
 A3 = (   0.0000000000,   0.0000000000,  18.0000000000)


Analysis of symmetry for initial positions (statically):
=====================================================================
 Subroutine PRICEL returns:
 Original cell was already a primitive cell.
 

 Routine SETGRP: Setting up the symmetry group for a 
 simple orthorhombic supercell.


 Subroutine GETGRP returns: Found  8 space group operations
 (whereof  1 operations were pure point group operations)
 out of a pool of  8 trial point group operations.


The static configuration has the point symmetry C_1 .
 The point group associated with its full space group is D_2h.


Analysis of symmetry for dynamics (positions and initial velocities):
=====================================================================
 Subroutine PRICEL returns:
 Original cell was already a primitive cell.
 

 Routine SETGRP: Setting up the symmetry group for a 
 simple orthorhombic supercell.


 Subroutine GETGRP returns: Found  8 space group operations
 (whereof  1 operations were pure point group operations)
 out of a pool of  8 trial point group operations.


The dynamic configuration has the point symmetry C_1 .
 The point group associated with its full space group is D_2h.


 Subroutine INISYM returns: Found  8 space group operations
 (whereof  1 operations are pure point group operations),
 and found     1 'primitive' translations


----------------------------------------------------------------------------------------

                                     Primitive cell                                     

  volume of cell :    3375.0000

  direct lattice vectors                    reciprocal lattice vectors
    15.000000000  0.000000000  0.000000000     0.066666667  0.000000000  0.000000000
     0.000000000 12.500000000  0.000000000     0.000000000  0.080000000  0.000000000
     0.000000000  0.000000000 18.000000000     0.000000000  0.000000000  0.055555556

  length of vectors
    15.000000000 12.500000000 18.000000000     0.066666667  0.080000000  0.055555556

  position of ions in fractional coordinates (direct lattice)
     0.521230000  0.545000000  0.637960000

  ion indices of the primitive-cell ions
   primitive index   ion index
                 1           1

----------------------------------------------------------------------------------------

 
 
 KPOINTS: k-points                                

Automatic generation of k-mesh.
 Grid dimensions read from file:
 generate k-points for:   10   14    9

 Generating k-lattice:

  Cartesian coordinates                     Fractional coordinates (reciprocal lattice)
     0.006666667  0.000000000  0.000000000     0.100000000  0.000000000  0.000000000
     0.000000000  0.005714286  0.000000000     0.000000000  0.071428571  0.000000000
     0.000000000  0.000000000  0.006172840     0.000000000  0.000000000  0.111111111

  Length of vectors
     0.006666667  0.005714286  0.006172840

  Shift w.r.t. Gamma in fractional coordinates (k-lattice)
     0.500000000  0.500000000  0.000000000

 
 Subroutine IBZKPT returns following result:
 ===========================================
 
 Found    175 irreducible k-points:
 
 Following reciprocal coordinates:
            Coordinates               Weight
  0.050000  0.035714  0.000000      4.000000
  0.150000  0.035714  0.000000      4.000000
  0.250000  0.035714  0.000000      4.000000
  0.350000  0.035714  0.000000      4.000000
  0.450000  0.035714  0.000000      4.000000
  0.050000  0.107143  0.000000      4.000000
  0.150000  0.107143  0.000000      4.000000
  0.250000  0.107143  0.000000      4.000000
  0.350000  0.107143  0.000000      4.000000
  0.450000  0.107143  0.000000      4.000000
  0.050000  0.178571  0.000000      4.000000
  0.150000  0.178571  0.000000      4.000000
  0.250000  0.178571  0.000000      4.000000
  0.350000  0.178571  0.000000      4.000000
  0.450000  0.178571  0.000000      4.000000
  0.050000  0.250000  0.000000      4.000000
  0.150000  0.250000  0.000000      4.000000
  0.250000  0.250000  0.000000      4.000000
  0.350000  0.250000  0.000000      4.000000
  0.450000  0.250000  0.000000      4.000000
  0.050000  0.321429  0.000000      4.000000
  0.150000  0.321429  0.000000      4.000000
  0.250000  0.321429  0.000000      4.000000
  0.350000  0.321429  0.000000      4.000000
  0.450000  0.321429  0.000000      4.000000
  0.050000  0.392857  0.000000      4.000000
  0.150000  0.392857  0.000000      4.000000
  0.250000  0.392857  0.000000      4.000000
  0.350000  0.392857  0.000000      4.000000
  0.450000  0.392857  0.000000      4.000000
  0.050000  0.464286  0.000000      4.000000
  0.150000  0.464286  0.000000      4.000000
  0.250000  0.464286  0.000000      4.000000
  0.350000  0.464286  0.000000      4.000000
  0.450000  0.464286  0.000000      4.000000
  0.050000  0.035714  0.111111      8.000000
  0.150000  0.035714  0.111111      8.000000
  0.250000  0.035714  0.111111      8.000000
  0.350000  0.035714  0.111111      8.000000
  0.450000  0.035714  0.111111      8.000000
  0.050000  0.107143  0.111111      8.000000
  0.150000  0.107143  0.111111      8.000000
  0.250000  0.107143  0.111111      8.000000
  0.350000  0.107143  0.111111      8.000000
  0.450000  0.107143  0.111111      8.000000
  0.050000  0.178571  0.111111      8.000000
  0.150000  0.178571  0.111111      8.000000
  0.250000  0.178571  0.111111      8.000000
  0.350000  0.178571  0.111111      8.000000
  0.450000  0.178571  0.111111      8.000000
  0.050000  0.250000  0.111111      8.000000
  0.150000  0.250000  0.111111      8.000000
  0.250000  0.250000  0.111111      8.000000
  0.350000  0.250000  0.111111      8.000000
  0.450000  0.250000  0.111111      8.000000
  0.050000  0.321429  0.111111      8.000000
  0.150000  0.321429  0.111111      8.000000
  0.250000  0.321429  0.111111      8.000000
  0.350000  0.321429  0.111111      8.000000
  0.450000  0.321429  0.111111      8.000000
  0.050000  0.392857  0.111111      8.000000
  0.150000  0.392857  0.111111      8.000000
  0.250000  0.392857  0.111111      8.000000
  0.350000  0.392857  0.111111      8.000000
  0.450000  0.392857  0.111111      8.000000
  0.050000  0.464286  0.111111      8.000000
  0.150000  0.464286  0.111111      8.000000
  0.250000  0.464286  0.111111      8.000000
  0.350000  0.464286  0.111111      8.000000
  0.450000  0.464286  0.111111      8.000000
  0.050000  0.035714  0.222222      8.000000
  0.150000  0.035714  0.222222      8.000000
  0.250000  0.035714  0.222222      8.000000
  0.350000  0.035714  0.222222      8.000000
  0.450000  0.035714  0.222222      8.000000
  0.050000  0.107143  0.222222      8.000000
  0.150000  0.107143  0.222222      8.000000
  0.250000  0.107143  0.222222      8.000000
  0.350000  0.107143  0.222222      8.000000
  0.450000  0.107143  0.222222      8.000000
  0.050000  0.178571  0.222222      8.000000
  0.150000  0.178571  0.222222      8.000000
  0.250000  0.178571  0.222222      8.000000
  0.350000  0.178571  0.222222      8.000000
  0.450000  0.178571  0.222222      8.000000
  0.050000  0.250000  0.222222      8.000000
  0.150000  0.250000  0.222222      8.000000
  0.250000  0.250000  0.222222      8.000000
  0.350000  0.250000  0.222222      8.000000
  0.450000  0.250000  0.222222      8.000000
  0.050000  0.321429  0.222222      8.000000
  0.150000  0.321429  0.222222      8.000000
  0.250000  0.321429  0.222222      8.000000
  0.350000  0.321429  0.222222      8.000000
  0.450000  0.321429  0.222222      8.000000
  0.050000  0.392857  0.222222      8.000000
  0.150000  0.392857  0.222222      8.000000
  0.250000  0.392857  0.222222      8.000000
  0.350000  0.392857  0.222222      8.000000
  0.450000  0.392857  0.222222      8.000000
  0.050000  0.464286  0.222222      8.000000
  0.150000  0.464286  0.222222      8.000000
  0.250000  0.464286  0.222222      8.000000
  0.350000  0.464286  0.222222      8.000000
  0.450000  0.464286  0.222222      8.000000
  0.050000  0.035714  0.333333      8.000000
  0.150000  0.035714  0.333333      8.000000
  0.250000  0.035714  0.333333      8.000000
  0.350000  0.035714  0.333333      8.000000
  0.450000  0.035714  0.333333      8.000000
  0.050000  0.107143  0.333333      8.000000
  0.150000  0.107143  0.333333      8.000000
  0.250000  0.107143  0.333333      8.000000
  0.350000  0.107143  0.333333      8.000000
  0.450000  0.107143  0.333333      8.000000
  0.050000  0.178571  0.333333      8.000000
  0.150000  0.178571  0.333333      8.000000
  0.250000  0.178571  0.333333      8.000000
  0.350000  0.178571  0.333333      8.000000
  0.450000  0.178571  0.333333      8.000000
  0.050000  0.250000  0.333333      8.000000
  0.150000  0.250000  0.333333      8.000000
  0.250000  0.250000  0.333333      8.000000
  0.350000  0.250000  0.333333      8.000000
  0.450000  0.250000  0.333333      8.000000
  0.050000  0.321429  0.333333      8.000000
  0.150000  0.321429  0.333333      8.000000
  0.250000  0.321429  0.333333      8.000000
  0.350000  0.321429  0.333333      8.000000
  0.450000  0.321429  0.333333      8.000000
  0.050000  0.392857  0.333333      8.000000
  0.150000  0.392857  0.333333      8.000000
  0.250000  0.392857  0.333333      8.000000
  0.350000  0.392857  0.333333      8.000000
  0.450000  0.392857  0.333333      8.000000
  0.050000  0.464286  0.333333      8.000000
  0.150000  0.464286  0.333333      8.000000
  0.250000  0.464286  0.333333      8.000000
  0.350000  0.464286  0.333333      8.000000
  0.450000  0.464286  0.333333      8.000000
  0.050000  0.035714  0.444444      8.000000
  0.150000  0.035714  0.444444      8.000000
  0.250000  0.035714  0.444444      8.000000
  0.350000  0.035714  0.444444      8.000000
  0.450000  0.035714  0.444444      8.000000
  0.050000  0.107143  0.444444      8.000000
  0.150000  0.107143  0.444444      8.000000
  0.250000  0.107143  0.444444      8.000000
  0.350000  0.107143  0.444444      8.000000
  0.450000  0.107143  0.444444      8.000000
  0.050000  0.178571  0.444444      8.000000
  0.150000  0.178571  0.444444      8.000000
  0.250000  0.178571  0.444444      8.000000
  0.350000  0.178571  0.444444      8.000000
  0.450000  0.178571  0.444444      8.000000
  0.050000  0.250000  0.444444      8.000000
  0.150000  0.250000  0.444444      8.000000
  0.250000  0.250000  0.444444      8.000000
  0.350000  0.250000  0.444444      8.000000
  0.450000  0.250000  0.444444      8.000000
  0.050000  0.321429  0.444444      8.000000
  0.150000  0.321429  0.444444      8.000000
  0.250000  0.321429  0.444444      8.000000
  0.350000  0.321429  0.444444      8.000000
  0.450000  0.321429  0.444444      8.000000
  0.050000  0.392857  0.444444      8.000000
  0.150000  0.392857  0.444444      8.000000
  0.250000  0.392857  0.444444      8.000000
  0.350000  0.392857  0.444444      8.000000
  0.450000  0.392857  0.444444      8.000000
  0.050000  0.464286  0.444444      8.000000
  0.150000  0.464286  0.444444      8.000000
  0.250000  0.464286  0.444444      8.000000
  0.350000  0.464286  0.444444      8.000000
  0.450000  0.464286  0.444444      8.000000
 
 Following cartesian coordinates:
            Coordinates               Weight
  0.003333  0.002857  0.000000      4.000000
  0.010000  0.002857  0.000000      4.000000
  0.016667  0.002857  0.000000      4.000000
  0.023333  0.002857  0.000000      4.000000
  0.030000  0.002857  0.000000      4.000000
  0.003333  0.008571  0.000000      4.000000
  0.010000  0.008571  0.000000      4.000000
  0.016667  0.008571  0.000000      4.000000
  0.023333  0.008571  0.000000      4.000000
  0.030000  0.008571  0.000000      4.000000
  0.003333  0.014286  0.000000      4.000000
  0.010000  0.014286  0.000000      4.000000
  0.016667  0.014286  0.000000      4.000000
  0.023333  0.014286  0.000000      4.000000
  0.030000  0.014286  0.000000      4.000000
  0.003333  0.020000  0.000000      4.000000
  0.010000  0.020000  0.000000      4.000000
  0.016667  0.020000  0.000000      4.000000
  0.023333  0.020000  0.000000      4.000000
  0.030000  0.020000  0.000000      4.000000
  0.003333  0.025714  0.000000      4.000000
  0.010000  0.025714  0.000000      4.000000
  0.016667  0.025714  0.000000      4.000000
  0.023333  0.025714  0.000000      4.000000
  0.030000  0.025714  0.000000      4.000000
  0.003333  0.031429  0.000000      4.000000
  0.010000  0.031429  0.000000      4.000000
  0.016667  0.031429  0.000000      4.000000
  0.023333  0.031429  0.000000      4.000000
  0.030000  0.031429  0.000000      4.000000
  0.003333  0.037143  0.000000      4.000000
  0.010000  0.037143  0.000000      4.000000
  0.016667  0.037143  0.000000      4.000000
  0.023333  0.037143  0.000000      4.000000
  0.030000  0.037143  0.000000      4.000000
  0.003333  0.002857  0.006173      8.000000
  0.010000  0.002857  0.006173      8.000000
  0.016667  0.002857  0.006173      8.000000
  0.023333  0.002857  0.006173      8.000000
  0.030000  0.002857  0.006173      8.000000
  0.003333  0.008571  0.006173      8.000000
  0.010000  0.008571  0.006173      8.000000
  0.016667  0.008571  0.006173      8.000000
  0.023333  0.008571  0.006173      8.000000
  0.030000  0.008571  0.006173      8.000000
  0.003333  0.014286  0.006173      8.000000
  0.010000  0.014286  0.006173      8.000000
  0.016667  0.014286  0.006173      8.000000
  0.023333  0.014286  0.006173      8.000000
  0.030000  0.014286  0.006173      8.000000
  0.003333  0.020000  0.006173      8.000000
  0.010000  0.020000  0.006173      8.000000
  0.016667  0.020000  0.006173      8.000000
  0.023333  0.020000  0.006173      8.000000
  0.030000  0.020000  0.006173      8.000000
  0.003333  0.025714  0.006173      8.000000
  0.010000  0.025714  0.006173      8.000000
  0.016667  0.025714  0.006173      8.000000
  0.023333  0.025714  0.006173      8.000000
  0.030000  0.025714  0.006173      8.000000
  0.003333  0.031429  0.006173      8.000000
  0.010000  0.031429  0.006173      8.000000
  0.016667  0.031429  0.006173      8.000000
  0.023333  0.031429  0.006173      8.000000
  0.030000  0.031429  0.006173      8.000000
  0.003333  0.037143  0.006173      8.000000
  0.010000  0.037143  0.006173      8.000000
  0.016667  0.037143  0.006173      8.000000
  0.023333  0.037143  0.006173      8.000000
  0.030000  0.037143  0.006173      8.000000
  0.003333  0.002857  0.012346      8.000000
  0.010000  0.002857  0.012346      8.000000
  0.016667  0.002857  0.012346      8.000000
  0.023333  0.002857  0.012346      8.000000
  0.030000  0.002857  0.012346      8.000000
  0.003333  0.008571  0.012346      8.000000
  0.010000  0.008571  0.012346      8.000000
  0.016667  0.008571  0.012346      8.000000
  0.023333  0.008571  0.012346      8.000000
  0.030000  0.008571  0.012346      8.000000
  0.003333  0.014286  0.012346      8.000000
  0.010000  0.014286  0.012346      8.000000
  0.016667  0.014286  0.012346      8.000000
  0.023333  0.014286  0.012346      8.000000
  0.030000  0.014286  0.012346      8.000000
  0.003333  0.020000  0.012346      8.000000
  0.010000  0.020000  0.012346      8.000000
  0.016667  0.020000  0.012346      8.000000
  0.023333  0.020000  0.012346      8.000000
  0.030000  0.020000  0.012346      8.000000
  0.003333  0.025714  0.012346      8.000000
  0.010000  0.025714  0.012346      8.000000
  0.016667  0.025714  0.012346      8.000000
  0.023333  0.025714  0.012346      8.000000
  0.030000  0.025714  0.012346      8.000000
  0.003333  0.031429  0.012346      8.000000
  0.010000  0.031429  0.012346      8.000000
  0.016667  0.031429  0.012346      8.000000
  0.023333  0.031429  0.012346      8.000000
  0.030000  0.031429  0.012346      8.000000
  0.003333  0.037143  0.012346      8.000000
  0.010000  0.037143  0.012346      8.000000
  0.016667  0.037143  0.012346      8.000000
  0.023333  0.037143  0.012346      8.000000
  0.030000  0.037143  0.012346      8.000000
  0.003333  0.002857  0.018519      8.000000
  0.010000  0.002857  0.018519      8.000000
  0.016667  0.002857  0.018519      8.000000
  0.023333  0.002857  0.018519      8.000000
  0.030000  0.002857  0.018519      8.000000
  0.003333  0.008571  0.018519      8.000000
  0.010000  0.008571  0.018519      8.000000
  0.016667  0.008571  0.018519      8.000000
  0.023333  0.008571  0.018519      8.000000
  0.030000  0.008571  0.018519      8.000000
  0.003333  0.014286  0.018519      8.000000
  0.010000  0.014286  0.018519      8.000000
  0.016667  0.014286  0.018519      8.000000
  0.023333  0.014286  0.018519      8.000000
  0.030000  0.014286  0.018519      8.000000
  0.003333  0.020000  0.018519      8.000000
  0.010000  0.020000  0.018519      8.000000
  0.016667  0.020000  0.018519      8.000000
  0.023333  0.020000  0.018519      8.000000
  0.030000  0.020000  0.018519      8.000000
  0.003333  0.025714  0.018519      8.000000
  0.010000  0.025714  0.018519      8.000000
  0.016667  0.025714  0.018519      8.000000
  0.023333  0.025714  0.018519      8.000000
  0.030000  0.025714  0.018519      8.000000
  0.003333  0.031429  0.018519      8.000000
  0.010000  0.031429  0.018519      8.000000
  0.016667  0.031429  0.018519      8.000000
  0.023333  0.031429  0.018519      8.000000
  0.030000  0.031429  0.018519      8.000000
  0.003333  0.037143  0.018519      8.000000
  0.010000  0.037143  0.018519      8.000000
  0.016667  0.037143  0.018519      8.000000
  0.023333  0.037143  0.018519      8.000000
  0.030000  0.037143  0.018519      8.000000
  0.003333  0.002857  0.024691      8.000000
  0.010000  0.002857  0.024691      8.000000
  0.016667  0.002857  0.024691      8.000000
  0.023333  0.002857  0.024691      8.000000
  0.030000  0.002857  0.024691      8.000000
  0.003333  0.008571  0.024691      8.000000
  0.010000  0.008571  0.024691      8.000000
  0.016667  0.008571  0.024691      8.000000
  0.023333  0.008571  0.024691      8.000000
  0.030000  0.008571  0.024691      8.000000
  0.003333  0.014286  0.024691      8.000000
  0.010000  0.014286  0.024691      8.000000
  0.016667  0.014286  0.024691      8.000000
  0.023333  0.014286  0.024691      8.000000
  0.030000  0.014286  0.024691      8.000000
  0.003333  0.020000  0.024691      8.000000
  0.010000  0.020000  0.024691      8.000000
  0.016667  0.020000  0.024691      8.000000
  0.023333  0.020000  0.024691      8.000000
  0.030000  0.020000  0.024691      8.000000
  0.003333  0.025714  0.024691      8.000000
  0.010000  0.025714  0.024691      8.000000
  0.016667  0.025714  0.024691      8.000000
  0.023333  0.025714  0.024691      8.000000
  0.030000  0.025714  0.024691      8.000000
  0.003333  0.031429  0.024691      8.000000
  0.010000  0.031429  0.024691      8.000000
  0.016667  0.031429  0.024691      8.000000
  0.023333  0.031429  0.024691      8.000000
  0.030000  0.031429  0.024691      8.000000
  0.003333  0.037143  0.024691      8.000000
  0.010000  0.037143  0.024691      8.000000
  0.016667  0.037143  0.024691      8.000000
  0.023333  0.037143  0.024691      8.000000
  0.030000  0.037143  0.024691      8.000000
 


--------------------------------------------------------------------------------------------------------




 Dimension of arrays:
   k-points           NKPTS =    175   k-points in BZ     NKDIM =    175   number of bands    NBANDS=     24
   number of dos      NEDOS =    301   number of ions     NIONS =      1
   non local maximal  LDIM  =      4   non local SUM 2l+1 LMDIM =      8
   total plane-waves  NPLWV = ******
   max r-space proj   IRMAX =      1   max aug-charges    IRDMAX=  11935
   dimension x,y,z NGX =   140 NGY =  112 NGZ =  162
   dimension x,y,z NGXF=   280 NGYF=  224 NGZF=  324
   support grid    NGXF=   280 NGYF=  224 NGZF=  324
   ions per type =               1
   NGX,Y,Z   is equivalent  to a cutoff of  15.52, 14.90, 14.96 a.u.
   NGXF,Y,Z  is equivalent  to a cutoff of  31.03, 29.79, 29.92 a.u.

 SYSTEM =  Convergence                             
 POSCAR =  B1                                      

 Startparameter for this run:
   NWRITE =      2    write-flag & timer
   PREC   = accura    normal or accurate (medium, high low for compatibility)
   ISTART =      0    job   : 0-new  1-cont  2-samecut
   ICHARG =      2    charge: 1-file 2-atom 10-const
   ISPIN  =      1    spin polarized calculation?
   LNONCOLLINEAR =      F non collinear calculations
   LSORBIT =      F    spin-orbit coupling
   INIWAV =      1    electr: 0-lowe 1-rand  2-diag
   LASPH  =      F    aspherical Exc in radial PAW
 Electronic Relaxation 1
   ENCUT  =  760.0 eV  55.86 Ry    7.47 a.u.  33.72 28.10 40.46*2*pi/ulx,y,z
   ENINI  =  760.0     initial cutoff
   ENAUG  =  535.5 eV  augmentation charge cutoff
   NELM   =    100;   NELMIN=  2; NELMDL= -5     # of ELM steps 
   EDIFF  = 0.1E-05   stopping-criterion for ELM
   LREAL  =      F    real-space projection
   NLSPLINE    = F    spline interpolate recip. space projectors
   LCOMPAT=      F    compatible to vasp.4.4
   GGA_COMPAT  = T    GGA compatible to vasp.4.4-vasp.4.6
   LMAXPAW     = -100 max onsite density
   LMAXMIX     =    2 max onsite mixed and CHGCAR
   VOSKOWN=      0    Vosko Wilk Nusair interpolation
   ROPT   =    0.00000
 Ionic relaxation
   EDIFFG = -.1E-02   stopping-criterion for IOM
   NSW    =      0    number of steps for IOM
   NBLOCK =      1;   KBLOCK =      1    inner block; outer block 
   IBRION =     -1    ionic relax: 0-MD 1-quasi-New 2-CG
   NFREE  =      0    steps in history (QN), initial steepest desc. (CG)
   ISIF   =      2    stress and relaxation
   IWAVPR =     10    prediction:  0-non 1-charg 2-wave 3-comb
   ISYM   =      2    0-nonsym 1-usesym 2-fastsym
   LCORR  =      T    Harris-Foulkes like correction to forces

   POTIM  = 0.5000    time-step for ionic-motion
   TEIN   =    0.0    initial temperature
   TEBEG  =    0.0;   TEEND  =   0.0 temperature during run
   SMASS  =  -3.00    Nose mass-parameter (am)
   estimated Nose-frequenzy (Omega)   =  0.10E-29 period in steps = 0.13E+47 mass=  -0.514E-26a.u.
   SCALEE = 1.0000    scale energy and forces
   NPACO  =    256;   APACO  = 10.0  distance and # of slots for P.C.
   PSTRESS=    0.0 pullay stress

  Mass of Ions in am
   POMASS =  10.81
  Ionic Valenz
   ZVAL   =   3.00
  Atomic Wigner-Seitz radii
   RWIGS  =  -1.00
  virtual crystal weights 
   VCA    =   1.00
   NELECT =       3.0000    total number of electrons
   NUPDOWN=      -1.0000    fix difference up-down

 DOS related values:
   EMIN   =  10.00;   EMAX   =-10.00  energy-range for DOS
   EFERMI =   0.00;   METHOD = LEGACY      
   ISMEAR =     0;   SIGMA  =   0.05  broadening in eV -4-tet -1-fermi 0-gaus

 Electronic relaxation 2 (details)
   IALGO  =     38    algorithm
   LDIAG  =      T    sub-space diagonalisation (order eigenvalues)
   LSUBROT=      F    optimize rotation matrix (better conditioning)
   TURBO    =      0    0=normal 1=particle mesh
   IRESTART =      0    0=no restart 2=restart with 2 vectors
   NREBOOT  =      0    no. of reboots
   NMIN     =      0    reboot dimension
   EREF     =   0.00    reference energy to select bands
   IMIX   =      4    mixing-type and parameters
     AMIX     =   0.40;   BMIX     =  1.00
     AMIX_MAG =   1.60;   BMIX_MAG =  1.00
     AMIN     =   0.10
     WC   =   100.;   INIMIX=   1;  MIXPRE=   1;  MAXMIX= -45

 Intra band minimization:
   WEIMIN = 0.0000     energy-eigenvalue tresh-hold
   EBREAK =  0.10E-07  absolut break condition
   DEPER  =   0.30     relativ break condition  

   TIME   =   0.40     timestep for ELM

  volume/ion in A,a.u.               =    3375.00     22775.62
  Fermi-wavevector in a.u.,A,eV,Ry     =   0.157407  0.297456  0.337111  0.024777
  Thomas-Fermi vector in A             =   0.845991
 
 Write flags
   LWAVE        =      F    write WAVECAR
   LDOWNSAMPLE  =      F    k-point downsampling of WAVECAR
   LCHARG       =      F    write CHGCAR
   LVTOT        =      F    write LOCPOT, total local potential
   LVHAR        =      F    write LOCPOT, Hartree potential only
   WRT_POTENTIAL= false  ! write potential to hdf5 file
   LELF         =      F    write electronic localiz. function (ELF)
   LORBIT       =      0    0 simple, 1 ext, 2 COOP (PROOUT), +10 PAW based schemes


 Dipole corrections
   LMONO      =      F    monopole corrections only (constant potential shift)
   LDIPOL     =      F    correct potential (dipole corrections)
   IDIPOL     =      0    1-x, 2-y, 3-z, 4-all directions 
   EPSILON    =  1.0000000 bulk dielectric constant
   LVACPOTAV  =      F  vacuum potentials using an averaging scheme for the charge density
   VACPOTFLAT =  0.1000000 required flatness to determine vacuum potential
 Exchange correlation treatment:
   GGA     = PE    functional components
   XC_C    = 1    coefficients multiplying the functional components
   LIBXC   =     F    Libxc                    
   VOSKOWN =     0    Vosko Wilk Nusair interpolation
   LHFCALC =     F    Hartree Fock is set to
   LHFONE  =     F    Hartree Fock one center treatment
   AEXX    =    0.0000 exact exchange contribution

 Parameters of functionals:
   PE:
     No parameter
 
 Van der Waals corrections
   IVDW    =     0    specifies the selected vdW correction

 Linear response parameters
   LEPSILON=     F    determine dielectric tensor
   LRPA    =     F    only Hartree local field effects (RPA)
   LNABLA  =     F    use nabla operator in PAW spheres
   LVEL    =     F    velocity operator in full k-point grid
   CSHIFT  =0.1000    complex shift for real part using Kramers Kronig
   OMEGAMAX=  -1.0    maximum frequency
   DEG_THRESHOLD= 0.2000000E-02 threshold for treating states as degnerate
   RTIME   =   -0.100 relaxation time in fs
  (WPLASMAI=    0.000 imaginary part of plasma frequency in eV, 0.658/RTIME)
   DFIELD  = 0.0000000 0.0000000 0.0000000 field for delta impulse in time
 
  Optional k-point grid parameters
   LKPOINTS_OPT  =     F    use optional k-point grid
   KPOINTS_OPT_MODE=     1    mode for optional k-point grid
 
 Orbital magnetization related:
   ORBITALMAG=     F  switch on orbital magnetization
   LCHIMAG   =     F  perturbation theory with respect to B field
   DQ        =  0.001000  dq finite difference perturbation B field
   LLRAUG    =     F  two centre corrections for induced B field
   LBONE     =     F  B-component reconstruction in AE one-centre
   LVGVCALC  =     T  calculate vGv susceptibility
   LVGVAPPL  =     F  apply vGv susceptibility instead of pGv for G=0

 Random number generation:
   RANDOM_GENERATOR = DEFAULT
   PCG_SEED         = not used


--------------------------------------------------------------------------------------------------------


 Static calculation
 charge density and potential will be updated during run
 non-spin polarized calculation
 Variant of blocked Davidson
 Davidson routine will perform the subspace rotation
 perform sub-space diagonalisation
    after iterative eigenvector-optimisation
 modified Broyden-mixing scheme, WC =      100.0
 initial mixing is a Kerker type mixing with AMIX =  0.4000 and BMIX =      1.0000
 Hartree-type preconditioning will be used
 using additional bands           22
 reciprocal scheme for non local part
 use partial core corrections
 calculate Harris-corrections to forces 
   (improved forces if not selfconsistent)
 use gradient corrections 
 use of overlap-Matrix (Vanderbilt PP)
 Gauss-broadening in eV      SIGMA  =   0.05


--------------------------------------------------------------------------------------------------------


  energy-cutoff  :      760.00
  volume of cell :     3375.00
      direct lattice vectors                 reciprocal lattice vectors
    15.000000000  0.000000000  0.000000000     0.066666667  0.000000000  0.000000000
     0.000000000 12.500000000  0.000000000     0.000000000  0.080000000  0.000000000
     0.000000000  0.000000000 18.000000000     0.000000000  0.000000000  0.055555556

  length of vectors
    15.000000000 12.500000000 18.000000000     0.066666667  0.080000000  0.055555556


 
 k-points in units of 2pi/SCALE and weight: k-points                                
   0.00333333  0.00285714  0.00000000       0.003
   0.01000000  0.00285714  0.00000000       0.003
   0.01666667  0.00285714  0.00000000       0.003
   0.02333333  0.00285714  0.00000000       0.003
   0.03000000  0.00285714  0.00000000       0.003
   0.00333333  0.00857143  0.00000000       0.003
   0.01000000  0.00857143  0.00000000       0.003
   0.01666667  0.00857143  0.00000000       0.003
   0.02333333  0.00857143  0.00000000       0.003
   0.03000000  0.00857143  0.00000000       0.003
   0.00333333  0.01428571  0.00000000       0.003
   0.01000000  0.01428571  0.00000000       0.003
   0.01666667  0.01428571  0.00000000       0.003
   0.02333333  0.01428571  0.00000000       0.003
   0.03000000  0.01428571  0.00000000       0.003
   0.00333333  0.02000000  0.00000000       0.003
   0.01000000  0.02000000  0.00000000       0.003
   0.01666667  0.02000000  0.00000000       0.003
   0.02333333  0.02000000  0.00000000       0.003
   0.03000000  0.02000000  0.00000000       0.003
   0.00333333  0.02571429  0.00000000       0.003
   0.01000000  0.02571429  0.00000000       0.003
   0.01666667  0.02571429  0.00000000       0.003
   0.02333333  0.02571429  0.00000000       0.003
   0.03000000  0.02571429  0.00000000       0.003
   0.00333333  0.03142857  0.00000000       0.003
   0.01000000  0.03142857  0.00000000       0.003
   0.01666667  0.03142857  0.00000000       0.003
   0.02333333  0.03142857  0.00000000       0.003
   0.03000000  0.03142857  0.00000000       0.003
   0.00333333  0.03714286  0.00000000       0.003
   0.01000000  0.03714286  0.00000000       0.003
   0.01666667  0.03714286  0.00000000       0.003
   0.02333333  0.03714286  0.00000000       0.003
   0.03000000  0.03714286  0.00000000       0.003
   0.00333333  0.00285714  0.00617284       0.006
   0.01000000  0.00285714  0.00617284       0.006
   0.01666667  0.00285714  0.00617284       0.006
   0.02333333  0.00285714  0.00617284       0.006
   0.03000000  0.00285714  0.00617284       0.006
   0.00333333  0.00857143  0.00617284       0.006
   0.01000000  0.00857143  0.00617284       0.006
   0.01666667  0.00857143  0.00617284       0.006
   0.02333333  0.00857143  0.00617284       0.006
   0.03000000  0.00857143  0.00617284       0.006
   0.00333333  0.01428571  0.00617284       0.006
   0.01000000  0.01428571  0.00617284       0.006
   0.01666667  0.01428571  0.00617284       0.006
   0.02333333  0.01428571  0.00617284       0.006
   0.03000000  0.01428571  0.00617284       0.006
   0.00333333  0.02000000  0.00617284       0.006
   0.01000000  0.02000000  0.00617284       0.006
   0.01666667  0.02000000  0.00617284       0.006
   0.02333333  0.02000000  0.00617284       0.006
   0.03000000  0.02000000  0.00617284       0.006
   0.00333333  0.02571429  0.00617284       0.006
   0.01000000  0.02571429  0.00617284       0.006
   0.01666667  0.02571429  0.00617284       0.006
   0.02333333  0.02571429  0.00617284       0.006
   0.03000000  0.02571429  0.00617284       0.006
   0.00333333  0.03142857  0.00617284       0.006
   0.01000000  0.03142857  0.00617284       0.006
   0.01666667  0.03142857  0.00617284       0.006
   0.02333333  0.03142857  0.00617284       0.006
   0.03000000  0.03142857  0.00617284       0.006
   0.00333333  0.03714286  0.00617284       0.006
   0.01000000  0.03714286  0.00617284       0.006
   0.01666667  0.03714286  0.00617284       0.006
   0.02333333  0.03714286  0.00617284       0.006
   0.03000000  0.03714286  0.00617284       0.006
   0.00333333  0.00285714  0.01234568       0.006
   0.01000000  0.00285714  0.01234568       0.006
   0.01666667  0.00285714  0.01234568       0.006
   0.02333333  0.00285714  0.01234568       0.006
   0.03000000  0.00285714  0.01234568       0.006
   0.00333333  0.00857143  0.01234568       0.006
   0.01000000  0.00857143  0.01234568       0.006
   0.01666667  0.00857143  0.01234568       0.006
   0.02333333  0.00857143  0.01234568       0.006
   0.03000000  0.00857143  0.01234568       0.006
   0.00333333  0.01428571  0.01234568       0.006
   0.01000000  0.01428571  0.01234568       0.006
   0.01666667  0.01428571  0.01234568       0.006
   0.02333333  0.01428571  0.01234568       0.006
   0.03000000  0.01428571  0.01234568       0.006
   0.00333333  0.02000000  0.01234568       0.006
   0.01000000  0.02000000  0.01234568       0.006
   0.01666667  0.02000000  0.01234568       0.006
   0.02333333  0.02000000  0.01234568       0.006
   0.03000000  0.02000000  0.01234568       0.006
   0.00333333  0.02571429  0.01234568       0.006
   0.01000000  0.02571429  0.01234568       0.006
   0.01666667  0.02571429  0.01234568       0.006
   0.02333333  0.02571429  0.01234568       0.006
   0.03000000  0.02571429  0.01234568       0.006
   0.00333333  0.03142857  0.01234568       0.006
   0.01000000  0.03142857  0.01234568       0.006
   0.01666667  0.03142857  0.01234568       0.006
   0.02333333  0.03142857  0.01234568       0.006
   0.03000000  0.03142857  0.01234568       0.006
   0.00333333  0.03714286  0.01234568       0.006
   0.01000000  0.03714286  0.01234568       0.006
   0.01666667  0.03714286  0.01234568       0.006
   0.02333333  0.03714286  0.01234568       0.006
   0.03000000  0.03714286  0.01234568       0.006
   0.00333333  0.00285714  0.01851852       0.006
   0.01000000  0.00285714  0.01851852       0.006
   0.01666667  0.00285714  0.01851852       0.006
   0.02333333  0.00285714  0.01851852       0.006
   0.03000000  0.00285714  0.01851852       0.006
   0.00333333  0.00857143  0.01851852       0.006
   0.01000000  0.00857143  0.01851852       0.006
   0.01666667  0.00857143  0.01851852       0.006
   0.02333333  0.00857143  0.01851852       0.006
   0.03000000  0.00857143  0.01851852       0.006
   0.00333333  0.01428571  0.01851852       0.006
   0.01000000  0.01428571  0.01851852       0.006
   0.01666667  0.01428571  0.01851852       0.006
   0.02333333  0.01428571  0.01851852       0.006
   0.03000000  0.01428571  0.01851852       0.006
   0.00333333  0.02000000  0.01851852       0.006
   0.01000000  0.02000000  0.01851852       0.006
   0.01666667  0.02000000  0.01851852       0.006
   0.02333333  0.02000000  0.01851852       0.006
   0.03000000  0.02000000  0.01851852       0.006
   0.00333333  0.02571429  0.01851852       0.006
   0.01000000  0.02571429  0.01851852       0.006
   0.01666667  0.02571429  0.01851852       0.006
   0.02333333  0.02571429  0.01851852       0.006
   0.03000000  0.02571429  0.01851852       0.006
   0.00333333  0.03142857  0.01851852       0.006
   0.01000000  0.03142857  0.01851852       0.006
   0.01666667  0.03142857  0.01851852       0.006
   0.02333333  0.03142857  0.01851852       0.006
   0.03000000  0.03142857  0.01851852       0.006
   0.00333333  0.03714286  0.01851852       0.006
   0.01000000  0.03714286  0.01851852       0.006
   0.01666667  0.03714286  0.01851852       0.006
   0.02333333  0.03714286  0.01851852       0.006
   0.03000000  0.03714286  0.01851852       0.006
   0.00333333  0.00285714  0.02469136       0.006
   0.01000000  0.00285714  0.02469136       0.006
   0.01666667  0.00285714  0.02469136       0.006
   0.02333333  0.00285714  0.02469136       0.006
   0.03000000  0.00285714  0.02469136       0.006
   0.00333333  0.00857143  0.02469136       0.006
   0.01000000  0.00857143  0.02469136       0.006
   0.01666667  0.00857143  0.02469136       0.006
   0.02333333  0.00857143  0.02469136       0.006
   0.03000000  0.00857143  0.02469136       0.006
   0.00333333  0.01428571  0.02469136       0.006
   0.01000000  0.01428571  0.02469136       0.006
   0.01666667  0.01428571  0.02469136       0.006
   0.02333333  0.01428571  0.02469136       0.006
   0.03000000  0.01428571  0.02469136       0.006
   0.00333333  0.02000000  0.02469136       0.006
   0.01000000  0.02000000  0.02469136       0.006
   0.01666667  0.02000000  0.02469136       0.006
   0.02333333  0.02000000  0.02469136       0.006
   0.03000000  0.02000000  0.02469136       0.006
   0.00333333  0.02571429  0.02469136       0.006
   0.01000000  0.02571429  0.02469136       0.006
   0.01666667  0.02571429  0.02469136       0.006
   0.02333333  0.02571429  0.02469136       0.006
   0.03000000  0.02571429  0.02469136       0.006
   0.00333333  0.03142857  0.02469136       0.006
   0.01000000  0.03142857  0.02469136       0.006
   0.01666667  0.03142857  0.02469136       0.006
   0.02333333  0.03142857  0.02469136       0.006
   0.03000000  0.03142857  0.02469136       0.006
   0.00333333  0.03714286  0.02469136       0.006
   0.01000000  0.03714286  0.02469136       0.006
   0.01666667  0.03714286  0.02469136       0.006
   0.02333333  0.03714286  0.02469136       0.006
   0.03000000  0.03714286  0.02469136       0.006
 
 k-points in reciprocal lattice and weights: k-points                                
   0.05000000  0.03571429  0.00000000       0.003
   0.15000000  0.03571429  0.00000000       0.003
   0.25000000  0.03571429  0.00000000       0.003
   0.35000000  0.03571429  0.00000000       0.003
   0.45000000  0.03571429  0.00000000       0.003
   0.05000000  0.10714286  0.00000000       0.003
   0.15000000  0.10714286  0.00000000       0.003
   0.25000000  0.10714286  0.00000000       0.003
   0.35000000  0.10714286  0.00000000       0.003
   0.45000000  0.10714286  0.00000000       0.003
   0.05000000  0.17857143  0.00000000       0.003
   0.15000000  0.17857143  0.00000000       0.003
   0.25000000  0.17857143  0.00000000       0.003
   0.35000000  0.17857143  0.00000000       0.003
   0.45000000  0.17857143  0.00000000       0.003
   0.05000000  0.25000000  0.00000000       0.003
   0.15000000  0.25000000  0.00000000       0.003
   0.25000000  0.25000000  0.00000000       0.003
   0.35000000  0.25000000  0.00000000       0.003
   0.45000000  0.25000000  0.00000000       0.003
   0.05000000  0.32142857  0.00000000       0.003
   0.15000000  0.32142857  0.00000000       0.003
   0.25000000  0.32142857  0.00000000       0.003
   0.35000000  0.32142857  0.00000000       0.003
   0.45000000  0.32142857  0.00000000       0.003
   0.05000000  0.39285714  0.00000000       0.003
   0.15000000  0.39285714  0.00000000       0.003
   0.25000000  0.39285714  0.00000000       0.003
   0.35000000  0.39285714  0.00000000       0.003
   0.45000000  0.39285714  0.00000000       0.003
   0.05000000  0.46428571  0.00000000       0.003
   0.15000000  0.46428571  0.00000000       0.003
   0.25000000  0.46428571  0.00000000       0.003
   0.35000000  0.46428571  0.00000000       0.003
   0.45000000  0.46428571  0.00000000       0.003
   0.05000000  0.03571429  0.11111111       0.006
   0.15000000  0.03571429  0.11111111       0.006
   0.25000000  0.03571429  0.11111111       0.006
   0.35000000  0.03571429  0.11111111       0.006
   0.45000000  0.03571429  0.11111111       0.006
   0.05000000  0.10714286  0.11111111       0.006
   0.15000000  0.10714286  0.11111111       0.006
   0.25000000  0.10714286  0.11111111       0.006
   0.35000000  0.10714286  0.11111111       0.006
   0.45000000  0.10714286  0.11111111       0.006
   0.05000000  0.17857143  0.11111111       0.006
   0.15000000  0.17857143  0.11111111       0.006
   0.25000000  0.17857143  0.11111111       0.006
   0.35000000  0.17857143  0.11111111       0.006
   0.45000000  0.17857143  0.11111111       0.006
   0.05000000  0.25000000  0.11111111       0.006
   0.15000000  0.25000000  0.11111111       0.006
   0.25000000  0.25000000  0.11111111       0.006
   0.35000000  0.25000000  0.11111111       0.006
   0.45000000  0.25000000  0.11111111       0.006
   0.05000000  0.32142857  0.11111111       0.006
   0.15000000  0.32142857  0.11111111       0.006
   0.25000000  0.32142857  0.11111111       0.006
   0.35000000  0.32142857  0.11111111       0.006
   0.45000000  0.32142857  0.11111111       0.006
   0.05000000  0.39285714  0.11111111       0.006
   0.15000000  0.39285714  0.11111111       0.006
   0.25000000  0.39285714  0.11111111       0.006
   0.35000000  0.39285714  0.11111111       0.006
   0.45000000  0.39285714  0.11111111       0.006
   0.05000000  0.46428571  0.11111111       0.006
   0.15000000  0.46428571  0.11111111       0.006
   0.25000000  0.46428571  0.11111111       0.006
   0.35000000  0.46428571  0.11111111       0.006
   0.45000000  0.46428571  0.11111111       0.006
   0.05000000  0.03571429  0.22222222       0.006
   0.15000000  0.03571429  0.22222222       0.006
   0.25000000  0.03571429  0.22222222       0.006
   0.35000000  0.03571429  0.22222222       0.006
   0.45000000  0.03571429  0.22222222       0.006
   0.05000000  0.10714286  0.22222222       0.006
   0.15000000  0.10714286  0.22222222       0.006
   0.25000000  0.10714286  0.22222222       0.006
   0.35000000  0.10714286  0.22222222       0.006
   0.45000000  0.10714286  0.22222222       0.006
   0.05000000  0.17857143  0.22222222       0.006
   0.15000000  0.17857143  0.22222222       0.006
   0.25000000  0.17857143  0.22222222       0.006
   0.35000000  0.17857143  0.22222222       0.006
   0.45000000  0.17857143  0.22222222       0.006
   0.05000000  0.25000000  0.22222222       0.006
   0.15000000  0.25000000  0.22222222       0.006
   0.25000000  0.25000000  0.22222222       0.006
   0.35000000  0.25000000  0.22222222       0.006
   0.45000000  0.25000000  0.22222222       0.006
   0.05000000  0.32142857  0.22222222       0.006
   0.15000000  0.32142857  0.22222222       0.006
   0.25000000  0.32142857  0.22222222       0.006
   0.35000000  0.32142857  0.22222222       0.006
   0.45000000  0.32142857  0.22222222       0.006
   0.05000000  0.39285714  0.22222222       0.006
   0.15000000  0.39285714  0.22222222       0.006
   0.25000000  0.39285714  0.22222222       0.006
   0.35000000  0.39285714  0.22222222       0.006
   0.45000000  0.39285714  0.22222222       0.006
   0.05000000  0.46428571  0.22222222       0.006
   0.15000000  0.46428571  0.22222222       0.006
   0.25000000  0.46428571  0.22222222       0.006
   0.35000000  0.46428571  0.22222222       0.006
   0.45000000  0.46428571  0.22222222       0.006
   0.05000000  0.03571429  0.33333333       0.006
   0.15000000  0.03571429  0.33333333       0.006
   0.25000000  0.03571429  0.33333333       0.006
   0.35000000  0.03571429  0.33333333       0.006
   0.45000000  0.03571429  0.33333333       0.006
   0.05000000  0.10714286  0.33333333       0.006
   0.15000000  0.10714286  0.33333333       0.006
   0.25000000  0.10714286  0.33333333       0.006
   0.35000000  0.10714286  0.33333333       0.006
   0.45000000  0.10714286  0.33333333       0.006
   0.05000000  0.17857143  0.33333333       0.006
   0.15000000  0.17857143  0.33333333       0.006
   0.25000000  0.17857143  0.33333333       0.006
   0.35000000  0.17857143  0.33333333       0.006
   0.45000000  0.17857143  0.33333333       0.006
   0.05000000  0.25000000  0.33333333       0.006
   0.15000000  0.25000000  0.33333333       0.006
   0.25000000  0.25000000  0.33333333       0.006
   0.35000000  0.25000000  0.33333333       0.006
   0.45000000  0.25000000  0.33333333       0.006
   0.05000000  0.32142857  0.33333333       0.006
   0.15000000  0.32142857  0.33333333       0.006
   0.25000000  0.32142857  0.33333333       0.006
   0.35000000  0.32142857  0.33333333       0.006
   0.45000000  0.32142857  0.33333333       0.006
   0.05000000  0.39285714  0.33333333       0.006
   0.15000000  0.39285714  0.33333333       0.006
   0.25000000  0.39285714  0.33333333       0.006
   0.35000000  0.39285714  0.33333333       0.006
   0.45000000  0.39285714  0.33333333       0.006
   0.05000000  0.46428571  0.33333333       0.006
   0.15000000  0.46428571  0.33333333       0.006
   0.25000000  0.46428571  0.33333333       0.006
   0.35000000  0.46428571  0.33333333       0.006
   0.45000000  0.46428571  0.33333333       0.006
   0.05000000  0.03571429  0.44444444       0.006
   0.15000000  0.03571429  0.44444444       0.006
   0.25000000  0.03571429  0.44444444       0.006
   0.35000000  0.03571429  0.44444444       0.006
   0.45000000  0.03571429  0.44444444       0.006
   0.05000000  0.10714286  0.44444444       0.006
   0.15000000  0.10714286  0.44444444       0.006
   0.25000000  0.10714286  0.44444444       0.006
   0.35000000  0.10714286  0.44444444       0.006
   0.45000000  0.10714286  0.44444444       0.006
   0.05000000  0.17857143  0.44444444       0.006
   0.15000000  0.17857143  0.44444444       0.006
   0.25000000  0.17857143  0.44444444       0.006
   0.35000000  0.17857143  0.44444444       0.006
   0.45000000  0.17857143  0.44444444       0.006
   0.05000000  0.25000000  0.44444444       0.006
   0.15000000  0.25000000  0.44444444       0.006
   0.25000000  0.25000000  0.44444444       0.006
   0.35000000  0.25000000  0.44444444       0.006
   0.45000000  0.25000000  0.44444444       0.006
   0.05000000  0.32142857  0.44444444       0.006
   0.15000000  0.32142857  0.44444444       0.006
   0.25000000  0.32142857  0.44444444       0.006
   0.35000000  0.32142857  0.44444444       0.006
   0.45000000  0.32142857  0.44444444       0.006
   0.05000000  0.39285714  0.44444444       0.006
   0.15000000  0.39285714  0.44444444       0.006
   0.25000000  0.39285714  0.44444444       0.006
   0.35000000  0.39285714  0.44444444       0.006
   0.45000000  0.39285714  0.44444444       0.006
   0.05000000  0.46428571  0.44444444       0.006
   0.15000000  0.46428571  0.44444444       0.006
   0.25000000  0.46428571  0.44444444       0.006
   0.35000000  0.46428571  0.44444444       0.006
   0.45000000  0.46428571  0.44444444       0.006
 
 position of ions in fractional coordinates (direct lattice) 
   0.52123000  0.54500000  0.63796000
 
 position of ions in cartesian coordinates  (Angst):
   7.81845000  6.81250000 11.48328000
 


--------------------------------------------------------------------------------------------------------


 k-point     1 :   0.0500 0.0357 0.0000  plane waves:  160581
 k-point     2 :   0.1500 0.0357 0.0000  plane waves:  160564
 k-point     3 :   0.2500 0.0357 0.0000  plane waves:  160547
 k-point     4 :   0.3500 0.0357 0.0000  plane waves:  160565
 k-point     5 :   0.4500 0.0357 0.0000  plane waves:  160579
 k-point     6 :   0.0500 0.1071 0.0000  plane waves:  160558
 k-point     7 :   0.1500 0.1071 0.0000  plane waves:  160519
 k-point     8 :   0.2500 0.1071 0.0000  plane waves:  160545
 k-point     9 :   0.3500 0.1071 0.0000  plane waves:  160558
 k-point    10 :   0.4500 0.1071 0.0000  plane waves:  160557
 k-point    11 :   0.0500 0.1786 0.0000  plane waves:  160567
 k-point    12 :   0.1500 0.1786 0.0000  plane waves:  160580
 k-point    13 :   0.2500 0.1786 0.0000  plane waves:  160541
 k-point    14 :   0.3500 0.1786 0.0000  plane waves:  160547
 k-point    15 :   0.4500 0.1786 0.0000  plane waves:  160597
 k-point    16 :   0.0500 0.2500 0.0000  plane waves:  160582
 k-point    17 :   0.1500 0.2500 0.0000  plane waves:  160608
 k-point    18 :   0.2500 0.2500 0.0000  plane waves:  160601
 k-point    19 :   0.3500 0.2500 0.0000  plane waves:  160549
 k-point    20 :   0.4500 0.2500 0.0000  plane waves:  160553
 k-point    21 :   0.0500 0.3214 0.0000  plane waves:  160634
 k-point    22 :   0.1500 0.3214 0.0000  plane waves:  160599
 k-point    23 :   0.2500 0.3214 0.0000  plane waves:  160582
 k-point    24 :   0.3500 0.3214 0.0000  plane waves:  160546
 k-point    25 :   0.4500 0.3214 0.0000  plane waves:  160546
 k-point    26 :   0.0500 0.3929 0.0000  plane waves:  160612
 k-point    27 :   0.1500 0.3929 0.0000  plane waves:  160604
 k-point    28 :   0.2500 0.3929 0.0000  plane waves:  160566
 k-point    29 :   0.3500 0.3929 0.0000  plane waves:  160541
 k-point    30 :   0.4500 0.3929 0.0000  plane waves:  160553
 k-point    31 :   0.0500 0.4643 0.0000  plane waves:  160621
 k-point    32 :   0.1500 0.4643 0.0000  plane waves:  160606
 k-point    33 :   0.2500 0.4643 0.0000  plane waves:  160593
 k-point    34 :   0.3500 0.4643 0.0000  plane waves:  160558
 k-point    35 :   0.4500 0.4643 0.0000  plane waves:  160597
 k-point    36 :   0.0500 0.0357 0.1111  plane waves:  160560
 k-point    37 :   0.1500 0.0357 0.1111  plane waves:  160541
 k-point    38 :   0.2500 0.0357 0.1111  plane waves:  160564
 k-point    39 :   0.3500 0.0357 0.1111  plane waves:  160566
 k-point    40 :   0.4500 0.0357 0.1111  plane waves:  160552
 k-point    41 :   0.0500 0.1071 0.1111  plane waves:  160582
 k-point    42 :   0.1500 0.1071 0.1111  plane waves:  160531
 k-point    43 :   0.2500 0.1071 0.1111  plane waves:  160522
 k-point    44 :   0.3500 0.1071 0.1111  plane waves:  160540
 k-point    45 :   0.4500 0.1071 0.1111  plane waves:  160566
 k-point    46 :   0.0500 0.1786 0.1111  plane waves:  160564
 k-point    47 :   0.1500 0.1786 0.1111  plane waves:  160607
 k-point    48 :   0.2500 0.1786 0.1111  plane waves:  160540
 k-point    49 :   0.3500 0.1786 0.1111  plane waves:  160555
 k-point    50 :   0.4500 0.1786 0.1111  plane waves:  160550
 k-point    51 :   0.0500 0.2500 0.1111  plane waves:  160605
 k-point    52 :   0.1500 0.2500 0.1111  plane waves:  160605
 k-point    53 :   0.2500 0.2500 0.1111  plane waves:  160559
 k-point    54 :   0.3500 0.2500 0.1111  plane waves:  160544
 k-point    55 :   0.4500 0.2500 0.1111  plane waves:  160572
 k-point    56 :   0.0500 0.3214 0.1111  plane waves:  160613
 k-point    57 :   0.1500 0.3214 0.1111  plane waves:  160606
 k-point    58 :   0.2500 0.3214 0.1111  plane waves:  160590
 k-point    59 :   0.3500 0.3214 0.1111  plane waves:  160586
 k-point    60 :   0.4500 0.3214 0.1111  plane waves:  160573
 k-point    61 :   0.0500 0.3929 0.1111  plane waves:  160611
 k-point    62 :   0.1500 0.3929 0.1111  plane waves:  160628
 k-point    63 :   0.2500 0.3929 0.1111  plane waves:  160580
 k-point    64 :   0.3500 0.3929 0.1111  plane waves:  160578
 k-point    65 :   0.4500 0.3929 0.1111  plane waves:  160589
 k-point    66 :   0.0500 0.4643 0.1111  plane waves:  160640
 k-point    67 :   0.1500 0.4643 0.1111  plane waves:  160594
 k-point    68 :   0.2500 0.4643 0.1111  plane waves:  160564
 k-point    69 :   0.3500 0.4643 0.1111  plane waves:  160586
 k-point    70 :   0.4500 0.4643 0.1111  plane waves:  160589
 k-point    71 :   0.0500 0.0357 0.2222  plane waves:  160528
 k-point    72 :   0.1500 0.0357 0.2222  plane waves:  160568
 k-point    73 :   0.2500 0.0357 0.2222  plane waves:  160527
 k-point    74 :   0.3500 0.0357 0.2222  plane waves:  160528
 k-point    75 :   0.4500 0.0357 0.2222  plane waves:  160544
 k-point    76 :   0.0500 0.1071 0.2222  plane waves:  160547
 k-point    77 :   0.1500 0.1071 0.2222  plane waves:  160552
 k-point    78 :   0.2500 0.1071 0.2222  plane waves:  160540
 k-point    79 :   0.3500 0.1071 0.2222  plane waves:  160506
 k-point    80 :   0.4500 0.1071 0.2222  plane waves:  160542
 k-point    81 :   0.0500 0.1786 0.2222  plane waves:  160562
 k-point    82 :   0.1500 0.1786 0.2222  plane waves:  160577
 k-point    83 :   0.2500 0.1786 0.2222  plane waves:  160558
 k-point    84 :   0.3500 0.1786 0.2222  plane waves:  160558
 k-point    85 :   0.4500 0.1786 0.2222  plane waves:  160574
 k-point    86 :   0.0500 0.2500 0.2222  plane waves:  160564
 k-point    87 :   0.1500 0.2500 0.2222  plane waves:  160566
 k-point    88 :   0.2500 0.2500 0.2222  plane waves:  160543
 k-point    89 :   0.3500 0.2500 0.2222  plane waves:  160577
 k-point    90 :   0.4500 0.2500 0.2222  plane waves:  160611
 k-point    91 :   0.0500 0.3214 0.2222  plane waves:  160607
 k-point    92 :   0.1500 0.3214 0.2222  plane waves:  160583
 k-point    93 :   0.2500 0.3214 0.2222  plane waves:  160583
 k-point    94 :   0.3500 0.3214 0.2222  plane waves:  160603
 k-point    95 :   0.4500 0.3214 0.2222  plane waves:  160605
 k-point    96 :   0.0500 0.3929 0.2222  plane waves:  160596
 k-point    97 :   0.1500 0.3929 0.2222  plane waves:  160588
 k-point    98 :   0.2500 0.3929 0.2222  plane waves:  160593
 k-point    99 :   0.3500 0.3929 0.2222  plane waves:  160606
 k-point   100 :   0.4500 0.3929 0.2222  plane waves:  160581
 k-point   101 :   0.0500 0.4643 0.2222  plane waves:  160628
 k-point   102 :   0.1500 0.4643 0.2222  plane waves:  160603
 k-point   103 :   0.2500 0.4643 0.2222  plane waves:  160569
 k-point   104 :   0.3500 0.4643 0.2222  plane waves:  160590
 k-point   105 :   0.4500 0.4643 0.2222  plane waves:  160567
 k-point   106 :   0.0500 0.0357 0.3333  plane waves:  160497
 k-point   107 :   0.1500 0.0357 0.3333  plane waves:  160547
 k-point   108 :   0.2500 0.0357 0.3333  plane waves:  160544
 k-point   109 :   0.3500 0.0357 0.3333  plane waves:  160528
 k-point   110 :   0.4500 0.0357 0.3333  plane waves:  160533
 k-point   111 :   0.0500 0.1071 0.3333  plane waves:  160507
 k-point   112 :   0.1500 0.1071 0.3333  plane waves:  160532
 k-point   113 :   0.2500 0.1071 0.3333  plane waves:  160530
 k-point   114 :   0.3500 0.1071 0.3333  plane waves:  160545
 k-point   115 :   0.4500 0.1071 0.3333  plane waves:  160547
 k-point   116 :   0.0500 0.1786 0.3333  plane waves:  160549
 k-point   117 :   0.1500 0.1786 0.3333  plane waves:  160528
 k-point   118 :   0.2500 0.1786 0.3333  plane waves:  160568
 k-point   119 :   0.3500 0.1786 0.3333  plane waves:  160561
 k-point   120 :   0.4500 0.1786 0.3333  plane waves:  160583
 k-point   121 :   0.0500 0.2500 0.3333  plane waves:  160549
 k-point   122 :   0.1500 0.2500 0.3333  plane waves:  160557
 k-point   123 :   0.2500 0.2500 0.3333  plane waves:  160576
 k-point   124 :   0.3500 0.2500 0.3333  plane waves:  160580
 k-point   125 :   0.4500 0.2500 0.3333  plane waves:  160607
 k-point   126 :   0.0500 0.3214 0.3333  plane waves:  160560
 k-point   127 :   0.1500 0.3214 0.3333  plane waves:  160572
 k-point   128 :   0.2500 0.3214 0.3333  plane waves:  160556
 k-point   129 :   0.3500 0.3214 0.3333  plane waves:  160572
 k-point   130 :   0.4500 0.3214 0.3333  plane waves:  160602
 k-point   131 :   0.0500 0.3929 0.3333  plane waves:  160588
 k-point   132 :   0.1500 0.3929 0.3333  plane waves:  160575
 k-point   133 :   0.2500 0.3929 0.3333  plane waves:  160563
 k-point   134 :   0.3500 0.3929 0.3333  plane waves:  160575
 k-point   135 :   0.4500 0.3929 0.3333  plane waves:  160567
 k-point   136 :   0.0500 0.4643 0.3333  plane waves:  160622
 k-point   137 :   0.1500 0.4643 0.3333  plane waves:  160606
 k-point   138 :   0.2500 0.4643 0.3333  plane waves:  160592
 k-point   139 :   0.3500 0.4643 0.3333  plane waves:  160549
 k-point   140 :   0.4500 0.4643 0.3333  plane waves:  160558
 k-point   141 :   0.0500 0.0357 0.4444  plane waves:  160473
 k-point   142 :   0.1500 0.0357 0.4444  plane waves:  160544
 k-point   143 :   0.2500 0.0357 0.4444  plane waves:  160557
 k-point   144 :   0.3500 0.0357 0.4444  plane waves:  160531
 k-point   145 :   0.4500 0.0357 0.4444  plane waves:  160511
 k-point   146 :   0.0500 0.1071 0.4444  plane waves:  160497
 k-point   147 :   0.1500 0.1071 0.4444  plane waves:  160537
 k-point   148 :   0.2500 0.1071 0.4444  plane waves:  160548
 k-point   149 :   0.3500 0.1071 0.4444  plane waves:  160565
 k-point   150 :   0.4500 0.1071 0.4444  plane waves:  160553
 k-point   151 :   0.0500 0.1786 0.4444  plane waves:  160513
 k-point   152 :   0.1500 0.1786 0.4444  plane waves:  160533
 k-point   153 :   0.2500 0.1786 0.4444  plane waves:  160543
 k-point   154 :   0.3500 0.1786 0.4444  plane waves:  160562
 k-point   155 :   0.4500 0.1786 0.4444  plane waves:  160576
 k-point   156 :   0.0500 0.2500 0.4444  plane waves:  160551
 k-point   157 :   0.1500 0.2500 0.4444  plane waves:  160531
 k-point   158 :   0.2500 0.2500 0.4444  plane waves:  160548
 k-point   159 :   0.3500 0.2500 0.4444  plane waves:  160561
 k-point   160 :   0.4500 0.2500 0.4444  plane waves:  160541
 k-point   161 :   0.0500 0.3214 0.4444  plane waves:  160568
 k-point   162 :   0.1500 0.3214 0.4444  plane waves:  160514
 k-point   163 :   0.2500 0.3214 0.4444  plane waves:  160545
 k-point   164 :   0.3500 0.3214 0.4444  plane waves:  160578
 k-point   165 :   0.4500 0.3214 0.4444  plane waves:  160550
 k-point   166 :   0.0500 0.3929 0.4444  plane waves:  160629
 k-point   167 :   0.1500 0.3929 0.4444  plane waves:  160545
 k-point   168 :   0.2500 0.3929 0.4444  plane waves:  160548
 k-point   169 :   0.3500 0.3929 0.4444  plane waves:  160560
 k-point   170 :   0.4500 0.3929 0.4444  plane waves:  160549
 k-point   171 :   0.0500 0.4643 0.4444  plane waves:  160662
 k-point   172 :   0.1500 0.4643 0.4444  plane waves:  160585
 k-point   173 :   0.2500 0.4643 0.4444  plane waves:  160550
 k-point   174 :   0.3500 0.4643 0.4444  plane waves:  160538
 k-point   175 :   0.4500 0.4643 0.4444  plane waves:  160541

 maximum and minimum number of plane-waves per node :    160662   160473

 maximum number of plane-waves:    160662
 maximum index in each direction: 
   IXMAX=   33   IYMAX=   28   IZMAX=   40
   IXMIN=  -34   IYMIN=  -28   IZMIN=  -40


 serial   3D FFT for wavefunctions
 parallel 3D FFT for charge:
    minimum data exchange during FFTs selected (reduces bandwidth)


 total amount of memory used by VASP MPI-rank0  2465438. kBytes
=======================================================================

   base      :      30000. kBytes
   nonl-proj :    1802186. kBytes
   fftplans  :      39445. kBytes
   grid      :     143833. kBytes
   one-center:          3. kBytes
   wavefun   :     449971. kBytes
 
     INWAV:  cpu time      0.0000: real time      0.0000
 Broyden mixing: mesh for mixing (old mesh)
   NGX = 67   NGY = 57   NGZ = 81
  (NGX  =280   NGY  =224   NGZ  =324)
  gives a total of 309339 points

 initial charge density was supplied:
 charge density of overlapping atoms calculated
 number of electron       3.0000000 magnetization 
 keeping initial charge density in first step


--------------------------------------------------------------------------------------------------------


 Maximum index for augmentation-charges          585 (set IRDMAX)


--------------------------------------------------------------------------------------------------------


 First call to EWALD:  gamma=   0.118
 Maximum number of real-space cells 3x 3x 2
 Maximum number of reciprocal cells 3x 2x 3

    FEWALD:  cpu time      0.0025: real time      0.0025


--------------------------------------- Ionic step        1  -------------------------------------------




--------------------------------------- Iteration      1(   1)  ---------------------------------------


    POTLOK:  cpu time      0.9245: real time      0.9546
    SETDIJ:  cpu time      0.0022: real time      0.0042
     EDDAV:  cpu time     99.5880: real time    100.9559
       DOS:  cpu time      0.0031: real time      1.0492
    --------------------------------------------
      LOOP:  cpu time    100.5180: real time    102.9641

 eigenvalue-minimisations  :  8400
 total energy-change (2. order) : 0.8540047E+01  (-0.3679752E+02)
 number of electron       3.0000000 magnetization 
 augmentation part        3.0000000 magnetization 

 Free energy of the ion-electron system (eV)
  ---------------------------------------------------
  alpha Z        PSCENC =         0.02038373
  Ewald energy   TEWEN  =       -11.82901664
  -Hartree energ DENC   =       -42.58396533
  -exchange      EXHF   =         0.00000000
  -V(xc)+E(xc)   XCENC  =         4.75549668
  PAW double counting   =        43.49986551      -42.64454556
  entropy T*S    EENTRO =        -0.00947207
  eigenvalues    EBANDS =       -13.83870940
  atomic energy  EATOM  =        71.17001009
  Solvation  Ediel_sol  =         0.00000000
  ---------------------------------------------------
  free energy    TOTEN  =         8.54004701 eV

  energy without entropy =        8.54951907  energy(sigma->0) =        8.54478304


--------------------------------------------------------------------------------------------------------




--------------------------------------- Iteration      1(   2)  ---------------------------------------


     EDDAV:  cpu time    158.6829: real time    161.5321
       DOS:  cpu time      0.0035: real time      0.0154
    --------------------------------------------
      LOOP:  cpu time    158.6863: real time    161.5474

 eigenvalue-minimisations  : 15936
 total energy-change (2. order) :-0.8383186E+01  (-0.8340998E+01)
 number of electron       3.0000000 magnetization 
 augmentation part        3.0000000 magnetization 

 Free energy of the ion-electron system (eV)
  ---------------------------------------------------
  alpha Z        PSCENC =         0.02038373
  Ewald energy   TEWEN  =       -11.82901664
  -Hartree energ DENC   =       -42.58396533
  -exchange      EXHF   =         0.00000000
  -V(xc)+E(xc)   XCENC  =         4.75549668
  PAW double counting   =        43.49986551      -42.64454556
  entropy T*S    EENTRO =        -0.02611986
  eigenvalues    EBANDS =       -22.20524711
  atomic energy  EATOM  =        71.17001009
  Solvation  Ediel_sol  =         0.00000000
  ---------------------------------------------------
  free energy    TOTEN  =         0.15686151 eV

  energy without entropy =        0.18298136  energy(sigma->0) =        0.16992144


--------------------------------------------------------------------------------------------------------




--------------------------------------- Iteration      1(   3)  ---------------------------------------


     EDDAV:  cpu time    103.3085: real time    103.5847
       DOS:  cpu time      0.0012: real time      0.0052
    --------------------------------------------
      LOOP:  cpu time    103.3097: real time    103.5897

 eigenvalue-minimisations  :  8832
 total energy-change (2. order) :-0.2104252E+00  (-0.1864757E+00)
 number of electron       3.0000000 magnetization 
 augmentation part        3.0000000 magnetization 

 Free energy of the ion-electron system (eV)
  ---------------------------------------------------
  alpha Z        PSCENC =         0.02038373
  Ewald energy   TEWEN  =       -11.82901664
  -Hartree energ DENC   =       -42.58396533
  -exchange      EXHF   =         0.00000000
  -V(xc)+E(xc)   XCENC  =         4.75549668
  PAW double counting   =        43.49986551      -42.64454556
  entropy T*S    EENTRO =        -0.05262389
  eigenvalues    EBANDS =       -22.38916823
  atomic energy  EATOM  =        71.17001009
  Solvation  Ediel_sol  =         0.00000000
  ---------------------------------------------------
  free energy    TOTEN  =        -0.05356364 eV

  energy without entropy =       -0.00093975  energy(sigma->0) =       -0.02725170


--------------------------------------------------------------------------------------------------------




--------------------------------------- Iteration      1(   4)  ---------------------------------------


     EDDAV:  cpu time    108.9176: real time    109.1430
       DOS:  cpu time      0.0010: real time      0.0010
    --------------------------------------------
      LOOP:  cpu time    108.9187: real time    109.1440

 eigenvalue-minimisations  :  9480
 total energy-change (2. order) :-0.4640734E-02  (-0.4271317E-02)
 number of electron       3.0000000 magnetization 
 augmentation part        3.0000000 magnetization 

 Free energy of the ion-electron system (eV)
  ---------------------------------------------------
  alpha Z        PSCENC =         0.02038373
  Ewald energy   TEWEN  =       -11.82901664
  -Hartree energ DENC   =       -42.58396533
  -exchange      EXHF   =         0.00000000
  -V(xc)+E(xc)   XCENC  =         4.75549668
  PAW double counting   =        43.49986551      -42.64454556
  entropy T*S    EENTRO =        -0.05300129
  eigenvalues    EBANDS =       -22.39343156
  atomic energy  EATOM  =        71.17001009
  Solvation  Ediel_sol  =         0.00000000
  ---------------------------------------------------
  free energy    TOTEN  =        -0.05820438 eV

  energy without entropy =       -0.00520309  energy(sigma->0) =       -0.03170373


--------------------------------------------------------------------------------------------------------




--------------------------------------- Iteration      1(   5)  ---------------------------------------


     EDDAV:  cpu time    143.7800: real time    144.0717
       DOS:  cpu time      0.0011: real time      0.0017
    CHARGE:  cpu time      6.4461: real time      6.4978
    MIXING:  cpu time      0.0299: real time      0.0379
    --------------------------------------------
      LOOP:  cpu time    150.2571: real time    150.6092

 eigenvalue-minimisations  : 13824
 total energy-change (2. order) :-0.5181018E-04  (-0.5177646E-04)
 number of electron       3.0000000 magnetization 
 augmentation part       -0.0946563 magnetization 

 Broyden mixing:
  rms(total) = 0.25261E-03    rms(broyden)= 0.21445E-03
  rms(prec ) = 0.21914E-03
  weight for this iteration     100.00
  WARNING: grid for Broyden might be to small

 Free energy of the ion-electron system (eV)
  ---------------------------------------------------
  alpha Z        PSCENC =         0.02038373
  Ewald energy   TEWEN  =       -11.82901664
  -Hartree energ DENC   =       -42.58396533
  -exchange      EXHF   =         0.00000000
  -V(xc)+E(xc)   XCENC  =         4.75549668
  PAW double counting   =        43.49986551      -42.64454556
  entropy T*S    EENTRO =        -0.05300134
  eigenvalues    EBANDS =       -22.39348333
  atomic energy  EATOM  =        71.17001009
  Solvation  Ediel_sol  =         0.00000000
  ---------------------------------------------------
  free energy    TOTEN  =        -0.05825619 eV

  energy without entropy =       -0.00525485  energy(sigma->0) =       -0.03175552


--------------------------------------------------------------------------------------------------------




--------------------------------------- Iteration      1(   6)  ---------------------------------------


    POTLOK:  cpu time      0.8525: real time      1.8596
    SETDIJ:  cpu time      0.0165: real time      0.0214
     EDDAV:  cpu time    124.6895: real time    125.2093
       DOS:  cpu time      0.0035: real time      0.0500
    CHARGE:  cpu time      6.4808: real time      6.5004
    MIXING:  cpu time      0.0394: real time      0.0660
    --------------------------------------------
      LOOP:  cpu time    132.0823: real time    133.7068

 eigenvalue-minimisations  : 11208
 total energy-change (2. order) :-0.1558802E-05  (-0.2315030E-06)
 number of electron       3.0000000 magnetization 
 augmentation part       -0.0946556 magnetization 

 Broyden mixing:
  rms(total) = 0.13634E-03    rms(broyden)= 0.13368E-03
  rms(prec ) = 0.13709E-03
  weight for this iteration     100.00

 eigenvalues of (default mixing * dielectric matrix)
  average eigenvalue GAMMA=   2.5942
  2.5942

 Free energy of the ion-electron system (eV)
  ---------------------------------------------------
  alpha Z        PSCENC =         0.02038373
  Ewald energy   TEWEN  =       -11.82901664
  -Hartree energ DENC   =       -42.58435189
  -exchange      EXHF   =         0.00000000
  -V(xc)+E(xc)   XCENC  =         4.75549323
  PAW double counting   =        43.48641995      -42.63112633
  entropy T*S    EENTRO =        -0.05300134
  eigenvalues    EBANDS =       -22.39306854
  atomic energy  EATOM  =        71.17001009
  Solvation  Ediel_sol  =         0.00000000
  ---------------------------------------------------
  free energy    TOTEN  =        -0.05825775 eV

  energy without entropy =       -0.00525641  energy(sigma->0) =       -0.03175708


--------------------------------------------------------------------------------------------------------




--------------------------------------- Iteration      1(   7)  ---------------------------------------


    POTLOK:  cpu time      0.8337: real time      1.9412
    SETDIJ:  cpu time      0.0073: real time      0.0121
     EDDAV:  cpu time    130.9282: real time    132.2868
       DOS:  cpu time      0.0050: real time      0.0185
    CHARGE:  cpu time      6.4806: real time      6.4943
    MIXING:  cpu time      0.0534: real time      0.0889
    --------------------------------------------
      LOOP:  cpu time    138.3082: real time    140.8417

 eigenvalue-minimisations  : 11952
 total energy-change (2. order) :-0.1089836E-05  (-0.2364571E-07)
 number of electron       3.0000000 magnetization 
 augmentation part       -0.0946544 magnetization 

 Broyden mixing:
  rms(total) = 0.18097E-04    rms(broyden)= 0.17284E-04
  rms(prec ) = 0.19931E-04
  weight for this iteration     100.00

 eigenvalues of (default mixing * dielectric matrix)
  average eigenvalue GAMMA=   1.6273
  0.7256  2.5290

 Free energy of the ion-electron system (eV)
  ---------------------------------------------------
  alpha Z        PSCENC =         0.02038373
  Ewald energy   TEWEN  =       -11.82901664
  -Hartree energ DENC   =       -42.58517347
  -exchange      EXHF   =         0.00000000
  -V(xc)+E(xc)   XCENC  =         4.75550768
  PAW double counting   =        43.46271949      -42.60746805
  entropy T*S    EENTRO =        -0.05300134
  eigenvalues    EBANDS =       -22.39222033
  atomic energy  EATOM  =        71.17001009
  Solvation  Ediel_sol  =         0.00000000
  ---------------------------------------------------
  free energy    TOTEN  =        -0.05825884 eV

  energy without entropy =       -0.00525750  energy(sigma->0) =       -0.03175817


--------------------------------------------------------------------------------------------------------




--------------------------------------- Iteration      1(   8)  ---------------------------------------


    POTLOK:  cpu time      0.7792: real time      1.6518
    SETDIJ:  cpu time      0.0128: real time      0.0162
     EDDAV:  cpu time    134.7242: real time    135.5080
       DOS:  cpu time      0.0028: real time      0.0095
    --------------------------------------------
      LOOP:  cpu time    135.5190: real time    137.1856

 eigenvalue-minimisations  : 12264
 total energy-change (2. order) :-0.4817008E-07  (-0.2786212E-09)
 number of electron       3.0000000 magnetization 
 augmentation part       -0.0946544 magnetization 

 Free energy of the ion-electron system (eV)
  ---------------------------------------------------
  alpha Z        PSCENC =         0.02038373
  Ewald energy   TEWEN  =       -11.82901664
  -Hartree energ DENC   =       -42.58507473
  -exchange      EXHF   =         0.00000000
  -V(xc)+E(xc)   XCENC  =         4.75549969
  PAW double counting   =        43.46314478      -42.60788907
  entropy T*S    EENTRO =        -0.05300134
  eigenvalues    EBANDS =       -22.39231540
  atomic energy  EATOM  =        71.17001009
  Solvation  Ediel_sol  =         0.00000000
  ---------------------------------------------------
  free energy    TOTEN  =        -0.05825889 eV

  energy without entropy =       -0.00525755  energy(sigma->0) =       -0.03175822


--------------------------------------------------------------------------------------------------------




 average (electrostatic) potential at core
  the test charge radii are     0.7672
  (the norm of the test charge is              1.0000)
       1 -39.4292
 
 
 
 E-fermi :  -3.6072     XC(G=0):  -0.2666     alpha+bet : -0.0329

 val. band max:       -9.4096729606   @ k =   0.0500   0.4643   0.0000
 cond. band min:      -3.5730819073   @ k =   0.0500   0.4643   0.1111
 fundamental gap:      5.8365910534
 Fermi energy:        -3.6071720296

 k-point     1 :       0.0500    0.0357    0.0000
  band No.  band energies     occupation 
      1      -9.4097      2.00000
      2      -3.5730      0.33346
      3      -3.5730      0.33334
      4      -3.5729      0.33175
      5      -0.2624      0.00000
      6       0.2978      0.00000
      7       0.3089      0.00000
      8       0.4387      0.00000
      9       0.5734      0.00000
     10       0.6859      0.00000
     11       0.8281      0.00000
     12       0.9101      0.00000
     13       0.9466      0.00000
     14       1.0357      0.00000
     15       1.0821      0.00000
     16       1.1729      0.00000
     17       1.2112      0.00000
     18       1.2889      0.00000
     19       1.3337      0.00000
     20       1.3557      0.00000
     21       1.4282      0.00000
     22       1.4977      0.00000
     23       1.5760      0.00000
     24       1.7090      0.00000

 k-point     2 :       0.1500    0.0357    0.0000
  band No.  band energies     occupation 
      1      -9.4097      2.00000
      2      -3.5730      0.33345
      3      -3.5730      0.33339
      4      -3.5729      0.33175
      5      -0.2526      0.00000
      6       0.2709      0.00000
      7       0.3201      0.00000
      8       0.3748      0.00000
      9       0.6891      0.00000
     10       0.7076      0.00000
     11       0.8004      0.00000
     12       0.8323      0.00000
     13       0.8412      0.00000
     14       1.1516      0.00000
     15       1.1655      0.00000
     16       1.1969      0.00000
     17       1.2225      0.00000
     18       1.2586      0.00000
     19       1.3332      0.00000
     20       1.3503      0.00000
     21       1.3900      0.00000
     22       1.5764      0.00000
     23       1.6387      0.00000
     24       1.6874      0.00000

 k-point     3 :       0.2500    0.0357    0.0000
  band No.  band energies     occupation 
      1      -9.4097      2.00000
      2      -3.5730      0.33346
[...]
      7       0.2980      0.00000
      8       0.5030      0.00000
      9       0.5543      0.00000
     10       0.7014      0.00000
     11       0.7538      0.00000
     12       0.8623      0.00000
     13       0.9187      0.00000
     14       0.9395      0.00000
     15       1.0445      0.00000
     16       1.0856      0.00000
     17       1.1010      0.00000
     18       1.2096      0.00000
     19       1.2918      0.00000
     20       1.4118      0.00000
     21       1.4741      0.00000
     22       1.5076      0.00000
     23       1.6388      0.00000
     24       1.6691      0.00000

 k-point   162 :       0.1500    0.3214    0.4444
  band No.  band energies     occupation 
      1      -9.4097      2.00000
      2      -3.5730      0.33405
      3      -3.5730      0.33329
      4      -3.5730      0.33321
      5      -0.1406      0.00000
      6       0.1721      0.00000
      7       0.3075      0.00000
      8       0.4523      0.00000
      9       0.5144      0.00000
     10       0.6418      0.00000
     11       0.7992      0.00000
     12       0.8509      0.00000
     13       0.9086      0.00000
     14       0.9824      0.00000
     15       1.0225      0.00000
     16       1.0989      0.00000
     17       1.1926      0.00000
     18       1.2627      0.00000
     19       1.3583      0.00000
     20       1.4076      0.00000
     21       1.4397      0.00000
     22       1.4920      0.00000
     23       1.5671      0.00000
     24       1.7096      0.00000

 k-point   163 :       0.2500    0.3214    0.4444
  band No.  band energies     occupation 
      1      -9.4097      2.00000
      2      -3.5730      0.33404
      3      -3.5730      0.33328
      4      -3.5730      0.33328
      5      -0.1242      0.00000
      6       0.1967      0.00000
      7       0.3200      0.00000
      8       0.3680      0.00000
      9       0.5211      0.00000
     10       0.5590      0.00000
     11       0.7186      0.00000
     12       0.8801      0.00000
     13       0.9339      0.00000
     14       0.9902      0.00000
     15       1.0766      0.00000
     16       1.2106      0.00000
     17       1.2744      0.00000
     18       1.2973      0.00000
     19       1.3448      0.00000
     20       1.4263      0.00000
     21       1.4507      0.00000
     22       1.5242      0.00000
     23       1.5704      0.00000
     24       1.6532      0.00000

 k-point   164 :       0.3500    0.3214    0.4444
  band No.  band energies     occupation 
      1      -9.4097      2.00000
      2      -3.5730      0.33404
      3      -3.5730      0.33335
      4      -3.5730      0.33328
      5      -0.1048      0.00000
      6       0.2318      0.00000
      7       0.2824      0.00000
      8       0.3612      0.00000
      9       0.4478      0.00000
     10       0.5810      0.00000
     11       0.6441      0.00000
     12       0.7943      0.00000
     13       0.9664      0.00000
     14       1.1120      0.00000
     15       1.1363      0.00000
     16       1.2182      0.00000
     17       1.3083      0.00000
     18       1.3512      0.00000
     19       1.3998      0.00000
     20       1.4398      0.00000
     21       1.5007      0.00000
     22       1.5274      0.00000
     23       1.6015      0.00000
     24       1.7037      0.00000

 k-point   165 :       0.4500    0.3214    0.4444
  band No.  band energies     occupation 
      1      -9.4097      2.00000
      2      -3.5730      0.33404
      3      -3.5730      0.33339
      4      -3.5730      0.33328
      5      -0.0905      0.00000
      6       0.2421      0.00000
      7       0.2736      0.00000
      8       0.3801      0.00000
      9       0.3840      0.00000
     10       0.5962      0.00000
     11       0.6217      0.00000
     12       0.7287      0.00000
     13       0.9963      0.00000
     14       1.1418      0.00000
     15       1.1471      0.00000
     16       1.2784      0.00000
     17       1.3334      0.00000
     18       1.3539      0.00000
     19       1.4729      0.00000
     20       1.4861      0.00000
     21       1.5008      0.00000
     22       1.5653      0.00000
     23       1.6262      0.00000
     24       1.6400      0.00000

 k-point   166 :       0.0500    0.3929    0.4444
  band No.  band energies     occupation 
      1      -9.4097      2.00000
      2      -3.5731      0.33462
      3      -3.5730      0.33325
      4      -3.5730      0.33312
      5      -0.1174      0.00000
      6       0.2038      0.00000
      7       0.2295      0.00000
      8       0.4200      0.00000
      9       0.5905      0.00000
     10       0.7434      0.00000
     11       0.7976      0.00000
     12       0.8488      0.00000
     13       0.9037      0.00000
     14       0.9737      0.00000
     15       0.9851      0.00000
     16       1.0234      0.00000
     17       1.1127      0.00000
     18       1.1316      0.00000
     19       1.2107      0.00000
     20       1.3409      0.00000
     21       1.5351      0.00000
     22       1.6101      0.00000
     23       1.6911      0.00000
     24       1.7163      0.00000

 k-point   167 :       0.1500    0.3929    0.4444
  band No.  band energies     occupation 
      1      -9.4097      2.00000
      2      -3.5731      0.33462
      3      -3.5730      0.33324
      4      -3.5730      0.33317
      5      -0.1085      0.00000
      6       0.2161      0.00000
      7       0.2402      0.00000
      8       0.4325      0.00000
      9       0.4900      0.00000
     10       0.6853      0.00000
     11       0.7363      0.00000
     12       0.8786      0.00000
     13       0.8993      0.00000
     14       0.9506      0.00000
     15       1.0630      0.00000
     16       1.1142      0.00000
     17       1.1460      0.00000
     18       1.1884      0.00000
     19       1.2941      0.00000
     20       1.3666      0.00000
     21       1.4375      0.00000
     22       1.5779      0.00000
     23       1.6401      0.00000
     24       1.6885      0.00000

 k-point   168 :       0.2500    0.3929    0.4444
  band No.  band energies     occupation 
      1      -9.4097      2.00000
      2      -3.5731      0.33461
      3      -3.5730      0.33324
      4      -3.5730      0.33324
      5      -0.0925      0.00000
      6       0.2401      0.00000
      7       0.2607      0.00000
      8       0.3995      0.00000
      9       0.4567      0.00000
     10       0.5860      0.00000
     11       0.6425      0.00000
     12       0.7977      0.00000
     13       0.9742      0.00000
     14       1.0267      0.00000
     15       1.1172      0.00000
     16       1.1973      0.00000
     17       1.2537      0.00000
     18       1.2778      0.00000
     19       1.3378      0.00000
     20       1.3675      0.00000
     21       1.4695      0.00000
     22       1.5077      0.00000
     23       1.5647      0.00000
     24       1.6655      0.00000

 k-point   169 :       0.3500    0.3929    0.4444
  band No.  band energies     occupation 
      1      -9.4097      2.00000
      2      -3.5731      0.33461
      3      -3.5730      0.33331
      4      -3.5730      0.33323
      5      -0.0737      0.00000
      6       0.2725      0.00000
      7       0.2881      0.00000
      8       0.3315      0.00000
      9       0.4797      0.00000
     10       0.5130      0.00000
     11       0.5662      0.00000
     12       0.7097      0.00000
     13       1.0070      0.00000
     14       1.1500      0.00000
     15       1.1737      0.00000
     16       1.2357      0.00000
     17       1.2606      0.00000
     18       1.3764      0.00000
     19       1.3931      0.00000
     20       1.4386      0.00000
     21       1.4506      0.00000
     22       1.4981      0.00000
     23       1.6204      0.00000
     24       1.6511      0.00000

 k-point   170 :       0.4500    0.3929    0.4444
  band No.  band energies     occupation 
      1      -9.4097      2.00000
      2      -3.5731      0.33460
      3      -3.5730      0.33335
      4      -3.5730      0.33323
      5      -0.0600      0.00000
      6       0.2830      0.00000
      7       0.3106      0.00000
      8       0.3196      0.00000
      9       0.4308      0.00000
     10       0.5170      0.00000
     11       0.5411      0.00000
     12       0.6424      0.00000
     13       1.0361      0.00000
     14       1.1803      0.00000
     15       1.1898      0.00000
     16       1.2629      0.00000
     17       1.3206      0.00000
     18       1.3834      0.00000
     19       1.4118      0.00000
     20       1.4412      0.00000
     21       1.5370      0.00000
     22       1.5575      0.00000
     23       1.6223      0.00000
     24       1.6483      0.00000

 k-point   171 :       0.0500    0.4643    0.4444
  band No.  band energies     occupation 
      1      -9.4097      2.00000
      2      -3.5731      0.33494
      3      -3.5730      0.33322
      4      -3.5730      0.33310
      5      -0.0942      0.00000
      6       0.1848      0.00000
      7       0.2546      0.00000
      8       0.3529      0.00000
      9       0.6203      0.00000
     10       0.7815      0.00000
     11       0.8015      0.00000
     12       0.8426      0.00000
     13       0.9234      0.00000
     14       0.9432      0.00000
     15       0.9506      0.00000
     16       1.0345      0.00000
     17       1.0724      0.00000
     18       1.1380      0.00000
     19       1.1607      0.00000
     20       1.2825      0.00000
     21       1.5675      0.00000
     22       1.6836      0.00000
     23       1.7172      0.00000
     24       1.7638      0.00000

 k-point   172 :       0.1500    0.4643    0.4444
  band No.  band energies     occupation 
      1      -9.4097      2.00000
      2      -3.5731      0.33493
      3      -3.5730      0.33322
      4      -3.5730      0.33314
      5      -0.0856      0.00000
      6       0.1958      0.00000
      7       0.2668      0.00000
      8       0.3658      0.00000
      9       0.5232      0.00000
     10       0.6849      0.00000
     11       0.7335      0.00000
     12       0.8330      0.00000
     13       0.9145      0.00000
     14       0.9870      0.00000
     15       1.0549      0.00000
     16       1.1092      0.00000
     17       1.1321      0.00000
     18       1.1916      0.00000
     19       1.2336      0.00000
     20       1.3059      0.00000
     21       1.4738      0.00000
     22       1.6032      0.00000
     23       1.6296      0.00000
     24       1.7495      0.00000

 k-point   173 :       0.2500    0.4643    0.4444
  band No.  band energies     occupation 
      1      -9.4097      2.00000
      2      -3.5731      0.33493
      3      -3.5730      0.33322
      4      -3.5730      0.33321
      5      -0.0700      0.00000
      6       0.2170      0.00000
      7       0.2907      0.00000
      8       0.3914      0.00000
      9       0.4335      0.00000
     10       0.5883      0.00000
     11       0.6348      0.00000
     12       0.7296      0.00000
     13       1.0137      0.00000
     14       1.0582      0.00000
     15       1.1373      0.00000
     16       1.1579      0.00000
     17       1.2220      0.00000
     18       1.2992      0.00000
     19       1.3097      0.00000
     20       1.3866      0.00000
     21       1.4186      0.00000
     22       1.5053      0.00000
     23       1.5436      0.00000
     24       1.6554      0.00000

 k-point   174 :       0.3500    0.4643    0.4444
  band No.  band energies     occupation 
      1      -9.4097      2.00000
      2      -3.5731      0.33492
      3      -3.5730      0.33328
      4      -3.5730      0.33321
      5      -0.0518      0.00000
      6       0.2451      0.00000
      7       0.3240      0.00000
      8       0.3650      0.00000
      9       0.4285      0.00000
     10       0.5101      0.00000
     11       0.5505      0.00000
     12       0.6398      0.00000
     13       1.0449      0.00000
     14       1.1739      0.00000
     15       1.1818      0.00000
     16       1.2173      0.00000
     17       1.2988      0.00000
     18       1.3187      0.00000
     19       1.3958      0.00000
     20       1.4234      0.00000
     21       1.4524      0.00000
     22       1.5056      0.00000
     23       1.5698      0.00000
     24       1.5862      0.00000

 k-point   175 :       0.4500    0.4643    0.4444
  band No.  band energies     occupation 
      1      -9.4097      2.00000
      2      -3.5731      0.33492
      3      -3.5730      0.33332
      4      -3.5730      0.33321
      5      -0.0388      0.00000
      6       0.2704      0.00000
      7       0.3243      0.00000
      8       0.3603      0.00000
      9       0.4552      0.00000
     10       0.4761      0.00000
     11       0.4917      0.00000
     12       0.5694      0.00000
     13       1.0725      0.00000
     14       1.2078      0.00000
     15       1.2151      0.00000
     16       1.2317      0.00000
     17       1.3425      0.00000
     18       1.3631      0.00000
     19       1.3751      0.00000
     20       1.4409      0.00000
     21       1.4964      0.00000
     22       1.5770      0.00000
     23       1.6051      0.00000
     24       1.6679      0.00000


--------------------------------------------------------------------------------------------------------


 soft charge-density along one line, spin component           1
         0         1         2         3         4         5         6         7         8         9
 total charge-density along one line
 
 pseudopotential strength for first ion, spin component:           1
  6.996  10.697  -0.000  -0.000   0.000  -0.000  -0.000   0.000
 10.697  16.352  -0.000  -0.000   0.000  -0.000  -0.000   0.000
 -0.000  -0.000  -2.483  -0.000   0.000  -4.297  -0.000   0.000
 -0.000  -0.000  -0.000  -2.483  -0.000  -0.000  -4.297  -0.000
  0.000   0.000   0.000  -0.000  -2.483   0.000  -0.000  -4.297
 -0.000  -0.000  -4.297  -0.000   0.000  -7.240  -0.000   0.000
 -0.000  -0.000  -0.000  -4.297  -0.000  -0.000  -7.240  -0.000
  0.000   0.000   0.000  -0.000  -4.297   0.000  -0.000  -7.240
 total augmentation occupancy for first ion, spin component:           1
  1.999   0.001   0.000   0.000   0.000   0.000   0.000   0.000
  0.001   0.000   0.000   0.000   0.000   0.000   0.000   0.000
  0.000   0.000   0.333   0.000   0.000   0.000   0.000   0.000
  0.000   0.000   0.000   0.333   0.000   0.000   0.000   0.000
  0.000   0.000   0.000   0.000   0.333   0.000   0.000   0.000
  0.000   0.000   0.000   0.000   0.000   0.000   0.000   0.000
  0.000   0.000   0.000   0.000   0.000   0.000   0.000   0.000
  0.000   0.000   0.000   0.000   0.000   0.000   0.000   0.000


------------------------ aborting loop because EDIFF is reached ----------------------------------------


    CHARGE:  cpu time      6.6735: real time      6.6775
    FORLOC:  cpu time      0.0224: real time      0.0227
    FORNL :  cpu time      2.4381: real time      2.4412
    STRESS:  cpu time     84.3622: real time     84.3812
    FORCOR:  cpu time      0.6985: real time      0.6999
    FORHAR:  cpu time      0.1729: real time      0.1729
    MIXING:  cpu time      0.0216: real time      0.0216
    OFIELD:  cpu time      0.0001: real time      0.0003

  FORCE on cell =-STRESS in cart. coord.  units (eV):
  Direction    XX          YY          ZZ          XY          YZ          ZX
  --------------------------------------------------------------------------------------
  Alpha Z     0.02038     0.02038     0.02038
  Ewald      -3.85600    -1.56275    -6.41027     0.00000    -0.00000    -0.00000
  Hartree    14.28969    16.49904    11.79615     0.00000    -0.00000    -0.00000
  E(xc)      -7.33297    -7.33297    -7.33297    -0.00000     0.00000     0.00000
  Local     -32.28377   -36.78637   -27.23594    -0.00000     0.00000     0.00000
  n-local     6.84394     6.84394     6.84395    -0.00000    -0.00000    -0.00000
  augment     0.68534     0.68536     0.68535     0.00000    -0.00000    -0.00000
  Kinetic    21.63255    21.63254    21.63253     0.00000     0.00000     0.00000
  Fock        0.00000     0.00000     0.00000     0.00000     0.00000     0.00000
  -------------------------------------------------------------------------------------
  Total      -0.00084    -0.00083    -0.00083     0.00000     0.00000     0.00000
  in kB      -0.00040    -0.00039    -0.00039     0.00000     0.00000     0.00000
  external pressure =       -0.00 kB  Pullay stress =        0.00 kB


 VOLUME and BASIS-vectors are now :
 -----------------------------------------------------------------------------
  energy-cutoff  :      760.00
  volume of cell :     3375.00
      direct lattice vectors                 reciprocal lattice vectors
    15.000000000  0.000000000  0.000000000     0.066666667  0.000000000  0.000000000
     0.000000000 12.500000000  0.000000000     0.000000000  0.080000000  0.000000000
     0.000000000  0.000000000 18.000000000     0.000000000  0.000000000  0.055555556

  length of vectors
    15.000000000 12.500000000 18.000000000     0.066666667  0.080000000  0.055555556


 FORCES acting on ions
    electron-ion (+dipol)            ewald-force                    non-local-force                 convergence-correction
 -----------------------------------------------------------------------------------------------
   -.115E-06 -.217E-06 0.103E-05   0.332E-17 -.449E-17 -.121E-17   0.000E+00 0.794E-22 0.000E+00   0.391E-08 0.263E-08 -.107E-07
 -----------------------------------------------------------------------------------------------
   -.115E-06 -.217E-06 0.103E-05   0.332E-17 -.449E-17 -.121E-17   0.000E+00 0.794E-22 0.000E+00   0.391E-08 0.263E-08 -.107E-07
 
 
 POSITION                                       TOTAL-FORCE (eV/Angst)
 -----------------------------------------------------------------------------------
      7.81845      6.81250     11.48328         0.000000      0.000000     -0.000000
 -----------------------------------------------------------------------------------
    total drift:                               -0.000000     -0.000000      0.000001


--------------------------------------------------------------------------------------------------------



  FREE ENERGIE OF THE ION-ELECTRON SYSTEM (eV)
  ---------------------------------------------------
  free  energy   TOTEN  =        -0.05825889 eV

  energy  without entropy=       -0.00525755  energy(sigma->0) =       -0.03175822
 


--------------------------------------------------------------------------------------------------------


    POTLOK:  cpu time      0.7805: real time      1.0321


--------------------------------------------------------------------------------------------------------


     LOOP+:  cpu time   1122.8043: real time   1139.0695
    4ORBIT:  cpu time      0.0000: real time      0.0000

 total amount of memory used by VASP MPI-rank0  2465438. kBytes
=======================================================================

   base      :      30000. kBytes
   nonl-proj :    1802186. kBytes
   fftplans  :      39445. kBytes
   grid      :     143833. kBytes
   one-center:          3. kBytes
   wavefun   :     449971. kBytes
 
  
  
 General timing and accounting informations for this job:
 ========================================================
  
                  Total CPU time used (sec):     1171.147
                            User time (sec):     1137.606
                          System time (sec):       33.541
                         Elapsed time (sec):     1212.078
  
                   Maximum memory used (kb):     3813972.
                   Average memory used (kb):          N/A
  
                          Minor page faults:     15081262
                          Major page faults:        23563
                 Voluntary context switches:        42898
