 vasp.6.4.3 19Mar24 (build May 31 2024 16:31:43) complex                        
  
 executed on             LinuxIFC date 2024.11.01  16:32:50
 running    8 mpi-ranks, with    1 threads/rank, on    1 nodes
 distrk:  each k-point on    8 cores,    1 groups
 distr:  one band on NCORE=   1 cores,    8 groups


--------------------------------------------------------------------------------------------------------


 INCAR:
   SYSTEM = Convergence
   ISTART = 0
   ICHARG = 2
   PREC = Accurate
   ENCUT = 460
   LCHARG = .FALSE.
   LWAVE = .FALSE.
   ALGO = Normal
   NELM = 100
   EDIFF = 1E-6
   EDIFFG = -1E-3
   SIGMA = 0.05
   ISMEAR = 0
   ISPIN = 1
   NSW = 0
   IBRION = -1
   POTIM = .5
   ISIF = 2
   GGA = PE

 POTCAR:    PAW_PBE B 06Sep2000                   
 POTCAR:    PAW_PBE B 06Sep2000                   
   SHA256 =  a32ced30f5ae56fd4d10b4325ff17eb3e4e38ee0f4288bc219fb012fddfa6e97 B/POTCAR              
   COPYR  = (c) Copyright 06Sep2000 Georg Kresse                                                    
   COPYR  = This file is part of the software VASP. Any use, copying, and all other rights are regul
   COPYR  = If you do not have a valid VASP license, you may not use, copy or distribute this file. 
   VRHFIN =B: s2p1                                                                                  
   LEXCH  = PE                                                                                      
   EATOM  =    71.1703 eV,    5.2309 Ry                                                             
                                                                                                    
   TITEL  = PAW_PBE B 06Sep2000                                                                     
   LULTRA =        F    use ultrasoft PP ?                                                          
   IUNSCR =        1    unscreen: 0-lin 1-nonlin 2-no                                               
   RPACOR =    1.200    partial core radius                                                         
   POMASS =   10.811; ZVAL   =    3.000    mass and valenz                                          
   RCORE  =    1.700    outmost cutoff radius                                                       
   RWIGS  =    1.710; RWIGS  =    0.905    wigner-seitz radius (au A)                               
   ENMAX  =  318.614; ENMIN  =  238.960 eV                                                          
   ICORE  =        2    local potential                                                             
   LCOR   =        T    correct aug charges                                                         
   LPAW   =        T    paw PP                                                                      
   EAUG   =  535.514                                                                                
   DEXC   =    0.000                                                                                
   RMAX   =    1.732    core radius for proj-oper                                                   
   RAUG   =    1.300    factor for augmentation sphere                                              
   RDEP   =    1.757    radius for radial grids                                                     
   RDEPT  =    1.436    core radius for aug-charge                                                  
                                                                                                    
   Atomic configuration                                                                             
    4 entries                                                                                       
     n  l   j            E        occ.                                                              
     1  0  0.50      -180.5896   2.0000                                                             
     2  0  0.50        -9.4431   2.0000                                                             
     2  1  0.50        -3.6068   1.0000                                                             
     3  2  1.50        -4.0817   0.0000                                                             
   Description                                                                                      
     l       E           TYP  RCUT    TYP  RCUT                                                     
     0     -9.4430752     23  1.500                                                                 
     0      0.8675899     23  1.500                                                                 
     1     -3.6067955     23  1.700                                                                 
     1      6.1086146     23  1.700                                                                 
     2     -4.0817478      7  1.700                                                                 
  local pseudopotential read in
  partial core-charges read in
  partial kinetic energy density read in
  atomic valenz-charges read in
  non local Contribution for L=           0  read in
    real space projection operators read in
  non local Contribution for L=           0  read in
    real space projection operators read in
  non local Contribution for L=           1  read in
    real space projection operators read in
  non local Contribution for L=           1  read in
    real space projection operators read in
    PAW grid and wavefunctions read in
 
   number of l-projection  operators is LMAX  =           4
   number of lm-projection operators is LMMAX =           8
 
  PAW_PBE B 06Sep2000                   :
 energy of atom  1       EATOM=  -71.1703
 kinetic energy error for atom=    0.0014 (will be added to EATOM!!)
 
 
 POSCAR: B1
  positions in direct lattice
  No initial velocities read in


 exchange-correlation table for PE
   RHO(1)=    0.500       N(1)  =     2000
   RHO(2)=  100.500       N(2)  =     4000
 


--------------------------------------------------------------------------------------------------------


 ion  position               nearest neighbor table
   1  0.521  0.545  0.638-
 
  LATTYP: Found a simple orthorhombic cell.
 ALAT       =    12.5000000000
 B/A-ratio  =     1.2000000000
 C/A-ratio  =     1.4400000000
  
  Lattice vectors:
  
 A1 = (   0.0000000000, -12.5000000000,   0.0000000000)
 A2 = (  15.0000000000,   0.0000000000,   0.0000000000)
 A3 = (   0.0000000000,   0.0000000000,  18.0000000000)


Analysis of symmetry for initial positions (statically):
=====================================================================
 Subroutine PRICEL returns:
 Original cell was already a primitive cell.
 

 Routine SETGRP: Setting up the symmetry group for a 
 simple orthorhombic supercell.


 Subroutine GETGRP returns: Found  8 space group operations
 (whereof  1 operations were pure point group operations)
 out of a pool of  8 trial point group operations.


The static configuration has the point symmetry C_1 .
 The point group associated with its full space group is D_2h.


Analysis of symmetry for dynamics (positions and initial velocities):
=====================================================================
 Subroutine PRICEL returns:
 Original cell was already a primitive cell.
 

 Routine SETGRP: Setting up the symmetry group for a 
 simple orthorhombic supercell.


 Subroutine GETGRP returns: Found  8 space group operations
 (whereof  1 operations were pure point group operations)
 out of a pool of  8 trial point group operations.


The dynamic configuration has the point symmetry C_1 .
 The point group associated with its full space group is D_2h.


 Subroutine INISYM returns: Found  8 space group operations
 (whereof  1 operations are pure point group operations),
 and found     1 'primitive' translations


----------------------------------------------------------------------------------------

                                     Primitive cell                                     

  volume of cell :    3375.0000

  direct lattice vectors                    reciprocal lattice vectors
    15.000000000  0.000000000  0.000000000     0.066666667  0.000000000  0.000000000
     0.000000000 12.500000000  0.000000000     0.000000000  0.080000000  0.000000000
     0.000000000  0.000000000 18.000000000     0.000000000  0.000000000  0.055555556

  length of vectors
    15.000000000 12.500000000 18.000000000     0.066666667  0.080000000  0.055555556

  position of ions in fractional coordinates (direct lattice)
     0.521230000  0.545000000  0.637960000

  ion indices of the primitive-cell ions
   primitive index   ion index
                 1           1

----------------------------------------------------------------------------------------

 
 
 KPOINTS: k-points                                

Automatic generation of k-mesh.
 Grid dimensions read from file:
 generate k-points for:   10   14    9

 Generating k-lattice:

  Cartesian coordinates                     Fractional coordinates (reciprocal lattice)
     0.006666667  0.000000000  0.000000000     0.100000000  0.000000000  0.000000000
     0.000000000  0.005714286  0.000000000     0.000000000  0.071428571  0.000000000
     0.000000000  0.000000000  0.006172840     0.000000000  0.000000000  0.111111111

  Length of vectors
     0.006666667  0.005714286  0.006172840

  Shift w.r.t. Gamma in fractional coordinates (k-lattice)
     0.500000000  0.500000000  0.000000000

 
 Subroutine IBZKPT returns following result:
 ===========================================
 
 Found    175 irreducible k-points:
 
 Following reciprocal coordinates:
            Coordinates               Weight
  0.050000  0.035714  0.000000      4.000000
  0.150000  0.035714  0.000000      4.000000
  0.250000  0.035714  0.000000      4.000000
  0.350000  0.035714  0.000000      4.000000
  0.450000  0.035714  0.000000      4.000000
  0.050000  0.107143  0.000000      4.000000
  0.150000  0.107143  0.000000      4.000000
  0.250000  0.107143  0.000000      4.000000
  0.350000  0.107143  0.000000      4.000000
  0.450000  0.107143  0.000000      4.000000
  0.050000  0.178571  0.000000      4.000000
  0.150000  0.178571  0.000000      4.000000
  0.250000  0.178571  0.000000      4.000000
  0.350000  0.178571  0.000000      4.000000
  0.450000  0.178571  0.000000      4.000000
  0.050000  0.250000  0.000000      4.000000
  0.150000  0.250000  0.000000      4.000000
  0.250000  0.250000  0.000000      4.000000
  0.350000  0.250000  0.000000      4.000000
  0.450000  0.250000  0.000000      4.000000
  0.050000  0.321429  0.000000      4.000000
  0.150000  0.321429  0.000000      4.000000
  0.250000  0.321429  0.000000      4.000000
  0.350000  0.321429  0.000000      4.000000
  0.450000  0.321429  0.000000      4.000000
  0.050000  0.392857  0.000000      4.000000
  0.150000  0.392857  0.000000      4.000000
  0.250000  0.392857  0.000000      4.000000
  0.350000  0.392857  0.000000      4.000000
  0.450000  0.392857  0.000000      4.000000
  0.050000  0.464286  0.000000      4.000000
  0.150000  0.464286  0.000000      4.000000
  0.250000  0.464286  0.000000      4.000000
  0.350000  0.464286  0.000000      4.000000
  0.450000  0.464286  0.000000      4.000000
  0.050000  0.035714  0.111111      8.000000
  0.150000  0.035714  0.111111      8.000000
  0.250000  0.035714  0.111111      8.000000
  0.350000  0.035714  0.111111      8.000000
  0.450000  0.035714  0.111111      8.000000
  0.050000  0.107143  0.111111      8.000000
  0.150000  0.107143  0.111111      8.000000
  0.250000  0.107143  0.111111      8.000000
  0.350000  0.107143  0.111111      8.000000
  0.450000  0.107143  0.111111      8.000000
  0.050000  0.178571  0.111111      8.000000
  0.150000  0.178571  0.111111      8.000000
  0.250000  0.178571  0.111111      8.000000
  0.350000  0.178571  0.111111      8.000000
  0.450000  0.178571  0.111111      8.000000
  0.050000  0.250000  0.111111      8.000000
  0.150000  0.250000  0.111111      8.000000
  0.250000  0.250000  0.111111      8.000000
  0.350000  0.250000  0.111111      8.000000
  0.450000  0.250000  0.111111      8.000000
  0.050000  0.321429  0.111111      8.000000
  0.150000  0.321429  0.111111      8.000000
  0.250000  0.321429  0.111111      8.000000
  0.350000  0.321429  0.111111      8.000000
  0.450000  0.321429  0.111111      8.000000
  0.050000  0.392857  0.111111      8.000000
  0.150000  0.392857  0.111111      8.000000
  0.250000  0.392857  0.111111      8.000000
  0.350000  0.392857  0.111111      8.000000
  0.450000  0.392857  0.111111      8.000000
  0.050000  0.464286  0.111111      8.000000
  0.150000  0.464286  0.111111      8.000000
  0.250000  0.464286  0.111111      8.000000
  0.350000  0.464286  0.111111      8.000000
  0.450000  0.464286  0.111111      8.000000
  0.050000  0.035714  0.222222      8.000000
  0.150000  0.035714  0.222222      8.000000
  0.250000  0.035714  0.222222      8.000000
  0.350000  0.035714  0.222222      8.000000
  0.450000  0.035714  0.222222      8.000000
  0.050000  0.107143  0.222222      8.000000
  0.150000  0.107143  0.222222      8.000000
  0.250000  0.107143  0.222222      8.000000
  0.350000  0.107143  0.222222      8.000000
  0.450000  0.107143  0.222222      8.000000
  0.050000  0.178571  0.222222      8.000000
  0.150000  0.178571  0.222222      8.000000
  0.250000  0.178571  0.222222      8.000000
  0.350000  0.178571  0.222222      8.000000
  0.450000  0.178571  0.222222      8.000000
  0.050000  0.250000  0.222222      8.000000
  0.150000  0.250000  0.222222      8.000000
  0.250000  0.250000  0.222222      8.000000
  0.350000  0.250000  0.222222      8.000000
  0.450000  0.250000  0.222222      8.000000
  0.050000  0.321429  0.222222      8.000000
  0.150000  0.321429  0.222222      8.000000
  0.250000  0.321429  0.222222      8.000000
  0.350000  0.321429  0.222222      8.000000
  0.450000  0.321429  0.222222      8.000000
  0.050000  0.392857  0.222222      8.000000
  0.150000  0.392857  0.222222      8.000000
  0.250000  0.392857  0.222222      8.000000
  0.350000  0.392857  0.222222      8.000000
  0.450000  0.392857  0.222222      8.000000
  0.050000  0.464286  0.222222      8.000000
  0.150000  0.464286  0.222222      8.000000
  0.250000  0.464286  0.222222      8.000000
  0.350000  0.464286  0.222222      8.000000
  0.450000  0.464286  0.222222      8.000000
  0.050000  0.035714  0.333333      8.000000
  0.150000  0.035714  0.333333      8.000000
  0.250000  0.035714  0.333333      8.000000
  0.350000  0.035714  0.333333      8.000000
  0.450000  0.035714  0.333333      8.000000
  0.050000  0.107143  0.333333      8.000000
  0.150000  0.107143  0.333333      8.000000
  0.250000  0.107143  0.333333      8.000000
  0.350000  0.107143  0.333333      8.000000
  0.450000  0.107143  0.333333      8.000000
  0.050000  0.178571  0.333333      8.000000
  0.150000  0.178571  0.333333      8.000000
  0.250000  0.178571  0.333333      8.000000
  0.350000  0.178571  0.333333      8.000000
  0.450000  0.178571  0.333333      8.000000
  0.050000  0.250000  0.333333      8.000000
  0.150000  0.250000  0.333333      8.000000
  0.250000  0.250000  0.333333      8.000000
  0.350000  0.250000  0.333333      8.000000
  0.450000  0.250000  0.333333      8.000000
  0.050000  0.321429  0.333333      8.000000
  0.150000  0.321429  0.333333      8.000000
  0.250000  0.321429  0.333333      8.000000
  0.350000  0.321429  0.333333      8.000000
  0.450000  0.321429  0.333333      8.000000
  0.050000  0.392857  0.333333      8.000000
  0.150000  0.392857  0.333333      8.000000
  0.250000  0.392857  0.333333      8.000000
  0.350000  0.392857  0.333333      8.000000
  0.450000  0.392857  0.333333      8.000000
  0.050000  0.464286  0.333333      8.000000
  0.150000  0.464286  0.333333      8.000000
  0.250000  0.464286  0.333333      8.000000
  0.350000  0.464286  0.333333      8.000000
  0.450000  0.464286  0.333333      8.000000
  0.050000  0.035714  0.444444      8.000000
  0.150000  0.035714  0.444444      8.000000
  0.250000  0.035714  0.444444      8.000000
  0.350000  0.035714  0.444444      8.000000
  0.450000  0.035714  0.444444      8.000000
  0.050000  0.107143  0.444444      8.000000
  0.150000  0.107143  0.444444      8.000000
  0.250000  0.107143  0.444444      8.000000
  0.350000  0.107143  0.444444      8.000000
  0.450000  0.107143  0.444444      8.000000
  0.050000  0.178571  0.444444      8.000000
  0.150000  0.178571  0.444444      8.000000
  0.250000  0.178571  0.444444      8.000000
  0.350000  0.178571  0.444444      8.000000
  0.450000  0.178571  0.444444      8.000000
  0.050000  0.250000  0.444444      8.000000
  0.150000  0.250000  0.444444      8.000000
  0.250000  0.250000  0.444444      8.000000
  0.350000  0.250000  0.444444      8.000000
  0.450000  0.250000  0.444444      8.000000
  0.050000  0.321429  0.444444      8.000000
  0.150000  0.321429  0.444444      8.000000
  0.250000  0.321429  0.444444      8.000000
  0.350000  0.321429  0.444444      8.000000
  0.450000  0.321429  0.444444      8.000000
  0.050000  0.392857  0.444444      8.000000
  0.150000  0.392857  0.444444      8.000000
  0.250000  0.392857  0.444444      8.000000
  0.350000  0.392857  0.444444      8.000000
  0.450000  0.392857  0.444444      8.000000
  0.050000  0.464286  0.444444      8.000000
  0.150000  0.464286  0.444444      8.000000
  0.250000  0.464286  0.444444      8.000000
  0.350000  0.464286  0.444444      8.000000
  0.450000  0.464286  0.444444      8.000000
 
 Following cartesian coordinates:
            Coordinates               Weight
  0.003333  0.002857  0.000000      4.000000
  0.010000  0.002857  0.000000      4.000000
  0.016667  0.002857  0.000000      4.000000
  0.023333  0.002857  0.000000      4.000000
  0.030000  0.002857  0.000000      4.000000
  0.003333  0.008571  0.000000      4.000000
  0.010000  0.008571  0.000000      4.000000
  0.016667  0.008571  0.000000      4.000000
  0.023333  0.008571  0.000000      4.000000
  0.030000  0.008571  0.000000      4.000000
  0.003333  0.014286  0.000000      4.000000
  0.010000  0.014286  0.000000      4.000000
  0.016667  0.014286  0.000000      4.000000
  0.023333  0.014286  0.000000      4.000000
  0.030000  0.014286  0.000000      4.000000
  0.003333  0.020000  0.000000      4.000000
  0.010000  0.020000  0.000000      4.000000
  0.016667  0.020000  0.000000      4.000000
  0.023333  0.020000  0.000000      4.000000
  0.030000  0.020000  0.000000      4.000000
  0.003333  0.025714  0.000000      4.000000
  0.010000  0.025714  0.000000      4.000000
  0.016667  0.025714  0.000000      4.000000
  0.023333  0.025714  0.000000      4.000000
  0.030000  0.025714  0.000000      4.000000
  0.003333  0.031429  0.000000      4.000000
  0.010000  0.031429  0.000000      4.000000
  0.016667  0.031429  0.000000      4.000000
  0.023333  0.031429  0.000000      4.000000
  0.030000  0.031429  0.000000      4.000000
  0.003333  0.037143  0.000000      4.000000
  0.010000  0.037143  0.000000      4.000000
  0.016667  0.037143  0.000000      4.000000
  0.023333  0.037143  0.000000      4.000000
  0.030000  0.037143  0.000000      4.000000
  0.003333  0.002857  0.006173      8.000000
  0.010000  0.002857  0.006173      8.000000
  0.016667  0.002857  0.006173      8.000000
  0.023333  0.002857  0.006173      8.000000
  0.030000  0.002857  0.006173      8.000000
  0.003333  0.008571  0.006173      8.000000
  0.010000  0.008571  0.006173      8.000000
  0.016667  0.008571  0.006173      8.000000
  0.023333  0.008571  0.006173      8.000000
  0.030000  0.008571  0.006173      8.000000
  0.003333  0.014286  0.006173      8.000000
  0.010000  0.014286  0.006173      8.000000
  0.016667  0.014286  0.006173      8.000000
  0.023333  0.014286  0.006173      8.000000
  0.030000  0.014286  0.006173      8.000000
  0.003333  0.020000  0.006173      8.000000
  0.010000  0.020000  0.006173      8.000000
  0.016667  0.020000  0.006173      8.000000
  0.023333  0.020000  0.006173      8.000000
  0.030000  0.020000  0.006173      8.000000
  0.003333  0.025714  0.006173      8.000000
  0.010000  0.025714  0.006173      8.000000
  0.016667  0.025714  0.006173      8.000000
  0.023333  0.025714  0.006173      8.000000
  0.030000  0.025714  0.006173      8.000000
  0.003333  0.031429  0.006173      8.000000
  0.010000  0.031429  0.006173      8.000000
  0.016667  0.031429  0.006173      8.000000
  0.023333  0.031429  0.006173      8.000000
  0.030000  0.031429  0.006173      8.000000
  0.003333  0.037143  0.006173      8.000000
  0.010000  0.037143  0.006173      8.000000
  0.016667  0.037143  0.006173      8.000000
  0.023333  0.037143  0.006173      8.000000
  0.030000  0.037143  0.006173      8.000000
  0.003333  0.002857  0.012346      8.000000
  0.010000  0.002857  0.012346      8.000000
  0.016667  0.002857  0.012346      8.000000
  0.023333  0.002857  0.012346      8.000000
  0.030000  0.002857  0.012346      8.000000
  0.003333  0.008571  0.012346      8.000000
  0.010000  0.008571  0.012346      8.000000
  0.016667  0.008571  0.012346      8.000000
  0.023333  0.008571  0.012346      8.000000
  0.030000  0.008571  0.012346      8.000000
  0.003333  0.014286  0.012346      8.000000
  0.010000  0.014286  0.012346      8.000000
  0.016667  0.014286  0.012346      8.000000
  0.023333  0.014286  0.012346      8.000000
  0.030000  0.014286  0.012346      8.000000
  0.003333  0.020000  0.012346      8.000000
  0.010000  0.020000  0.012346      8.000000
  0.016667  0.020000  0.012346      8.000000
  0.023333  0.020000  0.012346      8.000000
  0.030000  0.020000  0.012346      8.000000
  0.003333  0.025714  0.012346      8.000000
  0.010000  0.025714  0.012346      8.000000
  0.016667  0.025714  0.012346      8.000000
  0.023333  0.025714  0.012346      8.000000
  0.030000  0.025714  0.012346      8.000000
  0.003333  0.031429  0.012346      8.000000
  0.010000  0.031429  0.012346      8.000000
  0.016667  0.031429  0.012346      8.000000
  0.023333  0.031429  0.012346      8.000000
  0.030000  0.031429  0.012346      8.000000
  0.003333  0.037143  0.012346      8.000000
  0.010000  0.037143  0.012346      8.000000
  0.016667  0.037143  0.012346      8.000000
  0.023333  0.037143  0.012346      8.000000
  0.030000  0.037143  0.012346      8.000000
  0.003333  0.002857  0.018519      8.000000
  0.010000  0.002857  0.018519      8.000000
  0.016667  0.002857  0.018519      8.000000
  0.023333  0.002857  0.018519      8.000000
  0.030000  0.002857  0.018519      8.000000
  0.003333  0.008571  0.018519      8.000000
  0.010000  0.008571  0.018519      8.000000
  0.016667  0.008571  0.018519      8.000000
  0.023333  0.008571  0.018519      8.000000
  0.030000  0.008571  0.018519      8.000000
  0.003333  0.014286  0.018519      8.000000
  0.010000  0.014286  0.018519      8.000000
  0.016667  0.014286  0.018519      8.000000
  0.023333  0.014286  0.018519      8.000000
  0.030000  0.014286  0.018519      8.000000
  0.003333  0.020000  0.018519      8.000000
  0.010000  0.020000  0.018519      8.000000
  0.016667  0.020000  0.018519      8.000000
  0.023333  0.020000  0.018519      8.000000
  0.030000  0.020000  0.018519      8.000000
  0.003333  0.025714  0.018519      8.000000
  0.010000  0.025714  0.018519      8.000000
  0.016667  0.025714  0.018519      8.000000
  0.023333  0.025714  0.018519      8.000000
  0.030000  0.025714  0.018519      8.000000
  0.003333  0.031429  0.018519      8.000000
  0.010000  0.031429  0.018519      8.000000
  0.016667  0.031429  0.018519      8.000000
  0.023333  0.031429  0.018519      8.000000
  0.030000  0.031429  0.018519      8.000000
  0.003333  0.037143  0.018519      8.000000
  0.010000  0.037143  0.018519      8.000000
  0.016667  0.037143  0.018519      8.000000
  0.023333  0.037143  0.018519      8.000000
  0.030000  0.037143  0.018519      8.000000
  0.003333  0.002857  0.024691      8.000000
  0.010000  0.002857  0.024691      8.000000
  0.016667  0.002857  0.024691      8.000000
  0.023333  0.002857  0.024691      8.000000
  0.030000  0.002857  0.024691      8.000000
  0.003333  0.008571  0.024691      8.000000
  0.010000  0.008571  0.024691      8.000000
  0.016667  0.008571  0.024691      8.000000
  0.023333  0.008571  0.024691      8.000000
  0.030000  0.008571  0.024691      8.000000
  0.003333  0.014286  0.024691      8.000000
  0.010000  0.014286  0.024691      8.000000
  0.016667  0.014286  0.024691      8.000000
  0.023333  0.014286  0.024691      8.000000
  0.030000  0.014286  0.024691      8.000000
  0.003333  0.020000  0.024691      8.000000
  0.010000  0.020000  0.024691      8.000000
  0.016667  0.020000  0.024691      8.000000
  0.023333  0.020000  0.024691      8.000000
  0.030000  0.020000  0.024691      8.000000
  0.003333  0.025714  0.024691      8.000000
  0.010000  0.025714  0.024691      8.000000
  0.016667  0.025714  0.024691      8.000000
  0.023333  0.025714  0.024691      8.000000
  0.030000  0.025714  0.024691      8.000000
  0.003333  0.031429  0.024691      8.000000
  0.010000  0.031429  0.024691      8.000000
  0.016667  0.031429  0.024691      8.000000
  0.023333  0.031429  0.024691      8.000000
  0.030000  0.031429  0.024691      8.000000
  0.003333  0.037143  0.024691      8.000000
  0.010000  0.037143  0.024691      8.000000
  0.016667  0.037143  0.024691      8.000000
  0.023333  0.037143  0.024691      8.000000
  0.030000  0.037143  0.024691      8.000000
 


--------------------------------------------------------------------------------------------------------




 Dimension of arrays:
   k-points           NKPTS =    175   k-points in BZ     NKDIM =    175   number of bands    NBANDS=      8
   number of dos      NEDOS =    301   number of ions     NIONS =      1
   non local maximal  LDIM  =      4   non local SUM 2l+1 LMDIM =      8
   total plane-waves  NPLWV = ******
   max r-space proj   IRMAX =      1   max aug-charges    IRDMAX=   5858
   dimension x,y,z NGX =   108 NGY =   90 NGZ =  126
   dimension x,y,z NGXF=   216 NGYF=  180 NGZF=  252
   support grid    NGXF=   216 NGYF=  180 NGZF=  252
   ions per type =               1
   NGX,Y,Z   is equivalent  to a cutoff of  11.97, 11.97, 11.64 a.u.
   NGXF,Y,Z  is equivalent  to a cutoff of  23.94, 23.94, 23.27 a.u.

 SYSTEM =  Convergence                             
 POSCAR =  B1                                      

 Startparameter for this run:
   NWRITE =      2    write-flag & timer
   PREC   = accura    normal or accurate (medium, high low for compatibility)
   ISTART =      0    job   : 0-new  1-cont  2-samecut
   ICHARG =      2    charge: 1-file 2-atom 10-const
   ISPIN  =      1    spin polarized calculation?
   LNONCOLLINEAR =      F non collinear calculations
   LSORBIT =      F    spin-orbit coupling
   INIWAV =      1    electr: 0-lowe 1-rand  2-diag
   LASPH  =      F    aspherical Exc in radial PAW
 Electronic Relaxation 1
   ENCUT  =  460.0 eV  33.81 Ry    5.81 a.u.  26.23 21.86 31.48*2*pi/ulx,y,z
   ENINI  =  460.0     initial cutoff
   ENAUG  =  535.5 eV  augmentation charge cutoff
   NELM   =    100;   NELMIN=  2; NELMDL= -5     # of ELM steps 
   EDIFF  = 0.1E-05   stopping-criterion for ELM
   LREAL  =      F    real-space projection
   NLSPLINE    = F    spline interpolate recip. space projectors
   LCOMPAT=      F    compatible to vasp.4.4
   GGA_COMPAT  = T    GGA compatible to vasp.4.4-vasp.4.6
   LMAXPAW     = -100 max onsite density
   LMAXMIX     =    2 max onsite mixed and CHGCAR
   VOSKOWN=      0    Vosko Wilk Nusair interpolation
   ROPT   =    0.00000
 Ionic relaxation
   EDIFFG = -.1E-02   stopping-criterion for IOM
   NSW    =      0    number of steps for IOM
   NBLOCK =      1;   KBLOCK =      1    inner block; outer block 
   IBRION =     -1    ionic relax: 0-MD 1-quasi-New 2-CG
   NFREE  =      0    steps in history (QN), initial steepest desc. (CG)
   ISIF   =      2    stress and relaxation
   IWAVPR =     10    prediction:  0-non 1-charg 2-wave 3-comb
   ISYM   =      2    0-nonsym 1-usesym 2-fastsym
   LCORR  =      T    Harris-Foulkes like correction to forces

   POTIM  = 0.5000    time-step for ionic-motion
   TEIN   =    0.0    initial temperature
   TEBEG  =    0.0;   TEEND  =   0.0 temperature during run
   SMASS  =  -3.00    Nose mass-parameter (am)
   estimated Nose-frequenzy (Omega)   =  0.10E-29 period in steps = 0.13E+47 mass=  -0.514E-26a.u.
   SCALEE = 1.0000    scale energy and forces
   NPACO  =    256;   APACO  = 10.0  distance and # of slots for P.C.
   PSTRESS=    0.0 pullay stress

  Mass of Ions in am
   POMASS =  10.81
  Ionic Valenz
   ZVAL   =   3.00
  Atomic Wigner-Seitz radii
   RWIGS  =  -1.00
  virtual crystal weights 
   VCA    =   1.00
   NELECT =       3.0000    total number of electrons
   NUPDOWN=      -1.0000    fix difference up-down

 DOS related values:
   EMIN   =  10.00;   EMAX   =-10.00  energy-range for DOS
   EFERMI =   0.00;   METHOD = LEGACY      
   ISMEAR =     0;   SIGMA  =   0.05  broadening in eV -4-tet -1-fermi 0-gaus

 Electronic relaxation 2 (details)
   IALGO  =     38    algorithm
   LDIAG  =      T    sub-space diagonalisation (order eigenvalues)
   LSUBROT=      F    optimize rotation matrix (better conditioning)
   TURBO    =      0    0=normal 1=particle mesh
   IRESTART =      0    0=no restart 2=restart with 2 vectors
   NREBOOT  =      0    no. of reboots
   NMIN     =      0    reboot dimension
   EREF     =   0.00    reference energy to select bands
   IMIX   =      4    mixing-type and parameters
     AMIX     =   0.40;   BMIX     =  1.00
     AMIX_MAG =   1.60;   BMIX_MAG =  1.00
     AMIN     =   0.10
     WC   =   100.;   INIMIX=   1;  MIXPRE=   1;  MAXMIX= -45

 Intra band minimization:
   WEIMIN = 0.0000     energy-eigenvalue tresh-hold
   EBREAK =  0.31E-07  absolut break condition
   DEPER  =   0.30     relativ break condition  

   TIME   =   0.40     timestep for ELM

  volume/ion in A,a.u.               =    3375.00     22775.62
  Fermi-wavevector in a.u.,A,eV,Ry     =   0.157407  0.297456  0.337111  0.024777
  Thomas-Fermi vector in A             =   0.845991
 
 Write flags
   LWAVE        =      F    write WAVECAR
   LDOWNSAMPLE  =      F    k-point downsampling of WAVECAR
   LCHARG       =      F    write CHGCAR
   LVTOT        =      F    write LOCPOT, total local potential
   LVHAR        =      F    write LOCPOT, Hartree potential only
   WRT_POTENTIAL= false  ! write potential to hdf5 file
   LELF         =      F    write electronic localiz. function (ELF)
   LORBIT       =      0    0 simple, 1 ext, 2 COOP (PROOUT), +10 PAW based schemes


 Dipole corrections
   LMONO      =      F    monopole corrections only (constant potential shift)
   LDIPOL     =      F    correct potential (dipole corrections)
   IDIPOL     =      0    1-x, 2-y, 3-z, 4-all directions 
   EPSILON    =  1.0000000 bulk dielectric constant
   LVACPOTAV  =      F  vacuum potentials using an averaging scheme for the charge density
   VACPOTFLAT =  0.1000000 required flatness to determine vacuum potential
 Exchange correlation treatment:
   GGA     = PE    functional components
   XC_C    = 1    coefficients multiplying the functional components
   LIBXC   =     F    Libxc                    
   VOSKOWN =     0    Vosko Wilk Nusair interpolation
   LHFCALC =     F    Hartree Fock is set to
   LHFONE  =     F    Hartree Fock one center treatment
   AEXX    =    0.0000 exact exchange contribution

 Parameters of functionals:
   PE:
     No parameter
 
 Van der Waals corrections
   IVDW    =     0    specifies the selected vdW correction

 Linear response parameters
   LEPSILON=     F    determine dielectric tensor
   LRPA    =     F    only Hartree local field effects (RPA)
   LNABLA  =     F    use nabla operator in PAW spheres
   LVEL    =     F    velocity operator in full k-point grid
   CSHIFT  =0.1000    complex shift for real part using Kramers Kronig
   OMEGAMAX=  -1.0    maximum frequency
   DEG_THRESHOLD= 0.2000000E-02 threshold for treating states as degnerate
   RTIME   =   -0.100 relaxation time in fs
  (WPLASMAI=    0.000 imaginary part of plasma frequency in eV, 0.658/RTIME)
   DFIELD  = 0.0000000 0.0000000 0.0000000 field for delta impulse in time
 
  Optional k-point grid parameters
   LKPOINTS_OPT  =     F    use optional k-point grid
   KPOINTS_OPT_MODE=     1    mode for optional k-point grid
 
 Orbital magnetization related:
   ORBITALMAG=     F  switch on orbital magnetization
   LCHIMAG   =     F  perturbation theory with respect to B field
   DQ        =  0.001000  dq finite difference perturbation B field
   LLRAUG    =     F  two centre corrections for induced B field
   LBONE     =     F  B-component reconstruction in AE one-centre
   LVGVCALC  =     T  calculate vGv susceptibility
   LVGVAPPL  =     F  apply vGv susceptibility instead of pGv for G=0

 Random number generation:
   RANDOM_GENERATOR = DEFAULT
   PCG_SEED         = not used


--------------------------------------------------------------------------------------------------------


 Static calculation
 charge density and potential will be updated during run
 non-spin polarized calculation
 Variant of blocked Davidson
 Davidson routine will perform the subspace rotation
 perform sub-space diagonalisation
    after iterative eigenvector-optimisation
 modified Broyden-mixing scheme, WC =      100.0
 initial mixing is a Kerker type mixing with AMIX =  0.4000 and BMIX =      1.0000
 Hartree-type preconditioning will be used
 using additional bands            6
 reciprocal scheme for non local part
 use partial core corrections
 calculate Harris-corrections to forces 
   (improved forces if not selfconsistent)
 use gradient corrections 
 use of overlap-Matrix (Vanderbilt PP)
 Gauss-broadening in eV      SIGMA  =   0.05


--------------------------------------------------------------------------------------------------------


  energy-cutoff  :      460.00
  volume of cell :     3375.00
      direct lattice vectors                 reciprocal lattice vectors
    15.000000000  0.000000000  0.000000000     0.066666667  0.000000000  0.000000000
     0.000000000 12.500000000  0.000000000     0.000000000  0.080000000  0.000000000
     0.000000000  0.000000000 18.000000000     0.000000000  0.000000000  0.055555556

  length of vectors
    15.000000000 12.500000000 18.000000000     0.066666667  0.080000000  0.055555556


 
 k-points in units of 2pi/SCALE and weight: k-points                                
   0.00333333  0.00285714  0.00000000       0.003
   0.01000000  0.00285714  0.00000000       0.003
   0.01666667  0.00285714  0.00000000       0.003
   0.02333333  0.00285714  0.00000000       0.003
   0.03000000  0.00285714  0.00000000       0.003
   0.00333333  0.00857143  0.00000000       0.003
   0.01000000  0.00857143  0.00000000       0.003
   0.01666667  0.00857143  0.00000000       0.003
   0.02333333  0.00857143  0.00000000       0.003
   0.03000000  0.00857143  0.00000000       0.003
   0.00333333  0.01428571  0.00000000       0.003
   0.01000000  0.01428571  0.00000000       0.003
   0.01666667  0.01428571  0.00000000       0.003
   0.02333333  0.01428571  0.00000000       0.003
   0.03000000  0.01428571  0.00000000       0.003
   0.00333333  0.02000000  0.00000000       0.003
   0.01000000  0.02000000  0.00000000       0.003
   0.01666667  0.02000000  0.00000000       0.003
   0.02333333  0.02000000  0.00000000       0.003
   0.03000000  0.02000000  0.00000000       0.003
   0.00333333  0.02571429  0.00000000       0.003
   0.01000000  0.02571429  0.00000000       0.003
   0.01666667  0.02571429  0.00000000       0.003
   0.02333333  0.02571429  0.00000000       0.003
   0.03000000  0.02571429  0.00000000       0.003
   0.00333333  0.03142857  0.00000000       0.003
   0.01000000  0.03142857  0.00000000       0.003
   0.01666667  0.03142857  0.00000000       0.003
   0.02333333  0.03142857  0.00000000       0.003
   0.03000000  0.03142857  0.00000000       0.003
   0.00333333  0.03714286  0.00000000       0.003
   0.01000000  0.03714286  0.00000000       0.003
   0.01666667  0.03714286  0.00000000       0.003
   0.02333333  0.03714286  0.00000000       0.003
   0.03000000  0.03714286  0.00000000       0.003
   0.00333333  0.00285714  0.00617284       0.006
   0.01000000  0.00285714  0.00617284       0.006
   0.01666667  0.00285714  0.00617284       0.006
   0.02333333  0.00285714  0.00617284       0.006
   0.03000000  0.00285714  0.00617284       0.006
   0.00333333  0.00857143  0.00617284       0.006
   0.01000000  0.00857143  0.00617284       0.006
   0.01666667  0.00857143  0.00617284       0.006
   0.02333333  0.00857143  0.00617284       0.006
   0.03000000  0.00857143  0.00617284       0.006
   0.00333333  0.01428571  0.00617284       0.006
   0.01000000  0.01428571  0.00617284       0.006
   0.01666667  0.01428571  0.00617284       0.006
   0.02333333  0.01428571  0.00617284       0.006
   0.03000000  0.01428571  0.00617284       0.006
   0.00333333  0.02000000  0.00617284       0.006
   0.01000000  0.02000000  0.00617284       0.006
   0.01666667  0.02000000  0.00617284       0.006
   0.02333333  0.02000000  0.00617284       0.006
   0.03000000  0.02000000  0.00617284       0.006
   0.00333333  0.02571429  0.00617284       0.006
   0.01000000  0.02571429  0.00617284       0.006
   0.01666667  0.02571429  0.00617284       0.006
   0.02333333  0.02571429  0.00617284       0.006
   0.03000000  0.02571429  0.00617284       0.006
   0.00333333  0.03142857  0.00617284       0.006
   0.01000000  0.03142857  0.00617284       0.006
   0.01666667  0.03142857  0.00617284       0.006
   0.02333333  0.03142857  0.00617284       0.006
   0.03000000  0.03142857  0.00617284       0.006
   0.00333333  0.03714286  0.00617284       0.006
   0.01000000  0.03714286  0.00617284       0.006
   0.01666667  0.03714286  0.00617284       0.006
   0.02333333  0.03714286  0.00617284       0.006
   0.03000000  0.03714286  0.00617284       0.006
   0.00333333  0.00285714  0.01234568       0.006
   0.01000000  0.00285714  0.01234568       0.006
   0.01666667  0.00285714  0.01234568       0.006
   0.02333333  0.00285714  0.01234568       0.006
   0.03000000  0.00285714  0.01234568       0.006
   0.00333333  0.00857143  0.01234568       0.006
   0.01000000  0.00857143  0.01234568       0.006
   0.01666667  0.00857143  0.01234568       0.006
   0.02333333  0.00857143  0.01234568       0.006
   0.03000000  0.00857143  0.01234568       0.006
   0.00333333  0.01428571  0.01234568       0.006
   0.01000000  0.01428571  0.01234568       0.006
   0.01666667  0.01428571  0.01234568       0.006
   0.02333333  0.01428571  0.01234568       0.006
   0.03000000  0.01428571  0.01234568       0.006
   0.00333333  0.02000000  0.01234568       0.006
   0.01000000  0.02000000  0.01234568       0.006
   0.01666667  0.02000000  0.01234568       0.006
   0.02333333  0.02000000  0.01234568       0.006
   0.03000000  0.02000000  0.01234568       0.006
   0.00333333  0.02571429  0.01234568       0.006
   0.01000000  0.02571429  0.01234568       0.006
   0.01666667  0.02571429  0.01234568       0.006
   0.02333333  0.02571429  0.01234568       0.006
   0.03000000  0.02571429  0.01234568       0.006
   0.00333333  0.03142857  0.01234568       0.006
   0.01000000  0.03142857  0.01234568       0.006
   0.01666667  0.03142857  0.01234568       0.006
   0.02333333  0.03142857  0.01234568       0.006
   0.03000000  0.03142857  0.01234568       0.006
   0.00333333  0.03714286  0.01234568       0.006
   0.01000000  0.03714286  0.01234568       0.006
   0.01666667  0.03714286  0.01234568       0.006
   0.02333333  0.03714286  0.01234568       0.006
   0.03000000  0.03714286  0.01234568       0.006
   0.00333333  0.00285714  0.01851852       0.006
   0.01000000  0.00285714  0.01851852       0.006
   0.01666667  0.00285714  0.01851852       0.006
   0.02333333  0.00285714  0.01851852       0.006
   0.03000000  0.00285714  0.01851852       0.006
   0.00333333  0.00857143  0.01851852       0.006
   0.01000000  0.00857143  0.01851852       0.006
   0.01666667  0.00857143  0.01851852       0.006
   0.02333333  0.00857143  0.01851852       0.006
   0.03000000  0.00857143  0.01851852       0.006
   0.00333333  0.01428571  0.01851852       0.006
   0.01000000  0.01428571  0.01851852       0.006
   0.01666667  0.01428571  0.01851852       0.006
   0.02333333  0.01428571  0.01851852       0.006
   0.03000000  0.01428571  0.01851852       0.006
   0.00333333  0.02000000  0.01851852       0.006
   0.01000000  0.02000000  0.01851852       0.006
   0.01666667  0.02000000  0.01851852       0.006
   0.02333333  0.02000000  0.01851852       0.006
   0.03000000  0.02000000  0.01851852       0.006
   0.00333333  0.02571429  0.01851852       0.006
   0.01000000  0.02571429  0.01851852       0.006
   0.01666667  0.02571429  0.01851852       0.006
   0.02333333  0.02571429  0.01851852       0.006
   0.03000000  0.02571429  0.01851852       0.006
   0.00333333  0.03142857  0.01851852       0.006
   0.01000000  0.03142857  0.01851852       0.006
   0.01666667  0.03142857  0.01851852       0.006
   0.02333333  0.03142857  0.01851852       0.006
   0.03000000  0.03142857  0.01851852       0.006
   0.00333333  0.03714286  0.01851852       0.006
   0.01000000  0.03714286  0.01851852       0.006
   0.01666667  0.03714286  0.01851852       0.006
   0.02333333  0.03714286  0.01851852       0.006
   0.03000000  0.03714286  0.01851852       0.006
   0.00333333  0.00285714  0.02469136       0.006
   0.01000000  0.00285714  0.02469136       0.006
   0.01666667  0.00285714  0.02469136       0.006
   0.02333333  0.00285714  0.02469136       0.006
   0.03000000  0.00285714  0.02469136       0.006
   0.00333333  0.00857143  0.02469136       0.006
   0.01000000  0.00857143  0.02469136       0.006
   0.01666667  0.00857143  0.02469136       0.006
   0.02333333  0.00857143  0.02469136       0.006
   0.03000000  0.00857143  0.02469136       0.006
   0.00333333  0.01428571  0.02469136       0.006
   0.01000000  0.01428571  0.02469136       0.006
   0.01666667  0.01428571  0.02469136       0.006
   0.02333333  0.01428571  0.02469136       0.006
   0.03000000  0.01428571  0.02469136       0.006
   0.00333333  0.02000000  0.02469136       0.006
   0.01000000  0.02000000  0.02469136       0.006
   0.01666667  0.02000000  0.02469136       0.006
   0.02333333  0.02000000  0.02469136       0.006
   0.03000000  0.02000000  0.02469136       0.006
   0.00333333  0.02571429  0.02469136       0.006
   0.01000000  0.02571429  0.02469136       0.006
   0.01666667  0.02571429  0.02469136       0.006
   0.02333333  0.02571429  0.02469136       0.006
   0.03000000  0.02571429  0.02469136       0.006
   0.00333333  0.03142857  0.02469136       0.006
   0.01000000  0.03142857  0.02469136       0.006
   0.01666667  0.03142857  0.02469136       0.006
   0.02333333  0.03142857  0.02469136       0.006
   0.03000000  0.03142857  0.02469136       0.006
   0.00333333  0.03714286  0.02469136       0.006
   0.01000000  0.03714286  0.02469136       0.006
   0.01666667  0.03714286  0.02469136       0.006
   0.02333333  0.03714286  0.02469136       0.006
   0.03000000  0.03714286  0.02469136       0.006
 
 k-points in reciprocal lattice and weights: k-points                                
   0.05000000  0.03571429  0.00000000       0.003
   0.15000000  0.03571429  0.00000000       0.003
   0.25000000  0.03571429  0.00000000       0.003
   0.35000000  0.03571429  0.00000000       0.003
   0.45000000  0.03571429  0.00000000       0.003
   0.05000000  0.10714286  0.00000000       0.003
   0.15000000  0.10714286  0.00000000       0.003
   0.25000000  0.10714286  0.00000000       0.003
   0.35000000  0.10714286  0.00000000       0.003
   0.45000000  0.10714286  0.00000000       0.003
   0.05000000  0.17857143  0.00000000       0.003
   0.15000000  0.17857143  0.00000000       0.003
   0.25000000  0.17857143  0.00000000       0.003
   0.35000000  0.17857143  0.00000000       0.003
   0.45000000  0.17857143  0.00000000       0.003
   0.05000000  0.25000000  0.00000000       0.003
   0.15000000  0.25000000  0.00000000       0.003
   0.25000000  0.25000000  0.00000000       0.003
   0.35000000  0.25000000  0.00000000       0.003
   0.45000000  0.25000000  0.00000000       0.003
   0.05000000  0.32142857  0.00000000       0.003
   0.15000000  0.32142857  0.00000000       0.003
   0.25000000  0.32142857  0.00000000       0.003
   0.35000000  0.32142857  0.00000000       0.003
   0.45000000  0.32142857  0.00000000       0.003
   0.05000000  0.39285714  0.00000000       0.003
   0.15000000  0.39285714  0.00000000       0.003
   0.25000000  0.39285714  0.00000000       0.003
   0.35000000  0.39285714  0.00000000       0.003
   0.45000000  0.39285714  0.00000000       0.003
   0.05000000  0.46428571  0.00000000       0.003
   0.15000000  0.46428571  0.00000000       0.003
   0.25000000  0.46428571  0.00000000       0.003
   0.35000000  0.46428571  0.00000000       0.003
   0.45000000  0.46428571  0.00000000       0.003
   0.05000000  0.03571429  0.11111111       0.006
   0.15000000  0.03571429  0.11111111       0.006
   0.25000000  0.03571429  0.11111111       0.006
   0.35000000  0.03571429  0.11111111       0.006
   0.45000000  0.03571429  0.11111111       0.006
   0.05000000  0.10714286  0.11111111       0.006
   0.15000000  0.10714286  0.11111111       0.006
   0.25000000  0.10714286  0.11111111       0.006
   0.35000000  0.10714286  0.11111111       0.006
   0.45000000  0.10714286  0.11111111       0.006
   0.05000000  0.17857143  0.11111111       0.006
   0.15000000  0.17857143  0.11111111       0.006
   0.25000000  0.17857143  0.11111111       0.006
   0.35000000  0.17857143  0.11111111       0.006
   0.45000000  0.17857143  0.11111111       0.006
   0.05000000  0.25000000  0.11111111       0.006
   0.15000000  0.25000000  0.11111111       0.006
   0.25000000  0.25000000  0.11111111       0.006
   0.35000000  0.25000000  0.11111111       0.006
   0.45000000  0.25000000  0.11111111       0.006
   0.05000000  0.32142857  0.11111111       0.006
   0.15000000  0.32142857  0.11111111       0.006
   0.25000000  0.32142857  0.11111111       0.006
   0.35000000  0.32142857  0.11111111       0.006
   0.45000000  0.32142857  0.11111111       0.006
   0.05000000  0.39285714  0.11111111       0.006
   0.15000000  0.39285714  0.11111111       0.006
   0.25000000  0.39285714  0.11111111       0.006
   0.35000000  0.39285714  0.11111111       0.006
   0.45000000  0.39285714  0.11111111       0.006
   0.05000000  0.46428571  0.11111111       0.006
   0.15000000  0.46428571  0.11111111       0.006
   0.25000000  0.46428571  0.11111111       0.006
   0.35000000  0.46428571  0.11111111       0.006
   0.45000000  0.46428571  0.11111111       0.006
   0.05000000  0.03571429  0.22222222       0.006
   0.15000000  0.03571429  0.22222222       0.006
   0.25000000  0.03571429  0.22222222       0.006
   0.35000000  0.03571429  0.22222222       0.006
   0.45000000  0.03571429  0.22222222       0.006
   0.05000000  0.10714286  0.22222222       0.006
   0.15000000  0.10714286  0.22222222       0.006
   0.25000000  0.10714286  0.22222222       0.006
   0.35000000  0.10714286  0.22222222       0.006
   0.45000000  0.10714286  0.22222222       0.006
   0.05000000  0.17857143  0.22222222       0.006
   0.15000000  0.17857143  0.22222222       0.006
   0.25000000  0.17857143  0.22222222       0.006
   0.35000000  0.17857143  0.22222222       0.006
   0.45000000  0.17857143  0.22222222       0.006
   0.05000000  0.25000000  0.22222222       0.006
   0.15000000  0.25000000  0.22222222       0.006
   0.25000000  0.25000000  0.22222222       0.006
   0.35000000  0.25000000  0.22222222       0.006
   0.45000000  0.25000000  0.22222222       0.006
   0.05000000  0.32142857  0.22222222       0.006
   0.15000000  0.32142857  0.22222222       0.006
   0.25000000  0.32142857  0.22222222       0.006
   0.35000000  0.32142857  0.22222222       0.006
   0.45000000  0.32142857  0.22222222       0.006
   0.05000000  0.39285714  0.22222222       0.006
   0.15000000  0.39285714  0.22222222       0.006
   0.25000000  0.39285714  0.22222222       0.006
   0.35000000  0.39285714  0.22222222       0.006
   0.45000000  0.39285714  0.22222222       0.006
   0.05000000  0.46428571  0.22222222       0.006
   0.15000000  0.46428571  0.22222222       0.006
   0.25000000  0.46428571  0.22222222       0.006
   0.35000000  0.46428571  0.22222222       0.006
   0.45000000  0.46428571  0.22222222       0.006
   0.05000000  0.03571429  0.33333333       0.006
   0.15000000  0.03571429  0.33333333       0.006
   0.25000000  0.03571429  0.33333333       0.006
   0.35000000  0.03571429  0.33333333       0.006
   0.45000000  0.03571429  0.33333333       0.006
   0.05000000  0.10714286  0.33333333       0.006
   0.15000000  0.10714286  0.33333333       0.006
   0.25000000  0.10714286  0.33333333       0.006
   0.35000000  0.10714286  0.33333333       0.006
   0.45000000  0.10714286  0.33333333       0.006
   0.05000000  0.17857143  0.33333333       0.006
   0.15000000  0.17857143  0.33333333       0.006
   0.25000000  0.17857143  0.33333333       0.006
   0.35000000  0.17857143  0.33333333       0.006
   0.45000000  0.17857143  0.33333333       0.006
   0.05000000  0.25000000  0.33333333       0.006
   0.15000000  0.25000000  0.33333333       0.006
   0.25000000  0.25000000  0.33333333       0.006
   0.35000000  0.25000000  0.33333333       0.006
   0.45000000  0.25000000  0.33333333       0.006
   0.05000000  0.32142857  0.33333333       0.006
   0.15000000  0.32142857  0.33333333       0.006
   0.25000000  0.32142857  0.33333333       0.006
   0.35000000  0.32142857  0.33333333       0.006
   0.45000000  0.32142857  0.33333333       0.006
   0.05000000  0.39285714  0.33333333       0.006
   0.15000000  0.39285714  0.33333333       0.006
   0.25000000  0.39285714  0.33333333       0.006
   0.35000000  0.39285714  0.33333333       0.006
   0.45000000  0.39285714  0.33333333       0.006
   0.05000000  0.46428571  0.33333333       0.006
   0.15000000  0.46428571  0.33333333       0.006
   0.25000000  0.46428571  0.33333333       0.006
   0.35000000  0.46428571  0.33333333       0.006
   0.45000000  0.46428571  0.33333333       0.006
   0.05000000  0.03571429  0.44444444       0.006
   0.15000000  0.03571429  0.44444444       0.006
   0.25000000  0.03571429  0.44444444       0.006
   0.35000000  0.03571429  0.44444444       0.006
   0.45000000  0.03571429  0.44444444       0.006
   0.05000000  0.10714286  0.44444444       0.006
   0.15000000  0.10714286  0.44444444       0.006
   0.25000000  0.10714286  0.44444444       0.006
   0.35000000  0.10714286  0.44444444       0.006
   0.45000000  0.10714286  0.44444444       0.006
   0.05000000  0.17857143  0.44444444       0.006
   0.15000000  0.17857143  0.44444444       0.006
   0.25000000  0.17857143  0.44444444       0.006
   0.35000000  0.17857143  0.44444444       0.006
   0.45000000  0.17857143  0.44444444       0.006
   0.05000000  0.25000000  0.44444444       0.006
   0.15000000  0.25000000  0.44444444       0.006
   0.25000000  0.25000000  0.44444444       0.006
   0.35000000  0.25000000  0.44444444       0.006
   0.45000000  0.25000000  0.44444444       0.006
   0.05000000  0.32142857  0.44444444       0.006
   0.15000000  0.32142857  0.44444444       0.006
   0.25000000  0.32142857  0.44444444       0.006
   0.35000000  0.32142857  0.44444444       0.006
   0.45000000  0.32142857  0.44444444       0.006
   0.05000000  0.39285714  0.44444444       0.006
   0.15000000  0.39285714  0.44444444       0.006
   0.25000000  0.39285714  0.44444444       0.006
   0.35000000  0.39285714  0.44444444       0.006
   0.45000000  0.39285714  0.44444444       0.006
   0.05000000  0.46428571  0.44444444       0.006
   0.15000000  0.46428571  0.44444444       0.006
   0.25000000  0.46428571  0.44444444       0.006
   0.35000000  0.46428571  0.44444444       0.006
   0.45000000  0.46428571  0.44444444       0.006
 
 position of ions in fractional coordinates (direct lattice) 
   0.52123000  0.54500000  0.63796000
 
 position of ions in cartesian coordinates  (Angst):
   7.81845000  6.81250000 11.48328000
 


--------------------------------------------------------------------------------------------------------


 k-point     1 :   0.0500 0.0357 0.0000  plane waves:   75576
 k-point     2 :   0.1500 0.0357 0.0000  plane waves:   75602
 k-point     3 :   0.2500 0.0357 0.0000  plane waves:   75641
 k-point     4 :   0.3500 0.0357 0.0000  plane waves:   75637
 k-point     5 :   0.4500 0.0357 0.0000  plane waves:   75596
 k-point     6 :   0.0500 0.1071 0.0000  plane waves:   75559
 k-point     7 :   0.1500 0.1071 0.0000  plane waves:   75612
 k-point     8 :   0.2500 0.1071 0.0000  plane waves:   75623
 k-point     9 :   0.3500 0.1071 0.0000  plane waves:   75615
 k-point    10 :   0.4500 0.1071 0.0000  plane waves:   75636
 k-point    11 :   0.0500 0.1786 0.0000  plane waves:   75619
 k-point    12 :   0.1500 0.1786 0.0000  plane waves:   75632
 k-point    13 :   0.2500 0.1786 0.0000  plane waves:   75614
 k-point    14 :   0.3500 0.1786 0.0000  plane waves:   75620
 k-point    15 :   0.4500 0.1786 0.0000  plane waves:   75612
 k-point    16 :   0.0500 0.2500 0.0000  plane waves:   75612
 k-point    17 :   0.1500 0.2500 0.0000  plane waves:   75617
 k-point    18 :   0.2500 0.2500 0.0000  plane waves:   75624
 k-point    19 :   0.3500 0.2500 0.0000  plane waves:   75610
 k-point    20 :   0.4500 0.2500 0.0000  plane waves:   75612
 k-point    21 :   0.0500 0.3214 0.0000  plane waves:   75630
 k-point    22 :   0.1500 0.3214 0.0000  plane waves:   75623
 k-point    23 :   0.2500 0.3214 0.0000  plane waves:   75623
 k-point    24 :   0.3500 0.3214 0.0000  plane waves:   75606
 k-point    25 :   0.4500 0.3214 0.0000  plane waves:   75614
 k-point    26 :   0.0500 0.3929 0.0000  plane waves:   75617
 k-point    27 :   0.1500 0.3929 0.0000  plane waves:   75593
 k-point    28 :   0.2500 0.3929 0.0000  plane waves:   75588
 k-point    29 :   0.3500 0.3929 0.0000  plane waves:   75643
 k-point    30 :   0.4500 0.3929 0.0000  plane waves:   75675
 k-point    31 :   0.0500 0.4643 0.0000  plane waves:   75572
 k-point    32 :   0.1500 0.4643 0.0000  plane waves:   75600
 k-point    33 :   0.2500 0.4643 0.0000  plane waves:   75597
 k-point    34 :   0.3500 0.4643 0.0000  plane waves:   75690
 k-point    35 :   0.4500 0.4643 0.0000  plane waves:   75679
 k-point    36 :   0.0500 0.0357 0.1111  plane waves:   75567
 k-point    37 :   0.1500 0.0357 0.1111  plane waves:   75595
 k-point    38 :   0.2500 0.0357 0.1111  plane waves:   75615
 k-point    39 :   0.3500 0.0357 0.1111  plane waves:   75633
 k-point    40 :   0.4500 0.0357 0.1111  plane waves:   75609
 k-point    41 :   0.0500 0.1071 0.1111  plane waves:   75582
 k-point    42 :   0.1500 0.1071 0.1111  plane waves:   75598
 k-point    43 :   0.2500 0.1071 0.1111  plane waves:   75623
 k-point    44 :   0.3500 0.1071 0.1111  plane waves:   75620
 k-point    45 :   0.4500 0.1071 0.1111  plane waves:   75633
 k-point    46 :   0.0500 0.1786 0.1111  plane waves:   75618
 k-point    47 :   0.1500 0.1786 0.1111  plane waves:   75597
 k-point    48 :   0.2500 0.1786 0.1111  plane waves:   75616
 k-point    49 :   0.3500 0.1786 0.1111  plane waves:   75605
 k-point    50 :   0.4500 0.1786 0.1111  plane waves:   75622
 k-point    51 :   0.0500 0.2500 0.1111  plane waves:   75633
 k-point    52 :   0.1500 0.2500 0.1111  plane waves:   75632
 k-point    53 :   0.2500 0.2500 0.1111  plane waves:   75612
 k-point    54 :   0.3500 0.2500 0.1111  plane waves:   75604
 k-point    55 :   0.4500 0.2500 0.1111  plane waves:   75606
 k-point    56 :   0.0500 0.3214 0.1111  plane waves:   75641
 k-point    57 :   0.1500 0.3214 0.1111  plane waves:   75628
 k-point    58 :   0.2500 0.3214 0.1111  plane waves:   75611
 k-point    59 :   0.3500 0.3214 0.1111  plane waves:   75613
 k-point    60 :   0.4500 0.3214 0.1111  plane waves:   75628
 k-point    61 :   0.0500 0.3929 0.1111  plane waves:   75624
 k-point    62 :   0.1500 0.3929 0.1111  plane waves:   75624
 k-point    63 :   0.2500 0.3929 0.1111  plane waves:   75606
 k-point    64 :   0.3500 0.3929 0.1111  plane waves:   75630
 k-point    65 :   0.4500 0.3929 0.1111  plane waves:   75642
 k-point    66 :   0.0500 0.4643 0.1111  plane waves:   75580
 k-point    67 :   0.1500 0.4643 0.1111  plane waves:   75599
 k-point    68 :   0.2500 0.4643 0.1111  plane waves:   75616
 k-point    69 :   0.3500 0.4643 0.1111  plane waves:   75632
 k-point    70 :   0.4500 0.4643 0.1111  plane waves:   75669
 k-point    71 :   0.0500 0.0357 0.2222  plane waves:   75601
 k-point    72 :   0.1500 0.0357 0.2222  plane waves:   75586
 k-point    73 :   0.2500 0.0357 0.2222  plane waves:   75606
 k-point    74 :   0.3500 0.0357 0.2222  plane waves:   75612
 k-point    75 :   0.4500 0.0357 0.2222  plane waves:   75606
 k-point    76 :   0.0500 0.1071 0.2222  plane waves:   75584
 k-point    77 :   0.1500 0.1071 0.2222  plane waves:   75573
 k-point    78 :   0.2500 0.1071 0.2222  plane waves:   75583
 k-point    79 :   0.3500 0.1071 0.2222  plane waves:   75615
 k-point    80 :   0.4500 0.1071 0.2222  plane waves:   75609
 k-point    81 :   0.0500 0.1786 0.2222  plane waves:   75602
 k-point    82 :   0.1500 0.1786 0.2222  plane waves:   75615
 k-point    83 :   0.2500 0.1786 0.2222  plane waves:   75599
 k-point    84 :   0.3500 0.1786 0.2222  plane waves:   75598
 k-point    85 :   0.4500 0.1786 0.2222  plane waves:   75593
 k-point    86 :   0.0500 0.2500 0.2222  plane waves:   75621
 k-point    87 :   0.1500 0.2500 0.2222  plane waves:   75610
 k-point    88 :   0.2500 0.2500 0.2222  plane waves:   75621
 k-point    89 :   0.3500 0.2500 0.2222  plane waves:   75608
 k-point    90 :   0.4500 0.2500 0.2222  plane waves:   75616
 k-point    91 :   0.0500 0.3214 0.2222  plane waves:   75642
 k-point    92 :   0.1500 0.3214 0.2222  plane waves:   75625
 k-point    93 :   0.2500 0.3214 0.2222  plane waves:   75603
 k-point    94 :   0.3500 0.3214 0.2222  plane waves:   75609
 k-point    95 :   0.4500 0.3214 0.2222  plane waves:   75619
 k-point    96 :   0.0500 0.3929 0.2222  plane waves:   75636
 k-point    97 :   0.1500 0.3929 0.2222  plane waves:   75654
 k-point    98 :   0.2500 0.3929 0.2222  plane waves:   75626
 k-point    99 :   0.3500 0.3929 0.2222  plane waves:   75613
 k-point   100 :   0.4500 0.3929 0.2222  plane waves:   75635
 k-point   101 :   0.0500 0.4643 0.2222  plane waves:   75635
 k-point   102 :   0.1500 0.4643 0.2222  plane waves:   75641
 k-point   103 :   0.2500 0.4643 0.2222  plane waves:   75614
 k-point   104 :   0.3500 0.4643 0.2222  plane waves:   75600
 k-point   105 :   0.4500 0.4643 0.2222  plane waves:   75640
 k-point   106 :   0.0500 0.0357 0.3333  plane waves:   75571
 k-point   107 :   0.1500 0.0357 0.3333  plane waves:   75571
 k-point   108 :   0.2500 0.0357 0.3333  plane waves:   75574
 k-point   109 :   0.3500 0.0357 0.3333  plane waves:   75597
 k-point   110 :   0.4500 0.0357 0.3333  plane waves:   75612
 k-point   111 :   0.0500 0.1071 0.3333  plane waves:   75578
 k-point   112 :   0.1500 0.1071 0.3333  plane waves:   75575
 k-point   113 :   0.2500 0.1071 0.3333  plane waves:   75561
 k-point   114 :   0.3500 0.1071 0.3333  plane waves:   75597
 k-point   115 :   0.4500 0.1071 0.3333  plane waves:   75604
 k-point   116 :   0.0500 0.1786 0.3333  plane waves:   75582
 k-point   117 :   0.1500 0.1786 0.3333  plane waves:   75606
 k-point   118 :   0.2500 0.1786 0.3333  plane waves:   75591
 k-point   119 :   0.3500 0.1786 0.3333  plane waves:   75595
 k-point   120 :   0.4500 0.1786 0.3333  plane waves:   75597
 k-point   121 :   0.0500 0.2500 0.3333  plane waves:   75610
 k-point   122 :   0.1500 0.2500 0.3333  plane waves:   75620
 k-point   123 :   0.2500 0.2500 0.3333  plane waves:   75598
 k-point   124 :   0.3500 0.2500 0.3333  plane waves:   75610
 k-point   125 :   0.4500 0.2500 0.3333  plane waves:   75593
 k-point   126 :   0.0500 0.3214 0.3333  plane waves:   75607
 k-point   127 :   0.1500 0.3214 0.3333  plane waves:   75617
 k-point   128 :   0.2500 0.3214 0.3333  plane waves:   75628
 k-point   129 :   0.3500 0.3214 0.3333  plane waves:   75615
 k-point   130 :   0.4500 0.3214 0.3333  plane waves:   75599
 k-point   131 :   0.0500 0.3929 0.3333  plane waves:   75640
 k-point   132 :   0.1500 0.3929 0.3333  plane waves:   75622
 k-point   133 :   0.2500 0.3929 0.3333  plane waves:   75609
 k-point   134 :   0.3500 0.3929 0.3333  plane waves:   75614
 k-point   135 :   0.4500 0.3929 0.3333  plane waves:   75614
 k-point   136 :   0.0500 0.4643 0.3333  plane waves:   75652
 k-point   137 :   0.1500 0.4643 0.3333  plane waves:   75653
 k-point   138 :   0.2500 0.4643 0.3333  plane waves:   75627
 k-point   139 :   0.3500 0.4643 0.3333  plane waves:   75604
 k-point   140 :   0.4500 0.4643 0.3333  plane waves:   75609
 k-point   141 :   0.0500 0.0357 0.4444  plane waves:   75566
 k-point   142 :   0.1500 0.0357 0.4444  plane waves:   75572
 k-point   143 :   0.2500 0.0357 0.4444  plane waves:   75579
 k-point   144 :   0.3500 0.0357 0.4444  plane waves:   75593
 k-point   145 :   0.4500 0.0357 0.4444  plane waves:   75607
 k-point   146 :   0.0500 0.1071 0.4444  plane waves:   75579
 k-point   147 :   0.1500 0.1071 0.4444  plane waves:   75604
 k-point   148 :   0.2500 0.1071 0.4444  plane waves:   75548
 k-point   149 :   0.3500 0.1071 0.4444  plane waves:   75567
 k-point   150 :   0.4500 0.1071 0.4444  plane waves:   75613
 k-point   151 :   0.0500 0.1786 0.4444  plane waves:   75608
 k-point   152 :   0.1500 0.1786 0.4444  plane waves:   75576
 k-point   153 :   0.2500 0.1786 0.4444  plane waves:   75557
 k-point   154 :   0.3500 0.1786 0.4444  plane waves:   75582
 k-point   155 :   0.4500 0.1786 0.4444  plane waves:   75607
 k-point   156 :   0.0500 0.2500 0.4444  plane waves:   75603
 k-point   157 :   0.1500 0.2500 0.4444  plane waves:   75575
 k-point   158 :   0.2500 0.2500 0.4444  plane waves:   75586
 k-point   159 :   0.3500 0.2500 0.4444  plane waves:   75600
 k-point   160 :   0.4500 0.2500 0.4444  plane waves:   75556
 k-point   161 :   0.0500 0.3214 0.4444  plane waves:   75642
 k-point   162 :   0.1500 0.3214 0.4444  plane waves:   75612
 k-point   163 :   0.2500 0.3214 0.4444  plane waves:   75605
 k-point   164 :   0.3500 0.3214 0.4444  plane waves:   75617
 k-point   165 :   0.4500 0.3214 0.4444  plane waves:   75560
 k-point   166 :   0.0500 0.3929 0.4444  plane waves:   75635
 k-point   167 :   0.1500 0.3929 0.4444  plane waves:   75632
 k-point   168 :   0.2500 0.3929 0.4444  plane waves:   75601
 k-point   169 :   0.3500 0.3929 0.4444  plane waves:   75599
 k-point   170 :   0.4500 0.3929 0.4444  plane waves:   75570
 k-point   171 :   0.0500 0.4643 0.4444  plane waves:   75660
 k-point   172 :   0.1500 0.4643 0.4444  plane waves:   75620
 k-point   173 :   0.2500 0.4643 0.4444  plane waves:   75622
 k-point   174 :   0.3500 0.4643 0.4444  plane waves:   75595
 k-point   175 :   0.4500 0.4643 0.4444  plane waves:   75618

 maximum and minimum number of plane-waves per node :     75690    75548

 maximum number of plane-waves:     75690
 maximum index in each direction: 
   IXMAX=   26   IYMAX=   21   IZMAX=   31
   IXMIN=  -26   IYMIN=  -22   IZMIN=  -31


 serial   3D FFT for wavefunctions
 parallel 3D FFT for charge:
    minimum data exchange during FFTs selected (reduces bandwidth)


 total amount of memory used by VASP MPI-rank0  1245628. kBytes
=======================================================================

   base      :      30000. kBytes
   nonl-proj :     849006. kBytes
   fftplans  :      46400. kBytes
   grid      :     108248. kBytes
   one-center:          3. kBytes
   wavefun   :     211971. kBytes
 
     INWAV:  cpu time      0.0001: real time      0.0003
 Broyden mixing: mesh for mixing (old mesh)
   NGX = 53   NGY = 43   NGZ = 63
  (NGX  =216   NGY  =180   NGZ  =252)
  gives a total of 143577 points

 initial charge density was supplied:
 charge density of overlapping atoms calculated
 number of electron       3.0000000 magnetization 
 keeping initial charge density in first step


--------------------------------------------------------------------------------------------------------


 Maximum index for augmentation-charges          722 (set IRDMAX)


--------------------------------------------------------------------------------------------------------


 First call to EWALD:  gamma=   0.118
 Maximum number of real-space cells 3x 3x 2
 Maximum number of reciprocal cells 3x 2x 3

    FEWALD:  cpu time      0.0018: real time      0.0018


--------------------------------------- Ionic step        1  -------------------------------------------




--------------------------------------- Iteration      1(   1)  ---------------------------------------


    POTLOK:  cpu time      0.8704: real time      0.8714
    SETDIJ:  cpu time      0.0156: real time      0.0156
     EDDAV:  cpu time     35.8388: real time     35.8617
       DOS:  cpu time      0.0012: real time      0.0012
    --------------------------------------------
      LOOP:  cpu time     36.7260: real time     36.7499

 eigenvalue-minimisations  :  3184
 total energy-change (2. order) : 0.8388834E+01  (-0.3173023E+02)
 number of electron       3.0000000 magnetization 
 augmentation part        3.0000000 magnetization 

 Free energy of the ion-electron system (eV)
  ---------------------------------------------------
  alpha Z        PSCENC =         0.02038373
  Ewald energy   TEWEN  =       -11.82901664
  -Hartree energ DENC   =       -42.58396533
  -exchange      EXHF   =         0.00000000
  -V(xc)+E(xc)   XCENC  =         4.75549676
  PAW double counting   =        43.49986551      -42.64454556
  entropy T*S    EENTRO =        -0.00803303
  eigenvalues    EBANDS =       -13.99023007
  atomic energy  EATOM  =        71.16887875
  Solvation  Ediel_sol  =         0.00000000
  ---------------------------------------------------
  free energy    TOTEN  =         8.38883412 eV

  energy without entropy =        8.39686715  energy(sigma->0) =        8.39285063


--------------------------------------------------------------------------------------------------------




--------------------------------------- Iteration      1(   2)  ---------------------------------------


     EDDAV:  cpu time     47.0157: real time     47.0404
       DOS:  cpu time      0.0009: real time      0.0009
    --------------------------------------------
      LOOP:  cpu time     47.0166: real time     47.0414

 eigenvalue-minimisations  :  4656
 total energy-change (2. order) :-0.7722575E+01  (-0.7490116E+01)
 number of electron       3.0000000 magnetization 
 augmentation part        3.0000000 magnetization 

 Free energy of the ion-electron system (eV)
  ---------------------------------------------------
  alpha Z        PSCENC =         0.02038373
  Ewald energy   TEWEN  =       -11.82901664
  -Hartree energ DENC   =       -42.58396533
  -exchange      EXHF   =         0.00000000
  -V(xc)+E(xc)   XCENC  =         4.75549676
  PAW double counting   =        43.49986551      -42.64454556
  entropy T*S    EENTRO =        -0.00556750
  eigenvalues    EBANDS =       -21.71527025
  atomic energy  EATOM  =        71.16887875
  Solvation  Ediel_sol  =         0.00000000
  ---------------------------------------------------
  free energy    TOTEN  =         0.66625948 eV

  energy without entropy =        0.67182697  energy(sigma->0) =        0.66904322


--------------------------------------------------------------------------------------------------------




--------------------------------------- Iteration      1(   3)  ---------------------------------------


     EDDAV:  cpu time     44.2611: real time     44.2726
       DOS:  cpu time      0.0009: real time      0.0009
    --------------------------------------------
      LOOP:  cpu time     44.2620: real time     44.2735

 eigenvalue-minimisations  :  4288
 total energy-change (2. order) :-0.6944687E+00  (-0.6694493E+00)
 number of electron       3.0000000 magnetization 
 augmentation part        3.0000000 magnetization 

 Free energy of the ion-electron system (eV)
  ---------------------------------------------------
  alpha Z        PSCENC =         0.02038373
  Ewald energy   TEWEN  =       -11.82901664
  -Hartree energ DENC   =       -42.58396533
  -exchange      EXHF   =         0.00000000
  -V(xc)+E(xc)   XCENC  =         4.75549676
  PAW double counting   =        43.49986551      -42.64454556
  entropy T*S    EENTRO =        -0.03936710
  eigenvalues    EBANDS =       -22.37593931
  atomic energy  EATOM  =        71.16887875
  Solvation  Ediel_sol  =         0.00000000
  ---------------------------------------------------
  free energy    TOTEN  =        -0.02820919 eV

  energy without entropy =        0.01115791  energy(sigma->0) =       -0.00852564


--------------------------------------------------------------------------------------------------------




--------------------------------------- Iteration      1(   4)  ---------------------------------------


     EDDAV:  cpu time     32.7711: real time     32.7950
       DOS:  cpu time      0.0009: real time      0.0009
    --------------------------------------------
      LOOP:  cpu time     32.7721: real time     32.7959

 eigenvalue-minimisations  :  2816
 total energy-change (2. order) :-0.2868691E-01  (-0.1607877E-01)
 number of electron       3.0000000 magnetization 
 augmentation part        3.0000000 magnetization 

 Free energy of the ion-electron system (eV)
  ---------------------------------------------------
  alpha Z        PSCENC =         0.02038373
  Ewald energy   TEWEN  =       -11.82901664
  -Hartree energ DENC   =       -42.58396533
  -exchange      EXHF   =         0.00000000
  -V(xc)+E(xc)   XCENC  =         4.75549676
  PAW double counting   =        43.49986551      -42.64454556
  entropy T*S    EENTRO =        -0.05293891
  eigenvalues    EBANDS =       -22.39105441
  atomic energy  EATOM  =        71.16887875
  Solvation  Ediel_sol  =         0.00000000
  ---------------------------------------------------
  free energy    TOTEN  =        -0.05689610 eV

  energy without entropy =       -0.00395719  energy(sigma->0) =       -0.03042664


--------------------------------------------------------------------------------------------------------




--------------------------------------- Iteration      1(   5)  ---------------------------------------


     EDDAV:  cpu time     40.5879: real time     40.5901
       DOS:  cpu time      0.0009: real time      0.0009
    CHARGE:  cpu time      2.8262: real time      2.8298
    MIXING:  cpu time      0.0286: real time      0.0286
    --------------------------------------------
      LOOP:  cpu time     43.4435: real time     43.4494

 eigenvalue-minimisations  :  3752
 total energy-change (2. order) :-0.1339233E-02  (-0.1282007E-02)
 number of electron       3.0000000 magnetization 
 augmentation part       -0.0946122 magnetization 

 Broyden mixing:
  rms(total) = 0.69513E-03    rms(broyden)= 0.64355E-03
  rms(prec ) = 0.67071E-03
  weight for this iteration     100.00

 Free energy of the ion-electron system (eV)
  ---------------------------------------------------
  alpha Z        PSCENC =         0.02038373
  Ewald energy   TEWEN  =       -11.82901664
  -Hartree energ DENC   =       -42.58396533
  -exchange      EXHF   =         0.00000000
  -V(xc)+E(xc)   XCENC  =         4.75549676
  PAW double counting   =        43.49986551      -42.64454556
  entropy T*S    EENTRO =        -0.05300120
  eigenvalues    EBANDS =       -22.39233135
  atomic energy  EATOM  =        71.16887875
  Solvation  Ediel_sol  =         0.00000000
  ---------------------------------------------------
  free energy    TOTEN  =        -0.05823533 eV

  energy without entropy =       -0.00523413  energy(sigma->0) =       -0.03173473


--------------------------------------------------------------------------------------------------------




--------------------------------------- Iteration      1(   6)  ---------------------------------------


    POTLOK:  cpu time      0.7441: real time      0.7446
    SETDIJ:  cpu time      0.0019: real time      0.0019
     EDDAV:  cpu time     44.3911: real time     44.4090
       DOS:  cpu time      0.0010: real time      0.0010
    CHARGE:  cpu time      2.8847: real time      2.8882
    MIXING:  cpu time      0.0193: real time      0.0194
    --------------------------------------------
      LOOP:  cpu time     48.0422: real time     48.0641

 eigenvalue-minimisations  :  4312
 total energy-change (2. order) :-0.4700216E-04  (-0.4610736E-04)
 number of electron       3.0000000 magnetization 
 augmentation part       -0.0945774 magnetization 

 Broyden mixing:
  rms(total) = 0.38763E-03    rms(broyden)= 0.38430E-03
  rms(prec ) = 0.39512E-03
  weight for this iteration     100.00

 eigenvalues of (default mixing * dielectric matrix)
  average eigenvalue GAMMA=   1.3474
  1.3474

 Free energy of the ion-electron system (eV)
  ---------------------------------------------------
  alpha Z        PSCENC =         0.02038373
  Ewald energy   TEWEN  =       -11.82901664
  -Hartree energ DENC   =       -42.58103952
  -exchange      EXHF   =         0.00000000
  -V(xc)+E(xc)   XCENC  =         4.75507653
  PAW double counting   =        43.49822077      -42.64297820
  entropy T*S    EENTRO =        -0.05300134
  eigenvalues    EBANDS =       -22.39480642
  atomic energy  EATOM  =        71.16887875
  Solvation  Ediel_sol  =         0.00000000
  ---------------------------------------------------
  free energy    TOTEN  =        -0.05828233 eV

  energy without entropy =       -0.00528099  energy(sigma->0) =       -0.03178166


--------------------------------------------------------------------------------------------------------




--------------------------------------- Iteration      1(   7)  ---------------------------------------


    POTLOK:  cpu time      0.7253: real time      0.7258
    SETDIJ:  cpu time      0.0021: real time      0.0021
     EDDAV:  cpu time     44.6439: real time     44.6473
       DOS:  cpu time      0.0009: real time      0.0009
    CHARGE:  cpu time      2.8440: real time      2.8442
    MIXING:  cpu time      0.0253: real time      0.0253
    --------------------------------------------
      LOOP:  cpu time     48.2415: real time     48.2455

 eigenvalue-minimisations  :  4424
 total energy-change (2. order) :-0.1215987E-05  (-0.6678613E-06)
 number of electron       3.0000000 magnetization 
 augmentation part       -0.0945743 magnetization 

 Broyden mixing:
  rms(total) = 0.20991E-03    rms(broyden)= 0.20966E-03
  rms(prec ) = 0.21448E-03
  weight for this iteration     100.00

 eigenvalues of (default mixing * dielectric matrix)
  average eigenvalue GAMMA=   1.7127
  0.9219  2.5035

 Free energy of the ion-electron system (eV)
  ---------------------------------------------------
  alpha Z        PSCENC =         0.02038373
  Ewald energy   TEWEN  =       -11.82901664
  -Hartree energ DENC   =       -42.58226348
  -exchange      EXHF   =         0.00000000
  -V(xc)+E(xc)   XCENC  =         4.75510269
  PAW double counting   =        43.49833404      -42.64321024
  entropy T*S    EENTRO =        -0.05300134
  eigenvalues    EBANDS =       -22.39349105
  atomic energy  EATOM  =        71.16887875
  Solvation  Ediel_sol  =         0.00000000
  ---------------------------------------------------
  free energy    TOTEN  =        -0.05828355 eV

  energy without entropy =       -0.00528221  energy(sigma->0) =       -0.03178288


--------------------------------------------------------------------------------------------------------




--------------------------------------- Iteration      1(   8)  ---------------------------------------


    POTLOK:  cpu time      0.7187: real time      0.7192
    SETDIJ:  cpu time      0.0028: real time      0.0028
     EDDAV:  cpu time     40.4391: real time     40.4514
       DOS:  cpu time      0.0010: real time      0.0010
    CHARGE:  cpu time      2.8573: real time      2.8593
    MIXING:  cpu time      0.0227: real time      0.0227
    --------------------------------------------
      LOOP:  cpu time     44.0416: real time     44.0564

 eigenvalue-minimisations  :  3896
 total energy-change (2. order) :-0.1261975E-05  (-0.4330796E-07)
 number of electron       3.0000000 magnetization 
 augmentation part       -0.0945717 magnetization 

 Broyden mixing:
  rms(total) = 0.31268E-04    rms(broyden)= 0.31197E-04
  rms(prec ) = 0.34861E-04
  weight for this iteration     100.00

 eigenvalues of (default mixing * dielectric matrix)
  average eigenvalue GAMMA=   1.4289
  2.5594  0.8636  0.8636

 Free energy of the ion-electron system (eV)
  ---------------------------------------------------
  alpha Z        PSCENC =         0.02038373
  Ewald energy   TEWEN  =       -11.82901664
  -Hartree energ DENC   =       -42.58360638
  -exchange      EXHF   =         0.00000000
  -V(xc)+E(xc)   XCENC  =         4.75512441
  PAW double counting   =        43.49885955      -42.64386594
  entropy T*S    EENTRO =        -0.05300134
  eigenvalues    EBANDS =       -22.39204094
  atomic energy  EATOM  =        71.16887875
  Solvation  Ediel_sol  =         0.00000000
  ---------------------------------------------------
  free energy    TOTEN  =        -0.05828481 eV

  energy without entropy =       -0.00528347  energy(sigma->0) =       -0.03178414


--------------------------------------------------------------------------------------------------------




--------------------------------------- Iteration      1(   9)  ---------------------------------------


    POTLOK:  cpu time      0.7486: real time      0.7490
    SETDIJ:  cpu time      0.0034: real time      0.0033
     EDDAV:  cpu time     43.7897: real time     43.7916
       DOS:  cpu time      0.0011: real time      0.0011
    --------------------------------------------
      LOOP:  cpu time     44.5426: real time     44.5450

 eigenvalue-minimisations  :  4368
 total energy-change (2. order) : 0.6382933E-08  (-0.1448802E-08)
 number of electron       3.0000000 magnetization 
 augmentation part       -0.0945717 magnetization 

 Free energy of the ion-electron system (eV)
  ---------------------------------------------------
  alpha Z        PSCENC =         0.02038373
  Ewald energy   TEWEN  =       -11.82901664
  -Hartree energ DENC   =       -42.58349654
  -exchange      EXHF   =         0.00000000
  -V(xc)+E(xc)   XCENC  =         4.75511195
  PAW double counting   =        43.49888207      -42.64388492
  entropy T*S    EENTRO =        -0.05300134
  eigenvalues    EBANDS =       -22.39214186
  atomic energy  EATOM  =        71.16887875
  Solvation  Ediel_sol  =         0.00000000
  ---------------------------------------------------
  free energy    TOTEN  =        -0.05828480 eV

  energy without entropy =       -0.00528346  energy(sigma->0) =       -0.03178413


--------------------------------------------------------------------------------------------------------




 average (electrostatic) potential at core
  the test charge radii are     0.7672
  (the norm of the test charge is              1.0000)
       1 -39.4293
 
 
 
 E-fermi :  -3.6067     XC(G=0):  -0.2661     alpha+bet : -0.0329

 val. band max:       -9.4098164392   @ k =   0.0500   0.4643   0.0000
 cond. band min:      -3.5726206348   @ k =   0.0500   0.4643   0.4444
 fundamental gap:      5.8371958044
 Fermi energy:        -3.6067104292

 k-point     1 :       0.0500    0.0357    0.0000
  band No.  band energies     occupation 
      1      -9.4098      2.00000
      2      -3.5725      0.33346
[...]
      3      -3.5725      0.33328
      4      -3.5725      0.33321
      5      -0.0567      0.00000
      6       0.2319      0.00000
      7       0.3372      0.00000
      8       0.3683      0.00000

 k-point   140 :       0.4500    0.4643    0.3333
  band No.  band energies     occupation 
      1      -9.4098      2.00000
      2      -3.5726      0.33492
      3      -3.5725      0.33332
      4      -3.5725      0.33321
      5      -0.0433      0.00000
      6       0.2593      0.00000
      7       0.3091      0.00000
      8       0.3889      0.00000

 k-point   141 :       0.0500    0.0357    0.4444
  band No.  band energies     occupation 
      1      -9.4098      2.00000
      2      -3.5725      0.33346
      3      -3.5725      0.33334
      4      -3.5724      0.33174
      5      -0.2322      0.00000
      6       0.0653      0.00000
      7       0.4687      0.00000
      8       0.6047      0.00000

 k-point   142 :       0.1500    0.0357    0.4444
  band No.  band energies     occupation 
      1      -9.4098      2.00000
      2      -3.5725      0.33346
      3      -3.5725      0.33338
      4      -3.5724      0.33174
      5      -0.2230      0.00000
      6       0.0780      0.00000
      7       0.3613      0.00000
      8       0.5418      0.00000

 k-point   143 :       0.2500    0.0357    0.4444
  band No.  band energies     occupation 
      1      -9.4098      2.00000
      2      -3.5725      0.33346
      3      -3.5725      0.33345
      4      -3.5724      0.33174
      5      -0.2061      0.00000
      6       0.1030      0.00000
      7       0.2680      0.00000
      8       0.4406      0.00000

 k-point   144 :       0.3500    0.0357    0.4444
  band No.  band energies     occupation 
      1      -9.4098      2.00000
      2      -3.5725      0.33352
      3      -3.5725      0.33345
      4      -3.5724      0.33174
      5      -0.1860      0.00000
      6       0.1389      0.00000
      7       0.1969      0.00000
      8       0.3528      0.00000

 k-point   145 :       0.4500    0.0357    0.4444
  band No.  band energies     occupation 
      1      -9.4098      2.00000
      2      -3.5725      0.33357
      3      -3.5725      0.33345
      4      -3.5724      0.33173
      5      -0.1712      0.00000
      6       0.1533      0.00000
      7       0.1827      0.00000
      8       0.2859      0.00000

 k-point   146 :       0.0500    0.1071    0.4444
  band No.  band energies     occupation 
      1      -9.4098      2.00000
      2      -3.5725      0.33344
      3      -3.5725      0.33332
      4      -3.5724      0.33206
      5      -0.2232      0.00000
      6       0.0749      0.00000
      7       0.4767      0.00000
      8       0.5899      0.00000

 k-point   147 :       0.1500    0.1071    0.4444
  band No.  band energies     occupation 
      1      -9.4098      2.00000
      2      -3.5725      0.33344
      3      -3.5725      0.33336
      4      -3.5724      0.33206
      5      -0.2140      0.00000
      6       0.0875      0.00000
      7       0.3699      0.00000
      8       0.5509      0.00000

 k-point   148 :       0.2500    0.1071    0.4444
  band No.  band energies     occupation 
      1      -9.4098      2.00000
      2      -3.5725      0.33343
      3      -3.5725      0.33343
      4      -3.5724      0.33205
      5      -0.1971      0.00000
      6       0.1125      0.00000
      7       0.2769      0.00000
      8       0.4500      0.00000

 k-point   149 :       0.3500    0.1071    0.4444
  band No.  band energies     occupation 
      1      -9.4098      2.00000
      2      -3.5725      0.33350
      3      -3.5725      0.33343
      4      -3.5724      0.33205
      5      -0.1771      0.00000
      6       0.1483      0.00000
      7       0.2060      0.00000
      8       0.3624      0.00000

 k-point   150 :       0.4500    0.1071    0.4444
  band No.  band energies     occupation 
      1      -9.4098      2.00000
      2      -3.5725      0.33354
      3      -3.5725      0.33343
      4      -3.5724      0.33205
      5      -0.1623      0.00000
      6       0.1625      0.00000
      7       0.1921      0.00000
      8       0.2956      0.00000

 k-point   151 :       0.0500    0.1786    0.4444
  band No.  band energies     occupation 
      1      -9.4098      2.00000
      2      -3.5725      0.33340
      3      -3.5725      0.33328
      4      -3.5725      0.33263
      5      -0.2055      0.00000
      6       0.0939      0.00000
      7       0.4761      0.00000
      8       0.5077      0.00000

 k-point   152 :       0.1500    0.1786    0.4444
  band No.  band energies     occupation 
      1      -9.4098      2.00000
      2      -3.5725      0.33339
      3      -3.5725      0.33332
      4      -3.5725      0.33262
      5      -0.1963      0.00000
      6       0.1065      0.00000
      7       0.3860      0.00000
      8       0.5040      0.00000

 k-point   153 :       0.2500    0.1786    0.4444
  band No.  band energies     occupation 
      1      -9.4098      2.00000
      2      -3.5725      0.33339
      3      -3.5725      0.33338
      4      -3.5725      0.33262
      5      -0.1796      0.00000
      6       0.1315      0.00000
      7       0.2945      0.00000
      8       0.4687      0.00000

 k-point   154 :       0.3500    0.1786    0.4444
  band No.  band energies     occupation 
      1      -9.4098      2.00000
      2      -3.5725      0.33346
      3      -3.5725      0.33338
      4      -3.5725      0.33262
      5      -0.1596      0.00000
      6       0.1672      0.00000
      7       0.2241      0.00000
      8       0.3814      0.00000

 k-point   155 :       0.4500    0.1786    0.4444
  band No.  band energies     occupation 
      1      -9.4098      2.00000
      2      -3.5725      0.33350
      3      -3.5725      0.33338
      4      -3.5725      0.33262
      5      -0.1449      0.00000
      6       0.1809      0.00000
      7       0.2107      0.00000
      8       0.3149      0.00000

 k-point   156 :       0.0500    0.2500    0.4444
  band No.  band energies     occupation 
      1      -9.4098      2.00000
      2      -3.5725      0.33334
      3      -3.5725      0.33334
      4      -3.5725      0.33322
      5      -0.1802      0.00000
      6       0.1223      0.00000
      7       0.3861      0.00000
      8       0.5235      0.00000

 k-point   157 :       0.1500    0.2500    0.4444
  band No.  band energies     occupation 
      1      -9.4098      2.00000
      2      -3.5725      0.33334
      3      -3.5725      0.33333
      4      -3.5725      0.33326
      5      -0.1710      0.00000
      6       0.1349      0.00000
      7       0.3857      0.00000
      8       0.4303      0.00000

 k-point   158 :       0.2500    0.2500    0.4444
  band No.  band energies     occupation 
      1      -9.4098      2.00000
      2      -3.5725      0.33334
      3      -3.5725      0.33333
      4      -3.5725      0.33333
      5      -0.1544      0.00000
      6       0.1598      0.00000
      7       0.3191      0.00000
      8       0.4244      0.00000

 k-point   159 :       0.3500    0.2500    0.4444
  band No.  band energies     occupation 
      1      -9.4098      2.00000
      2      -3.5725      0.33340
      3      -3.5725      0.33333
      4      -3.5725      0.33333
      5      -0.1347      0.00000
      6       0.1953      0.00000
      7       0.2507      0.00000
      8       0.4098      0.00000

 k-point   160 :       0.4500    0.2500    0.4444
  band No.  band energies     occupation 
      1      -9.4098      2.00000
      2      -3.5725      0.33344
      3      -3.5725      0.33333
      4      -3.5725      0.33332
      5      -0.1201      0.00000
      6       0.2081      0.00000
      7       0.2384      0.00000
      8       0.3439      0.00000

 k-point   161 :       0.0500    0.3214    0.4444
  band No.  band energies     occupation 
      1      -9.4098      2.00000
      2      -3.5726      0.33405
      3      -3.5725      0.33329
      4      -3.5725      0.33317
      5      -0.1491      0.00000
      6       0.1597      0.00000
      7       0.2993      0.00000
      8       0.5027      0.00000

 k-point   162 :       0.1500    0.3214    0.4444
  band No.  band energies     occupation 
      1      -9.4098      2.00000
      2      -3.5726      0.33405
      3      -3.5725      0.33329
      4      -3.5725      0.33321
      5      -0.1400      0.00000
      6       0.1723      0.00000
      7       0.3088      0.00000
      8       0.4536      0.00000

 k-point   163 :       0.2500    0.3214    0.4444
  band No.  band energies     occupation 
      1      -9.4098      2.00000
      2      -3.5726      0.33404
      3      -3.5725      0.33328
      4      -3.5725      0.33328
      5      -0.1237      0.00000
      6       0.1970      0.00000
      7       0.3212      0.00000
      8       0.3695      0.00000

 k-point   164 :       0.3500    0.3214    0.4444
  band No.  band energies     occupation 
      1      -9.4098      2.00000
      2      -3.5726      0.33404
      3      -3.5725      0.33335
      4      -3.5725      0.33328
      5      -0.1043      0.00000
      6       0.2323      0.00000
      7       0.2840      0.00000
      8       0.3625      0.00000

 k-point   165 :       0.4500    0.3214    0.4444
  band No.  band energies     occupation 
      1      -9.4098      2.00000
      2      -3.5726      0.33404
      3      -3.5725      0.33339
      4      -3.5725      0.33327
      5      -0.0901      0.00000
      6       0.2436      0.00000
      7       0.2748      0.00000
      8       0.3816      0.00000

 k-point   166 :       0.0500    0.3929    0.4444
  band No.  band energies     occupation 
      1      -9.4098      2.00000
      2      -3.5726      0.33462
      3      -3.5725      0.33325
      4      -3.5725      0.33313
      5      -0.1169      0.00000
      6       0.2041      0.00000
      7       0.2309      0.00000
      8       0.4197      0.00000

 k-point   167 :       0.1500    0.3929    0.4444
  band No.  band energies     occupation 
      1      -9.4098      2.00000
      2      -3.5726      0.33462
      3      -3.5725      0.33325
      4      -3.5725      0.33317
      5      -0.1080      0.00000
      6       0.2165      0.00000
      7       0.2416      0.00000
      8       0.4322      0.00000

 k-point   168 :       0.2500    0.3929    0.4444
  band No.  band energies     occupation 
      1      -9.4098      2.00000
      2      -3.5726      0.33461
      3      -3.5725      0.33324
      4      -3.5725      0.33323
      5      -0.0921      0.00000
      6       0.2405      0.00000
      7       0.2620      0.00000
      8       0.4010      0.00000

 k-point   169 :       0.3500    0.3929    0.4444
  band No.  band energies     occupation 
      1      -9.4098      2.00000
      2      -3.5726      0.33461
      3      -3.5725      0.33330
      4      -3.5725      0.33323
      5      -0.0733      0.00000
      6       0.2732      0.00000
      7       0.2894      0.00000
      8       0.3331      0.00000

 k-point   170 :       0.4500    0.3929    0.4444
  band No.  band energies     occupation 
      1      -9.4098      2.00000
      2      -3.5726      0.33461
      3      -3.5725      0.33334
      4      -3.5725      0.33323
      5      -0.0597      0.00000
      6       0.2845      0.00000
      7       0.3119      0.00000
      8       0.3209      0.00000

 k-point   171 :       0.0500    0.4643    0.4444
  band No.  band energies     occupation 
      1      -9.4098      2.00000
      2      -3.5726      0.33494
      3      -3.5725      0.33323
      4      -3.5725      0.33310
      5      -0.0938      0.00000
      6       0.1863      0.00000
      7       0.2553      0.00000
      8       0.3523      0.00000

 k-point   172 :       0.1500    0.4643    0.4444
  band No.  band energies     occupation 
      1      -9.4098      2.00000
      2      -3.5726      0.33494
      3      -3.5725      0.33322
      4      -3.5725      0.33314
      5      -0.0851      0.00000
      6       0.1973      0.00000
      7       0.2675      0.00000
      8       0.3652      0.00000

 k-point   173 :       0.2500    0.4643    0.4444
  band No.  band energies     occupation 
      1      -9.4098      2.00000
      2      -3.5726      0.33493
      3      -3.5725      0.33322
      4      -3.5725      0.33321
      5      -0.0696      0.00000
      6       0.2184      0.00000
      7       0.2915      0.00000
      8       0.3908      0.00000

 k-point   174 :       0.3500    0.4643    0.4444
  band No.  band energies     occupation 
      1      -9.4098      2.00000
      2      -3.5726      0.33493
      3      -3.5725      0.33328
      4      -3.5725      0.33321
      5      -0.0516      0.00000
      6       0.2465      0.00000
      7       0.3250      0.00000
      8       0.3665      0.00000

 k-point   175 :       0.4500    0.4643    0.4444
  band No.  band energies     occupation 
      1      -9.4098      2.00000
      2      -3.5726      0.33493
      3      -3.5725      0.33332
      4      -3.5725      0.33321
      5      -0.0386      0.00000
      6       0.2717      0.00000
      7       0.3259      0.00000
      8       0.3617      0.00000


--------------------------------------------------------------------------------------------------------


 soft charge-density along one line, spin component           1
         0         1         2         3         4         5         6         7         8         9
 total charge-density along one line
 
 pseudopotential strength for first ion, spin component:           1
  6.996  10.697   0.000   0.000  -0.000   0.000   0.000  -0.000
 10.697  16.353   0.000   0.000  -0.000   0.000   0.000  -0.000
  0.000   0.000  -2.483  -0.000   0.000  -4.297  -0.000   0.000
  0.000   0.000  -0.000  -2.483   0.000  -0.000  -4.297   0.000
 -0.000  -0.000   0.000   0.000  -2.483   0.000   0.000  -4.297
  0.000   0.000  -4.297  -0.000   0.000  -7.240  -0.000   0.000
  0.000   0.000  -0.000  -4.297   0.000  -0.000  -7.240   0.000
 -0.000  -0.000   0.000   0.000  -4.297   0.000   0.000  -7.240
 total augmentation occupancy for first ion, spin component:           1
  2.009  -0.003   0.000   0.000   0.000   0.000   0.000   0.000
 -0.003   0.000   0.000   0.000   0.000   0.000   0.000   0.000
  0.000   0.000   0.329   0.000   0.000   0.001   0.000   0.000
  0.000   0.000   0.000   0.329   0.000   0.000   0.001   0.000
  0.000   0.000   0.000   0.000   0.329   0.000   0.000   0.001
  0.000   0.000   0.001   0.000   0.000   0.000   0.000   0.000
  0.000   0.000   0.000   0.001   0.000   0.000   0.000   0.000
  0.000   0.000   0.000   0.000   0.001   0.000   0.000   0.000


------------------------ aborting loop because EDIFF is reached ----------------------------------------


    CHARGE:  cpu time      2.8852: real time      2.8856
    FORLOC:  cpu time      0.0386: real time      0.0386
    FORNL :  cpu time      0.7690: real time      0.7690
    STRESS:  cpu time     32.6872: real time     32.6879
    FORCOR:  cpu time      0.7329: real time      0.7329
    FORHAR:  cpu time      0.1675: real time      0.1676
    MIXING:  cpu time      0.0263: real time      0.0263
    OFIELD:  cpu time      0.0000: real time      0.0000

  FORCE on cell =-STRESS in cart. coord.  units (eV):
  Direction    XX          YY          ZZ          XY          YZ          ZX
  --------------------------------------------------------------------------------------
  Alpha Z     0.02038     0.02038     0.02038
  Ewald      -3.85600    -1.56275    -6.41027     0.00000    -0.00000    -0.00000
  Hartree    14.28911    16.49847    11.79559     0.00000    -0.00000     0.00000
  E(xc)      -7.33235    -7.33235    -7.33235     0.00000     0.00000     0.00000
  Local     -32.28357   -36.78617   -27.23577    -0.00000     0.00000    -0.00000
  n-local     6.84922     6.84922     6.84922     0.00001    -0.00001     0.00001
  augment     0.68450     0.68463     0.68456    -0.00000    -0.00002     0.00000
  Kinetic    21.62645    21.62645    21.62646    -0.00001     0.00002    -0.00001
  Fock        0.00000     0.00000     0.00000     0.00000     0.00000     0.00000
  -------------------------------------------------------------------------------------
  Total      -0.00225    -0.00211    -0.00219     0.00000     0.00000     0.00000
  in kB      -0.00107    -0.00100    -0.00104     0.00000     0.00000     0.00000
  external pressure =       -0.00 kB  Pullay stress =        0.00 kB


 VOLUME and BASIS-vectors are now :
 -----------------------------------------------------------------------------
  energy-cutoff  :      460.00
  volume of cell :     3375.00
      direct lattice vectors                 reciprocal lattice vectors
    15.000000000  0.000000000  0.000000000     0.066666667  0.000000000  0.000000000
     0.000000000 12.500000000  0.000000000     0.000000000  0.080000000  0.000000000
     0.000000000  0.000000000 18.000000000     0.000000000  0.000000000  0.055555556

  length of vectors
    15.000000000 12.500000000 18.000000000     0.066666667  0.080000000  0.055555556


 FORCES acting on ions
    electron-ion (+dipol)            ewald-force                    non-local-force                 convergence-correction
 -----------------------------------------------------------------------------------------------
   0.397E-05 -.488E-05 -.541E-06   0.332E-17 -.449E-17 -.121E-17   -.132E-22 -.265E-21 0.000E+00   -.277E-07 0.427E-07 0.743E-08
 -----------------------------------------------------------------------------------------------
   0.397E-05 -.488E-05 -.541E-06   0.332E-17 -.449E-17 -.121E-17   -.132E-22 -.265E-21 0.000E+00   -.277E-07 0.427E-07 0.743E-08
 
 
 POSITION                                       TOTAL-FORCE (eV/Angst)
 -----------------------------------------------------------------------------------
      7.81845      6.81250     11.48328        -0.000000      0.000000      0.000000
 -----------------------------------------------------------------------------------
    total drift:                                0.000004     -0.000005     -0.000001


--------------------------------------------------------------------------------------------------------



  FREE ENERGIE OF THE ION-ELECTRON SYSTEM (eV)
  ---------------------------------------------------
  free  energy   TOTEN  =        -0.05828480 eV

  energy  without entropy=       -0.00528346  energy(sigma->0) =       -0.03178413
 


--------------------------------------------------------------------------------------------------------


    POTLOK:  cpu time      0.7228: real time      0.7229


--------------------------------------------------------------------------------------------------------


     LOOP+:  cpu time    427.1269: real time    427.2630
    4ORBIT:  cpu time      0.0000: real time      0.0000

 total amount of memory used by VASP MPI-rank0  1245628. kBytes
=======================================================================

   base      :      30000. kBytes
   nonl-proj :     849006. kBytes
   fftplans  :      46400. kBytes
   grid      :     108248. kBytes
   one-center:          3. kBytes
   wavefun   :     211971. kBytes
 
  
  
 General timing and accounting informations for this job:
 ========================================================
  
                  Total CPU time used (sec):      438.454
                            User time (sec):      432.678
                          System time (sec):        5.776
                         Elapsed time (sec):      440.113
  
                   Maximum memory used (kb):     2046496.
                   Average memory used (kb):          N/A
  
                          Minor page faults:      3312181
                          Major page faults:          629
                 Voluntary context switches:         5504
