 running    8 mpi-ranks, with    1 threads/rank, on    1 nodes
 distrk:  each k-point on    8 cores,    1 groups
 distr:  one band on    1 cores,    8 groups
 vasp.6.4.3 19Mar24 (build May 31 2024 16:31:43) complex                        
  
 POSCAR found type information on POSCAR B 
 POSCAR found :  1 types and       1 ions
 Reading from existing POTCAR
 scaLAPACK will be used
 Reading from existing POTCAR
 LDA part: xc-table for (Slater+PW92), standard interpolation
 POSCAR, INCAR and KPOINTS ok, starting setup
 FFT: planning ... GRIDC
 FFT: planning ... GRID_SOFT
 FFT: planning ... GRID
 WAVECAR not read
 entering main loop
       N       E                     dE             d eps       ncg     rms          rms(c)
DAV:   1     0.838883412106E+01    0.83888E+01   -0.31730E+02  3184   0.975E+01
DAV:   2     0.666259475103E+00   -0.77226E+01   -0.74901E+01  4656   0.169E+01
DAV:   3    -0.282091869800E-01   -0.69447E+00   -0.66945E+00  4288   0.713E+00
DAV:   4    -0.568960962520E-01   -0.28687E-01   -0.16079E-01  2816   0.807E-01
DAV:   5    -0.582353293343E-01   -0.13392E-02   -0.12820E-02  3752   0.215E-01    0.695E-03
DAV:   6    -0.582823314985E-01   -0.47002E-04   -0.46107E-04  4312   0.350E-02    0.388E-03
DAV:   7    -0.582835474853E-01   -0.12160E-05   -0.66786E-06  4424   0.459E-03    0.210E-03
DAV:   8    -0.582848094598E-01   -0.12620E-05   -0.43308E-07  3896   0.291E-03    0.313E-04
DAV:   9    -0.582848030769E-01    0.63829E-08   -0.14488E-08  4368   0.260E-04
   1 F= -.58284803E-01 E0= -.31784133E-01  d E =-.530013E-01
