 running   24 mpi-ranks, with    1 threads/rank, on    1 nodes
 distrk:  each k-point on   24 cores,    1 groups
 distr:  one band on    1 cores,   24 groups
 vasp.6.4.3 19Mar24 (build May 31 2024 16:31:43) complex                        
  
 POSCAR found type information on POSCAR B 
 POSCAR found :  1 types and      14 ions
 Reading from existing POTCAR
 scaLAPACK will be used
 Reading from existing POTCAR
 LDA part: xc-table for (Slater+PW92), standard interpolation
 POSCAR, INCAR and KPOINTS ok, starting setup
 FFT: planning ... GRIDC
 FFT: planning ... GRID_SOFT
 FFT: planning ... GRID
 WAVECAR not read
 entering main loop
       N       E                     dE             d eps       ncg     rms          rms(c)
DAV:   1     0.102222374940E+03    0.10222E+03   -0.22168E+04 16800   0.995E+02
DAV:   2    -0.906653345128E+02   -0.19289E+03   -0.17987E+03 22944   0.182E+02
DAV:   3    -0.976125473904E+02   -0.69472E+01   -0.68966E+01 24888   0.305E+01
DAV:   4    -0.976541851913E+02   -0.41638E-01   -0.41636E-01 19536   0.274E+00
DAV:   5    -0.976546344817E+02   -0.44929E-03   -0.44928E-03 24912   0.271E-01    0.123E+01
DAV:   6    -0.922386979017E+02    0.54159E+01   -0.39491E+00 24264   0.659E+00    0.680E+00
DAV:   7    -0.905871623142E+02    0.16515E+01   -0.32198E+00 25152   0.586E+00    0.171E+00
DAV:   8    -0.905995949337E+02   -0.12433E-01   -0.23525E-01 18504   0.168E+00    0.704E-01
DAV:   9    -0.906137676872E+02   -0.14173E-01   -0.16940E-02 23568   0.440E-01    0.198E-01
DAV:  10    -0.906178211021E+02   -0.40534E-02   -0.21018E-03 19008   0.162E-01    0.610E-02
DAV:  11    -0.906188923547E+02   -0.10713E-02   -0.63056E-04 21792   0.879E-02    0.321E-02
DAV:  12    -0.906190079773E+02   -0.11562E-03   -0.92883E-05 20664   0.376E-02    0.429E-03
DAV:  13    -0.906190128262E+02   -0.48489E-05   -0.41075E-06 23520   0.898E-03    0.182E-03
DAV:  14    -0.906190135101E+02   -0.68398E-06   -0.28724E-07 20400   0.237E-03
   1 F= -.90619014E+02 E0= -.90617407E+02  d E =-.321354E-02
