   14   14    1    1
  0.1021960E+02  0.5697000E-09  0.4047900E-09  0.6204200E-09  0.5000000E-15
  1.000000000000000E-004
  CAR 
 Kpoints                                 
     42     60     48
 
  0.0000000E+00  0.5000000E-01  0.8333333E-01  0.9523810E-02
      1        -12.721075   1.000000
      2        -11.580546   1.000000
      3         -8.658809   1.000000
      4         -8.403546   1.000000
      5         -6.149392   1.000000
      6         -5.176722   1.000000
      7         -4.499028   1.000000
      8         -4.304624   1.000000
      9         -4.077756   1.000000
     10         -3.538326   1.000000
     11         -2.735579   1.000000
     12         -2.225833   1.000000
     13         -1.677156   1.000000
     14         -1.091105   1.000000
     15         -0.065200   1.000000
     16         -0.053472   1.000000
     17          0.009326   1.000000
     18          0.210214   1.000000
     19          0.458975   1.000000
     20          1.981847   0.034741
     21          2.014164   0.003173
     22          2.401590   0.000000
     23          5.474870   0.000000
     24          5.710283   0.000000
     25          5.846980   0.000000
     26          5.898552   0.000000
     27          6.932493   0.000000
     28          7.712970   0.000000
     29          7.767420   0.000000
     30          8.503366   0.000000
     31          8.758978   0.000000
     32          9.067405   0.000000
     33          9.086424   0.000000
     34         10.242228   0.000000
     35         11.181354   0.000000
     36         11.362522   0.000000
     37         11.493905   0.000000
     38         11.848043   0.000000
     39         11.888392   0.000000
     40         12.468741   0.000000
     41         12.903156   0.000000
     42         13.213077   0.000000
     43         13.719935   0.000000
     44         15.426808   0.000000
     45         15.541972   0.000000
     46         15.692635   0.000000
     47         16.216554   0.000000
     48         16.321453   0.000000
 
  0.1428571E+00  0.5000000E-01  0.8333333E-01  0.1904762E-01
      1        -12.676582   1.000000
      2        -11.654106   1.000000
      3         -8.655682   1.000000
      4         -8.382894   1.000000
      5         -6.099776   1.000000
      6         -5.391975   1.000000
      7         -4.758311   1.000000
      8         -4.076167   1.000000
      9         -3.796470   1.000000
     10         -3.166625   1.000000
     11         -2.801803   1.000000
     12         -2.204843   1.000000
     13         -1.754921   1.000000
     14         -1.405621   1.000000
     15         -0.140267   1.000000
     16         -0.033035   1.000000
     17          0.106942   1.000000
     18          0.181182   1.000000
     19          0.382812   1.000000
     20          1.774810   0.999973
     21          2.077758   0.000003
     22          2.243775   0.000000
     23          5.502623   0.000000
     24          5.783214   0.000000
     25          5.877051   0.000000
     26          6.261090   0.000000
     27          6.825941   0.000000
     28          7.236324   0.000000
     29          8.095603   0.000000
     30          8.660202   0.000000
     31          8.921868   0.000000
     32          9.210406   0.000000
     33          9.405390   0.000000
     34         10.308018   0.000000
     35         10.904966   0.000000
     36         11.011361   0.000000
     37         11.243117   0.000000
     38         11.728806   0.000000
     39         12.084219   0.000000
     40         12.562199   0.000000
     41         13.249610   0.000000
     42         13.275004   0.000000
     43         13.848244   0.000000
     44         14.800191   0.000000
     45         15.595246   0.000000
     46         15.805980   0.000000
     47         16.095966   0.000000
     48         16.480643   0.000000
 
  0.2857143E+00  0.5000000E-01  0.8333333E-01  0.1904762E-01
      1        -12.547116   1.000000
      2        -11.847298   1.000000
      3         -8.613181   1.000000
      4         -8.367801   1.000000
      5         -6.126500   1.000000
      6         -5.697949   1.000000
      7         -4.686613   1.000000
      8         -3.892788   1.000000
      9         -3.115967   1.000000
     10         -3.015475   1.000000
     11         -2.520672   1.000000
     12         -2.184282   1.000000
     13         -2.066563   1.000000
     14         -1.910779   1.000000
     15         -0.383559   1.000000
     16         -0.107233   1.000000
     17          0.086536   1.000000
     18          0.298811   1.000000
     19          0.349840   1.000000
     20          1.566627   1.000000
     21          1.796509   0.999695
     22          1.972727   0.059697
     23          5.577214   0.000000
     24          5.929098   0.000000
     25          6.337169   0.000000
     26          6.585586   0.000000
     27          6.799006   0.000000
     28          7.012323   0.000000
     29          8.314053   0.000000
     30          8.841217   0.000000
     31          8.961000   0.000000
     32          9.572803   0.000000
     33          9.909198   0.000000
     34         10.161270   0.000000
     35         10.343397   0.000000
     36         10.782385   0.000000
     37         11.307126   0.000000
     38         11.947797   0.000000
     39         12.316952   0.000000
     40         12.475833   0.000000
     41         12.962981   0.000000
     42         13.163461   0.000000
     43         14.524217   0.000000
     44         14.936463   0.000000
     45         15.235650   0.000000
     46         15.560415   0.000000
     47         15.866828   0.000000
     48         16.089028   0.000000
 
  0.4285714E+00  0.5000000E-01  0.8333333E-01  0.1904762E-01
      1        -12.345753   1.000000
      2        -12.098144   1.000000
      3         -8.517488   1.000000
      4         -8.415273   1.000000
      5         -6.153333   1.000000
      6         -5.997444   1.000000
      7         -4.057700   1.000000
      8         -3.629278   1.000000
      9         -3.313834   1.000000
     10         -3.212508   1.000000
     11         -2.354004   1.000000
     12         -2.086910   1.000000
     13         -2.029083   1.000000
     14         -1.881639   1.000000
     15         -0.720001   1.000000
     16         -0.461202   1.000000
     17          0.117199   1.000000
     18          0.279046   1.000000
     19          0.717971   1.000000
     20          1.231667   1.000000
     21          1.557662   1.000000
     22          1.743739   1.000000
     23          5.722646   0.000000
     24          5.899524   0.000000
     25          6.510477   0.000000
     26          6.631564   0.000000
     27          7.190901   0.000000
     28          7.752573   0.000000
     29          8.335186   0.000000
     30          8.487307   0.000000
     31          8.686491   0.000000
     32          8.847245   0.000000
     33         10.074193   0.000000
     34         10.553327   0.000000
     35         10.707743   0.000000
     36         11.344214   0.000000
     37         11.522910   0.000000
     38         11.778543   0.000000
     39         12.084102   0.000000
     40         12.444642   0.000000
     41         12.831818   0.000000
     42         13.374495   0.000000
     43         14.382558   0.000000
     44         14.564202   0.000000
     45         15.093728   0.000000
     46         15.175120   0.000000
     47         15.795306   0.000000
     48         16.226661   0.000000
 
  0.0000000E+00  0.1500000E+00  0.8333333E-01  0.9523810E-02
      1        -12.675642   1.000000
      2        -11.539588   1.000000
      3         -8.623500   1.000000
      4         -8.359919   1.000000
      5         -6.099576   1.000000
      6         -5.109799   1.000000
      7         -4.883156   1.000000
      8         -4.452284   1.000000
      9         -4.188739   1.000000
     10         -3.672151   1.000000
     11         -3.483168   1.000000
     12         -1.399569   1.000000
     13         -1.082790   1.000000
     14         -0.627742   1.000000
     15         -0.463415   1.000000
     16         -0.334726   1.000000
     17          0.030649   1.000000
     18          0.295263   1.000000
     19          0.576905   1.000000
     20          1.533964   1.000000
     21          1.569801   1.000000
     22          2.469077   0.000000
     23          5.466068   0.000000
     24          5.540756   0.000000
     25          5.927423   0.000000
     26          6.034150   0.000000
     27          7.456670   0.000000
     28          7.834349   0.000000
     29          8.204203   0.000000
     30          8.429297   0.000000
     31          8.788494   0.000000
     32          9.205593   0.000000
     33          9.288208   0.000000
     34         10.866310   0.000000
     35         11.295530   0.000000
     36         11.341063   0.000000
     37         11.545673   0.000000
     38         12.031061   0.000000
     39         12.144279   0.000000
     40         12.708419   0.000000
     41         12.987469   0.000000
     42         13.013480   0.000000
     43         13.260775   0.000000
     44         14.955858   0.000000
     45         15.370053   0.000000
     46         15.466762   0.000000
     47         15.592677   0.000000
     48         16.053529   0.000000
 
  0.1428571E+00  0.1500000E+00  0.8333333E-01  0.1904762E-01
      1        -12.631346   1.000000
      2        -11.612907   1.000000
      3         -8.619219   1.000000
      4         -8.340762   1.000000
      5         -6.046144   1.000000
      6         -5.334910   1.000000
      7         -4.821217   1.000000
      8         -4.704267   1.000000
      9         -3.748765   1.000000
     10         -3.734006   1.000000
     11         -3.108643   1.000000
     12         -1.399863   1.000000
     13         -1.375864   1.000000
     14         -0.776396   1.000000
     15         -0.498236   1.000000
     16         -0.156580   1.000000
     17          0.058842   1.000000
     18          0.205311   1.000000
     19          0.494641   1.000000
     20          1.340011   1.000000
     21          1.629908   1.000000
     22          2.296819   0.000000
     23          5.507202   0.000000
     24          5.859594   0.000000
     25          5.949414   0.000000
     26          6.161772   0.000000
     27          7.349175   0.000000
     28          7.827291   0.000000
     29          8.005826   0.000000
     30          8.602373   0.000000
     31          9.030150   0.000000
     32          9.406004   0.000000
     33          9.578317   0.000000
     34         10.579695   0.000000
     35         10.690863   0.000000
     36         11.165471   0.000000
     37         11.527382   0.000000
     38         12.045423   0.000000
     39         12.335741   0.000000
     40         12.768170   0.000000
     41         13.062944   0.000000
     42         13.265251   0.000000
     43         13.501707   0.000000
     44         14.829644   0.000000
     45         14.982630   0.000000
     46         15.481655   0.000000
     47         15.618746   0.000000
     48         16.183556   0.000000
 
  0.2857143E+00  0.1500000E+00  0.8333333E-01  0.1904762E-01
      1        -12.502410   1.000000
      2        -11.805398   1.000000
      3         -8.575358   1.000000
      4         -8.327961   1.000000
      5         -6.066455   1.000000
      6         -5.639446   1.000000
      7         -4.670636   1.000000
      8         -4.641626   1.000000
      9         -3.915486   1.000000
     10         -3.045180   1.000000
     11         -2.473389   1.000000
     12         -2.082603   1.000000
     13         -1.317654   1.000000
     14         -1.037130   1.000000
     15         -0.438746   1.000000
     16         -0.287919   1.000000
     17          0.052406   1.000000
     18          0.215352   1.000000
     19          0.368606   1.000000
     20          1.142467   1.000000
     21          1.524092   1.000000
     22          1.836545   0.989119
     23          5.899354   0.000000
     24          6.030101   0.000000
     25          6.341695   0.000000
     26          6.539516   0.000000
     27          7.142888   0.000000
     28          7.549690   0.000000
     29          8.326849   0.000000
     30          8.772074   0.000000
     31          9.100742   0.000000
     32          9.623742   0.000000
     33          9.769495   0.000000
     34         10.118276   0.000000
     35         10.387094   0.000000
     36         11.039809   0.000000
     37         11.440761   0.000000
     38         11.982683   0.000000
     39         12.474433   0.000000
     40         12.706136   0.000000
     41         13.232409   0.000000
     42         13.413797   0.000000
     43         14.129687   0.000000
     44         14.732585   0.000000
     45         15.025920   0.000000
     46         15.404701   0.000000
     47         15.627795   0.000000
     48         16.169515   0.000000
 
  0.4285714E+00  0.1500000E+00  0.8333333E-01  0.1904762E-01
      1        -12.301880   1.000000
      2        -12.055268   1.000000
      3         -8.479245   1.000000
      4         -8.376740   1.000000
      5         -6.092138   1.000000
      6         -5.937163   1.000000
      7         -4.432346   1.000000
      8         -4.168667   1.000000
      9         -4.029178   1.000000
     10         -3.187899   1.000000
     11         -2.204620   1.000000
     12         -1.890735   1.000000
     13         -1.261625   1.000000
     14         -1.210142   1.000000
     15         -0.660124   1.000000
     16         -0.486538   1.000000
     17         -0.051138   1.000000
     18          0.068211   1.000000
     19          0.735429   1.000000
     20          1.128506   1.000000
     21          1.263704   1.000000
     22          1.314090   1.000000
     23          6.080276   0.000000
     24          6.288835   0.000000
     25          6.851526   0.000000
     26          7.054033   0.000000
     27          7.087252   0.000000
     28          7.613596   0.000000
     29          8.025292   0.000000
     30          8.573385   0.000000
     31          8.903702   0.000000
     32          8.993316   0.000000
     33         10.026949   0.000000
     34         10.413925   0.000000
     35         10.725106   0.000000
     36         11.027777   0.000000
     37         11.595180   0.000000
     38         11.908432   0.000000
     39         12.297079   0.000000
     40         12.852269   0.000000
     41         13.240912   0.000000
     42         13.729133   0.000000
     43         14.236334   0.000000
     44         14.433414   0.000000
     45         14.992077   0.000000
     46         15.226146   0.000000
     47         15.746366   0.000000
     48         16.263465   0.000000
 
  0.0000000E+00  0.2500000E+00  0.8333333E-01  0.9523810E-02
      1        -12.598702   1.000000
      2        -11.470453   1.000000
      3         -8.564698   1.000000
      4         -8.286210   1.000000
      5         -6.015411   1.000000
      6         -5.592978   1.000000
      7         -4.993931   1.000000
      8         -4.426902   1.000000
      9         -4.368284   1.000000
     10         -4.145299   1.000000
     11         -3.402181   1.000000
     12         -1.196209   1.000000
     13         -1.079440   1.000000
     14         -0.963282   1.000000
     15         -0.190655   1.000000
     16          0.062420   1.000000
     17          0.357124   1.000000
     18          0.608397   1.000000
     19          0.674603   1.000000
     20          0.965408   1.000000
     21          0.995144   1.000000
     22          2.523491   0.000000
     23          4.960984   0.000000
     24          5.180317   0.000000
     25          6.254127   0.000000
     26          6.559716   0.000000
     27          7.310279   0.000000
     28          8.095124   0.000000
     29          8.771530   0.000000
     30          9.048572   0.000000
     31          9.484142   0.000000
     32          9.490011   0.000000
     33          9.666671   0.000000
     34         10.713268   0.000000
     35         11.124236   0.000000
     36         11.759649   0.000000
     37         11.935788   0.000000
     38         12.379542   0.000000
     39         12.468563   0.000000
     40         12.520336   0.000000
     41         12.800470   0.000000
     42         12.966630   0.000000
     43         13.779299   0.000000
     44         13.850985   0.000000
     45         14.516316   0.000000
     46         15.103730   0.000000
     47         15.351937   0.000000
     48         15.985657   0.000000
 
  0.1428571E+00  0.2500000E+00  0.8333333E-01  0.1904762E-01
      1        -12.554725   1.000000
      2        -11.543341   1.000000
      3         -8.558443   1.000000
      4         -8.269597   1.000000
      5         -5.955619   1.000000
      6         -5.549361   1.000000
      7         -5.209729   1.000000
      8         -4.646541   1.000000
      9         -4.490190   1.000000
     10         -3.677085   1.000000
     11         -3.026686   1.000000
     12         -1.384603   1.000000
     13         -1.183855   1.000000
     14         -0.963108   1.000000
     15         -0.197978   1.000000
     16          0.094173   1.000000
     17          0.246143   1.000000
     18          0.571050   1.000000
     19          0.590639   1.000000
     20          0.836145   1.000000
     21          1.047761   1.000000
     22          2.345442   0.000000
     23          5.055445   0.000000
     24          5.494163   0.000000
     25          6.202277   0.000000
     26          6.749695   0.000000
     27          7.462194   0.000000
     28          8.014561   0.000000
     29          8.640887   0.000000
     30          9.123585   0.000000
     31          9.488163   0.000000
     32          9.708453   0.000000
     33          9.942274   0.000000
     34         10.323349   0.000000
     35         10.596648   0.000000
     36         11.749412   0.000000
     37         11.841807   0.000000
     38         12.149247   0.000000
     39         12.546843   0.000000
     40         12.690330   0.000000
     41         12.906911   0.000000
     42         13.491420   0.000000
     43         13.767608   0.000000
     44         13.892979   0.000000
     45         14.366290   0.000000
     46         15.018796   0.000000
     47         15.427064   0.000000
     48         15.805458   0.000000
 
  0.2857143E+00  0.2500000E+00  0.8333333E-01  0.1904762E-01
      1        -12.426737   1.000000
      2        -11.734621   1.000000
      3         -8.512186   1.000000
      4         -8.260856   1.000000
      5         -5.964491   1.000000
      6         -5.557109   1.000000
      7         -5.361983   1.000000
      8         -4.667890   1.000000
      9         -4.602984   1.000000
     10         -2.967169   1.000000
     11         -2.398745   1.000000
     12         -2.045697   1.000000
     13         -1.160904   1.000000
     14         -0.948818   1.000000
     15         -0.347419   1.000000
     16         -0.090738   1.000000
     17          0.273077   1.000000
     18          0.397809   1.000000
     19          0.453780   1.000000
     20          0.768161   1.000000
     21          0.982600   1.000000
     22          1.875281   0.884713
     23          5.555036   0.000000
     24          6.125863   0.000000
     25          6.248355   0.000000
     26          6.931899   0.000000
     27          7.654172   0.000000
     28          8.027799   0.000000
     29          8.509874   0.000000
     30          9.184420   0.000000
     31          9.304485   0.000000
     32          9.497361   0.000000
     33          9.835353   0.000000
     34         10.364650   0.000000
     35         10.768391   0.000000
     36         11.274621   0.000000
     37         11.387852   0.000000
     38         11.938266   0.000000
     39         12.821741   0.000000
     40         13.060473   0.000000
     41         13.348200   0.000000
     42         13.568393   0.000000
     43         13.787439   0.000000
     44         14.052967   0.000000
     45         14.504222   0.000000
     46         15.127503   0.000000
     47         15.358323   0.000000
     48         16.157265   0.000000
 
  0.4285714E+00  0.2500000E+00  0.8333333E-01  0.1904762E-01
      1        -12.227656   1.000000
      2        -11.982801   1.000000
      3         -8.415206   1.000000
      4         -8.312058   1.000000
      5         -5.987486   1.000000
      6         -5.834804   1.000000
      7         -5.166120   1.000000
      8         -4.912544   1.000000
      9         -3.984958   1.000000
     10         -3.146001   1.000000
     11         -2.126196   1.000000
     12         -1.829406   1.000000
     13         -1.074260   1.000000
     14         -0.901677   1.000000
     15         -0.723893   1.000000
     16         -0.421674   1.000000
     17          0.138348   1.000000
     18          0.263870   1.000000
     19          0.742649   1.000000
     20          0.804780   1.000000
     21          0.870266   1.000000
     22          1.293525   1.000000
     23          6.405419   0.000000
     24          6.438224   0.000000
     25          6.739336   0.000000
     26          6.887224   0.000000
     27          7.416017   0.000000
     28          7.796601   0.000000
     29          8.445206   0.000000
     30          8.537252   0.000000
     31          9.409239   0.000000
     32          9.622790   0.000000
     33          9.800271   0.000000
     34         10.349279   0.000000
     35         10.706326   0.000000
     36         11.180146   0.000000
     37         11.837414   0.000000
     38         12.063246   0.000000
     39         12.512431   0.000000
     40         13.251352   0.000000
     41         13.409756   0.000000
     42         13.555734   0.000000
     43         13.813699   0.000000
     44         13.974058   0.000000
     45         14.900442   0.000000
     46         15.097729   0.000000
     47         15.486681   0.000000
     48         16.068146   0.000000
 
  0.0000000E+00  0.3500000E+00  0.8333333E-01  0.9523810E-02
      1        -12.516949   1.000000
      2        -11.397317   1.000000
      3         -8.503663   1.000000
      4         -8.207962   1.000000
      5         -6.132867   1.000000
      6         -5.921640   1.000000
      7         -4.968526   1.000000
      8         -4.866555   1.000000
      9         -4.270393   1.000000
     10         -4.090814   1.000000
     11         -3.309086   1.000000
     12         -1.591063   1.000000
     13         -1.436080   1.000000
     14         -1.046671   1.000000
     15          0.092474   1.000000
     16          0.330367   1.000000
     17          0.401308   1.000000
     18          0.442605   1.000000
     19          0.628580   1.000000
     20          0.841873   1.000000
     21          1.673821   1.000000
     22          2.566722   0.000000
     23          4.530070   0.000000
     24          4.854387   0.000000
     25          6.399591   0.000000
     26          7.038348   0.000000
     27          7.099119   0.000000
     28          8.500427   0.000000
     29          8.711748   0.000000
     30          9.838050   0.000000
     31          9.872851   0.000000
     32          9.969844   0.000000
     33         10.527618   0.000000
     34         10.598287   0.000000
     35         11.077923   0.000000
     36         11.767452   0.000000
     37         11.963276   0.000000
     38         12.372453   0.000000
     39         12.534748   0.000000
     40         12.587734   0.000000
     41         12.863588   0.000000
     42         12.987219   0.000000
     43         13.227756   0.000000
     44         14.256434   0.000000
     45         14.699392   0.000000
     46         14.991509   0.000000
     47         15.717579   0.000000
     48         15.823167   0.000000
 
  0.1428571E+00  0.3500000E+00  0.8333333E-01  0.1904762E-01
      1        -12.473338   1.000000
      2        -11.469748   1.000000
      3         -8.495311   1.000000
      4         -8.194118   1.000000
      5         -6.085311   1.000000
      6         -5.851378   1.000000
      7         -5.103597   1.000000
      8         -5.033641   1.000000
      9         -4.565905   1.000000
     10         -3.597177   1.000000
     11         -2.931121   1.000000
     12         -1.606395   1.000000
     13         -1.407005   1.000000
     14         -1.317830   1.000000
     15          0.072262   1.000000
     16          0.128004   1.000000
     17          0.296102   1.000000
     18          0.481069   1.000000
     19          0.557500   1.000000
     20          0.909287   1.000000
     21          1.647223   1.000000
     22          2.387254   0.000000
     23          4.651932   0.000000
     24          5.144927   0.000000
     25          6.364232   0.000000
     26          7.178133   0.000000
     27          7.304112   0.000000
     28          8.437688   0.000000
     29          8.879999   0.000000
     30          9.481114   0.000000
     31          9.919542   0.000000
     32          9.969164   0.000000
     33         10.267956   0.000000
     34         10.650117   0.000000
     35         11.027109   0.000000
     36         11.934748   0.000000
     37         12.057944   0.000000
     38         12.272789   0.000000
     39         12.357584   0.000000
     40         12.505665   0.000000
     41         12.901443   0.000000
     42         12.939351   0.000000
     43         13.587571   0.000000
     44         14.146352   0.000000
     45         14.599339   0.000000
     46         15.052754   0.000000
     47         15.590434   0.000000
     48         15.840973   0.000000
 
  0.2857143E+00  0.3500000E+00  0.8333333E-01  0.1904762E-01
      1        -12.346406   1.000000
      2        -11.659717   1.000000
      3         -8.446347   1.000000
      4         -8.190019   1.000000
      5         -5.957062   1.000000
      6         -5.830452   1.000000
      7         -5.412018   1.000000
      8         -5.207913   1.000000
      9         -4.545262   1.000000
     10         -2.876552   1.000000
     11         -2.307262   1.000000
     12         -2.005688   1.000000
     13         -1.568633   1.000000
     14         -1.289123   1.000000
     15         -0.284006   1.000000
     16         -0.083900   1.000000
     17          0.209152   1.000000
     18          0.311202   1.000000
     19          0.438246   1.000000
     20          1.099135   1.000000
     21          1.569420   1.000000
     22          1.913498   0.546943
     23          5.163840   0.000000
     24          5.781909   0.000000
     25          6.431907   0.000000
     26          7.359274   0.000000
     27          7.446171   0.000000
     28          8.454180   0.000000
     29          8.879268   0.000000
     30          9.231033   0.000000
     31          9.342749   0.000000
     32          9.929325   0.000000
     33         10.308776   0.000000
     34         10.806339   0.000000
     35         11.280976   0.000000
     36         11.466403   0.000000
     37         12.062711   0.000000
     38         12.217270   0.000000
     39         12.237932   0.000000
     40         12.471699   0.000000
     41         13.055193   0.000000
     42         13.333919   0.000000
     43         13.544878   0.000000
     44         14.421853   0.000000
     45         14.547017   0.000000
     46         14.972920   0.000000
     47         15.226503   0.000000
     48         15.778622   0.000000
 
  0.4285714E+00  0.3500000E+00  0.8333333E-01  0.1904762E-01
      1        -12.148950   1.000000
      2        -11.906030   1.000000
      3         -8.348251   1.000000
      4         -8.244146   1.000000
      5         -5.881017   1.000000
      6         -5.758939   1.000000
      7         -5.663188   1.000000
      8         -5.450846   1.000000
      9         -3.934982   1.000000
     10         -3.097402   1.000000
     11         -2.036516   1.000000
     12         -1.758744   1.000000
     13         -1.420496   1.000000
     14         -1.223146   1.000000
     15         -0.682949   1.000000
     16         -0.341061   1.000000
     17         -0.119583   1.000000
     18          0.044446   1.000000
     19          0.806293   1.000000
     20          1.282163   1.000000
     21          1.333174   1.000000
     22          1.447418   1.000000
     23          6.019278   0.000000
     24          6.507553   0.000000
     25          6.724272   0.000000
     26          7.032318   0.000000
     27          7.106699   0.000000
     28          7.624621   0.000000
     29          9.229670   0.000000
     30          9.267091   0.000000
     31          9.535619   0.000000
     32          9.856425   0.000000
     33         10.293632   0.000000
     34         10.389415   0.000000
     35         11.383272   0.000000
     36         11.661960   0.000000
     37         12.146196   0.000000
     38         12.272988   0.000000
     39         12.419445   0.000000
     40         12.498760   0.000000
     41         12.806004   0.000000
     42         13.443713   0.000000
     43         13.639464   0.000000
     44         13.798062   0.000000
     45         14.860179   0.000000
     46         15.012971   0.000000
     47         15.306056   0.000000
     48         15.682339   0.000000
 
  0.0000000E+00  0.4500000E+00  0.8333333E-01  0.9523810E-02
      1        -12.463677   1.000000
      2        -11.349868   1.000000
      3         -8.464723   1.000000
      4         -8.156851   1.000000
      5         -6.419811   1.000000
      6         -5.861938   1.000000
      7         -5.254718   1.000000
      8         -4.780542   1.000000