   1   1   0   0
  0.3401394E+04  0.1503900E-08  0.1253250E-08  0.1804680E-08  0.5000000E-15
  1.000000000000000E-004
  CAR 
 Convergence                             
      2.48320948     -9.97651732  301     -3.60746039      1.00000000
     -9.977  0.0000E+00  0.0000E+00
     -9.935  0.0000E+00  0.0000E+00
     -9.893  0.0000E+00  0.0000E+00
     -9.852  0.0000E+00  0.0000E+00
     -9.810  0.0000E+00  0.0000E+00
     -9.769  0.0000E+00  0.0000E+00
     -9.727  0.0000E+00  0.0000E+00
     -9.686  0.1550E-12  0.6439E-14
     -9.644  0.8581E-09  0.3565E-10
     -9.603  0.1237E-05  0.5139E-07
     -9.561  0.4658E-03  0.1940E-04
     -9.520  0.4660E-01  0.1955E-02
     -9.478  0.1267E+01  0.5457E-01
     -9.437  0.9635E+01  0.4547E+00
     -9.395  0.2109E+02  0.1331E+01
     -9.354  0.1349E+02  0.1891E+01
     -9.312  0.2497E+01  0.1995E+01
     -9.270  0.1304E+00  0.2000E+01
     -9.229  0.1864E-02  0.2000E+01
     -9.187  0.7119E-05  0.2000E+01
     -9.146  0.7131E-08  0.2000E+01
     -9.104  0.1850E-11  0.2000E+01
     -9.063  0.0000E+00  0.2000E+01
     -9.021  0.0000E+00  0.2000E+01
     -8.980  0.0000E+00  0.2000E+01
     -8.938  0.0000E+00  0.2000E+01
     -8.897  0.0000E+00  0.2000E+01
     -8.855  0.0000E+00  0.2000E+01
     -8.814  0.0000E+00  0.2000E+01
     -8.772  0.0000E+00  0.2000E+01
     -8.731  0.0000E+00  0.2000E+01
     -8.689  0.0000E+00  0.2000E+01
     -8.647  0.0000E+00  0.2000E+01
     -8.606  0.0000E+00  0.2000E+01
     -8.564  0.0000E+00  0.2000E+01
     -8.523  0.0000E+00  0.2000E+01
     -8.481  0.0000E+00  0.2000E+01
     -8.440  0.0000E+00  0.2000E+01
     -8.398  0.0000E+00  0.2000E+01
     -8.357  0.0000E+00  0.2000E+01
     -8.315  0.0000E+00  0.2000E+01
     -8.274  0.0000E+00  0.2000E+01
     -8.232  0.0000E+00  0.2000E+01
     -8.191  0.0000E+00  0.2000E+01
     -8.149  0.0000E+00  0.2000E+01
     -8.108  0.0000E+00  0.2000E+01
     -8.066  0.0000E+00  0.2000E+01
     -8.024  0.0000E+00  0.2000E+01
     -7.983  0.0000E+00  0.2000E+01
     -7.941  0.0000E+00  0.2000E+01
     -7.900  0.0000E+00  0.2000E+01
     -7.858  0.0000E+00  0.2000E+01
     -7.817  0.0000E+00  0.2000E+01
     -7.775  0.0000E+00  0.2000E+01
     -7.734  0.0000E+00  0.2000E+01
     -7.692  0.0000E+00  0.2000E+01
     -7.651  0.0000E+00  0.2000E+01
     -7.609  0.0000E+00  0.2000E+01
     -7.568  0.0000E+00  0.2000E+01
     -7.526  0.0000E+00  0.2000E+01
     -7.485  0.0000E+00  0.2000E+01
     -7.443  0.0000E+00  0.2000E+01
     -7.402  0.0000E+00  0.2000E+01
     -7.360  0.0000E+00  0.2000E+01
     -7.318  0.0000E+00  0.2000E+01
     -7.277  0.0000E+00  0.2000E+01
     -7.235  0.0000E+00  0.2000E+01
     -7.194  0.0000E+00  0.2000E+01
     -7.152  0.0000E+00  0.2000E+01
     -7.111  0.0000E+00  0.2000E+01
     -7.069  0.0000E+00  0.2000E+01
     -7.028  0.0000E+00  0.2000E+01
     -6.986  0.0000E+00  0.2000E+01
     -6.945  0.0000E+00  0.2000E+01
     -6.903  0.0000E+00  0.2000E+01
     -6.862  0.0000E+00  0.2000E+01
     -6.820  0.0000E+00  0.2000E+01
     -6.779  0.0000E+00  0.2000E+01
     -6.737  0.0000E+00  0.2000E+01
     -6.695  0.0000E+00  0.2000E+01
     -6.654  0.0000E+00  0.2000E+01
     -6.612  0.0000E+00  0.2000E+01
     -6.571  0.0000E+00  0.2000E+01
     -6.529  0.0000E+00  0.2000E+01
     -6.488  0.0000E+00  0.2000E+01
     -6.446  0.0000E+00  0.2000E+01
     -6.405  0.0000E+00  0.2000E+01
     -6.363  0.0000E+00  0.2000E+01
     -6.322  0.0000E+00  0.2000E+01
     -6.280  0.0000E+00  0.2000E+01
     -6.239  0.0000E+00  0.2000E+01
     -6.197  0.0000E+00  0.2000E+01
     -6.156  0.0000E+00  0.2000E+01
     -6.114  0.0000E+00  0.2000E+01
     -6.072  0.0000E+00  0.2000E+01
     -6.031  0.0000E+00  0.2000E+01
     -5.989  0.0000E+00  0.2000E+01
     -5.948  0.0000E+00  0.2000E+01
     -5.906  0.0000E+00  0.2000E+01
     -5.865  0.0000E+00  0.2000E+01
     -5.823  0.0000E+00  0.2000E+01
     -5.782  0.0000E+00  0.2000E+01
     -5.740  0.0000E+00  0.2000E+01
     -5.699  0.0000E+00  0.2000E+01
     -5.657  0.0000E+00  0.2000E+01
     -5.616  0.0000E+00  0.2000E+01
     -5.574  0.0000E+00  0.2000E+01
     -5.533  0.0000E+00  0.2000E+01
     -5.491  0.0000E+00  0.2000E+01
     -5.449  0.0000E+00  0.2000E+01
     -5.408  0.0000E+00  0.2000E+01
     -5.366  0.0000E+00  0.2000E+01
     -5.325  0.0000E+00  0.2000E+01
     -5.283  0.0000E+00  0.2000E+01
     -5.242  0.0000E+00  0.2000E+01
     -5.200  0.0000E+00  0.2000E+01
     -5.159  0.0000E+00  0.2000E+01
     -5.117  0.0000E+00  0.2000E+01
     -5.076  0.0000E+00  0.2000E+01
     -5.034  0.0000E+00  0.2000E+01
     -4.993  0.0000E+00  0.2000E+01
     -4.951  0.0000E+00  0.2000E+01
     -4.910  0.0000E+00  0.2000E+01
     -4.868  0.0000E+00  0.2000E+01
     -4.826  0.0000E+00  0.2000E+01
     -4.785  0.0000E+00  0.2000E+01
     -4.743  0.0000E+00  0.2000E+01
     -4.702  0.0000E+00  0.2000E+01
     -4.660  0.0000E+00  0.2000E+01
     -4.619  0.0000E+00  0.2000E+01
     -4.577  0.0000E+00  0.2000E+01
     -4.536  0.0000E+00  0.2000E+01
     -4.494  0.0000E+00  0.2000E+01
     -4.453  0.0000E+00  0.2000E+01
     -4.411  0.0000E+00  0.2000E+01
     -4.370  0.0000E+00  0.2000E+01
     -4.328  0.0000E+00  0.2000E+01
     -4.287  0.0000E+00  0.2000E+01
     -4.245  0.0000E+00  0.2000E+01
     -4.204  0.0000E+00  0.2000E+01
     -4.162  0.0000E+00  0.2000E+01
     -4.120  0.0000E+00  0.2000E+01
     -4.079  0.0000E+00  0.2000E+01
     -4.037  0.0000E+00  0.2000E+01
     -3.996  0.0000E+00  0.2000E+01
     -3.954  0.0000E+00  0.2000E+01
     -3.913  0.0000E+00  0.2000E+01
     -3.871  0.0000E+00  0.2000E+01
     -3.830  0.2926E-10  0.2000E+01
     -3.788  0.8726E-07  0.2000E+01
     -3.747  0.6760E-04  0.2000E+01
     -3.705  0.1378E-01  0.2001E+01
     -3.664  0.7532E+00  0.2032E+01
     -3.622  0.1133E+02  0.2503E+01
     -3.581  0.4837E+02  0.4511E+01
     -3.539  0.5998E+02  0.7003E+01
     -3.497  0.2170E+02  0.7904E+01
     -3.456  0.2249E+01  0.7997E+01
     -3.414  0.6485E-01  0.8000E+01
     -3.373  0.5055E-03  0.8000E+01
     -3.331  0.1043E-05  0.8000E+01
     -3.290  0.5612E-09  0.8000E+01
     -3.248  0.7943E-13  0.8000E+01
     -3.207  0.0000E+00  0.8000E+01
     -3.165  0.0000E+00  0.8000E+01
     -3.124  0.0000E+00  0.8000E+01
     -3.082  0.0000E+00  0.8000E+01
     -3.041  0.0000E+00  0.8000E+01
     -2.999  0.0000E+00  0.8000E+01
     -2.958  0.0000E+00  0.8000E+01
     -2.916  0.0000E+00  0.8000E+01
     -2.874  0.0000E+00  0.8000E+01
     -2.833  0.0000E+00  0.8000E+01
     -2.791  0.0000E+00  0.8000E+01
     -2.750  0.0000E+00  0.8000E+01
     -2.708  0.0000E+00  0.8000E+01
     -2.667  0.0000E+00  0.8000E+01
     -2.625  0.0000E+00  0.8000E+01
     -2.584  0.0000E+00  0.8000E+01
     -2.542  0.0000E+00  0.8000E+01
     -2.501  0.0000E+00  0.8000E+01
     -2.459  0.0000E+00  0.8000E+01
     -2.418  0.0000E+00  0.8000E+01
     -2.376  0.0000E+00  0.8000E+01
     -2.335  0.0000E+00  0.8000E+01
     -2.293  0.0000E+00  0.8000E+01
     -2.251  0.0000E+00  0.8000E+01
     -2.210  0.0000E+00  0.8000E+01
     -2.168  0.0000E+00  0.8000E+01
     -2.127  0.0000E+00  0.8000E+01
     -2.085  0.0000E+00  0.8000E+01
     -2.044  0.0000E+00  0.8000E+01
     -2.002  0.0000E+00  0.8000E+01
     -1.961  0.0000E+00  0.8000E+01
     -1.919  0.0000E+00  0.8000E+01
     -1.878  0.0000E+00  0.8000E+01
     -1.836  0.0000E+00  0.8000E+01
     -1.795  0.0000E+00  0.8000E+01
     -1.753  0.0000E+00  0.8000E+01
     -1.712  0.0000E+00  0.8000E+01
     -1.670  0.0000E+00  0.8000E+01
     -1.629  0.0000E+00  0.8000E+01
     -1.587  0.0000E+00  0.8000E+01
     -1.545  0.0000E+00  0.8000E+01
     -1.504  0.0000E+00  0.8000E+01
     -1.462  0.0000E+00  0.8000E+01
     -1.421  0.0000E+00  0.8000E+01
     -1.379  0.0000E+00  0.8000E+01
     -1.338  0.0000E+00  0.8000E+01
     -1.296  0.0000E+00  0.8000E+01
     -1.255  0.0000E+00  0.8000E+01
     -1.213  0.0000E+00  0.8000E+01
     -1.172  0.0000E+00  0.8000E+01
     -1.130  0.0000E+00  0.8000E+01
     -1.089  0.0000E+00  0.8000E+01
     -1.047  0.0000E+00  0.8000E+01
     -1.006  0.0000E+00  0.8000E+01
     -0.964  0.0000E+00  0.8000E+01
     -0.922  0.0000E+00  0.8000E+01
     -0.881  0.0000E+00  0.8000E+01
     -0.839  0.0000E+00  0.8000E+01
     -0.798  0.0000E+00  0.8000E+01
     -0.756  0.0000E+00  0.8000E+01
     -0.715  0.0000E+00  0.8000E+01
     -0.673  0.0000E+00  0.8000E+01
     -0.632  0.0000E+00  0.8000E+01
     -0.590  0.0000E+00  0.8000E+01
     -0.549  0.6789E-16  0.8000E+01
     -0.507  0.8359E-12  0.8000E+01
     -0.466  0.2125E-08  0.8000E+01
     -0.424  0.1482E-05  0.8000E+01
     -0.383  0.2934E-03  0.8000E+01
     -0.341  0.1738E-01  0.8001E+01
     -0.299  0.3324E+00  0.8015E+01
     -0.258  0.2301E+01  0.8110E+01
     -0.216  0.6780E+01  0.8392E+01
     -0.175  0.1047E+02  0.8827E+01
     -0.133  0.1073E+02  0.9272E+01
     -0.092  0.9024E+01  0.9647E+01
     -0.050  0.5860E+01  0.9890E+01
     -0.009  0.2245E+01  0.9984E+01
      0.033  0.6513E+00  0.1001E+02
      0.074  0.1626E+01  0.1008E+02
      0.116  0.4926E+01  0.1028E+02
      0.157  0.9555E+01  0.1068E+02
      0.199  0.1353E+02  0.1124E+02
      0.240  0.1556E+02  0.1189E+02
      0.282  0.1587E+02  0.1255E+02
      0.324  0.1596E+02  0.1321E+02
      0.365  0.1625E+02  0.1388E+02
      0.407  0.1652E+02  0.1457E+02
      0.448  0.1745E+02  0.1530E+02
      0.490  0.1851E+02  0.1606E+02
      0.531  0.1858E+02  0.1684E+02
      0.573  0.1895E+02  0.1762E+02
      0.614  0.1989E+02  0.1845E+02
      0.656  0.2041E+02  0.1930E+02
      0.697  0.2098E+02  0.2017E+02
      0.739  0.2236E+02  0.2110E+02
      0.780  0.2262E+02  0.2204E+02
      0.822  0.2194E+02  0.2295E+02
      0.863  0.2323E+02  0.2391E+02
      0.905  0.2461E+02  0.2493E+02
      0.947  0.2439E+02  0.2595E+02
      0.988  0.2485E+02  0.2698E+02
      1.030  0.2598E+02  0.2806E+02
      1.071  0.2615E+02  0.2914E+02
      1.113  0.2618E+02  0.3023E+02
      1.154  0.2687E+02  0.3135E+02
      1.196  0.2781E+02  0.3250E+02
      1.237  0.2752E+02  0.3364E+02
      1.279  0.2758E+02  0.3479E+02
      1.320  0.2866E+02  0.3598E+02
      1.362  0.2880E+02  0.3718E+02
      1.403  0.2846E+02  0.3836E+02
      1.445  0.2939E+02  0.3958E+02
      1.486  0.3101E+02  0.4087E+02
      1.528  0.3026E+02  0.4212E+02
      1.569  0.2970E+02  0.4336E+02
      1.611  0.3024E+02  0.4461E+02
      1.653  0.2801E+02  0.4578E+02
      1.694  0.2159E+02  0.4667E+02
      1.736  0.1434E+02  0.4727E+02
      1.777  0.8516E+01  0.4762E+02
      1.819  0.4894E+01  0.4783E+02
      1.860  0.2622E+01  0.4794E+02
      1.902  0.1112E+01  0.4798E+02
      1.943  0.3524E+00  0.4800E+02
      1.985  0.7412E-01  0.4800E+02
      2.026  0.7173E-02  0.4800E+02
      2.068  0.2304E-03  0.4800E+02
      2.109  0.2120E-05  0.4800E+02
      2.151  0.5287E-08  0.4800E+02
      2.192  0.3484E-11  0.4800E+02
      2.234  0.5940E-15  0.4800E+02
      2.276  0.0000E+00  0.4800E+02
      2.317  0.0000E+00  0.4800E+02
      2.359  0.0000E+00  0.4800E+02
      2.400  0.0000E+00  0.4800E+02
      2.442  0.0000E+00  0.4800E+02
      2.483  0.0000E+00  0.4800E+02
