   1   1   0   0
  0.3375000E+04  0.1500000E-08  0.1250000E-08  0.1800000E-08  0.5000000E-15
  1.000000000000000E-004
  CAR 
 Cohesive                                
      1.14747675    -10.39924348  301     -4.00048076      1.00000000
    -10.399  0.0000E+00  0.0000E+00  0.0000E+00  0.0000E+00
    -10.361  0.0000E+00  0.0000E+00  0.0000E+00  0.0000E+00
    -10.322  0.0000E+00  0.0000E+00  0.0000E+00  0.0000E+00
    -10.284  0.0000E+00  0.0000E+00  0.0000E+00  0.0000E+00
    -10.245  0.0000E+00  0.0000E+00  0.0000E+00  0.0000E+00
    -10.207  0.0000E+00  0.0000E+00  0.0000E+00  0.0000E+00
    -10.168  0.1442E-14  0.0000E+00  0.5551E-16  0.0000E+00
    -10.130  0.6529E-11  0.0000E+00  0.2514E-12  0.0000E+00
    -10.091  0.1099E-07  0.0000E+00  0.4233E-09  0.0000E+00
    -10.053  0.5810E-05  0.0000E+00  0.2240E-06  0.0000E+00
    -10.014  0.9733E-03  0.0000E+00  0.3768E-04  0.0000E+00
     -9.976  0.5234E-01  0.0000E+00  0.2052E-02  0.0000E+00
     -9.937  0.9190E+00  0.0000E+00  0.3742E-01  0.0000E+00
     -9.899  0.5373E+01  0.0000E+00  0.2442E+00  0.0000E+00
     -9.860  0.1064E+02  0.0000E+00  0.6539E+00  0.0000E+00
     -9.822  0.7204E+01  0.0000E+00  0.9312E+00  0.0000E+00
     -9.783  0.1658E+01  0.0000E+00  0.9950E+00  0.0000E+00
     -9.745  0.1277E+00  0.0000E+00  0.9999E+00  0.0000E+00
     -9.706  0.3227E-02  0.0000E+00  0.1000E+01  0.0000E+00
     -9.668  0.2630E-04  0.0000E+00  0.1000E+01  0.0000E+00
     -9.629  0.6815E-07  0.0000E+00  0.1000E+01  0.0000E+00
     -9.591  0.5556E-10  0.0000E+00  0.1000E+01  0.0000E+00
     -9.552  0.1442E-13  0.0000E+00  0.1000E+01  0.0000E+00
     -9.514  0.0000E+00  0.0000E+00  0.1000E+01  0.0000E+00
     -9.476  0.0000E+00  0.0000E+00  0.1000E+01  0.0000E+00
     -9.437  0.0000E+00  0.0000E+00  0.1000E+01  0.0000E+00
     -9.399  0.0000E+00  0.0000E+00  0.1000E+01  0.0000E+00
     -9.360  0.0000E+00  0.0000E+00  0.1000E+01  0.0000E+00
     -9.322  0.0000E+00  0.0000E+00  0.1000E+01  0.0000E+00
     -9.283  0.0000E+00  0.0000E+00  0.1000E+01  0.0000E+00
     -9.245  0.0000E+00  0.0000E+00  0.1000E+01  0.0000E+00
     -9.206  0.0000E+00  0.0000E+00  0.1000E+01  0.0000E+00
     -9.168  0.0000E+00  0.0000E+00  0.1000E+01  0.0000E+00
     -9.129  0.0000E+00  0.0000E+00  0.1000E+01  0.0000E+00
     -9.091  0.0000E+00  0.0000E+00  0.1000E+01  0.0000E+00
     -9.052  0.0000E+00  0.0000E+00  0.1000E+01  0.0000E+00
     -9.014  0.0000E+00  0.0000E+00  0.1000E+01  0.0000E+00
     -8.975  0.0000E+00  0.0000E+00  0.1000E+01  0.0000E+00
     -8.937  0.0000E+00  0.1122E-11  0.1000E+01  0.4319E-13
     -8.898  0.0000E+00  0.2430E-08  0.1000E+01  0.9357E-10
     -8.860  0.0000E+00  0.1649E-05  0.1000E+01  0.6358E-07
     -8.821  0.0000E+00  0.3540E-03  0.1000E+01  0.1369E-04
     -8.783  0.0000E+00  0.2431E-01  0.1000E+01  0.9494E-03
     -8.744  0.0000E+00  0.5430E+00  0.1000E+01  0.2185E-01
     -8.706  0.0000E+00  0.4021E+01  0.1000E+01  0.1766E+00
     -8.667  0.0000E+00  0.1006E+02  0.1000E+01  0.5637E+00
     -8.629  0.0000E+00  0.8586E+01  0.1000E+01  0.8942E+00
     -8.590  0.0000E+00  0.2498E+01  0.1000E+01  0.9903E+00
     -8.552  0.0000E+00  0.2442E+00  0.1000E+01  0.9997E+00
     -8.513  0.0000E+00  0.7870E-02  0.1000E+01  0.1000E+01
     -8.475  0.0000E+00  0.8205E-04  0.1000E+01  0.1000E+01
     -8.436  0.0000E+00  0.2727E-06  0.1000E+01  0.1000E+01
     -8.398  0.0000E+00  0.2857E-09  0.1000E+01  0.1000E+01
     -8.359  0.0000E+00  0.9230E-13  0.1000E+01  0.1000E+01
     -8.321  0.0000E+00  0.0000E+00  0.1000E+01  0.1000E+01
     -8.282  0.0000E+00  0.0000E+00  0.1000E+01  0.1000E+01
     -8.244  0.0000E+00  0.0000E+00  0.1000E+01  0.1000E+01
     -8.205  0.0000E+00  0.0000E+00  0.1000E+01  0.1000E+01
     -8.167  0.0000E+00  0.0000E+00  0.1000E+01  0.1000E+01
     -8.128  0.0000E+00  0.0000E+00  0.1000E+01  0.1000E+01
     -8.090  0.0000E+00  0.0000E+00  0.1000E+01  0.1000E+01
     -8.051  0.0000E+00  0.0000E+00  0.1000E+01  0.1000E+01
     -8.013  0.0000E+00  0.0000E+00  0.1000E+01  0.1000E+01
     -7.974  0.0000E+00  0.0000E+00  0.1000E+01  0.1000E+01
     -7.936  0.0000E+00  0.0000E+00  0.1000E+01  0.1000E+01
     -7.897  0.0000E+00  0.0000E+00  0.1000E+01  0.1000E+01
     -7.859  0.0000E+00  0.0000E+00  0.1000E+01  0.1000E+01
     -7.820  0.0000E+00  0.0000E+00  0.1000E+01  0.1000E+01
     -7.782  0.0000E+00  0.0000E+00  0.1000E+01  0.1000E+01
     -7.743  0.0000E+00  0.0000E+00  0.1000E+01  0.1000E+01
     -7.705  0.0000E+00  0.0000E+00  0.1000E+01  0.1000E+01
     -7.667  0.0000E+00  0.0000E+00  0.1000E+01  0.1000E+01
     -7.628  0.0000E+00  0.0000E+00  0.1000E+01  0.1000E+01
     -7.590  0.0000E+00  0.0000E+00  0.1000E+01  0.1000E+01
     -7.551  0.0000E+00  0.0000E+00  0.1000E+01  0.1000E+01
     -7.513  0.0000E+00  0.0000E+00  0.1000E+01  0.1000E+01
     -7.474  0.0000E+00  0.0000E+00  0.1000E+01  0.1000E+01
     -7.436  0.0000E+00  0.0000E+00  0.1000E+01  0.1000E+01
     -7.397  0.0000E+00  0.0000E+00  0.1000E+01  0.1000E+01
     -7.359  0.0000E+00  0.0000E+00  0.1000E+01  0.1000E+01
     -7.320  0.0000E+00  0.0000E+00  0.1000E+01  0.1000E+01
     -7.282  0.0000E+00  0.0000E+00  0.1000E+01  0.1000E+01
     -7.243  0.0000E+00  0.0000E+00  0.1000E+01  0.1000E+01
     -7.205  0.0000E+00  0.0000E+00  0.1000E+01  0.1000E+01
     -7.166  0.0000E+00  0.0000E+00  0.1000E+01  0.1000E+01
     -7.128  0.0000E+00  0.0000E+00  0.1000E+01  0.1000E+01
     -7.089  0.0000E+00  0.0000E+00  0.1000E+01  0.1000E+01
     -7.051  0.0000E+00  0.0000E+00  0.1000E+01  0.1000E+01
     -7.012  0.0000E+00  0.0000E+00  0.1000E+01  0.1000E+01
     -6.974  0.0000E+00  0.0000E+00  0.1000E+01  0.1000E+01
     -6.935  0.0000E+00  0.0000E+00  0.1000E+01  0.1000E+01
     -6.897  0.0000E+00  0.0000E+00  0.1000E+01  0.1000E+01
     -6.858  0.0000E+00  0.0000E+00  0.1000E+01  0.1000E+01
     -6.820  0.0000E+00  0.0000E+00  0.1000E+01  0.1000E+01
     -6.781  0.0000E+00  0.0000E+00  0.1000E+01  0.1000E+01
     -6.743  0.0000E+00  0.0000E+00  0.1000E+01  0.1000E+01
     -6.704  0.0000E+00  0.0000E+00  0.1000E+01  0.1000E+01
     -6.666  0.0000E+00  0.0000E+00  0.1000E+01  0.1000E+01
     -6.627  0.0000E+00  0.0000E+00  0.1000E+01  0.1000E+01
     -6.589  0.0000E+00  0.0000E+00  0.1000E+01  0.1000E+01
     -6.550  0.0000E+00  0.0000E+00  0.1000E+01  0.1000E+01
     -6.512  0.0000E+00  0.0000E+00  0.1000E+01  0.1000E+01
     -6.473  0.0000E+00  0.0000E+00  0.1000E+01  0.1000E+01
     -6.435  0.0000E+00  0.0000E+00  0.1000E+01  0.1000E+01
     -6.396  0.0000E+00  0.0000E+00  0.1000E+01  0.1000E+01
     -6.358  0.0000E+00  0.0000E+00  0.1000E+01  0.1000E+01
     -6.319  0.0000E+00  0.0000E+00  0.1000E+01  0.1000E+01
     -6.281  0.0000E+00  0.0000E+00  0.1000E+01  0.1000E+01
     -6.242  0.0000E+00  0.0000E+00  0.1000E+01  0.1000E+01
     -6.204  0.0000E+00  0.0000E+00  0.1000E+01  0.1000E+01
     -6.165  0.0000E+00  0.0000E+00  0.1000E+01  0.1000E+01
     -6.127  0.0000E+00  0.0000E+00  0.1000E+01  0.1000E+01
     -6.088  0.0000E+00  0.0000E+00  0.1000E+01  0.1000E+01
     -6.050  0.0000E+00  0.0000E+00  0.1000E+01  0.1000E+01
     -6.011  0.0000E+00  0.0000E+00  0.1000E+01  0.1000E+01
     -5.973  0.0000E+00  0.0000E+00  0.1000E+01  0.1000E+01
     -5.935  0.0000E+00  0.0000E+00  0.1000E+01  0.1000E+01
     -5.896  0.0000E+00  0.0000E+00  0.1000E+01  0.1000E+01
     -5.858  0.0000E+00  0.0000E+00  0.1000E+01  0.1000E+01
     -5.819  0.0000E+00  0.0000E+00  0.1000E+01  0.1000E+01
     -5.781  0.0000E+00  0.0000E+00  0.1000E+01  0.1000E+01
     -5.742  0.0000E+00  0.0000E+00  0.1000E+01  0.1000E+01
     -5.704  0.0000E+00  0.0000E+00  0.1000E+01  0.1000E+01
     -5.665  0.0000E+00  0.0000E+00  0.1000E+01  0.1000E+01
     -5.627  0.0000E+00  0.0000E+00  0.1000E+01  0.1000E+01
     -5.588  0.0000E+00  0.0000E+00  0.1000E+01  0.1000E+01
     -5.550  0.0000E+00  0.0000E+00  0.1000E+01  0.1000E+01
     -5.511  0.0000E+00  0.0000E+00  0.1000E+01  0.1000E+01
     -5.473  0.0000E+00  0.0000E+00  0.1000E+01  0.1000E+01
     -5.434  0.0000E+00  0.0000E+00  0.1000E+01  0.1000E+01
     -5.396  0.0000E+00  0.0000E+00  0.1000E+01  0.1000E+01
     -5.357  0.0000E+00  0.0000E+00  0.1000E+01  0.1000E+01
     -5.319  0.0000E+00  0.0000E+00  0.1000E+01  0.1000E+01
     -5.280  0.0000E+00  0.0000E+00  0.1000E+01  0.1000E+01
     -5.242  0.0000E+00  0.0000E+00  0.1000E+01  0.1000E+01
     -5.203  0.0000E+00  0.0000E+00  0.1000E+01  0.1000E+01
     -5.165  0.0000E+00  0.0000E+00  0.1000E+01  0.1000E+01
     -5.126  0.0000E+00  0.0000E+00  0.1000E+01  0.1000E+01
     -5.088  0.0000E+00  0.0000E+00  0.1000E+01  0.1000E+01
     -5.049  0.0000E+00  0.0000E+00  0.1000E+01  0.1000E+01
     -5.011  0.0000E+00  0.0000E+00  0.1000E+01  0.1000E+01
     -4.972  0.0000E+00  0.0000E+00  0.1000E+01  0.1000E+01
     -4.934  0.0000E+00  0.0000E+00  0.1000E+01  0.1000E+01
     -4.895  0.0000E+00  0.0000E+00  0.1000E+01  0.1000E+01
     -4.857  0.0000E+00  0.0000E+00  0.1000E+01  0.1000E+01
     -4.818  0.0000E+00  0.0000E+00  0.1000E+01  0.1000E+01
     -4.780  0.0000E+00  0.0000E+00  0.1000E+01  0.1000E+01
     -4.741  0.0000E+00  0.0000E+00  0.1000E+01  0.1000E+01
     -4.703  0.0000E+00  0.0000E+00  0.1000E+01  0.1000E+01
     -4.664  0.0000E+00  0.0000E+00  0.1000E+01  0.1000E+01
     -4.626  0.0000E+00  0.0000E+00  0.1000E+01  0.1000E+01
     -4.587  0.0000E+00  0.0000E+00  0.1000E+01  0.1000E+01
     -4.549  0.0000E+00  0.0000E+00  0.1000E+01  0.1000E+01
     -4.510  0.0000E+00  0.0000E+00  0.1000E+01  0.1000E+01
     -4.472  0.0000E+00  0.0000E+00  0.1000E+01  0.1000E+01
     -4.433  0.0000E+00  0.0000E+00  0.1000E+01  0.1000E+01
     -4.395  0.0000E+00  0.0000E+00  0.1000E+01  0.1000E+01
     -4.356  0.0000E+00  0.0000E+00  0.1000E+01  0.1000E+01
     -4.318  0.0000E+00  0.0000E+00  0.1000E+01  0.1000E+01
     -4.279  0.4327E-14  0.0000E+00  0.1000E+01  0.1000E+01
     -4.241  0.1835E-10  0.0000E+00  0.1000E+01  0.1000E+01
     -4.203  0.3119E-07  0.0000E+00  0.1000E+01  0.1000E+01
     -4.164  0.1664E-04  0.0000E+00  0.1000E+01  0.1000E+01
     -4.126  0.2814E-02  0.0000E+00  0.1000E+01  0.1000E+01
     -4.087  0.1527E+00  0.0000E+00  0.1006E+01  0.1000E+01
     -4.049  0.2706E+01  0.0000E+00  0.1110E+01  0.1000E+01
     -4.010  0.1596E+02  0.0000E+00  0.1724E+01  0.1000E+01
     -3.972  0.3189E+02  0.0000E+00  0.2952E+01  0.1000E+01
     -3.933  0.2177E+02  0.0000E+00  0.3790E+01  0.1000E+01
     -3.895  0.5055E+01  0.0000E+00  0.3984E+01  0.1000E+01
     -3.856  0.3928E+00  0.0000E+00  0.4000E+01  0.1000E+01
     -3.818  0.1002E-01  0.0000E+00  0.4000E+01  0.1000E+01
     -3.779  0.8244E-04  0.0000E+00  0.4000E+01  0.1000E+01
     -3.741  0.2156E-06  0.0000E+00  0.4000E+01  0.1000E+01
     -3.702  0.1774E-09  0.0000E+00  0.4000E+01  0.1000E+01
     -3.664  0.5192E-13  0.0000E+00  0.4000E+01  0.1000E+01
     -3.625  0.0000E+00  0.0000E+00  0.4000E+01  0.1000E+01
     -3.587  0.0000E+00  0.0000E+00  0.4000E+01  0.1000E+01
     -3.548  0.0000E+00  0.0000E+00  0.4000E+01  0.1000E+01
     -3.510  0.0000E+00  0.0000E+00  0.4000E+01  0.1000E+01
     -3.471  0.0000E+00  0.0000E+00  0.4000E+01  0.1000E+01
     -3.433  0.0000E+00  0.0000E+00  0.4000E+01  0.1000E+01
     -3.394  0.0000E+00  0.0000E+00  0.4000E+01  0.1000E+01
     -3.356  0.0000E+00  0.0000E+00  0.4000E+01  0.1000E+01
     -3.317  0.0000E+00  0.0000E+00  0.4000E+01  0.1000E+01
     -3.279  0.0000E+00  0.0000E+00  0.4000E+01  0.1000E+01
     -3.240  0.0000E+00  0.0000E+00  0.4000E+01  0.1000E+01
     -3.202  0.0000E+00  0.8654E-14  0.4000E+01  0.1000E+01
     -3.163  0.0000E+00  0.3814E-10  0.4000E+01  0.1000E+01
     -3.125  0.0000E+00  0.5826E-07  0.4000E+01  0.1000E+01
     -3.086  0.0000E+00  0.2796E-04  0.4000E+01  0.1000E+01
     -3.048  0.0000E+00  0.4256E-02  0.4000E+01  0.1000E+01
     -3.009  0.0000E+00  0.2082E+00  0.4000E+01  0.1008E+01
     -2.971  0.0000E+00  0.3333E+01  0.4000E+01  0.1136E+01
     -2.932  0.0000E+00  0.1779E+02  0.4000E+01  0.1821E+01
     -2.894  0.0000E+00  0.3220E+02  0.4000E+01  0.3061E+01
     -2.855  0.0000E+00  0.1992E+02  0.4000E+01  0.3827E+01
     -2.817  0.0000E+00  0.4186E+01  0.4000E+01  0.3988E+01
     -2.778  0.0000E+00  0.2940E+00  0.4000E+01  0.4000E+01
     -2.740  0.0000E+00  0.6766E-02  0.4000E+01  0.4000E+01
     -2.701  0.0000E+00  0.5013E-04  0.4000E+01  0.4000E+01
     -2.663  0.0000E+00  0.1180E-06  0.4000E+01  0.4000E+01
     -2.624  0.0000E+00  0.8731E-10  0.4000E+01  0.4000E+01
     -2.586  0.0000E+00  0.1731E-13  0.4000E+01  0.4000E+01
     -2.547  0.0000E+00  0.0000E+00  0.4000E+01  0.4000E+01
     -2.509  0.0000E+00  0.0000E+00  0.4000E+01  0.4000E+01
     -2.470  0.0000E+00  0.0000E+00  0.4000E+01  0.4000E+01
     -2.432  0.0000E+00  0.0000E+00  0.4000E+01  0.4000E+01
     -2.394  0.0000E+00  0.0000E+00  0.4000E+01  0.4000E+01
     -2.355  0.0000E+00  0.0000E+00  0.4000E+01  0.4000E+01
     -2.317  0.0000E+00  0.0000E+00  0.4000E+01  0.4000E+01
     -2.278  0.0000E+00  0.0000E+00  0.4000E+01  0.4000E+01
     -2.240  0.0000E+00  0.0000E+00  0.4000E+01  0.4000E+01
     -2.201  0.0000E+00  0.0000E+00  0.4000E+01  0.4000E+01
     -2.163  0.0000E+00  0.0000E+00  0.4000E+01  0.4000E+01
     -2.124  0.0000E+00  0.0000E+00  0.4000E+01  0.4000E+01
     -2.086  0.0000E+00  0.0000E+00  0.4000E+01  0.4000E+01
     -2.047  0.0000E+00  0.0000E+00  0.4000E+01  0.4000E+01
     -2.009  0.0000E+00  0.0000E+00  0.4000E+01  0.4000E+01
     -1.970  0.0000E+00  0.0000E+00  0.4000E+01  0.4000E+01
     -1.932  0.0000E+00  0.0000E+00  0.4000E+01  0.4000E+01
     -1.893  0.0000E+00  0.0000E+00  0.4000E+01  0.4000E+01
     -1.855  0.0000E+00  0.0000E+00  0.4000E+01  0.4000E+01
     -1.816  0.0000E+00  0.0000E+00  0.4000E+01  0.4000E+01
     -1.778  0.0000E+00  0.0000E+00  0.4000E+01  0.4000E+01
     -1.739  0.0000E+00  0.0000E+00  0.4000E+01  0.4000E+01
     -1.701  0.0000E+00  0.0000E+00  0.4000E+01  0.4000E+01
     -1.662  0.0000E+00  0.0000E+00  0.4000E+01  0.4000E+01
     -1.624  0.0000E+00  0.0000E+00  0.4000E+01  0.4000E+01
     -1.585  0.0000E+00  0.0000E+00  0.4000E+01  0.4000E+01
     -1.547  0.0000E+00  0.0000E+00  0.4000E+01  0.4000E+01
     -1.508  0.0000E+00  0.0000E+00  0.4000E+01  0.4000E+01
     -1.470  0.0000E+00  0.0000E+00  0.4000E+01  0.4000E+01
     -1.431  0.0000E+00  0.0000E+00  0.4000E+01  0.4000E+01
     -1.393  0.0000E+00  0.0000E+00  0.4000E+01  0.4000E+01
     -1.354  0.0000E+00  0.0000E+00  0.4000E+01  0.4000E+01
     -1.316  0.0000E+00  0.0000E+00  0.4000E+01  0.4000E+01
     -1.277  0.0000E+00  0.0000E+00  0.4000E+01  0.4000E+01
     -1.239  0.0000E+00  0.0000E+00  0.4000E+01  0.4000E+01
     -1.200  0.0000E+00  0.0000E+00  0.4000E+01  0.4000E+01
     -1.162  0.0000E+00  0.0000E+00  0.4000E+01  0.4000E+01
     -1.123  0.0000E+00  0.0000E+00  0.4000E+01  0.4000E+01
     -1.085  0.0000E+00  0.0000E+00  0.4000E+01  0.4000E+01
     -1.046  0.0000E+00  0.0000E+00  0.4000E+01  0.4000E+01
     -1.008  0.0000E+00  0.0000E+00  0.4000E+01  0.4000E+01
     -0.969  0.0000E+00  0.0000E+00  0.4000E+01  0.4000E+01
     -0.931  0.0000E+00  0.0000E+00  0.4000E+01  0.4000E+01
     -0.892  0.0000E+00  0.0000E+00  0.4000E+01  0.4000E+01
     -0.854  0.0000E+00  0.0000E+00  0.4000E+01  0.4000E+01
     -0.815  0.0000E+00  0.0000E+00  0.4000E+01  0.4000E+01
     -0.777  0.0000E+00  0.0000E+00  0.4000E+01  0.4000E+01
     -0.738  0.0000E+00  0.0000E+00  0.4000E+01  0.4000E+01
     -0.700  0.0000E+00  0.0000E+00  0.4000E+01  0.4000E+01
     -0.662  0.0000E+00  0.0000E+00  0.4000E+01  0.4000E+01
     -0.623  0.2885E-14  0.0000E+00  0.4000E+01  0.4000E+01
     -0.585  0.1426E-10  0.0000E+00  0.4000E+01  0.4000E+01
     -0.546  0.2142E-07  0.0000E+00  0.4000E+01  0.4000E+01
     -0.508  0.1011E-04  0.0000E+00  0.4000E+01  0.4000E+01
     -0.469  0.1513E-02  0.0000E+00  0.4000E+01  0.4000E+01
     -0.431  0.7285E-01  0.0000E+00  0.4003E+01  0.4000E+01
     -0.392  0.1147E+01  0.0000E+00  0.4047E+01  0.4000E+01
     -0.354  0.6027E+01  0.1154E-13  0.4279E+01  0.4000E+01
     -0.315  0.1074E+02  0.4687E-10  0.4692E+01  0.4000E+01
     -0.277  0.6542E+01  0.5898E-07  0.4944E+01  0.4000E+01
     -0.238  0.1353E+01  0.2335E-04  0.4996E+01  0.4000E+01
     -0.200  0.9349E-01  0.2938E-02  0.5000E+01  0.4000E+01
     -0.161  0.2116E-02  0.1191E+00  0.5000E+01  0.4005E+01
     -0.123  0.1542E-04  0.1585E+01  0.5000E+01  0.4066E+01
     -0.084  0.3567E-07  0.7056E+01  0.5000E+01  0.4337E+01
     -0.046  0.2595E-10  0.1068E+02  0.5000E+01  0.4748E+01
     -0.007  0.7211E-13  0.5519E+01  0.5000E+01  0.4961E+01
      0.031  0.2200E-09  0.9669E+00  0.5000E+01  0.4998E+01
      0.070  0.2323E-06  0.5643E-01  0.5000E+01  0.5000E+01
      0.108  0.7821E-04  0.1076E-02  0.5000E+01  0.5000E+01
      0.147  0.8502E-02  0.6586E-05  0.5000E+01  0.5000E+01
      0.185  0.3035E+00  0.1259E-06  0.5012E+01  0.5000E+01
      0.224  0.3627E+01  0.3991E-04  0.5152E+01  0.5000E+01
      0.262  0.1481E+02  0.4481E-02  0.5722E+01  0.5000E+01
      0.301  0.2100E+02  0.1627E+00  0.6530E+01  0.5006E+01
      0.339  0.1076E+02  0.1957E+01  0.6944E+01  0.5082E+01
      0.378  0.5118E+01  0.8255E+01  0.7141E+01  0.5400E+01
      0.416  0.9639E+01  0.1448E+02  0.7512E+01  0.5957E+01
      0.455  0.9262E+01  0.1490E+02  0.7868E+01  0.6530E+01
      0.493  0.3067E+01  0.9387E+01  0.7986E+01  0.6892E+01
      0.532  0.3420E+00  0.2690E+01  0.8000E+01  0.6995E+01
      0.570  0.1260E-01  0.1906E+01  0.8000E+01  0.7069E+01
      0.609  0.1505E-03  0.7212E+01  0.8000E+01  0.7346E+01
      0.647  0.5740E-06  0.1064E+02  0.8000E+01  0.7756E+01
      0.686  0.6910E-09  0.5373E+01  0.8000E+01  0.7963E+01
      0.724  0.2596E-12  0.9190E+00  0.8000E+01  0.7998E+01
      0.763  0.0000E+00  0.5234E-01  0.8000E+01  0.8000E+01
      0.801  0.0000E+00  0.9733E-03  0.8000E+01  0.8000E+01
      0.840  0.0000E+00  0.5810E-05  0.8000E+01  0.8000E+01
      0.878  0.0000E+00  0.1099E-07  0.8000E+01  0.8000E+01
      0.917  0.0000E+00  0.6531E-11  0.8000E+01  0.8000E+01
      0.955  0.0000E+00  0.0000E+00  0.8000E+01  0.8000E+01
      0.994  0.0000E+00  0.0000E+00  0.8000E+01  0.8000E+01
      1.032  0.0000E+00  0.0000E+00  0.8000E+01  0.8000E+01
      1.070  0.0000E+00  0.0000E+00  0.8000E+01  0.8000E+01
      1.109  0.0000E+00  0.0000E+00  0.8000E+01  0.8000E+01
      1.147  0.0000E+00  0.0000E+00  0.8000E+01  0.8000E+01
