    1    1    1    2
  0.3375000E+04  0.1500000E-08  0.1250000E-08  0.1800000E-08  0.5000000E-15
  1.000000000000000E-004
  CAR 
 Cohesive                                
      3      1      8
 
  0.1276756E-14  0.1276756E-14  0.1276756E-14  0.1000000E+01
      1         -9.874393       -8.672902   1.000000   1.000000
      2         -3.985259       -2.911240   0.333401   0.000000
      3         -3.985250       -2.911210   0.333305   0.000000
      4         -3.985248       -2.910820   0.333294   0.000000
      5         -0.332884       -0.069328   0.000000   0.000000
      6          0.269884        0.388685   0.000000   0.000000
      7          0.280028        0.449222   0.000000   0.000000
      8          0.415129        0.622626   0.000000   0.000000
