<?xml version="1.0" encoding="ISO-8859-1"?>
<modeling>
 <generator>
  <i name="program" type="string">vasp </i>
  <i name="version" type="string">6.5.0  </i>
  <i name="subversion" type="string">16Dec24 (build Jan 08 2025 16:17:04) complex                          parallel </i>
  <i name="platform" type="string">LinuxIFC </i>
  <i name="date" type="string">2025 02 24 </i>
  <i name="time" type="string">17:03:48 </i>
 </generator>
 <incar>
  <i type="string" name="SYSTEM">Cohesive</i>
  <i type="int" name="ISTART">     0</i>
  <i type="string" name="PREC">Accurate</i>
  <i type="string" name="ALGO">Normal</i>
  <i type="int" name="ISPIN">     2</i>
  <i type="int" name="ICHARG">     2</i>
  <i type="int" name="NELM">   200</i>
  <i type="int" name="IBRION">    -1</i>
  <i name="EDIFF">      0.00000100</i>
  <i name="EDIFFG">     -0.00100000</i>
  <i type="int" name="NSW">     0</i>
  <i type="int" name="ISIF">     2</i>
  <i name="ENCUT">    600.00000000</i>
  <i name="POTIM">      0.50000000</i>
  <i type="int" name="ISMEAR">     0</i>
  <i name="SIGMA">      0.05000000</i>
  <i type="logical" name="LWAVE"> F  </i>
  <i type="logical" name="LCHARG"> F  </i>
  <i type="string" name="GGA">PE</i>
 </incar>
 <primitive_cell>
  <structure name="primitive_cell" >
   <crystal>
    <varray name="basis" >
     <v>      15.00000000       0.00000000       0.00000000 </v>
     <v>       0.00000000      12.50000000       0.00000000 </v>
     <v>       0.00000000       0.00000000      18.00000000 </v>
    </varray>
    <i name="volume">   3375.00000000 </i>
    <varray name="rec_basis" >
     <v>       0.06666667       0.00000000       0.00000000 </v>
     <v>       0.00000000       0.08000000       0.00000000 </v>
     <v>       0.00000000       0.00000000       0.05555556 </v>
    </varray>
   </crystal>
   <varray name="positions" >
    <v>       0.52123000       0.54500000       0.63796000 </v>
   </varray>
  </structure>
  <varray name="primitive_index" >
   <v type="int" >        1 </v>
  </varray>
 </primitive_cell>
 <kpoints>
  <generation param="Gamma">
   <v type="int" name="divisions">       1        1        1 </v>
   <v name="usershift">      0.00000000       0.00000000       0.00000000 </v>
   <v name="genvec1">      1.00000000       0.00000000       0.00000000 </v>
   <v name="genvec2">      0.00000000       1.00000000       0.00000000 </v>
   <v name="genvec3">      0.00000000       0.00000000       1.00000000 </v>
   <v name="shift">      0.00000000       0.00000000       0.00000000 </v>
  </generation>
  <varray name="kpointlist" >
   <v>       0.00000000       0.00000000       0.00000000 </v>
  </varray>
  <varray name="weights" >
   <v>       1.00000000 </v>
  </varray>
 </kpoints>
 <parameters>
  <separator name="general" >
   <i type="string" name="SYSTEM">Cohesive</i>
   <i type="logical" name="LCOMPAT"> F  </i>
  </separator>
  <separator name="electronic" >
   <i type="string" name="PREC">accura</i>
   <i name="ENMAX">    600.00000000</i>
   <i name="ENAUG">    535.51400000</i>
   <i name="EDIFF">      0.00000100</i>
   <i type="int" name="IALGO">    38</i>
   <i type="int" name="IWAVPR">    10</i>
   <i type="int" name="NBANDS">     8</i>
   <i type="int" name="NBANDSLOW">    -1</i>
   <i type="int" name="NBANDSHIGH">    -1</i>
   <i name="NELECT">      3.00000000</i>
   <i type="int" name="TURBO">     0</i>
   <i type="int" name="IRESTART">     0</i>
   <i type="int" name="NREBOOT">     0</i>
   <i type="int" name="NMIN">     0</i>
   <i name="EREF">      0.00000000</i>
   <separator name="electronic smearing" >
    <i type="int" name="ISMEAR">     0</i>
    <i name="SIGMA">      0.05000000</i>
    <i name="KSPACING">      0.50000000</i>
    <i type="logical" name="KGAMMA"> T  </i>
    <i type="logical" name="KBLOWUP"> T  </i>
   </separator>
   <separator name="electronic projectors" >
    <i type="logical" name="LREAL"> F  </i>
    <v name="ROPT">      0.00000000</v>
    <i type="int" name="LMAXPAW">  -100</i>
    <i type="int" name="LMAXMIX">     2</i>
    <i type="logical" name="NLSPLINE"> F  </i>
   </separator>
   <separator name="electronic startup" >
    <i type="int" name="ISTART">     0</i>
    <i type="int" name="ICHARG">     2</i>
    <i type="int" name="INIWAV">     1</i>
   </separator>
   <separator name="electronic spin" >
    <i type="int" name="ISPIN">     2</i>
    <i type="logical" name="LNONCOLLINEAR"> F  </i>
    <v name="MAGMOM">      1.00000000</v>
    <i name="NUPDOWN">     -1.00000000</i>
    <i type="logical" name="LSORBIT"> F  </i>
    <v name="SAXIS">      0.00000000      0.00000000      1.00000000</v>
    <i type="logical" name="LSPIRAL"> F  </i>
    <v name="QSPIRAL">      0.00000000      0.00000000      0.00000000</v>
    <i type="logical" name="LZEROZ"> F  </i>
   </separator>
   <separator name="electronic exchange-correlation" >
    <i type="logical" name="LASPH"> F  </i>
   </separator>
   <separator name="electronic convergence" >
    <i type="int" name="NELM">   200</i>
    <i type="int" name="NELMDL">    -5</i>
    <i type="int" name="NELMIN">     2</i>
    <i name="ENINI">    600.00000000</i>
    <separator name="electronic convergence detail" >
     <i type="logical" name="LDIAG"> T  </i>
     <i type="logical" name="LSUBROT"> F  </i>
     <i name="WEIMIN">      0.00000000</i>
     <i name="EBREAK">      0.00000003</i>
     <i name="DEPER">      0.30000000</i>
     <i type="int" name="NRMM">     4</i>
     <i name="TIME">      0.40000000</i>
    </separator>
   </separator>
   <separator name="electronic mixer" >
    <i name="AMIX">      0.40000000</i>
    <i name="BMIX">      1.00000000</i>
    <i name="AMIN">      0.10000000</i>
    <i name="AMIX_MAG">      1.60000000</i>
    <i name="BMIX_MAG">      1.00000000</i>
    <separator name="electronic mixer details" >
     <i type="int" name="IMIX">     4</i>
     <i type="logical" name="MIXFIRST"> F  </i>
     <i type="int" name="MAXMIX">   -45</i>
     <i name="WC">    100.00000000</i>
     <i type="int" name="INIMIX">     1</i>
     <i type="int" name="MIXPRE">     1</i>
     <i type="int" name="MREMOVE">     5</i>
    </separator>
   </separator>
   <separator name="electronic dipolcorrection" >
    <i type="logical" name="LDIPOL"> F  </i>
    <i type="logical" name="LMONO"> F  </i>
    <i type="int" name="IDIPOL">     0</i>
    <i name="EPSILON">      1.00000000</i>
    <v name="DIPOL">   -100.00000000   -100.00000000   -100.00000000</v>
    <i name="EFIELD">      0.00000000</i>
    <i type="logical" name="LVACPOTAV"> F  </i>
   </separator>
  </separator>
  <separator name="grids" >
   <i type="int" name="NGX">   120</i>
   <i type="int" name="NGY">   100</i>
   <i type="int" name="NGZ">   144</i>
   <i type="int" name="NGXF">   240</i>
   <i type="int" name="NGYF">   200</i>
   <i type="int" name="NGZF">   288</i>
   <i type="logical" name="ADDGRID"> F  </i>
  </separator>
  <separator name="ionic" >
   <i type="int" name="NSW">     0</i>
   <i type="int" name="IBRION">    -1</i>
   <i type="int" name="MDALGO">     0</i>
   <i type="int" name="ISIF">     2</i>
   <i name="PSTRESS">      0.00000000</i>
   <i name="EDIFFG">     -0.00100000</i>
   <i type="int" name="NFREE">     0</i>
   <i name="POTIM">      0.50000000</i>
   <i name="SMASS">     -3.00000000</i>
   <i name="SCALEE">      1.00000000</i>
  </separator>
  <separator name="ionic md" >
   <i name="TEBEG">      0.00010000</i>
   <i name="TEEND">      0.00010000</i>
   <i type="int" name="NBLOCK">     1</i>
   <i type="int" name="KBLOCK">     1</i>
   <i type="int" name="NPACO">   256</i>
   <i name="APACO">     10.00000000</i>
  </separator>
  <separator name="symmetry" >
   <i type="int" name="ISYM">     2</i>
   <i name="SYMPREC">      0.00001000</i>
  </separator>
  <separator name="dos" >
   <i type="int" name="LORBIT">     0</i>
   <v name="RWIGS">     -1.00000000</v>
   <i type="int" name="NEDOS">   301</i>
   <i name="EMIN">     10.00000000</i>
   <i name="EMAX">    -10.00000000</i>
   <i name="EFERMI">      0.00000000</i>
  </separator>
  <separator name="writing" >
   <i type="int" name="NWRITE">     2</i>
   <i type="logical" name="LWAVE"> F  </i>
   <i type="logical" name="LDOWNSAMPLE"> F  </i>
   <i type="logical" name="LCHARG"> F  </i>
   <i type="logical" name="LPARD"> F  </i>
   <i type="logical" name="LVTOT"> F  </i>
   <i type="logical" name="LVHAR"> F  </i>
   <i type="logical" name="LELF"> F  </i>
   <i type="logical" name="LOPTICS"> F  </i>
   <v name="STM">      0.00000000      0.00000000      0.00000000      0.00000000      0.00000000      0.00000000      0.00000000</v>
  </separator>
  <separator name="performance" >
   <i type="int" name="NPAR">     8</i>
   <i type="int" name="NSIM">     4</i>
   <i type="int" name="NBLK">    -1</i>
   <i type="logical" name="LPLANE"> T  </i>
   <i type="logical" name="LSCALAPACK"> T  </i>
   <i type="logical" name="LSCAAWARE"> F  </i>
   <i type="logical" name="LSCALU"> F  </i>
   <i type="logical" name="LASYNC"> F  </i>
   <i type="logical" name="LORBITALREAL"> F  </i>
  </separator>
  <separator name="miscellaneous" >
   <i type="int" name="IDIOT">     3</i>
   <i type="int" name="PHON_NSTRUCT">    -1</i>
   <i type="logical" name="LMUSIC"> F  </i>
   <v name="POMASS">     10.81100000</v>
   <v name="DARWINR">      0.00000000</v>
   <v name="DARWINV">      1.00000000</v>
   <i type="logical" name="LCORR"> T  </i>
  </separator>
  <i type="logical" name="GGA_COMPAT"> T  </i>
  <i type="logical" name="LBERRY"> F  </i>
  <i type="int" name="ICORELEVEL">     0</i>
  <i type="logical" name="LDAU"> F  </i>
  <i type="int" name="I_CONSTRAINED_M">     0</i>
  <separator name="electronic exchange-correlation" >
   <i type="string" name="GGA    ">PE</i>
   <i type="string" name="XC_C">1</i>
   <i type="int" name="VOSKOWN">     0</i>
   <i type="logical" name="LHFCALC"> F  </i>
   <i type="string" name="PRECFOCK"></i>
   <i type="logical" name="LSYMGRAD"> F  </i>
   <i type="logical" name="LHFONE"> F  </i>
   <i type="logical" name="LRHFCALC"> F  </i>
   <i type="logical" name="LTHOMAS"> F  </i>
   <i type="logical" name="LMODELHF"> F  </i>
   <i type="logical" name="LFOCKACE"> F  </i>
   <i name="ENCUT4O">     -1.00000000</i>
   <i type="int" name="EXXOEP">     0</i>
   <i type="int" name="FOURORBIT">     0</i>
   <i name="AEXX">      0.00000000</i>
   <i name="HFALPHA">      0.00000000</i>
   <i name="MCALPHA">      0.00000000</i>
   <i name="ALDAX">      1.00000000</i>
   <i name="AGGAX">      1.00000000</i>
   <i name="AMGGAX">      1.00000000</i>
   <i name="ALDAC">      1.00000000</i>
   <i name="AGGAC">      1.00000000</i>
   <i name="AMGGAC">      1.00000000</i>
   <i type="int" name="NKREDX">     1</i>
   <i type="int" name="NKREDY">     1</i>
   <i type="int" name="NKREDZ">     1</i>
   <i type="logical" name="SHIFTRED"> F  </i>
   <i type="logical" name="ODDONLY"> F  </i>
   <i type="logical" name="EVENONLY"> F  </i>
   <i type="int" name="LMAXFOCK">     0</i>
   <i type="int" name="NMAXFOCKAE">     0</i>
   <i type="logical" name="LFOCKAEDFT"> F  </i>
   <i name="HFSCREEN">      0.00000000</i>
   <i name="HFSCREENC">      0.00000000</i>
   <i type="int" name="NBANDSGWLOW">     0</i>
  </separator>
  <separator name="vdW DFT" >
   <i type="logical" name="LUSE_VDW"> F  </i>
   <i type="int" name="IVDW_NL">    -1</i>
   <i type="logical" name="LSPIN_VDW"> F  </i>
   <i name="ZAB_VDW">     -0.84910000</i>
   <i name="GAMMA_VDW">      1.39626340</i>
   <i name="ALPHA_VDW">      0.00000000</i>
   <i name="PARAM1">      0.12340000</i>
   <i name="PARAM2">      1.00000000</i>
   <i name="BPARAM">      6.30000000</i>
   <i name="CPARAM">      0.00930000</i>
  </separator>
  <separator name="model GW" >
   <i type="int" name="MODEL_GW">     0</i>
   <i name="MODEL_EPS0">   2025.00000000</i>
   <i name="MODEL_ALPHA">      1.00000000</i>
  </separator>
  <separator name="linear response parameters" >
   <i type="logical" name="LEPSILON"> F  </i>
   <i type="logical" name="LRPA"> F  </i>
   <i type="logical" name="LNABLA"> F  </i>
   <i type="logical" name="LVEL"> F  </i>
   <i name="CSHIFT">      0.10000000</i>
   <i name="OMEGAMAX">     -1.00000000</i>
   <i name="DEG_THRESHOLD">      0.00200000</i>
   <i name="RTIME">     -0.10000000</i>
   <i name="WPLASMAI">      0.00000000</i>
   <v name="DFIELD">      0.00000000      0.00000000      0.00000000</v>
   <v name="WPLASMA">      0.00000000      0.00000000      0.00000000      0.00000000      0.00000000      0.00000000      0.00000000      0.00000000      0.00000000</v>
  </separator>
  <separator name="orbital magnetization" >
   <i type="logical" name="NUCIND"> F  </i>
   <v name="MAGPOS">      0.00000000      0.00000000      0.00000000</v>
   <i type="logical" name="LNICSALL"> T  </i>
   <i type="logical" name="ORBITALMAG"> F  </i>
   <i type="logical" name="LMAGBLOCH"> F  </i>
   <i type="logical" name="LCHIMAG"> F  </i>
   <i type="logical" name="LGAUGE"> T  </i>
   <i type="int" name="MAGATOM">     0</i>
   <v name="MAGDIPOL">      0.00000000      0.00000000      0.00000000</v>
   <v name="AVECCONST">      0.00000000      0.00000000      0.00000000</v>
  </separator>
  <separator name="response functions" >
   <i type="logical" name="LALL_IN_ONE"> F  </i>
   <i type="int" name="IALL_IN_ONE">    -1</i>
   <i type="int" name="NBANDS_WAVE">    -1</i>
   <i type="logical" name="LFINITE_TEMPERATURE"> F  </i>
   <i type="logical" name="LADDER"> F  </i>
   <i type="logical" name="LRPAFORCE"> F  </i>
   <i type="logical" name="LFXC"> F  </i>
   <i type="logical" name="LHARTREE"> T  </i>
   <i type="int" name="IBSE">     2</i>
   <v type="int" name="KPOINT">    -1     0     0     0</v>
   <i type="logical" name="LTCTC"> F  </i>
   <i type="logical" name="LTCTE"> F  </i>
   <i type="logical" name="LTETE"> F  </i>
   <i type="logical" name="LTRIPLET"> F  </i>
   <i type="logical" name="LFXCEPS"> F  </i>
   <i type="logical" name="LFXHEG"> F  </i>
   <i type="int" name="NATURALO">     2</i>
   <i type="logical" name="LHOLEGF"> F  </i>
   <i type="logical" name="L2ORDER"> F  </i>
   <i type="logical" name="LDMP1"> F  </i>
   <i type="logical" name="LMP2LT"> F  </i>
   <i type="logical" name="LSMP2LT"> F  </i>
   <i type="logical" name="LGWLF"> F  </i>
   <i name="ENCUTGW">     -1.60000002</i>
   <i name="ENCUTGWSOFT">     -1.60000002</i>
   <i name="ENCUTLF">     -1.00000000</i>
   <i type="logical" name="ESF_SPLINES"> F  </i>
   <i name="ESF_CONV">      0.01000000</i>
   <i type="int" name="ESF_NINTER">    15</i>
   <i type="int" name="LMAXMP2">    -1</i>
   <i name="SCISSOR">      0.00000000</i>
   <i type="int" name="NOMEGA">     0</i>
   <i type="int" name="NOMEGAR">     0</i>
   <i type="int" name="NBANDSGW">    -1</i>
   <i type="int" name="NBANDSO">    -1</i>
   <i type="int" name="NBANDSV">    -1</i>
   <i type="int" name="NELMGW">     1</i>
   <i type="int" name="NELMHF">     1</i>
   <i type="int" name="DIM">     3</i>
   <i type="int" name="IESPILON">     4</i>
   <i type="int" name="ANTIRES">     0</i>
   <i name="OMEGAMAX">    -30.00000000</i>
   <i name="OMEGAMIN">    -30.00000000</i>
   <i name="OMEGATL">   -200.00000000</i>
   <i type="int" name="OMEGAGRID">     0</i>
   <i name="CSHIFT">     -0.10000000</i>
   <i type="logical" name="LSELFENERGY"> F  </i>
   <i type="logical" name="LSPECTRAL"> F  </i>
   <i type="logical" name="LSPECTRALGW"> F  </i>
   <i type="logical" name="LSINGLES"> F  </i>
   <i type="logical" name="LFERMIGW"> F  </i>
   <i type="logical" name="ODDONLYGW"> F  </i>
   <i type="logical" name="EVENONLYGW"> F  </i>
   <i type="int" name="NKREDLFX">     1</i>
   <i type="int" name="NKREDLFY">     1</i>
   <i type="int" name="NKREDLFZ">     1</i>
   <i type="int" name="MAXMEM">  2800</i>
   <i type="int" name="TELESCOPE">     0</i>
   <i type="int" name="NTAUPAR">    -1</i>
   <i type="int" name="NOMEGAPAR">    -1</i>
   <i name="DAMP_NEWTON">      0.80000001</i>
   <i name="LAMBDA">      1.00000000</i>
  </separator>
  <separator name="External order field" >
   <i name="OFIELD_KAPPA">      0.00000000</i>
   <v name="OFIELD_K">      0.00000000      0.00000000      0.00000000</v>
   <i name="OFIELD_Q6_NEAR">      0.00000000</i>
   <i name="OFIELD_Q6_FAR">      0.00000000</i>
   <i name="OFIELD_A">      0.00000000</i>
  </separator>
  <separator name="optional k-points parameters" >
   <i type="int" name="KPOINTS_OPT_MODE">     1</i>
   <i type="logical" name="LKPOINTS_OPT"> F  </i>
  </separator>
 </parameters>
 <atominfo>
  <atoms>       1 </atoms>
  <types>       1 </types>
  <array name="atoms" >
   <dimension dim="1">ion</dimension>
   <field type="string">element</field>
   <field type="int">atomtype</field>
   <set>
    <rc><c>B </c><c>   1</c></rc>
   </set>
  </array>
  <array name="atomtypes" >
   <dimension dim="1">type</dimension>
   <field type="int">atomspertype</field>
   <field type="string">element</field>
   <field>mass</field>
   <field>valence</field>
   <field type="string">pseudopotential</field>
   <set>
    <rc><c>   1</c><c>B </c><c>     10.81100000</c><c>      3.00000000</c><c>  PAW_PBE B 06Sep2000                   </c></rc>
   </set>
  </array>
 </atominfo>
 <structure name="initialpos" >
  <crystal>
   <varray name="basis" >
    <v>      15.00000000       0.00000000       0.00000000 </v>
    <v>       0.00000000      12.50000000       0.00000000 </v>
    <v>       0.00000000       0.00000000      18.00000000 </v>
   </varray>
   <i name="volume">   3375.00000000 </i>
   <varray name="rec_basis" >
    <v>       0.06666667       0.00000000       0.00000000 </v>
    <v>       0.00000000       0.08000000       0.00000000 </v>
    <v>       0.00000000       0.00000000       0.05555556 </v>
   </varray>
  </crystal>
  <varray name="positions" >
   <v>       0.52123000       0.54500000       0.63796000 </v>
  </varray>
 </structure>
 <calculation>
  <scstep>
   <time name="dav">    0.31    0.32</time>
   <time name="total">    1.42    1.43</time>
   <energy>
    <i name="alphaZ">      0.02038373 </i>
    <i name="ewald">    -11.82901664 </i>
    <i name="hartreedc">    -42.58396533 </i>
    <i name="XCdc">      4.86262386 </i>
    <i name="pawpsdc">     43.38691472 </i>
    <i name="pawaedc">    -42.50579014 </i>
    <i name="eentropy">     -0.01319177 </i>
    <i name="bandstr">    -14.96632889 </i>
    <i name="atom">     71.16960075 </i>
    <i name="e_fr_energy">      7.54123030 </i>
    <i name="e_wo_entrp">      7.55442206 </i>
    <i name="e_0_energy">      7.54782618 </i>
   </energy>
  </scstep>
  <scstep>
   <time name="dav">    0.35    0.36</time>
   <time name="total">    0.36    0.36</time>
   <energy>
    <i name="e_fr_energy">      0.76195000 </i>
    <i name="e_wo_entrp">      0.76195007 </i>
    <i name="e_0_energy">      0.76195004 </i>
   </energy>
  </scstep>
  <scstep>
   <time name="dav">    0.35    0.36</time>
   <time name="total">    0.36    0.36</time>
   <energy>
    <i name="e_fr_energy">     -0.26111784 </i>
    <i name="e_wo_entrp">     -0.23456537 </i>
    <i name="e_0_energy">     -0.24784161 </i>
   </energy>
  </scstep>
  <scstep>
   <time name="dav">    0.27    0.27</time>
   <time name="total">    0.27    0.27</time>
   <energy>
    <i name="e_fr_energy">     -0.29877514 </i>
    <i name="e_wo_entrp">     -0.26022214 </i>
    <i name="e_0_energy">     -0.27949864 </i>
   </energy>
  </scstep>
  <scstep>
   <time name="dav">    0.35    0.36</time>
   <time name="total">    0.62    0.63</time>
   <energy>
    <i name="e_fr_energy">     -0.29998576 </i>
    <i name="e_wo_entrp">     -0.26142023 </i>
    <i name="e_0_energy">     -0.28070300 </i>
   </energy>
  </scstep>
  <scstep>
   <time name="dav">    0.31    0.31</time>
   <time name="total">    1.67    1.68</time>
   <energy>
    <i name="e_fr_energy">     -0.30665789 </i>
    <i name="e_wo_entrp">     -0.26810063 </i>
    <i name="e_0_energy">     -0.28737926 </i>
   </energy>
  </scstep>
  <scstep>
   <time name="dav">    0.35    0.36</time>
   <time name="total">    1.72    1.73</time>
   <energy>
    <i name="e_fr_energy">     -0.30981116 </i>
    <i name="e_wo_entrp">     -0.27174038 </i>
    <i name="e_0_energy">     -0.29077577 </i>
   </energy>
  </scstep>
  <scstep>
   <time name="dav">    0.27    0.27</time>
   <time name="total">    1.63    1.64</time>
   <energy>
    <i name="e_fr_energy">     -0.30945120 </i>
    <i name="e_wo_entrp">     -0.27108099 </i>
    <i name="e_0_energy">     -0.29026610 </i>
   </energy>
  </scstep>
  <scstep>
   <time name="dav">    0.27    0.27</time>
   <time name="total">    1.63    1.63</time>
   <energy>
    <i name="e_fr_energy">     -0.30965438 </i>
    <i name="e_wo_entrp">     -0.27108909 </i>
    <i name="e_0_energy">     -0.29037173 </i>
   </energy>
  </scstep>
  <scstep>
   <time name="dav">    0.31    0.31</time>
   <time name="total">    1.68    1.69</time>
   <energy>
    <i name="e_fr_energy">     -0.30990665 </i>
    <i name="e_wo_entrp">     -0.27137478 </i>
    <i name="e_0_energy">     -0.29064071 </i>
   </energy>
  </scstep>
  <scstep>
   <time name="dav">    0.44    0.45</time>
   <time name="total">    1.81    1.82</time>
   <energy>
    <i name="e_fr_energy">     -0.30983644 </i>
    <i name="e_wo_entrp">     -0.27127163 </i>
    <i name="e_0_energy">     -0.29055404 </i>
   </energy>
  </scstep>
  <scstep>
   <time name="dav">    0.31    0.31</time>
   <time name="total">    1.68    1.68</time>
   <energy>
    <i name="e_fr_energy">     -0.31006235 </i>
    <i name="e_wo_entrp">     -0.27149682 </i>
    <i name="e_0_energy">     -0.29077958 </i>
   </energy>
  </scstep>
  <scstep>
   <time name="dav">    0.27    0.27</time>
   <time name="total">    1.64    1.65</time>
   <energy>
    <i name="e_fr_energy">     -0.31018130 </i>
    <i name="e_wo_entrp">     -0.27161577 </i>
    <i name="e_0_energy">     -0.29089853 </i>
   </energy>
  </scstep>
  <scstep>
   <time name="dav">    0.27    0.27</time>
   <time name="total">    1.65    1.66</time>
   <energy>
    <i name="e_fr_energy">     -0.31024329 </i>
    <i name="e_wo_entrp">     -0.27167771 </i>
    <i name="e_0_energy">     -0.29096050 </i>
   </energy>
  </scstep>
  <scstep>
   <time name="dav">    0.31    0.31</time>
   <time name="total">    1.69    1.70</time>
   <energy>
    <i name="e_fr_energy">     -0.31029888 </i>
    <i name="e_wo_entrp">     -0.27173331 </i>
    <i name="e_0_energy">     -0.29101610 </i>
   </energy>
  </scstep>
  <scstep>
   <time name="dav">    0.31    0.31</time>
   <time name="total">    1.69    1.70</time>
   <energy>
    <i name="e_fr_energy">     -0.31030778 </i>
    <i name="e_wo_entrp">     -0.27174220 </i>
    <i name="e_0_energy">     -0.29102499 </i>
   </energy>
  </scstep>
  <scstep>
   <time name="dav">    0.27    0.27</time>
   <time name="total">    1.66    1.67</time>
   <energy>
    <i name="e_fr_energy">     -0.31031844 </i>
    <i name="e_wo_entrp">     -0.27175287 </i>
    <i name="e_0_energy">     -0.29103565 </i>
   </energy>
  </scstep>
  <scstep>
   <time name="dav">    0.31    0.31</time>
   <time name="total">    1.70    1.71</time>
   <energy>
    <i name="e_fr_energy">     -0.31033765 </i>
    <i name="e_wo_entrp">     -0.27177207 </i>
    <i name="e_0_energy">     -0.29105486 </i>
   </energy>
  </scstep>
  <scstep>
   <time name="dav">    0.27    0.27</time>
   <time name="total">    1.65    1.66</time>
   <energy>
    <i name="e_fr_energy">     -0.31034827 </i>
    <i name="e_wo_entrp">     -0.27178269 </i>
    <i name="e_0_energy">     -0.29106548 </i>
   </energy>
  </scstep>
  <scstep>
   <time name="dav">    0.27    0.27</time>
   <time name="total">    1.65    1.66</time>
   <energy>
    <i name="e_fr_energy">     -0.31035213 </i>
    <i name="e_wo_entrp">     -0.27178655 </i>
    <i name="e_0_energy">     -0.29106934 </i>
   </energy>
  </scstep>
  <scstep>
   <time name="dav">    0.31    0.31</time>
   <time name="total">    1.69    1.70</time>
   <energy>
    <i name="e_fr_energy">     -0.31035492 </i>
    <i name="e_wo_entrp">     -0.27178934 </i>
    <i name="e_0_energy">     -0.29107213 </i>
   </energy>
  </scstep>
  <scstep>
   <time name="dav">    0.27    0.27</time>
   <time name="total">    1.65    1.66</time>
   <energy>
    <i name="e_fr_energy">     -0.31035737 </i>
    <i name="e_wo_entrp">     -0.27179179 </i>
    <i name="e_0_energy">     -0.29107458 </i>
   </energy>
  </scstep>
  <scstep>
   <time name="dav">    0.35    0.36</time>
   <time name="total">    1.74    1.75</time>
   <energy>
    <i name="e_fr_energy">     -0.31035906 </i>
    <i name="e_wo_entrp">     -0.27179348 </i>
    <i name="e_0_energy">     -0.29107627 </i>
   </energy>
  </scstep>
  <scstep>
   <time name="dav">    0.26    0.27</time>
   <time name="total">    1.36    1.37</time>
   <energy>
    <i name="alphaZ">      0.02038373 </i>
    <i name="ewald">    -11.82901664 </i>
    <i name="hartreedc">    -42.85832586 </i>
    <i name="XCdc">      4.88938329 </i>
    <i name="pawpsdc">     43.90531984 </i>
    <i name="pawaedc">    -43.03659255 </i>
    <i name="eentropy">     -0.03856558 </i>
    <i name="bandstr">    -22.53254679 </i>
    <i name="atom">     71.16960075 </i>
    <i name="e_fr_energy">     -0.31035980 </i>
    <i name="e_wo_entrp">     -0.27179422 </i>
    <i name="e_0_energy">     -0.29107701 </i>
   </energy>
  </scstep>
  <structure>
   <crystal>
    <varray name="basis" >
     <v>      15.00000000       0.00000000       0.00000000 </v>
     <v>       0.00000000      12.50000000       0.00000000 </v>
     <v>       0.00000000       0.00000000      18.00000000 </v>
    </varray>
    <i name="volume">   3375.00000000 </i>
    <varray name="rec_basis" >
     <v>       0.06666667       0.00000000       0.00000000 </v>
     <v>       0.00000000       0.08000000       0.00000000 </v>
     <v>       0.00000000       0.00000000       0.05555556 </v>
    </varray>
   </crystal>
   <varray name="positions" >
    <v>       0.52123000       0.54500000       0.63796000 </v>
   </varray>
  </structure>
  <varray name="forces" >
   <v>       0.00000000       0.00000000       0.00000000 </v>
  </varray>
  <varray name="stress" >
   <v>      -0.00091712       0.00000000       0.00000000 </v>
   <v>       0.00000000      -0.00079632       0.00000000 </v>
   <v>       0.00000000       0.00000000      -0.00091737 </v>
  </varray>
  <energy>
   <i name="e_fr_energy">     -0.31035980 </i>
   <i name="e_wo_entrp">     -0.27179422 </i>
   <i name="e_0_energy">     -0.29107701 </i>
  </energy>
  <time name="totalsc">   37.37   37.58</time>
  <eigenvalues>
   <array>
    <dimension dim="1">band</dimension>
    <dimension dim="2">kpoint</dimension>
    <dimension dim="3">spin</dimension>
    <field>eigene</field>
    <field>occ</field>
    <set>
     <set comment="spin 1">
      <set comment="kpoint 1">
       <r>   -9.8744    1.0000 </r>
       <r>   -3.9853    0.3334 </r>
       <r>   -3.9852    0.3333 </r>
       <r>   -3.9852    0.3333 </r>
       <r>   -0.3329    0.0000 </r>
       <r>    0.2699    0.0000 </r>
       <r>    0.2800    0.0000 </r>
       <r>    0.4151    0.0000 </r>
      </set>
     </set>
     <set comment="spin 2">
      <set comment="kpoint 1">
       <r>   -8.6729    1.0000 </r>
       <r>   -2.9112    0.0000 </r>
       <r>   -2.9112    0.0000 </r>
       <r>   -2.9108    0.0000 </r>
       <r>   -0.0693    0.0000 </r>
       <r>    0.3887    0.0000 </r>
       <r>    0.4492    0.0000 </r>
       <r>    0.6226    0.0000 </r>
      </set>
     </set>
    </set>
   </array>
  </eigenvalues>
  <separator name="orbital magnetization" >
   <v name="MAGDIPOLOUT">      0.00000000      0.00000000      0.00000000</v>
  </separator>
  <dos>
   <i name="efermi">     -4.00048076 </i>
   <total>
    <array>
     <dimension dim="1">gridpoints</dimension>
     <dimension dim="2">spin</dimension>
     <field>energy</field>
     <field>total</field>
     <field>integrated</field>
     <set>
      <set comment="spin 1">
       <r>   -10.3992     0.0000     0.0000 </r>
       <r>   -10.3608     0.0000     0.0000 </r>
       <r>   -10.3223     0.0000     0.0000 </r>
       <r>   -10.2838     0.0000     0.0000 </r>
       <r>   -10.2453     0.0000     0.0000 </r>
       <r>   -10.2068     0.0000     0.0000 </r>
       <r>   -10.1683     0.0000     0.0000 </r>
       <r>   -10.1298     0.0000     0.0000 </r>
       <r>   -10.0913     0.0000     0.0000 </r>
       <r>   -10.0528     0.0000     0.0000 </r>
       <r>   -10.0144     0.0010     0.0000 </r>
       <r>    -9.9759     0.0523     0.0021 </r>
       <r>    -9.9374     0.9190     0.0374 </r>
       <r>    -9.8989     5.3731     0.2442 </r>
       <r>    -9.8604    10.6438     0.6539 </r>
       <r>    -9.8219     7.2037     0.9312 </r>
       <r>    -9.7834     1.6576     0.9950 </r>
       <r>    -9.7449     0.1277     0.9999 </r>
       <r>    -9.7064     0.0032     1.0000 </r>
       <r>    -9.6680     0.0000     1.0000 </r>
       <r>    -9.6295     0.0000     1.0000 </r>
       <r>    -9.5910     0.0000     1.0000 </r>
       <r>    -9.5525     0.0000     1.0000 </r>
       <r>    -9.5140     0.0000     1.0000 </r>
       <r>    -9.4755     0.0000     1.0000 </r>
       <r>    -9.4370     0.0000     1.0000 </r>
       <r>    -9.3985     0.0000     1.0000 </r>
       <r>    -9.3600     0.0000     1.0000 </r>
       <r>    -9.3215     0.0000     1.0000 </r>
       <r>    -9.2831     0.0000     1.0000 </r>
       <r>    -9.2446     0.0000     1.0000 </r>
       <r>    -9.2061     0.0000     1.0000 </r>
       <r>    -9.1676     0.0000     1.0000 </r>
       <r>    -9.1291     0.0000     1.0000 </r>
       <r>    -9.0906     0.0000     1.0000 </r>
       <r>    -9.0521     0.0000     1.0000 </r>
       <r>    -9.0136     0.0000     1.0000 </r>
       <r>    -8.9751     0.0000     1.0000 </r>
       <r>    -8.9367     0.0000     1.0000 </r>
       <r>    -8.8982     0.0000     1.0000 </r>
       <r>    -8.8597     0.0000     1.0000 </r>
       <r>    -8.8212     0.0000     1.0000 </r>
       <r>    -8.7827     0.0000     1.0000 </r>
       <r>    -8.7442     0.0000     1.0000 </r>
       <r>    -8.7057     0.0000     1.0000 </r>
       <r>    -8.6672     0.0000     1.0000 </r>
       <r>    -8.6287     0.0000     1.0000 </r>
       <r>    -8.5903     0.0000     1.0000 </r>
       <r>    -8.5518     0.0000     1.0000 </r>
       <r>    -8.5133     0.0000     1.0000 </r>
       <r>    -8.4748     0.0000     1.0000 </r>
       <r>    -8.4363     0.0000     1.0000 </r>
       <r>    -8.3978     0.0000     1.0000 </r>
       <r>    -8.3593     0.0000     1.0000 </r>
       <r>    -8.3208     0.0000     1.0000 </r>
       <r>    -8.2823     0.0000     1.0000 </r>
       <r>    -8.2439     0.0000     1.0000 </r>
       <r>    -8.2054     0.0000     1.0000 </r>
       <r>    -8.1669     0.0000     1.0000 </r>
       <r>    -8.1284     0.0000     1.0000 </r>
       <r>    -8.0899     0.0000     1.0000 </r>
       <r>    -8.0514     0.0000     1.0000 </r>
       <r>    -8.0129     0.0000     1.0000 </r>
       <r>    -7.9744     0.0000     1.0000 </r>
       <r>    -7.9359     0.0000     1.0000 </r>
       <r>    -7.8975     0.0000     1.0000 </r>
       <r>    -7.8590     0.0000     1.0000 </r>
       <r>    -7.8205     0.0000     1.0000 </r>
       <r>    -7.7820     0.0000     1.0000 </r>
       <r>    -7.7435     0.0000     1.0000 </r>
       <r>    -7.7050     0.0000     1.0000 </r>
       <r>    -7.6665     0.0000     1.0000 </r>
       <r>    -7.6280     0.0000     1.0000 </r>
       <r>    -7.5895     0.0000     1.0000 </r>
       <r>    -7.5511     0.0000     1.0000 </r>
       <r>    -7.5126     0.0000     1.0000 </r>
       <r>    -7.4741     0.0000     1.0000 </r>
       <r>    -7.4356     0.0000     1.0000 </r>
       <r>    -7.3971     0.0000     1.0000 </r>
       <r>    -7.3586     0.0000     1.0000 </r>
       <r>    -7.3201     0.0000     1.0000 </r>
       <r>    -7.2816     0.0000     1.0000 </r>
       <r>    -7.2431     0.0000     1.0000 </r>
       <r>    -7.2047     0.0000     1.0000 </r>
       <r>    -7.1662     0.0000     1.0000 </r>
       <r>    -7.1277     0.0000     1.0000 </r>
       <r>    -7.0892     0.0000     1.0000 </r>
       <r>    -7.0507     0.0000     1.0000 </r>
       <r>    -7.0122     0.0000     1.0000 </r>
       <r>    -6.9737     0.0000     1.0000 </r>
       <r>    -6.9352     0.0000     1.0000 </r>
       <r>    -6.8967     0.0000     1.0000 </r>
       <r>    -6.8582     0.0000     1.0000 </r>
       <r>    -6.8198     0.0000     1.0000 </r>
       <r>    -6.7813     0.0000     1.0000 </r>
       <r>    -6.7428     0.0000     1.0000 </r>
       <r>    -6.7043     0.0000     1.0000 </r>
       <r>    -6.6658     0.0000     1.0000 </r>
       <r>    -6.6273     0.0000     1.0000 </r>
       <r>    -6.5888     0.0000     1.0000 </r>
       <r>    -6.5503     0.0000     1.0000 </r>
       <r>    -6.5118     0.0000     1.0000 </r>
       <r>    -6.4734     0.0000     1.0000 </r>
       <r>    -6.4349     0.0000     1.0000 </r>
       <r>    -6.3964     0.0000     1.0000 </r>
       <r>    -6.3579     0.0000     1.0000 </r>
       <r>    -6.3194     0.0000     1.0000 </r>
       <r>    -6.2809     0.0000     1.0000 </r>
       <r>    -6.2424     0.0000     1.0000 </r>
       <r>    -6.2039     0.0000     1.0000 </r>
       <r>    -6.1654     0.0000     1.0000 </r>
       <r>    -6.1270     0.0000     1.0000 </r>
       <r>    -6.0885     0.0000     1.0000 </r>
       <r>    -6.0500     0.0000     1.0000 </r>
       <r>    -6.0115     0.0000     1.0000 </r>
       <r>    -5.9730     0.0000     1.0000 </r>
       <r>    -5.9345     0.0000     1.0000 </r>
       <r>    -5.8960     0.0000     1.0000 </r>
       <r>    -5.8575     0.0000     1.0000 </r>
       <r>    -5.8190     0.0000     1.0000 </r>
       <r>    -5.7806     0.0000     1.0000 </r>
       <r>    -5.7421     0.0000     1.0000 </r>
       <r>    -5.7036     0.0000     1.0000 </r>
       <r>    -5.6651     0.0000     1.0000 </r>
       <r>    -5.6266     0.0000     1.0000 </r>
       <r>    -5.5881     0.0000     1.0000 </r>
       <r>    -5.5496     0.0000     1.0000 </r>
       <r>    -5.5111     0.0000     1.0000 </r>
       <r>    -5.4726     0.0000     1.0000 </r>
       <r>    -5.4342     0.0000     1.0000 </r>
       <r>    -5.3957     0.0000     1.0000 </r>
       <r>    -5.3572     0.0000     1.0000 </r>
       <r>    -5.3187     0.0000     1.0000 </r>
       <r>    -5.2802     0.0000     1.0000 </r>
       <r>    -5.2417     0.0000     1.0000 </r>
       <r>    -5.2032     0.0000     1.0000 </r>
       <r>    -5.1647     0.0000     1.0000 </r>
       <r>    -5.1262     0.0000     1.0000 </r>
       <r>    -5.0878     0.0000     1.0000 </r>
       <r>    -5.0493     0.0000     1.0000 </r>
       <r>    -5.0108     0.0000     1.0000 </r>
       <r>    -4.9723     0.0000     1.0000 </r>
       <r>    -4.9338     0.0000     1.0000 </r>
       <r>    -4.8953     0.0000     1.0000 </r>
       <r>    -4.8568     0.0000     1.0000 </r>
       <r>    -4.8183     0.0000     1.0000 </r>
       <r>    -4.7798     0.0000     1.0000 </r>
       <r>    -4.7414     0.0000     1.0000 </r>
       <r>    -4.7029     0.0000     1.0000 </r>
       <r>    -4.6644     0.0000     1.0000 </r>
       <r>    -4.6259     0.0000     1.0000 </r>
       <r>    -4.5874     0.0000     1.0000 </r>
       <r>    -4.5489     0.0000     1.0000 </r>
       <r>    -4.5104     0.0000     1.0000 </r>
       <r>    -4.4719     0.0000     1.0000 </r>
       <r>    -4.4334     0.0000     1.0000 </r>
       <r>    -4.3949     0.0000     1.0000 </r>
       <r>    -4.3565     0.0000     1.0000 </r>
       <r>    -4.3180     0.0000     1.0000 </r>
       <r>    -4.2795     0.0000     1.0000 </r>
       <r>    -4.2410     0.0000     1.0000 </r>
       <r>    -4.2025     0.0000     1.0000 </r>
       <r>    -4.1640     0.0000     1.0000 </r>
       <r>    -4.1255     0.0028     1.0001 </r>
       <r>    -4.0870     0.1527     1.0060 </r>
       <r>    -4.0485     2.7055     1.1101 </r>
       <r>    -4.0101    15.9592     1.7244 </r>
       <r>    -3.9716    31.8924     2.9519 </r>
       <r>    -3.9331    21.7740     3.7899 </r>
       <r>    -3.8946     5.0546     3.9845 </r>
       <r>    -3.8561     0.3928     3.9996 </r>
       <r>    -3.8176     0.0100     4.0000 </r>
       <r>    -3.7791     0.0001     4.0000 </r>
       <r>    -3.7406     0.0000     4.0000 </r>
       <r>    -3.7021     0.0000     4.0000 </r>
       <r>    -3.6637     0.0000     4.0000 </r>
       <r>    -3.6252     0.0000     4.0000 </r>
       <r>    -3.5867     0.0000     4.0000 </r>
       <r>    -3.5482     0.0000     4.0000 </r>
       <r>    -3.5097     0.0000     4.0000 </r>
       <r>    -3.4712     0.0000     4.0000 </r>
       <r>    -3.4327     0.0000     4.0000 </r>
       <r>    -3.3942     0.0000     4.0000 </r>
       <r>    -3.3557     0.0000     4.0000 </r>
       <r>    -3.3173     0.0000     4.0000 </r>
       <r>    -3.2788     0.0000     4.0000 </r>
       <r>    -3.2403     0.0000     4.0000 </r>
       <r>    -3.2018     0.0000     4.0000 </r>
       <r>    -3.1633     0.0000     4.0000 </r>
       <r>    -3.1248     0.0000     4.0000 </r>
       <r>    -3.0863     0.0000     4.0000 </r>
       <r>    -3.0478     0.0000     4.0000 </r>
       <r>    -3.0093     0.0000     4.0000 </r>
       <r>    -2.9709     0.0000     4.0000 </r>
       <r>    -2.9324     0.0000     4.0000 </r>
       <r>    -2.8939     0.0000     4.0000 </r>
       <r>    -2.8554     0.0000     4.0000 </r>
       <r>    -2.8169     0.0000     4.0000 </r>
       <r>    -2.7784     0.0000     4.0000 </r>
       <r>    -2.7399     0.0000     4.0000 </r>
       <r>    -2.7014     0.0000     4.0000 </r>
       <r>    -2.6629     0.0000     4.0000 </r>
       <r>    -2.6245     0.0000     4.0000 </r>
       <r>    -2.5860     0.0000     4.0000 </r>
       <r>    -2.5475     0.0000     4.0000 </r>
       <r>    -2.5090     0.0000     4.0000 </r>
       <r>    -2.4705     0.0000     4.0000 </r>
       <r>    -2.4320     0.0000     4.0000 </r>
       <r>    -2.3935     0.0000     4.0000 </r>
       <r>    -2.3550     0.0000     4.0000 </r>
       <r>    -2.3165     0.0000     4.0000 </r>
       <r>    -2.2781     0.0000     4.0000 </r>
       <r>    -2.2396     0.0000     4.0000 </r>
       <r>    -2.2011     0.0000     4.0000 </r>
       <r>    -2.1626     0.0000     4.0000 </r>
       <r>    -2.1241     0.0000     4.0000 </r>
       <r>    -2.0856     0.0000     4.0000 </r>
       <r>    -2.0471     0.0000     4.0000 </r>
       <r>    -2.0086     0.0000     4.0000 </r>
       <r>    -1.9701     0.0000     4.0000 </r>
       <r>    -1.9316     0.0000     4.0000 </r>
       <r>    -1.8932     0.0000     4.0000 </r>
       <r>    -1.8547     0.0000     4.0000 </r>
       <r>    -1.8162     0.0000     4.0000 </r>
       <r>    -1.7777     0.0000     4.0000 </r>
       <r>    -1.7392     0.0000     4.0000 </r>
       <r>    -1.7007     0.0000     4.0000 </r>
       <r>    -1.6622     0.0000     4.0000 </r>
       <r>    -1.6237     0.0000     4.0000 </r>
       <r>    -1.5852     0.0000     4.0000 </r>
       <r>    -1.5468     0.0000     4.0000 </r>
       <r>    -1.5083     0.0000     4.0000 </r>
       <r>    -1.4698     0.0000     4.0000 </r>
       <r>    -1.4313     0.0000     4.0000 </r>
       <r>    -1.3928     0.0000     4.0000 </r>
       <r>    -1.3543     0.0000     4.0000 </r>
       <r>    -1.3158     0.0000     4.0000 </r>
       <r>    -1.2773     0.0000     4.0000 </r>
       <r>    -1.2388     0.0000     4.0000 </r>
       <r>    -1.2004     0.0000     4.0000 </r>
       <r>    -1.1619     0.0000     4.0000 </r>
       <r>    -1.1234     0.0000     4.0000 </r>
       <r>    -1.0849     0.0000     4.0000 </r>
       <r>    -1.0464     0.0000     4.0000 </r>
       <r>    -1.0079     0.0000     4.0000 </r>
       <r>    -0.9694     0.0000     4.0000 </r>
       <r>    -0.9309     0.0000     4.0000 </r>
       <r>    -0.8924     0.0000     4.0000 </r>
       <r>    -0.8540     0.0000     4.0000 </r>
       <r>    -0.8155     0.0000     4.0000 </r>
       <r>    -0.7770     0.0000     4.0000 </r>
       <r>    -0.7385     0.0000     4.0000 </r>
       <r>    -0.7000     0.0000     4.0000 </r>
       <r>    -0.6615     0.0000     4.0000 </r>
       <r>    -0.6230     0.0000     4.0000 </r>
       <r>    -0.5845     0.0000     4.0000 </r>
       <r>    -0.5460     0.0000     4.0000 </r>
       <r>    -0.5076     0.0000     4.0000 </r>
       <r>    -0.4691     0.0015     4.0001 </r>
       <r>    -0.4306     0.0729     4.0029 </r>
       <r>    -0.3921     1.1472     4.0470 </r>
       <r>    -0.3536     6.0270     4.2790 </r>
       <r>    -0.3151    10.7421     4.6924 </r>
       <r>    -0.2766     6.5420     4.9442 </r>
       <r>    -0.2381     1.3530     4.9963 </r>
       <r>    -0.1996     0.0935     4.9999 </r>
       <r>    -0.1612     0.0021     5.0000 </r>
       <r>    -0.1227     0.0000     5.0000 </r>
       <r>    -0.0842     0.0000     5.0000 </r>
       <r>    -0.0457     0.0000     5.0000 </r>
       <r>    -0.0072     0.0000     5.0000 </r>
       <r>     0.0313     0.0000     5.0000 </r>
       <r>     0.0698     0.0000     5.0000 </r>
       <r>     0.1083     0.0001     5.0000 </r>
       <r>     0.1468     0.0085     5.0003 </r>
       <r>     0.1853     0.3035     5.0120 </r>
       <r>     0.2237     3.6267     5.1516 </r>
       <r>     0.2622    14.8098     5.7216 </r>
       <r>     0.3007    20.9982     6.5298 </r>
       <r>     0.3392    10.7569     6.9438 </r>
       <r>     0.3777     5.1181     7.1408 </r>
       <r>     0.4162     9.6390     7.5118 </r>
       <r>     0.4547     9.2621     7.8683 </r>
       <r>     0.4932     3.0665     7.9863 </r>
       <r>     0.5317     0.3420     7.9995 </r>
       <r>     0.5701     0.0126     8.0000 </r>
       <r>     0.6086     0.0002     8.0000 </r>
       <r>     0.6471     0.0000     8.0000 </r>
       <r>     0.6856     0.0000     8.0000 </r>
       <r>     0.7241     0.0000     8.0000 </r>
       <r>     0.7626     0.0000     8.0000 </r>
       <r>     0.8011     0.0000     8.0000 </r>
       <r>     0.8396     0.0000     8.0000 </r>
       <r>     0.8781     0.0000     8.0000 </r>
       <r>     0.9165     0.0000     8.0000 </r>
       <r>     0.9550     0.0000     8.0000 </r>
       <r>     0.9935     0.0000     8.0000 </r>
       <r>     1.0320     0.0000     8.0000 </r>
       <r>     1.0705     0.0000     8.0000 </r>
       <r>     1.1090     0.0000     8.0000 </r>
       <r>     1.1475     0.0000     8.0000 </r>
      </set>
      <set comment="spin 2">
       <r>   -10.3992     0.0000     0.0000 </r>
       <r>   -10.3608     0.0000     0.0000 </r>
       <r>   -10.3223     0.0000     0.0000 </r>
       <r>   -10.2838     0.0000     0.0000 </r>
       <r>   -10.2453     0.0000     0.0000 </r>
       <r>   -10.2068     0.0000     0.0000 </r>
       <r>   -10.1683     0.0000     0.0000 </r>
       <r>   -10.1298     0.0000     0.0000 </r>
       <r>   -10.0913     0.0000     0.0000 </r>
       <r>   -10.0528     0.0000     0.0000 </r>
       <r>   -10.0144     0.0000     0.0000 </r>
       <r>    -9.9759     0.0000     0.0000 </r>
       <r>    -9.9374     0.0000     0.0000 </r>
       <r>    -9.8989     0.0000     0.0000 </r>
       <r>    -9.8604     0.0000     0.0000 </r>
       <r>    -9.8219     0.0000     0.0000 </r>
       <r>    -9.7834     0.0000     0.0000 </r>
       <r>    -9.7449     0.0000     0.0000 </r>
       <r>    -9.7064     0.0000     0.0000 </r>
       <r>    -9.6680     0.0000     0.0000 </r>
       <r>    -9.6295     0.0000     0.0000 </r>
       <r>    -9.5910     0.0000     0.0000 </r>
       <r>    -9.5525     0.0000     0.0000 </r>
       <r>    -9.5140     0.0000     0.0000 </r>
       <r>    -9.4755     0.0000     0.0000 </r>
       <r>    -9.4370     0.0000     0.0000 </r>
       <r>    -9.3985     0.0000     0.0000 </r>
       <r>    -9.3600     0.0000     0.0000 </r>
       <r>    -9.3215     0.0000     0.0000 </r>
       <r>    -9.2831     0.0000     0.0000 </r>
       <r>    -9.2446     0.0000     0.0000 </r>
       <r>    -9.2061     0.0000     0.0000 </r>
       <r>    -9.1676     0.0000     0.0000 </r>
       <r>    -9.1291     0.0000     0.0000 </r>
       <r>    -9.0906     0.0000     0.0000 </r>
       <r>    -9.0521     0.0000     0.0000 </r>
       <r>    -9.0136     0.0000     0.0000 </r>
       <r>    -8.9751     0.0000     0.0000 </r>
       <r>    -8.9367     0.0000     0.0000 </r>
       <r>    -8.8982     0.0000     0.0000 </r>
       <r>    -8.8597     0.0000     0.0000 </r>
       <r>    -8.8212     0.0004     0.0000 </r>
       <r>    -8.7827     0.0243     0.0009 </r>
       <r>    -8.7442     0.5430     0.0218 </r>
       <r>    -8.7057     4.0209     0.1766 </r>
       <r>    -8.6672    10.0563     0.5637 </r>
       <r>    -8.6287     8.5864     0.8942 </r>
       <r>    -8.5903     2.4979     0.9903 </r>
       <r>    -8.5518     0.2442     0.9997 </r>
       <r>    -8.5133     0.0079     1.0000 </r>
       <r>    -8.4748     0.0001     1.0000 </r>
       <r>    -8.4363     0.0000     1.0000 </r>
       <r>    -8.3978     0.0000     1.0000 </r>
       <r>    -8.3593     0.0000     1.0000 </r>
       <r>    -8.3208     0.0000     1.0000 </r>
       <r>    -8.2823     0.0000     1.0000 </r>
       <r>    -8.2439     0.0000     1.0000 </r>
       <r>    -8.2054     0.0000     1.0000 </r>
       <r>    -8.1669     0.0000     1.0000 </r>
       <r>    -8.1284     0.0000     1.0000 </r>
       <r>    -8.0899     0.0000     1.0000 </r>
       <r>    -8.0514     0.0000     1.0000 </r>
       <r>    -8.0129     0.0000     1.0000 </r>
       <r>    -7.9744     0.0000     1.0000 </r>
       <r>    -7.9359     0.0000     1.0000 </r>
       <r>    -7.8975     0.0000     1.0000 </r>
       <r>    -7.8590     0.0000     1.0000 </r>
       <r>    -7.8205     0.0000     1.0000 </r>
       <r>    -7.7820     0.0000     1.0000 </r>
       <r>    -7.7435     0.0000     1.0000 </r>
       <r>    -7.7050     0.0000     1.0000 </r>
       <r>    -7.6665     0.0000     1.0000 </r>
       <r>    -7.6280     0.0000     1.0000 </r>
       <r>    -7.5895     0.0000     1.0000 </r>
       <r>    -7.5511     0.0000     1.0000 </r>
       <r>    -7.5126     0.0000     1.0000 </r>
       <r>    -7.4741     0.0000     1.0000 </r>
       <r>    -7.4356     0.0000     1.0000 </r>
       <r>    -7.3971     0.0000     1.0000 </r>
       <r>    -7.3586     0.0000     1.0000 </r>
       <r>    -7.3201     0.0000     1.0000 </r>
       <r>    -7.2816     0.0000     1.0000 </r>
       <r>    -7.2431     0.0000     1.0000 </r>
       <r>    -7.2047     0.0000     1.0000 </r>
       <r>    -7.1662     0.0000     1.0000 </r>
       <r>    -7.1277     0.0000     1.0000 </r>
       <r>    -7.0892     0.0000     1.0000 </r>
       <r>    -7.0507     0.0000     1.0000 </r>
       <r>    -7.0122     0.0000     1.0000 </r>
       <r>    -6.9737     0.0000     1.0000 </r>
       <r>    -6.9352     0.0000     1.0000 </r>
       <r>    -6.8967     0.0000     1.0000 </r>
       <r>    -6.8582     0.0000     1.0000 </r>
       <r>    -6.8198     0.0000     1.0000 </r>
       <r>    -6.7813     0.0000     1.0000 </r>
       <r>    -6.7428     0.0000     1.0000 </r>
       <r>    -6.7043     0.0000     1.0000 </r>
       <r>    -6.6658     0.0000     1.0000 </r>
       <r>    -6.6273     0.0000     1.0000 </r>
       <r>    -6.5888     0.0000     1.0000 </r>
       <r>    -6.5503     0.0000     1.0000 </r>
       <r>    -6.5118     0.0000     1.0000 </r>
       <r>    -6.4734     0.0000     1.0000 </r>
       <r>    -6.4349     0.0000     1.0000 </r>
       <r>    -6.3964     0.0000     1.0000 </r>
       <r>    -6.3579     0.0000     1.0000 </r>
       <r>    -6.3194     0.0000     1.0000 </r>
       <r>    -6.2809     0.0000     1.0000 </r>
       <r>    -6.2424     0.0000     1.0000 </r>
       <r>    -6.2039     0.0000     1.0000 </r>
       <r>    -6.1654     0.0000     1.0000 </r>
       <r>    -6.1270     0.0000     1.0000 </r>
       <r>    -6.0885     0.0000     1.0000 </r>
       <r>    -6.0500     0.0000     1.0000 </r>
       <r>    -6.0115     0.0000     1.0000 </r>
       <r>    -5.9730     0.0000     1.0000 </r>
       <r>    -5.9345     0.0000     1.0000 </r>
       <r>    -5.8960     0.0000     1.0000 </r>
       <r>    -5.8575     0.0000     1.0000 </r>
       <r>    -5.8190     0.0000     1.0000 </r>
       <r>    -5.7806     0.0000     1.0000 </r>
       <r>    -5.7421     0.0000     1.0000 </r>
       <r>    -5.7036     0.0000     1.0000 </r>
       <r>    -5.6651     0.0000     1.0000 </r>
       <r>    -5.6266     0.0000     1.0000 </r>
       <r>    -5.5881     0.0000     1.0000 </r>
       <r>    -5.5496     0.0000     1.0000 </r>
       <r>    -5.5111     0.0000     1.0000 </r>
       <r>    -5.4726     0.0000     1.0000 </r>
       <r>    -5.4342     0.0000     1.0000 </r>
       <r>    -5.3957     0.0000     1.0000 </r>
       <r>    -5.3572     0.0000     1.0000 </r>
       <r>    -5.3187     0.0000     1.0000 </r>
       <r>    -5.2802     0.0000     1.0000 </r>
       <r>    -5.2417     0.0000     1.0000 </r>
       <r>    -5.2032     0.0000     1.0000 </r>
       <r>    -5.1647     0.0000     1.0000 </r>
       <r>    -5.1262     0.0000     1.0000 </r>
       <r>    -5.0878     0.0000     1.0000 </r>
       <r>    -5.0493     0.0000     1.0000 </r>
       <r>    -5.0108     0.0000     1.0000 </r>
       <r>    -4.9723     0.0000     1.0000 </r>
       <r>    -4.9338     0.0000     1.0000 </r>
       <r>    -4.8953     0.0000     1.0000 </r>
       <r>    -4.8568     0.0000     1.0000 </r>
       <r>    -4.8183     0.0000     1.0000 </r>
       <r>    -4.7798     0.0000     1.0000 </r>
       <r>    -4.7414     0.0000     1.0000 </r>
       <r>    -4.7029     0.0000     1.0000 </r>
       <r>    -4.6644     0.0000     1.0000 </r>
       <r>    -4.6259     0.0000     1.0000 </r>
       <r>    -4.5874     0.0000     1.0000 </r>
       <r>    -4.5489     0.0000     1.0000 </r>
       <r>    -4.5104     0.0000     1.0000 </r>
       <r>    -4.4719     0.0000     1.0000 </r>
       <r>    -4.4334     0.0000     1.0000 </r>
       <r>    -4.3949     0.0000     1.0000 </r>
       <r>    -4.3565     0.0000     1.0000 </r>
       <r>    -4.3180     0.0000     1.0000 </r>
       <r>    -4.2795     0.0000     1.0000 </r>
       <r>    -4.2410     0.0000     1.0000 </r>
       <r>    -4.2025     0.0000     1.0000 </r>
       <r>    -4.1640     0.0000     1.0000 </r>
       <r>    -4.1255     0.0000     1.0000 </r>
       <r>    -4.0870     0.0000     1.0000 </r>
       <r>    -4.0485     0.0000     1.0000 </r>
       <r>    -4.0101     0.0000     1.0000 </r>
       <r>    -3.9716     0.0000     1.0000 </r>
       <r>    -3.9331     0.0000     1.0000 </r>
       <r>    -3.8946     0.0000     1.0000 </r>
       <r>    -3.8561     0.0000     1.0000 </r>
       <r>    -3.8176     0.0000     1.0000 </r>
       <r>    -3.7791     0.0000     1.0000 </r>
       <r>    -3.7406     0.0000     1.0000 </r>
       <r>    -3.7021     0.0000     1.0000 </r>
       <r>    -3.6637     0.0000     1.0000 </r>
       <r>    -3.6252     0.0000     1.0000 </r>
       <r>    -3.5867     0.0000     1.0000 </r>
       <r>    -3.5482     0.0000     1.0000 </r>
       <r>    -3.5097     0.0000     1.0000 </r>
       <r>    -3.4712     0.0000     1.0000 </r>
       <r>    -3.4327     0.0000     1.0000 </r>
       <r>    -3.3942     0.0000     1.0000 </r>
       <r>    -3.3557     0.0000     1.0000 </r>
       <r>    -3.3173     0.0000     1.0000 </r>
       <r>    -3.2788     0.0000     1.0000 </r>
       <r>    -3.2403     0.0000     1.0000 </r>
       <r>    -3.2018     0.0000     1.0000 </r>
       <r>    -3.1633     0.0000     1.0000 </r>
       <r>    -3.1248     0.0000     1.0000 </r>
       <r>    -3.0863     0.0000     1.0000 </r>
       <r>    -3.0478     0.0043     1.0002 </r>
       <r>    -3.0093     0.2082     1.0082 </r>
       <r>    -2.9709     3.3325     1.1364 </r>
       <r>    -2.9324    17.7869     1.8210 </r>
       <r>    -2.8939    32.2030     3.0605 </r>
       <r>    -2.8554    19.9222     3.8273 </r>
       <r>    -2.8169     4.1863     3.9884 </r>
       <r>    -2.7784     0.2940     3.9997 </r>
       <r>    -2.7399     0.0068     4.0000 </r>
       <r>    -2.7014     0.0001     4.0000 </r>
       <r>    -2.6629     0.0000     4.0000 </r>
       <r>    -2.6245     0.0000     4.0000 </r>
       <r>    -2.5860     0.0000     4.0000 </r>
       <r>    -2.5475     0.0000     4.0000 </r>
       <r>    -2.5090     0.0000     4.0000 </r>
       <r>    -2.4705     0.0000     4.0000 </r>
       <r>    -2.4320     0.0000     4.0000 </r>
       <r>    -2.3935     0.0000     4.0000 </r>
       <r>    -2.3550     0.0000     4.0000 </r>
       <r>    -2.3165     0.0000     4.0000 </r>
       <r>    -2.2781     0.0000     4.0000 </r>
       <r>    -2.2396     0.0000     4.0000 </r>
       <r>    -2.2011     0.0000     4.0000 </r>
       <r>    -2.1626     0.0000     4.0000 </r>
       <r>    -2.1241     0.0000     4.0000 </r>
       <r>    -2.0856     0.0000     4.0000 </r>
       <r>    -2.0471     0.0000     4.0000 </r>
       <r>    -2.0086     0.0000     4.0000 </r>
       <r>    -1.9701     0.0000     4.0000 </r>
       <r>    -1.9316     0.0000     4.0000 </r>
       <r>    -1.8932     0.0000     4.0000 </r>
       <r>    -1.8547     0.0000     4.0000 </r>
       <r>    -1.8162     0.0000     4.0000 </r>
       <r>    -1.7777     0.0000     4.0000 </r>
       <r>    -1.7392     0.0000     4.0000 </r>
       <r>    -1.7007     0.0000     4.0000 </r>
       <r>    -1.6622     0.0000     4.0000 </r>
       <r>    -1.6237     0.0000     4.0000 </r>
       <r>    -1.5852     0.0000     4.0000 </r>
       <r>    -1.5468     0.0000     4.0000 </r>
       <r>    -1.5083     0.0000     4.0000 </r>
       <r>    -1.4698     0.0000     4.0000 </r>
       <r>    -1.4313     0.0000     4.0000 </r>
       <r>    -1.3928     0.0000     4.0000 </r>
       <r>    -1.3543     0.0000     4.0000 </r>
       <r>    -1.3158     0.0000     4.0000 </r>
       <r>    -1.2773     0.0000     4.0000 </r>
       <r>    -1.2388     0.0000     4.0000 </r>
       <r>    -1.2004     0.0000     4.0000 </r>
       <r>    -1.1619     0.0000     4.0000 </r>
       <r>    -1.1234     0.0000     4.0000 </r>
       <r>    -1.0849     0.0000     4.0000 </r>
       <r>    -1.0464     0.0000     4.0000 </r>
       <r>    -1.0079     0.0000     4.0000 </r>
       <r>    -0.9694     0.0000     4.0000 </r>
       <r>    -0.9309     0.0000     4.0000 </r>
       <r>    -0.8924     0.0000     4.0000 </r>
       <r>    -0.8540     0.0000     4.0000 </r>
       <r>    -0.8155     0.0000     4.0000 </r>
       <r>    -0.7770     0.0000     4.0000 </r>
       <r>    -0.7385     0.0000     4.0000 </r>
       <r>    -0.7000     0.0000     4.0000 </r>
       <r>    -0.6615     0.0000     4.0000 </r>
       <r>    -0.6230     0.0000     4.0000 </r>
       <r>    -0.5845     0.0000     4.0000 </r>
       <r>    -0.5460     0.0000     4.0000 </r>
       <r>    -0.5076     0.0000     4.0000 </r>
       <r>    -0.4691     0.0000     4.0000 </r>
       <r>    -0.4306     0.0000     4.0000 </r>
       <r>    -0.3921     0.0000     4.0000 </r>
       <r>    -0.3536     0.0000     4.0000 </r>
       <r>    -0.3151     0.0000     4.0000 </r>
       <r>    -0.2766     0.0000     4.0000 </r>
       <r>    -0.2381     0.0000     4.0000 </r>
       <r>    -0.1996     0.0029     4.0001 </r>
       <r>    -0.1612     0.1191     4.0047 </r>
       <r>    -0.1227     1.5851     4.0657 </r>
       <r>    -0.0842     7.0558     4.3373 </r>
       <r>    -0.0457    10.6755     4.7482 </r>
       <r>    -0.0072     5.5185     4.9606 </r>
       <r>     0.0313     0.9669     4.9978 </r>
       <r>     0.0698     0.0564     5.0000 </r>
       <r>     0.1083     0.0011     5.0000 </r>
       <r>     0.1468     0.0000     5.0000 </r>
       <r>     0.1853     0.0000     5.0000 </r>
       <r>     0.2237     0.0000     5.0000 </r>
       <r>     0.2622     0.0045     5.0002 </r>
       <r>     0.3007     0.1627     5.0064 </r>
       <r>     0.3392     1.9573     5.0818 </r>
       <r>     0.3777     8.2551     5.3995 </r>
       <r>     0.4162    14.4767     5.9567 </r>
       <r>     0.4547    14.9025     6.5303 </r>
       <r>     0.4932     9.3875     6.8916 </r>
       <r>     0.5317     2.6904     6.9951 </r>
       <r>     0.5701     1.9064     7.0685 </r>
       <r>     0.6086     7.2117     7.3461 </r>
       <r>     0.6471    10.6439     7.7558 </r>
       <r>     0.6856     5.3731     7.9626 </r>
       <r>     0.7241     0.9190     7.9979 </r>
       <r>     0.7626     0.0523     8.0000 </r>
       <r>     0.8011     0.0010     8.0000 </r>
       <r>     0.8396     0.0000     8.0000 </r>
       <r>     0.8781     0.0000     8.0000 </r>
       <r>     0.9165     0.0000     8.0000 </r>
       <r>     0.9550     0.0000     8.0000 </r>
       <r>     0.9935     0.0000     8.0000 </r>
       <r>     1.0320     0.0000     8.0000 </r>
       <r>     1.0705     0.0000     8.0000 </r>
       <r>     1.1090     0.0000     8.0000 </r>
       <r>     1.1475     0.0000     8.0000 </r>
      </set>
     </set>
    </array>
   </total>
  </dos>
 </calculation>
 <structure name="finalpos" >
  <crystal>
   <varray name="basis" >
    <v>      15.00000000       0.00000000       0.00000000 </v>
    <v>       0.00000000      12.50000000       0.00000000 </v>
    <v>       0.00000000       0.00000000      18.00000000 </v>
   </varray>
   <i name="volume">   3375.00000000 </i>
   <varray name="rec_basis" >
    <v>       0.06666667       0.00000000       0.00000000 </v>
    <v>       0.00000000       0.08000000       0.00000000 </v>
    <v>       0.00000000       0.00000000       0.05555556 </v>
   </varray>
  </crystal>
  <varray name="positions" >
   <v>       0.52123000       0.54500000       0.63796000 </v>
  </varray>
 </structure>
</modeling>
