  14  14   1   0
  0.1021318E+02  0.6201871E-09  0.5700971E-09  0.4044058E-09  0.5000000E-15
  1.000000000000000E-004
  CAR 
 BS                                      
     17.65586498    -15.81089449  301      2.38432897      1.00000000
    -15.811  0.0000E+00  0.0000E+00
    -15.699  0.0000E+00  0.0000E+00
    -15.588  0.0000E+00  0.0000E+00
    -15.476  0.0000E+00  0.0000E+00
    -15.365  0.0000E+00  0.0000E+00
    -15.253  0.0000E+00  0.0000E+00
    -15.142  0.0000E+00  0.0000E+00
    -15.030  0.0000E+00  0.0000E+00
    -14.918  0.0000E+00  0.0000E+00
    -14.807  0.6783E-13  0.7566E-14
    -14.695  0.3230E-08  0.3604E-09
    -14.584  0.1460E-04  0.1629E-05
    -14.472  0.6825E-02  0.7630E-03
    -14.361  0.3783E+00  0.4296E-01
    -14.249  0.2942E+01  0.3711E+00
    -14.138  0.3831E+01  0.7985E+00
    -14.026  0.1383E+01  0.9528E+00
    -13.914  0.7167E+00  0.1033E+01
    -13.803  0.5962E+00  0.1099E+01
    -13.691  0.5288E+00  0.1158E+01
    -13.580  0.4822E+00  0.1212E+01
    -13.468  0.4479E+00  0.1262E+01
    -13.357  0.4259E+00  0.1310E+01
    -13.245  0.7742E+00  0.1396E+01
    -13.134  0.4263E+01  0.1871E+01
    -13.022  0.5773E+01  0.2515E+01
    -12.910  0.1401E+01  0.2672E+01
    -12.799  0.3778E+00  0.2714E+01
    -12.687  0.3419E+00  0.2752E+01
    -12.576  0.3431E+00  0.2790E+01
    -12.464  0.3463E+00  0.2829E+01
    -12.353  0.3408E+00  0.2867E+01
    -12.241  0.3516E+00  0.2906E+01
    -12.130  0.3705E+00  0.2947E+01
    -12.018  0.3941E+00  0.2991E+01
    -11.906  0.5202E+00  0.3049E+01
    -11.795  0.1494E+01  0.3216E+01
    -11.683  0.2603E+01  0.3507E+01
    -11.572  0.1292E+01  0.3651E+01
    -11.460  0.7650E+00  0.3736E+01
    -11.349  0.9578E+00  0.3843E+01
    -11.237  0.1057E+01  0.3961E+01
    -11.126  0.3354E+00  0.3998E+01
    -11.014  0.1679E-01  0.4000E+01
    -10.902  0.9920E-04  0.4000E+01
    -10.791  0.8234E-07  0.4000E+01
    -10.679  0.4169E-04  0.4000E+01
    -10.568  0.7544E-02  0.4001E+01
    -10.456  0.1610E+00  0.4019E+01
    -10.345  0.5494E+00  0.4080E+01
    -10.233  0.6196E+00  0.4149E+01
    -10.122  0.2016E+01  0.4374E+01
    -10.010  0.4991E+01  0.4931E+01
     -9.898  0.4124E+01  0.5391E+01
     -9.787  0.5078E+01  0.5957E+01
     -9.675  0.3737E+01  0.6374E+01
     -9.564  0.5163E+01  0.6950E+01
     -9.452  0.3183E+01  0.7305E+01
     -9.341  0.6034E+00  0.7373E+01
     -9.229  0.3461E+00  0.7411E+01
     -9.118  0.3650E+00  0.7452E+01
     -9.006  0.4169E+00  0.7498E+01
     -8.894  0.6658E+00  0.7573E+01
     -8.783  0.1838E+01  0.7778E+01
     -8.671  0.1735E+01  0.7971E+01
     -8.560  0.2529E+00  0.8000E+01
     -8.448  0.4400E-02  0.8000E+01
     -8.337  0.7797E-05  0.8000E+01
     -8.225  0.1293E-08  0.8000E+01
     -8.114  0.1451E-11  0.8000E+01
     -8.002  0.3185E-07  0.8000E+01
     -7.890  0.6524E-04  0.8000E+01
     -7.779  0.1328E-01  0.8001E+01
     -7.667  0.3222E+00  0.8037E+01
     -7.556  0.1551E+01  0.8210E+01
     -7.444  0.3214E+01  0.8569E+01
     -7.333  0.3007E+01  0.8904E+01
     -7.221  0.1953E+01  0.9122E+01
     -7.110  0.1717E+01  0.9314E+01
     -6.998  0.1592E+01  0.9491E+01
     -6.886  0.3740E+01  0.9909E+01
     -6.775  0.4455E+01  0.1041E+02
     -6.663  0.1951E+01  0.1062E+02
     -6.552  0.1592E+01  0.1080E+02
     -6.440  0.1851E+01  0.1101E+02
     -6.329  0.1538E+01  0.1118E+02
     -6.217  0.1336E+01  0.1133E+02
     -6.106  0.1798E+01  0.1153E+02
     -5.994  0.3549E+01  0.1192E+02
     -5.882  0.4645E+01  0.1244E+02
     -5.771  0.4843E+01  0.1298E+02
     -5.659  0.4733E+01  0.1351E+02
     -5.548  0.5458E+01  0.1412E+02
     -5.436  0.4384E+01  0.1461E+02
     -5.325  0.3903E+01  0.1504E+02
     -5.213  0.3315E+01  0.1541E+02
     -5.102  0.1471E+01  0.1558E+02
     -4.990  0.1258E+01  0.1572E+02
     -4.878  0.2612E+01  0.1601E+02
     -4.767  0.5988E+01  0.1668E+02
     -4.655  0.4529E+01  0.1718E+02
     -4.544  0.1443E+01  0.1734E+02
     -4.432  0.1255E+01  0.1748E+02
     -4.321  0.1179E+01  0.1762E+02
     -4.209  0.1091E+01  0.1774E+02
     -4.098  0.1096E+01  0.1786E+02
     -3.986  0.6302E+00  0.1793E+02
     -3.874  0.3262E+00  0.1797E+02
     -3.763  0.2692E+00  0.1800E+02
     -3.651  0.2137E+00  0.1802E+02
     -3.540  0.3556E+00  0.1806E+02
     -3.428  0.8567E+00  0.1816E+02
     -3.317  0.1903E+01  0.1837E+02
     -3.205  0.1745E+01  0.1856E+02
     -3.094  0.1718E+01  0.1875E+02
     -2.982  0.4288E+01  0.1923E+02
     -2.870  0.4056E+01  0.1968E+02
     -2.759  0.2022E+01  0.1991E+02
     -2.647  0.4482E+01  0.2041E+02
     -2.536  0.5716E+01  0.2105E+02
     -2.424  0.4920E+01  0.2160E+02
     -2.313  0.3919E+01  0.2203E+02
     -2.201  0.3524E+01  0.2243E+02
     -2.090  0.3836E+01  0.2286E+02
     -1.978  0.5007E+01  0.2341E+02
     -1.866  0.6011E+01  0.2408E+02
     -1.755  0.4178E+01  0.2455E+02
     -1.643  0.3301E+01  0.2492E+02
     -1.532  0.3478E+01  0.2531E+02
     -1.420  0.4198E+01  0.2577E+02
     -1.309  0.7545E+01  0.2662E+02
     -1.197  0.6911E+01  0.2739E+02
     -1.086  0.6377E+01  0.2810E+02
     -0.974  0.6648E+01  0.2884E+02
     -0.862  0.5027E+01  0.2940E+02
     -0.751  0.3138E+01  0.2975E+02
     -0.639  0.2332E+01  0.3001E+02
     -0.528  0.2728E+01  0.3032E+02
     -0.416  0.3011E+01  0.3065E+02
     -0.305  0.3350E+01  0.3103E+02
     -0.193  0.3492E+01  0.3141E+02
     -0.082  0.2724E+01  0.3172E+02
      0.030  0.1929E+01  0.3193E+02
      0.142  0.2064E+01  0.3216E+02
      0.253  0.2710E+01  0.3247E+02
      0.365  0.2997E+01  0.3280E+02
      0.476  0.4071E+01  0.3325E+02
      0.588  0.3423E+01  0.3364E+02
      0.699  0.3255E+01  0.3400E+02
      0.811  0.4103E+01  0.3446E+02
      0.922  0.4953E+01  0.3501E+02
      1.034  0.3367E+01  0.3539E+02
      1.146  0.2610E+01  0.3568E+02
      1.257  0.2341E+01  0.3594E+02
      1.369  0.2142E+01  0.3618E+02
      1.480  0.2452E+01  0.3645E+02
      1.592  0.3103E+01  0.3680E+02
      1.703  0.3647E+01  0.3720E+02
      1.815  0.4701E+01  0.3773E+02
      1.926  0.6166E+01  0.3842E+02
      2.038  0.7137E+01  0.3921E+02
      2.150  0.7863E+01  0.4009E+02
      2.261  0.7337E+01  0.4091E+02
      2.373  0.8850E+01  0.4189E+02
      2.484  0.7538E+01  0.4274E+02
      2.596  0.3643E+01  0.4314E+02
      2.707  0.1754E+01  0.4334E+02
      2.819  0.1554E+01  0.4351E+02
      2.930  0.2451E+01  0.4378E+02
      3.042  0.2397E+01  0.4405E+02
      3.154  0.1615E+01  0.4423E+02
      3.265  0.1619E+01  0.4441E+02
      3.377  0.2111E+01  0.4465E+02
      3.488  0.2325E+01  0.4491E+02
      3.600  0.2987E+01  0.4524E+02
      3.711  0.3040E+01  0.4558E+02
      3.823  0.2257E+01  0.4583E+02
      3.934  0.2553E+01  0.4612E+02
      4.046  0.3506E+01  0.4651E+02
      4.158  0.6612E+01  0.4725E+02
      4.269  0.8072E+01  0.4815E+02
      4.381  0.4489E+01  0.4865E+02
      4.492  0.3588E+01  0.4905E+02
      4.604  0.3846E+01  0.4948E+02
      4.715  0.4102E+01  0.4993E+02
      4.827  0.4056E+01  0.5039E+02
      4.938  0.2848E+01  0.5070E+02
      5.050  0.2931E+01  0.5103E+02
      5.162  0.4036E+01  0.5148E+02
      5.273  0.4431E+01  0.5197E+02
      5.385  0.4974E+01  0.5253E+02
      5.496  0.5032E+01  0.5309E+02
      5.608  0.5074E+01  0.5366E+02
      5.719  0.5467E+01  0.5427E+02
      5.831  0.4192E+01  0.5473E+02
      5.942  0.2814E+01  0.5505E+02
      6.054  0.2443E+01  0.5532E+02
      6.166  0.2603E+01  0.5561E+02
      6.277  0.3280E+01  0.5598E+02
      6.389  0.3455E+01  0.5636E+02
      6.500  0.3123E+01  0.5671E+02
      6.612  0.3299E+01  0.5708E+02
      6.723  0.3457E+01  0.5746E+02
      6.835  0.3065E+01  0.5781E+02
      6.947  0.3455E+01  0.5819E+02
      7.058  0.4360E+01  0.5868E+02
      7.170  0.4246E+01  0.5915E+02
      7.281  0.4478E+01  0.5965E+02
      7.393  0.5270E+01  0.6024E+02
      7.504  0.5310E+01  0.6083E+02
      7.616  0.5873E+01  0.6149E+02
      7.727  0.6897E+01  0.6226E+02
      7.839  0.4522E+01  0.6276E+02
      7.951  0.2935E+01  0.6309E+02
      8.062  0.2228E+01  0.6334E+02
      8.174  0.1729E+01  0.6353E+02
      8.285  0.1477E+01  0.6369E+02
      8.397  0.1489E+01  0.6386E+02
      8.508  0.2175E+01  0.6410E+02
      8.620  0.2267E+01  0.6436E+02
      8.731  0.2016E+01  0.6458E+02
      8.843  0.3227E+01  0.6494E+02
      8.955  0.4268E+01  0.6542E+02
      9.066  0.3684E+01  0.6583E+02
      9.178  0.3402E+01  0.6621E+02
      9.289  0.2496E+01  0.6649E+02
      9.401  0.1557E+01  0.6666E+02
      9.512  0.1696E+01  0.6685E+02
      9.624  0.1235E+01  0.6699E+02
      9.735  0.1426E+01  0.6715E+02
      9.847  0.1903E+01  0.6736E+02
      9.959  0.1845E+01  0.6756E+02
     10.070  0.2044E+01  0.6779E+02
     10.182  0.3554E+01  0.6819E+02
     10.293  0.4959E+01  0.6874E+02
     10.405  0.5217E+01  0.6932E+02
     10.516  0.5738E+01  0.6996E+02
     10.628  0.5275E+01  0.7055E+02
     10.739  0.4624E+01  0.7107E+02
     10.851  0.5901E+01  0.7173E+02
     10.963  0.6932E+01  0.7250E+02
     11.074  0.5958E+01  0.7316E+02
     11.186  0.5119E+01  0.7374E+02
     11.297  0.4653E+01  0.7425E+02
     11.409  0.3135E+01  0.7460E+02
     11.520  0.2746E+01  0.7491E+02
     11.632  0.3252E+01  0.7527E+02
     11.743  0.3974E+01  0.7572E+02
     11.855  0.4880E+01  0.7626E+02
     11.967  0.4401E+01  0.7675E+02
     12.078  0.4255E+01  0.7723E+02
     12.190  0.4218E+01  0.7770E+02
     12.301  0.4159E+01  0.7816E+02
     12.413  0.4882E+01  0.7871E+02
     12.524  0.5479E+01  0.7932E+02
     12.636  0.6864E+01  0.8008E+02
     12.747  0.6141E+01  0.8077E+02
     12.859  0.5420E+01  0.8137E+02
     12.971  0.4503E+01  0.8188E+02
     13.082  0.3985E+01  0.8232E+02
     13.194  0.6436E+01  0.8304E+02
     13.305  0.7335E+01  0.8386E+02
     13.417  0.5480E+01  0.8447E+02
     13.528  0.4666E+01  0.8499E+02
     13.640  0.4719E+01  0.8551E+02
     13.751  0.4565E+01  0.8602E+02
     13.863  0.4344E+01  0.8651E+02
     13.975  0.4003E+01  0.8695E+02
     14.086  0.4878E+01  0.8750E+02
     14.198  0.5431E+01  0.8810E+02
     14.309  0.4650E+01  0.8862E+02
     14.421  0.4749E+01  0.8915E+02
     14.532  0.5176E+01  0.8973E+02
     14.644  0.6214E+01  0.9042E+02
     14.755  0.8345E+01  0.9135E+02
     14.867  0.8066E+01  0.9225E+02
     14.979  0.5234E+01  0.9284E+02
     15.090  0.5372E+01  0.9344E+02
     15.202  0.4637E+01  0.9395E+02
     15.313  0.4741E+01  0.9448E+02
     15.425  0.4326E+01  0.9497E+02
     15.536  0.2670E+01  0.9526E+02
     15.648  0.1506E+01  0.9543E+02
     15.759  0.1617E+01  0.9561E+02
     15.871  0.1965E+01  0.9583E+02
     15.983  0.9418E+00  0.9594E+02
     16.094  0.3280E+00  0.9597E+02
     16.206  0.1984E+00  0.9600E+02
     16.317  0.3722E-01  0.9600E+02
     16.429  0.9911E-03  0.9600E+02
     16.540  0.2901E-05  0.9600E+02
     16.652  0.8253E-09  0.9600E+02
     16.763  0.2141E-13  0.9600E+02
     16.875  0.0000E+00  0.9600E+02
     16.987  0.0000E+00  0.9600E+02
     17.098  0.0000E+00  0.9600E+02
     17.210  0.0000E+00  0.9600E+02
     17.321  0.0000E+00  0.9600E+02
     17.433  0.0000E+00  0.9600E+02
     17.544  0.0000E+00  0.9600E+02
     17.656  0.0000E+00  0.9600E+02
     17.65586498    -15.81089449  301      2.38432897      1.00000000
    -15.811  0.0000E+00  0.0000E+00  0.0000E+00  0.0000E+00  0.0000E+00  0.0000E+00  0.0000E+00  0.0000E+00  0.0000E+00
    -15.699  0.0000E+00  0.0000E+00  0.0000E+00  0.0000E+00  0.0000E+00  0.0000E+00  0.0000E+00  0.0000E+00  0.0000E+00
    -15.588  0.0000E+00  0.0000E+00  0.0000E+00  0.0000E+00  0.0000E+00  0.0000E+00  0.0000E+00  0.0000E+00  0.0000E+00
    -15.476  0.0000E+00  0.0000E+00  0.0000E+00  0.0000E+00  0.0000E+00  0.0000E+00  0.0000E+00  0.0000E+00  0.0000E+00
    -15.365  0.0000E+00  0.0000E+00  0.0000E+00  0.0000E+00  0.0000E+00  0.0000E+00  0.0000E+00  0.0000E+00  0.0000E+00
    -15.253  0.0000E+00  0.0000E+00  0.0000E+00  0.0000E+00  0.0000E+00  0.0000E+00  0.0000E+00  0.0000E+00  0.0000E+00
    -15.142  0.0000E+00  0.0000E+00  0.0000E+00  0.0000E+00  0.0000E+00  0.0000E+00  0.0000E+00  0.0000E+00  0.0000E+00
    -15.030  0.0000E+00  0.0000E+00  0.0000E+00  0.0000E+00  0.0000E+00  0.0000E+00  0.0000E+00  0.0000E+00  0.0000E+00
    -14.918  0.0000E+00  0.0000E+00  0.0000E+00  0.0000E+00  0.0000E+00  0.0000E+00  0.0000E+00  0.0000E+00  0.0000E+00
    -14.807  0.7596E-14  0.1116E-22  0.1840E-15  0.1160E-14  0.0000E+00  0.0000E+00  0.0000E+00  0.0000E+00  0.0000E+00
    -14.695  0.3621E-09  0.1579E-17  0.8780E-11  0.5540E-10  0.0000E+00  0.0000E+00  0.0000E+00  0.0000E+00  0.0000E+00
    -14.584  0.1639E-05  0.2007E-13  0.3980E-07  0.2519E-06  0.0000E+00  0.0000E+00  0.0000E+00  0.0000E+00  0.0000E+00
    -14.472  0.7674E-03  0.2307E-10  0.1867E-04  0.1190E-03  0.0000E+00  0.0000E+00  0.0000E+00  0.0000E+00  0.0000E+00
    -14.361  0.4265E-01  0.2551E-08  0.1042E-02  0.6701E-02  0.0000E+00  0.0000E+00  0.0000E+00  0.0000E+00  0.0000E+00
    -14.249  0.3325E+00  0.3047E-07  0.8218E-02  0.5298E-01  0.0000E+00  0.0000E+00  0.0000E+00  0.0000E+00  0.0000E+00
    -14.138  0.4332E+00  0.4560E-07  0.1132E-01  0.6982E-01  0.0000E+00  0.0000E+00  0.0000E+00  0.0000E+00  0.0000E+00
    -14.026  0.1549E+00  0.8874E-08  0.5380E-02  0.2528E-01  0.0000E+00  0.0000E+00  0.0000E+00  0.0000E+00  0.0000E+00
    -13.914  0.7876E-01  0.1982E-09  0.4059E-02  0.1321E-01  0.0000E+00  0.0000E+00  0.0000E+00  0.0000E+00  0.0000E+00
    -13.803  0.6478E-01  0.4441E-12  0.4116E-02  0.1116E-01  0.0000E+00  0.0000E+00  0.0000E+00  0.0000E+00  0.0000E+00
    -13.691  0.5684E-01  0.1956E-14  0.4263E-02  0.1005E-01  0.0000E+00  0.0000E+00  0.0000E+00  0.0000E+00  0.0000E+00
    -13.580  0.5126E-01  0.1644E-14  0.4433E-02  0.9291E-02  0.0000E+00  0.0000E+00  0.0000E+00  0.0000E+00  0.0000E+00
    -13.468  0.4707E-01  0.9678E-13  0.4612E-02  0.8743E-02  0.0000E+00  0.0000E+00  0.0000E+00  0.0000E+00  0.0000E+00
    -13.357  0.4423E-01  0.8410E-10  0.4859E-02  0.8416E-02  0.0000E+00  0.0000E+00  0.0000E+00  0.0000E+00  0.0000E+00
    -13.245  0.7866E-01  0.7547E-08  0.1026E-01  0.1555E-01  0.0000E+00  0.0000E+00  0.0000E+00  0.0000E+00  0.0000E+00
    -13.134  0.4291E+00  0.7843E-07  0.5998E-01  0.8664E-01  0.0000E+00  0.0000E+00  0.0000E+00  0.0000E+00  0.0000E+00
    -13.022  0.5810E+00  0.1090E-06  0.8172E-01  0.1181E+00  0.0000E+00  0.0000E+00  0.0000E+00  0.0000E+00  0.0000E+00
    -12.910  0.1404E+00  0.2088E-07  0.2027E-01  0.2877E-01  0.0000E+00  0.0000E+00  0.0000E+00  0.0000E+00  0.0000E+00
    -12.799  0.3679E-01  0.4886E-09  0.6144E-02  0.7739E-02  0.0000E+00  0.0000E+00  0.0000E+00  0.0000E+00  0.0000E+00
    -12.687  0.3269E-01  0.1214E-11  0.5913E-02  0.6994E-02  0.0000E+00  0.0000E+00  0.0000E+00  0.0000E+00  0.0000E+00
    -12.576  0.3224E-01  0.1214E-14  0.6217E-02  0.6987E-02  0.0000E+00  0.0000E+00  0.0000E+00  0.0000E+00  0.0000E+00
    -12.464  0.3189E-01  0.7182E-15  0.6567E-02  0.6983E-02  0.0000E+00  0.0000E+00  0.0000E+00  0.0000E+00  0.0000E+00
    -12.353  0.3066E-01  0.6355E-15  0.6712E-02  0.6747E-02  0.0000E+00  0.0000E+00  0.0000E+00  0.0000E+00  0.0000E+00
    -12.241  0.3083E-01  0.6233E-15  0.7141E-02  0.6778E-02  0.0000E+00  0.0000E+00  0.0000E+00  0.0000E+00  0.0000E+00
    -12.130  0.3141E-01  0.7186E-14  0.7724E-02  0.6839E-02  0.0000E+00  0.0000E+00  0.0000E+00  0.0000E+00  0.0000E+00
    -12.018  0.3186E-01  0.1187E-10  0.8308E-02  0.6746E-02  0.0000E+00  0.0000E+00  0.0000E+00  0.0000E+00  0.0000E+00
    -11.906  0.3777E-01  0.1957E-08  0.1047E-01  0.7301E-02  0.0000E+00  0.0000E+00  0.0000E+00  0.0000E+00  0.0000E+00
    -11.795  0.8571E-01  0.3427E-07  0.2495E-01  0.1242E-01  0.0000E+00  0.0000E+00  0.0000E+00  0.0000E+00  0.0000E+00
    -11.683  0.1395E+00  0.7393E-07  0.4110E-01  0.1796E-01  0.0000E+00  0.0000E+00  0.0000E+00  0.0000E+00  0.0000E+00
    -11.572  0.7303E-01  0.2103E-07  0.2218E-01  0.1015E-01  0.0000E+00  0.0000E+00  0.0000E+00  0.0000E+00  0.0000E+00
    -11.460  0.4721E-01  0.7120E-09  0.1546E-01  0.6879E-02  0.0000E+00  0.0000E+00  0.0000E+00  0.0000E+00  0.0000E+00
    -11.349  0.5914E-01  0.2483E-11  0.2069E-01  0.7291E-02  0.0000E+00  0.0000E+00  0.0000E+00  0.0000E+00  0.0000E+00
    -11.237  0.6453E-01  0.2500E-14  0.2343E-01  0.6678E-02  0.0000E+00  0.0000E+00  0.0000E+00  0.0000E+00  0.0000E+00
    -11.126  0.2039E-01  0.5595E-15  0.7493E-02  0.1957E-02  0.0000E+00  0.0000E+00  0.0000E+00  0.0000E+00  0.0000E+00
    -11.014  0.1019E-02  0.2865E-16  0.3762E-03  0.9493E-04  0.0000E+00  0.0000E+00  0.0000E+00  0.0000E+00  0.0000E+00
    -10.902  0.6018E-05  0.1694E-18  0.2226E-05  0.5527E-06  0.0000E+00  0.0000E+00  0.0000E+00  0.0000E+00  0.0000E+00
    -10.791  0.5100E-08  0.1086E-21  0.1464E-08  0.1382E-08  0.0000E+00  0.0000E+00  0.0000E+00  0.0000E+00  0.0000E+00
    -10.679  0.2722E-05  0.1651E-19  0.2439E-06  0.1900E-05  0.0000E+00  0.0000E+00  0.0000E+00  0.0000E+00  0.0000E+00
    -10.568  0.4930E-03  0.3094E-17  0.4442E-04  0.3444E-03  0.0000E+00  0.0000E+00  0.0000E+00  0.0000E+00  0.0000E+00
    -10.456  0.1055E-01  0.1311E-15  0.9605E-03  0.7380E-02  0.0000E+00  0.0000E+00  0.0000E+00  0.0000E+00  0.0000E+00
    -10.345  0.3623E-01  0.1529E-12  0.3378E-02  0.2548E-01  0.0000E+00  0.0000E+00  0.0000E+00  0.0000E+00  0.0000E+00
    -10.233  0.4404E-01  0.3546E-10  0.3870E-02  0.3143E-01  0.0000E+00  0.0000E+00  0.0000E+00  0.0000E+00  0.0000E+00
    -10.122  0.1858E+00  0.9065E-09  0.9130E-02  0.1330E+00  0.0000E+00  0.0000E+00  0.0000E+00  0.0000E+00  0.0000E+00
    -10.010  0.4661E+00  0.1147E-07  0.2225E-01  0.3347E+00  0.0000E+00  0.0000E+00  0.0000E+00  0.0000E+00  0.0000E+00
     -9.898  0.2512E+00  0.1473E-06  0.3388E-01  0.2099E+00  0.0000E+00  0.0000E+00  0.0000E+00  0.0000E+00  0.0000E+00
     -9.787  0.1450E+00  0.2947E-06  0.5305E-01  0.1997E+00  0.0000E+00  0.0000E+00  0.0000E+00  0.0000E+00  0.0000E+00
     -9.675  0.8099E-01  0.1713E-06  0.3672E-01  0.1627E+00  0.0000E+00  0.0000E+00  0.0000E+00  0.0000E+00  0.0000E+00
     -9.564  0.1229E+00  0.4519E-06  0.6159E-01  0.2385E+00  0.0000E+00  0.0000E+00  0.0000E+00  0.0000E+00  0.0000E+00
     -9.452  0.7472E-01  0.2787E-06  0.3973E-01  0.1473E+00  0.0000E+00  0.0000E+00  0.0000E+00  0.0000E+00  0.0000E+00
     -9.341  0.1023E-01  0.2159E-07  0.8004E-02  0.2738E-01  0.0000E+00  0.0000E+00  0.0000E+00  0.0000E+00  0.0000E+00
     -9.229  0.3671E-02  0.1801E-09  0.5242E-02  0.1579E-01  0.0000E+00  0.0000E+00  0.0000E+00  0.0000E+00  0.0000E+00
     -9.118  0.3220E-02  0.4553E-11  0.5886E-02  0.1735E-01  0.0000E+00  0.0000E+00  0.0000E+00  0.0000E+00  0.0000E+00
     -9.006  0.2816E-02  0.3966E-08  0.6986E-02  0.2089E-01  0.0000E+00  0.0000E+00  0.0000E+00  0.0000E+00  0.0000E+00
     -8.894  0.2403E-02  0.3473E-06  0.1116E-01  0.3636E-01  0.0000E+00  0.0000E+00  0.0000E+00  0.0000E+00  0.0000E+00
     -8.783  0.2193E-02  0.3345E-05  0.3001E-01  0.1073E+00  0.0000E+00  0.0000E+00  0.0000E+00  0.0000E+00  0.0000E+00
     -8.671  0.1247E-02  0.4093E-05  0.2812E-01  0.1026E+00  0.0000E+00  0.0000E+00  0.0000E+00  0.0000E+00  0.0000E+00
     -8.560  0.1557E-03  0.6485E-06  0.4095E-02  0.1500E-01  0.0000E+00  0.0000E+00  0.0000E+00  0.0000E+00  0.0000E+00
     -8.448  0.2555E-05  0.1165E-07  0.7125E-04  0.2611E-03  0.0000E+00  0.0000E+00  0.0000E+00  0.0000E+00  0.0000E+00
     -8.337  0.4399E-08  0.2077E-10  0.1263E-06  0.4629E-06  0.0000E+00  0.0000E+00  0.0000E+00  0.0000E+00  0.0000E+00
     -8.225  0.7174E-12  0.3408E-14  0.2097E-10  0.7680E-10  0.0000E+00  0.0000E+00  0.0000E+00  0.0000E+00  0.0000E+00
     -8.114  0.1054E-16  0.6777E-13  0.3123E-15  0.1143E-14  0.0000E+00  0.0000E+00  0.0000E+00  0.0000E+00  0.0000E+00
     -8.002  0.7985E-15  0.1507E-08  0.1565E-13  0.4538E-15  0.0000E+00  0.0000E+00  0.0000E+00  0.0000E+00  0.0000E+00
     -7.890  0.3275E-10  0.3088E-05  0.6430E-09  0.1870E-10  0.0000E+00  0.0000E+00  0.0000E+00  0.0000E+00  0.0000E+00
     -7.779  0.1208E-06  0.6279E-03  0.2376E-05  0.6941E-07  0.0000E+00  0.0000E+00  0.0000E+00  0.0000E+00  0.0000E+00
     -7.667  0.4200E-04  0.1475E-01  0.8274E-03  0.2437E-04  0.0000E+00  0.0000E+00  0.0000E+00  0.0000E+00  0.0000E+00
     -7.556  0.1512E-02  0.5439E-01  0.2983E-01  0.8934E-03  0.0000E+00  0.0000E+00  0.0000E+00  0.0000E+00  0.0000E+00
     -7.444  0.6664E-02  0.6876E-01  0.1315E+00  0.4162E-02  0.0000E+00  0.0000E+00  0.0000E+00  0.0000E+00  0.0000E+00
     -7.333  0.4708E-02  0.8944E-01  0.9244E-01  0.3792E-02  0.0000E+00  0.0000E+00  0.0000E+00  0.0000E+00  0.0000E+00
     -7.221  0.1554E-02  0.8228E-01  0.2984E-01  0.2617E-02  0.0000E+00  0.0000E+00  0.0000E+00  0.0000E+00  0.0000E+00
     -7.110  0.1325E-02  0.7816E-01  0.2212E-01  0.2852E-02  0.0000E+00  0.0000E+00  0.0000E+00  0.0000E+00  0.0000E+00
     -6.998  0.1322E-01  0.5392E-01  0.2674E-01  0.5513E-02  0.0000E+00  0.0000E+00  0.0000E+00  0.0000E+00  0.0000E+00
     -6.886  0.1061E+00  0.3024E-01  0.7199E-01  0.2530E-01  0.0000E+00  0.0000E+00  0.0000E+00  0.0000E+00  0.0000E+00
     -6.775  0.1349E+00  0.2401E-01  0.8963E-01  0.3183E-01  0.0000E+00  0.0000E+00  0.0000E+00  0.0000E+00  0.0000E+00
     -6.663  0.4317E-01  0.2129E-01  0.5441E-01  0.1297E-01  0.0000E+00  0.0000E+00  0.0000E+00  0.0000E+00  0.0000E+00
     -6.552  0.2447E-01  0.1940E-01  0.6915E-01  0.1061E-01  0.0000E+00  0.0000E+00  0.0000E+00  0.0000E+00  0.0000E+00
     -6.440  0.2598E-01  0.1782E-01  0.1042E+00  0.1257E-01  0.0000E+00  0.0000E+00  0.0000E+00  0.0000E+00  0.0000E+00
     -6.329  0.2161E-01  0.1697E-01  0.7643E-01  0.1191E-01  0.0000E+00  0.0000E+00  0.0000E+00  0.0000E+00  0.0000E+00
     -6.217  0.1808E-01  0.1700E-01  0.5553E-01  0.1214E-01  0.0000E+00  0.0000E+00  0.0000E+00  0.0000E+00  0.0000E+00
     -6.106  0.1788E-01  0.3278E-01  0.5637E-01  0.1461E-01  0.0000E+00  0.0000E+00  0.0000E+00  0.0000E+00  0.0000E+00
     -5.994  0.2007E-01  0.9119E-01  0.7096E-01  0.1988E-01  0.0000E+00  0.0000E+00  0.0000E+00  0.0000E+00  0.0000E+00
     -5.882  0.1688E-01  0.1209E+00  0.1049E+00  0.1943E-01  0.0000E+00  0.0000E+00  0.0000E+00  0.0000E+00  0.0000E+00
     -5.771  0.1179E-01  0.1318E+00  0.9375E-01  0.1226E-01  0.0000E+00  0.0000E+00  0.0000E+00  0.0000E+00  0.0000E+00
     -5.659  0.1190E-01  0.1318E+00  0.4179E-01  0.3651E-01  0.0000E+00  0.0000E+00  0.0000E+00  0.0000E+00  0.0000E+00
     -5.548  0.2346E-01  0.6502E-01  0.6100E-01  0.1758E+00  0.0000E+00  0.0000E+00  0.0000E+00  0.0000E+00  0.0000E+00
     -5.436  0.3550E-01  0.3415E-01  0.6046E-01  0.1411E+00  0.0000E+00  0.0000E+00  0.0000E+00  0.0000E+00  0.0000E+00
     -5.325  0.8830E-01  0.4331E-01  0.7966E-01  0.2271E-01  0.0000E+00  0.0000E+00  0.0000E+00  0.0000E+00  0.0000E+00
     -5.213  0.7544E-01  0.4278E-01  0.6688E-01  0.7532E-02  0.0000E+00  0.0000E+00  0.0000E+00  0.0000E+00  0.0000E+00
     -5.102  0.2064E-01  0.2578E-01  0.2467E-01  0.5847E-02  0.0000E+00  0.0000E+00  0.0000E+00  0.0000E+00  0.0000E+00
     -4.990  0.1362E-01  0.2271E-01  0.2320E-01  0.6643E-02  0.0000E+00  0.0000E+00  0.0000E+00  0.0000E+00  0.0000E+00
     -4.878  0.4123E-01  0.2938E-01  0.8546E-01  0.2043E-01  0.0000E+00  0.0000E+00  0.0000E+00  0.0000E+00  0.0000E+00
     -4.767  0.1619E+00  0.1563E-01  0.2898E+00  0.5856E-01  0.0000E+00  0.0000E+00  0.0000E+00  0.0000E+00  0.0000E+00
     -4.655  0.1392E+00  0.7529E-02  0.2108E+00  0.3774E-01  0.0000E+00  0.0000E+00  0.0000E+00  0.0000E+00  0.0000E+00
     -4.544  0.2842E-01  0.1060E-01  0.5472E-01  0.9026E-02  0.0000E+00  0.0000E+00  0.0000E+00  0.0000E+00  0.0000E+00
     -4.432  0.1291E-01  0.1842E-01  0.3290E-01  0.6114E-02  0.0000E+00  0.0000E+00  0.0000E+00  0.0000E+00  0.0000E+00
     -4.321  0.1549E-01  0.1168E-01  0.3517E-01  0.7003E-02  0.0000E+00  0.0000E+00  0.0000E+00  0.0000E+00  0.0000E+00
     -4.209  0.2299E-01  0.1285E-02  0.3105E-01  0.6967E-02  0.0000E+00  0.0000E+00  0.0000E+00  0.0000E+00  0.0000E+00
     -4.098  0.2163E-01  0.1763E-04  0.4595E-01  0.9076E-02  0.0000E+00  0.0000E+00  0.0000E+00  0.0000E+00  0.0000E+00
     -3.986  0.1159E-01  0.2509E-07  0.3351E-01  0.5462E-02  0.0000E+00  0.0000E+00  0.0000E+00  0.0000E+00  0.0000E+00
     -3.874  0.3361E-02  0.3360E-11  0.2216E-01  0.4413E-02  0.0000E+00  0.0000E+00  0.0000E+00  0.0000E+00  0.0000E+00
     -3.763  0.1530E-02  0.9936E-16  0.1976E-01  0.4207E-02  0.0000E+00  0.0000E+00  0.0000E+00  0.0000E+00  0.0000E+00
     -3.651  0.9386E-03  0.1475E-15  0.1473E-01  0.3266E-02  0.0000E+00  0.0000E+00  0.0000E+00  0.0000E+00  0.0000E+00
     -3.540  0.1202E-02  0.4605E-15  0.2361E-01  0.7858E-02  0.0000E+00  0.0000E+00  0.0000E+00  0.0000E+00  0.0000E+00
     -3.428  0.2987E-02  0.3109E-11  0.3353E-01  0.2531E-01  0.0000E+00  0.0000E+00  0.0000E+00  0.0000E+00  0.0000E+00
     -3.317  0.8975E-02  0.2114E-07  0.6890E-01  0.6421E-01  0.0000E+00  0.0000E+00  0.0000E+00  0.0000E+00  0.0000E+00
     -3.205  0.1131E-01  0.1360E-04  0.5948E-01  0.6204E-01  0.0000E+00  0.0000E+00  0.0000E+00  0.0000E+00  0.0000E+00
     -3.094  0.1307E-01  0.9171E-03  0.6011E-01  0.6464E-01  0.0000E+00  0.0000E+00  0.0000E+00  0.0000E+00  0.0000E+00
     -2.982  0.2975E-01  0.7945E-02  0.1700E+00  0.1687E+00  0.0000E+00  0.0000E+00  0.0000E+00  0.0000E+00  0.0000E+00
     -2.870  0.2704E-01  0.1297E-01  0.1422E+00  0.1463E+00  0.0000E+00  0.0000E+00  0.0000E+00  0.0000E+00  0.0000E+00
     -2.759  0.2024E-01  0.9286E-02  0.3375E-01  0.3793E-01  0.0000E+00  0.0000E+00  0.0000E+00  0.0000E+00  0.0000E+00
     -2.647  0.6820E-01  0.1028E-01  0.4514E-01  0.4977E-01  0.0000E+00  0.0000E+00  0.0000E+00  0.0000E+00  0.0000E+00
     -2.536  0.6778E-01  0.3077E-01  0.4904E-01  0.6026E-01  0.0000E+00  0.0000E+00  0.0000E+00  0.0000E+00  0.0000E+00
     -2.424  0.3462E-01  0.5635E-01  0.2196E-01  0.4555E-01  0.0000E+00  0.0000E+00  0.0000E+00  0.0000E+00  0.0000E+00
     -2.313  0.1937E-01  0.5094E-01  0.1495E-01  0.2514E-01  0.0000E+00  0.0000E+00  0.0000E+00  0.0000E+00  0.0000E+00
     -2.201  0.1290E-01  0.5600E-01  0.1270E-01  0.1375E-01  0.0000E+00  0.0000E+00  0.0000E+00  0.0000E+00  0.0000E+00
     -2.090  0.1244E-01  0.5172E-01  0.1738E-01  0.1095E-01  0.0000E+00  0.0000E+00  0.0000E+00  0.0000E+00  0.0000E+00
     -1.978  0.1252E-01  0.4766E-01  0.2785E-01  0.9149E-02  0.0000E+00  0.0000E+00  0.0000E+00  0.0000E+00  0.0000E+00
     -1.866  0.1310E-01  0.8986E-01  0.2341E-01  0.1213E-01  0.0000E+00  0.0000E+00  0.0000E+00  0.0000E+00  0.0000E+00
     -1.755  0.1050E-01  0.6391E-01  0.1311E-01  0.1041E-01  0.0000E+00  0.0000E+00  0.0000E+00  0.0000E+00  0.0000E+00
     -1.643  0.1216E-01  0.4243E-01  0.1070E-01  0.9922E-02  0.0000E+00  0.0000E+00  0.0000E+00  0.0000E+00  0.0000E+00
     -1.532  0.1352E-01  0.5785E-01  0.1495E-01  0.8688E-02  0.0000E+00  0.0000E+00  0.0000E+00  0.0000E+00  0.0000E+00
     -1.420  0.3903E-01  0.5056E-01  0.6037E-01  0.3681E-01  0.0000E+00  0.0000E+00  0.0000E+00  0.0000E+00  0.0000E+00
     -1.309  0.1245E+00  0.2792E-01  0.1857E+00  0.1176E+00  0.0000E+00  0.0000E+00  0.0000E+00  0.0000E+00  0.0000E+00
     -1.197  0.1311E+00  0.2427E-01  0.1944E+00  0.1097E+00  0.0000E+00  0.0000E+00  0.0000E+00  0.0000E+00  0.0000E+00
     -1.086  0.9604E-01  0.2361E-01  0.2603E+00  0.8012E-01  0.0000E+00  0.0000E+00  0.0000E+00  0.0000E+00  0.0000E+00
     -0.974  0.9134E-01  0.2636E-01  0.2060E+00  0.1267E+00  0.0000E+00  0.0000E+00  0.0000E+00  0.0000E+00  0.0000E+00
     -0.862  0.7113E-01  0.2286E-01  0.8252E-01  0.1395E+00  0.0000E+00  0.0000E+00  0.0000E+00  0.0000E+00  0.0000E+00
     -0.751  0.2935E-01  0.1899E-01  0.6116E-01  0.5614E-01  0.0000E+00  0.0000E+00  0.0000E+00  0.0000E+00  0.0000E+00
     -0.639  0.1109E-01  0.2133E-01  0.2409E-01  0.1706E-01  0.0000E+00  0.0000E+00  0.0000E+00  0.0000E+00  0.0000E+00
     -0.528  0.6994E-02  0.2359E-01  0.5099E-02  0.8983E-02  0.0000E+00  0.0000E+00  0.0000E+00  0.0000E+00  0.0000E+00
     -0.416  0.1552E-01  0.2028E-01  0.1110E-01  0.2324E-01  0.0000E+00  0.0000E+00  0.0000E+00  0.0000E+00  0.0000E+00
     -0.305  0.2984E-01  0.1970E-01  0.1274E-01  0.4967E-01  0.0000E+00  0.0000E+00  0.0000E+00  0.0000E+00  0.0000E+00
     -0.193  0.3952E-01  0.1889E-01  0.9791E-02  0.5960E-01  0.0000E+00  0.0000E+00  0.0000E+00  0.0000E+00  0.0000E+00
     -0.082  0.2569E-01  0.1988E-01  0.1366E-01  0.3595E-01  0.0000E+00  0.0000E+00  0.0000E+00  0.0000E+00  0.0000E+00
      0.030  0.9130E-02  0.2440E-01  0.1068E-01  0.1424E-01  0.0000E+00  0.0000E+00  0.0000E+00  0.0000E+00  0.0000E+00
      0.142  0.8086E-02  0.3252E-01  0.1249E-01  0.1141E-01  0.0000E+00  0.0000E+00  0.0000E+00  0.0000E+00  0.0000E+00
      0.253  0.6944E-02  0.5456E-01  0.1021E-01  0.1055E-01  0.0000E+00  0.0000E+00  0.0000E+00  0.0000E+00  0.0000E+00
      0.365  0.4603E-02  0.9404E-01  0.5330E-02  0.7819E-02  0.0000E+00  0.0000E+00  0.0000E+00  0.0000E+00  0.0000E+00
      0.476  0.5122E-02  0.1401E+00  0.7323E-02  0.8624E-02  0.0000E+00  0.0000E+00  0.0000E+00  0.0000E+00  0.0000E+00
      0.588  0.5457E-02  0.1249E+00  0.1046E-01  0.8334E-02  0.0000E+00  0.0000E+00  0.0000E+00  0.0000E+00  0.0000E+00
      0.699  0.1140E-01  0.1193E+00  0.2775E-01  0.1582E-01  0.0000E+00  0.0000E+00  0.0000E+00  0.0000E+00  0.0000E+00
      0.811  0.2855E-01  0.9779E-01  0.7352E-01  0.3512E-01  0.0000E+00  0.0000E+00  0.0000E+00  0.0000E+00  0.0000E+00
      0.922  0.4001E-01  0.1074E+00  0.9675E-01  0.4578E-01  0.0000E+00  0.0000E+00  0.0000E+00  0.0000E+00  0.0000E+00
      1.034  0.2033E-01  0.8738E-01  0.4683E-01  0.2324E-01  0.0000E+00  0.0000E+00  0.0000E+00  0.0000E+00  0.0000E+00
      1.146  0.1139E-01  0.4019E-01  0.2058E-01  0.1030E-01  0.0000E+00  0.0000E+00  0.0000E+00  0.0000E+00  0.0000E+00
      1.257  0.1092E-01  0.2569E-01  0.1972E-01  0.8925E-02  0.0000E+00  0.0000E+00  0.0000E+00  0.0000E+00  0.0000E+00
      1.369  0.1004E-01  0.2375E-01  0.2036E-01  0.8404E-02  0.0000E+00  0.0000E+00  0.0000E+00  0.0000E+00  0.0000E+00
      1.480  0.1052E-01  0.2189E-01  0.2715E-01  0.1332E-01  0.0000E+00  0.0000E+00  0.0000E+00  0.0000E+00  0.0000E+00
      1.592  0.8094E-02  0.2141E-01  0.5343E-01  0.3242E-01  0.0000E+00  0.0000E+00  0.0000E+00  0.0000E+00  0.0000E+00