   14   14    1    1
  0.1021318E+02  0.6201871E-09  0.5700971E-09  0.4044058E-09  0.5000000E-15
  1.000000000000000E-004
  CAR 
 BS                                      
     42    112     48
 
  0.0000000E+00  0.0000000E+00  0.0000000E+00  0.8928571E-02
      1        -14.289678   1.000000
      2        -11.285362   1.000000
      3        -10.066026   1.000000
      4         -9.849203   1.000000
      5         -7.348223   1.000000
      6         -6.501756   1.000000
      7         -5.868443   1.000000
      8         -4.424741   1.000000
      9         -4.244440   1.000000
     10         -3.425829   1.000000
     11         -2.669005   1.000000
     12         -2.606556   1.000000
     13         -2.516054   1.000000
     14         -1.625994   1.000000
     15         -1.376948   1.000000
     16         -0.185606   1.000000
     17          0.726534   1.000000
     18          1.677308   1.000000
     19          2.122307   0.999895
     20          2.438258   0.222829
     21          3.047747   0.000000
     22          3.259430   0.000000
     23          4.111663   0.000000
     24          4.271770   0.000000
     25          4.456626   0.000000
     26          5.773122   0.000000
     27          5.795687   0.000000
     28          6.184324   0.000000
     29          6.352923   0.000000
     30          7.003160   0.000000
     31          7.099352   0.000000
     32          7.182528   0.000000
     33          7.590358   0.000000
     34          8.488764   0.000000
     35         10.606762   0.000000
     36         10.779652   0.000000
     37         10.875835   0.000000
     38         11.300599   0.000000
     39         11.976285   0.000000
     40         12.188589   0.000000
     41         12.625806   0.000000
     42         12.692730   0.000000
     43         13.633124   0.000000
     44         14.018474   0.000000
     45         14.183554   0.000000
     46         14.611374   0.000000
     47         15.058070   0.000000
     48         15.326412   0.000000
 
  0.0000000E+00  0.0000000E+00  0.3333333E-01  0.8928571E-02
      1        -14.284286   1.000000
      2        -11.297807   1.000000
      3        -10.068578   1.000000
      4         -9.845528   1.000000
      5         -7.340194   1.000000
      6         -6.477682   1.000000
      7         -5.883177   1.000000
      8         -4.427016   1.000000
      9         -4.284747   1.000000
     10         -3.423274   1.000000
     11         -2.665525   1.000000
     12         -2.599929   1.000000
     13         -2.471119   1.000000
     14         -1.625264   1.000000
     15         -1.359478   1.000000
     16         -0.191848   1.000000
     17          0.670966   1.000000
     18          1.678580   1.000000
     19          2.122427   0.999894
     20          2.436654   0.229653
     21          3.013794   0.000000
     22          3.262099   0.000000
     23          4.081561   0.000000
     24          4.284575   0.000000
     25          4.506378   0.000000
     26          5.745656   0.000000
     27          5.788549   0.000000
     28          6.183416   0.000000
     29          6.324617   0.000000
     30          7.016483   0.000000
     31          7.111300   0.000000
     32          7.201549   0.000000
     33          7.594662   0.000000
     34          8.492075   0.000000
     35         10.602124   0.000000
     36         10.808476   0.000000
     37         10.881521   0.000000
     38         11.318619   0.000000
     39         11.990103   0.000000
     40         12.152178   0.000000
     41         12.682062   0.000000
     42         12.692212   0.000000
     43         13.656014   0.000000
     44         14.036913   0.000000
     45         14.176119   0.000000
     46         14.529552   0.000000
     47         15.125021   0.000000
     48         15.329209   0.000000
 
  0.0000000E+00  0.0000000E+00  0.6666667E-01  0.8928571E-02
      1        -14.268124   1.000000
      2        -11.335290   1.000000
      3        -10.074593   1.000000
      4         -9.834613   1.000000
      5         -7.316151   1.000000
      6         -6.408191   1.000000
      7         -5.926486   1.000000
      8         -4.434235   1.000000
      9         -4.392207   1.000000
     10         -3.415208   1.000000
     11         -2.654854   1.000000
     12         -2.580114   1.000000
     13         -2.349465   1.000000
     14         -1.622938   1.000000
     15         -1.309463   1.000000
     16         -0.210253   1.000000
     17          0.519872   1.000000
     18          1.682581   1.000000
     19          2.123331   0.999888
     20          2.421180   0.301130
     21          2.917475   0.000000
     22          3.269969   0.000000
     23          3.992932   0.000000
     24          4.319811   0.000000
     25          4.650702   0.000000
     26          5.667252   0.000000
     27          5.766613   0.000000
     28          6.180650   0.000000
     29          6.245469   0.000000
     30          7.057160   0.000000
     31          7.142924   0.000000
     32          7.255643   0.000000
     33          7.606365   0.000000
     34          8.502104   0.000000
     35         10.589216   0.000000
     36         10.888421   0.000000
     37         10.892824   0.000000
     38         11.375754   0.000000
     39         12.028585   0.000000
     40         12.091901   0.000000
     41         12.652263   0.000000
     42         12.844816   0.000000
     43         13.721594   0.000000
     44         14.093779   0.000000
     45         14.149815   0.000000
     46         14.360307   0.000000
     47         15.257381   0.000000
     48         15.337320   0.000000
 
  0.0000000E+00  0.0000000E+00  0.1000000E+00  0.8928571E-02
      1        -14.241226   1.000000
      2        -11.397940   1.000000
      3        -10.079823   1.000000
      4         -9.816794   1.000000
      5         -7.276206   1.000000
      6         -6.301665   1.000000
      7         -5.995566   1.000000
      8         -4.537514   1.000000
      9         -4.447571   1.000000
     10         -3.400399   1.000000
     11         -2.636428   1.000000
     12         -2.547341   1.000000
     13         -2.179050   1.000000
     14         -1.618272   1.000000
     15         -1.233591   1.000000
     16         -0.239665   1.000000
     17          0.306713   1.000000
     18          1.690022   1.000000
     19          2.126513   0.999867
     20          2.374040   0.557845
     21          2.771872   0.000000
     22          3.282440   0.000000
     23          3.851416   0.000000
     24          4.370900   0.000000
     25          4.873634   0.000000
     26          5.548016   0.000000
     27          5.728730   0.000000
     28          6.127755   0.000000
     29          6.175738   0.000000
     30          7.127868   0.000000
     31          7.186200   0.000000
     32          7.336703   0.000000
     33          7.622472   0.000000
     34          8.519184   0.000000
     35         10.571165   0.000000
     36         10.894920   0.000000
     37         11.000763   0.000000
     38         11.480939   0.000000
     39         12.063501   0.000000
     40         12.083724   0.000000
     41         12.608909   0.000000
     42         13.033756   0.000000
     43         13.820820   0.000000
     44         14.059914   0.000000
     45         14.193195   0.000000
     46         14.213997   0.000000
     47         15.349261   0.000000
     48         15.393891   0.000000
 
  0.0000000E+00  0.0000000E+00  0.1333333E+00  0.8928571E-02
      1        -14.203653   1.000000
      2        -11.485048   1.000000
      3        -10.079398   1.000000
      4         -9.792671   1.000000
      5         -7.220519   1.000000
      6         -6.173404   1.000000
      7         -6.086087   1.000000
      8         -4.689309   1.000000
      9         -4.468889   1.000000
     10         -3.377443   1.000000
     11         -2.609799   1.000000
     12         -2.501992   1.000000
     13         -1.988755   1.000000
     14         -1.607980   1.000000
     15         -1.141432   1.000000
     16         -0.277529   1.000000
     17          0.063408   1.000000
     18          1.702298   1.000000
     19          2.134084   0.999799
     20          2.287714   0.914083
     21          2.591385   0.001705
     22          3.296749   0.000000
     23          3.667565   0.000000
     24          4.432373   0.000000
     25          5.149177   0.000000
     26          5.400863   0.000000
     27          5.673515   0.000000
     28          5.983441   0.000000
     29          6.168024   0.000000
     30          7.233738   0.000000
     31          7.235115   0.000000
     32          7.433285   0.000000
     33          7.639936   0.000000
     34          8.543963   0.000000
     35         10.552957   0.000000
     36         10.872469   0.000000
     37         11.120886   0.000000
     38         11.643794   0.000000
     39         12.091143   0.000000
     40         12.144588   0.000000
     41         12.558330   0.000000
     42         13.237228   0.000000
     43         13.861218   0.000000
     44         13.935794   0.000000
     45         14.163744   0.000000
     46         14.339697   0.000000
     47         15.182848   0.000000
     48         15.363169   0.000000
 
  0.0000000E+00  0.0000000E+00  0.1666667E+00  0.8928571E-02
      1        -14.155488   1.000000
      2        -11.594567   1.000000
      3        -10.069611   1.000000
      4         -9.763131   1.000000
      5         -7.149343   1.000000
      6         -6.192805   1.000000
      7         -6.049673   1.000000
      8         -4.813344   1.000000
      9         -4.500741   1.000000
     10         -3.345294   1.000000
     11         -2.574935   1.000000
     12         -2.444688   1.000000
     13         -1.814791   1.000000
     14         -1.576474   1.000000
     15         -1.044314   1.000000
     16         -0.318902   1.000000
     17         -0.186673   1.000000
     18          1.721169   1.000000
     19          2.148061   0.999583
     20          2.165603   0.999010
     21          2.388586   0.475998
     22          3.290265   0.000000
     23          3.473224   0.000000
     24          4.501228   0.000000
     25          5.238548   0.000000
     26          5.446160   0.000000
     27          5.599737   0.000000
     28          5.822125   0.000000
     29          6.156619   0.000000
     30          7.286576   0.000000
     31          7.382261   0.000000
     32          7.532493   0.000000
     33          7.656512   0.000000
     34          8.577472   0.000000
     35         10.541185   0.000000
     36         10.820209   0.000000
     37         11.231016   0.000000
     38         11.862006   0.000000
     39         12.177281   0.000000
     40         12.200644   0.000000
     41         12.506098   0.000000
     42         13.442585   0.000000
     43         13.638651   0.000000
     44         14.028612   0.000000
     45         14.144638   0.000000
     46         14.533698   0.000000
     47         15.045361   0.000000
     48         15.376575   0.000000
 
  0.0000000E+00  0.0000000E+00  0.2000000E+00  0.8928571E-02
      1        -14.096844   1.000000
      2        -11.723018   1.000000
      3        -10.048623   1.000000
      4         -9.729357   1.000000
      5         -7.063032   1.000000
      6         -6.309856   1.000000
      7         -5.972078   1.000000
      8         -4.865228   1.000000
      9         -4.546056   1.000000
     10         -3.303542   1.000000
     11         -2.532283   1.000000
     12         -2.376183   1.000000
     13         -1.720123   1.000000
     14         -1.479717   1.000000
     15         -0.954285   1.000000
     16         -0.427442   1.000000
     17         -0.354494   1.000000
     18          1.748724   1.000000
     19          2.016137   1.000000
     20          2.169900   0.998787
     21          2.173874   0.998541
     22          3.133014   0.000000
     23          3.408945   0.000000
     24          4.576252   0.000000
     25          5.072318   0.000000
     26          5.506870   0.000000
     27          5.651516   0.000000
     28          5.732672   0.000000
     29          6.142452   0.000000
     30          7.339194   0.000000
     31          7.580776   0.000000
     32          7.621890   0.000000
     33          7.671016   0.000000
     34          8.620848   0.000000
     35         10.544559   0.000000
     36         10.744474   0.000000
     37         11.322234   0.000000
     38         12.118653   0.000000
     39         12.244941   0.000000
     40         12.310009   0.000000
     41         12.456746   0.000000
     42         13.429652   0.000000
     43         13.639320   0.000000
     44         14.038660   0.000000
     45         14.140523   0.000000
     46         14.759303   0.000000
     47         15.042779   0.000000
     48         15.390326   0.000000
 
  0.0000000E+00  0.0000000E+00  0.2333333E+00  0.8928571E-02
      1        -14.027845   1.000000
      2        -11.866237   1.000000
      3        -10.016328   1.000000
      4         -9.692911   1.000000
      5         -6.962011   1.000000
      6         -6.431155   1.000000
      7         -5.979667   1.000000
      8         -4.806014   1.000000
      9         -4.607839   1.000000
     10         -3.252562   1.000000
     11         -2.482763   1.000000
     12         -2.297534   1.000000
     13         -1.700813   1.000000
     14         -1.343395   1.000000
     15         -0.883139   1.000000
     16         -0.648077   1.000000
     17         -0.368113   1.000000
     18          1.786439   1.000000
     19          1.848710   1.000000
     20          1.955744   1.000000
     21          2.200070   0.995417
     22          2.875336   0.000000
     23          3.435930   0.000000
     24          4.657098   0.000000
     25          4.911625   0.000000
     26          5.395293   0.000000
     27          5.477870   0.000000
     28          5.964939   0.000000
     29          6.145897   0.000000
     30          7.392208   0.000000
     31          7.682978   0.000000
     32          7.691055   0.000000
     33          7.829501   0.000000
     34          8.674716   0.000000
     35         10.574511   0.000000
     36         10.656218   0.000000
     37         11.383267   0.000000
     38         12.275565   0.000000
     39         12.391367   0.000000
     40         12.413477   0.000000
     41         12.472973   0.000000
     42         13.259861   0.000000
     43         13.816731   0.000000
     44         13.948651   0.000000
     45         14.151557   0.000000
     46         14.925762   0.000000
     47         15.197291   0.000000
     48         15.402158   0.000000
 
  0.0000000E+00  0.0000000E+00  0.2666667E+00  0.8928571E-02
      1        -13.948669   1.000000
      2        -12.019935   1.000000
      3         -9.973845   1.000000
      4         -9.655790   1.000000
      5         -6.846854   1.000000
      6         -6.550635   1.000000
      7         -6.066815   1.000000
      8         -4.688666   1.000000
      9         -4.642889   1.000000
     10         -3.193504   1.000000
     11         -2.427706   1.000000
     12         -2.210157   1.000000
     13         -1.709053   1.000000
     14         -1.240264   1.000000
     15         -0.841791   1.000000
     16         -0.841373   1.000000
     17         -0.337505   1.000000
     18          1.672361   1.000000
     19          1.741430   1.000000
     20          1.832916   1.000000
     21          2.237691   0.980950
     22          2.603361   0.000976
     23          3.481367   0.000000
     24          4.743618   0.000000
     25          4.764124   0.000000
     26          5.266462   0.000000
     27          5.306375   0.000000
     28          6.022676   0.000000
     29          6.276923   0.000000
     30          7.444760   0.000000
     31          7.692350   0.000000
     32          7.733056   0.000000
     33          8.113979   0.000000
     34          8.738177   0.000000
     35         10.565980   0.000000
     36         10.646113   0.000000
     37         11.396327   0.000000
     38         12.295331   0.000000
     39         12.377559   0.000000
     40         12.651693   0.000000
     41         12.655991   0.000000
     42         13.159462   0.000000
     43         13.809863   0.000000
     44         13.963264   0.000000
     45         14.179491   0.000000
     46         14.878956   0.000000
     47         15.430460   0.000000
     48         15.461385   0.000000
 
  0.0000000E+00  0.0000000E+00  0.3000000E+00  0.8928571E-02
      1        -13.859516   1.000000
      2        -12.180247   1.000000
      3         -9.923084   1.000000
      4         -9.620457   1.000000
      5         -6.718284   1.000000
      6         -6.662326   1.000000
      7         -6.197294   1.000000
      8         -4.790056   1.000000
      9         -4.414570   1.000000
     10         -3.128465   1.000000
     11         -2.368824   1.000000
     12         -2.115832   1.000000
     13         -1.731841   1.000000
     14         -1.197875   1.000000
     15         -1.005353   1.000000
     16         -0.836689   1.000000
     17         -0.248441   1.000000
     18          1.495477   1.000000
     19          1.537366   1.000000
     20          1.875541   1.000000
     21          2.280436   0.929120
     22          2.346968   0.701377
     23          3.537631   0.000000
     24          4.635949   0.000000
     25          4.835589   0.000000
     26          5.122721   0.000000
     27          5.141439   0.000000
     28          5.983860   0.000000
     29          6.459681   0.000000
     30          7.495697   0.000000
     31          7.699304   0.000000
     32          7.745078   0.000000
     33          8.404043   0.000000
     34          8.808331   0.000000
     35         10.482649   0.000000
     36         10.777772   0.000000
     37         11.346734   0.000000
     38         12.310996   0.000000
     39         12.347838   0.000000
     40         12.834865   0.000000
     41         12.880449   0.000000
     42         13.161692   0.000000
     43         13.668534   0.000000
     44         14.067523   0.000000
     45         14.225993   0.000000
     46         14.725610   0.000000
     47         15.464829   0.000000
     48         15.794787   0.000000
 
  0.0000000E+00  0.0000000E+00  0.3333333E+00  0.8928571E-02
      1        -13.760639   1.000000
      2        -12.343868   1.000000
      3         -9.866349   1.000000
      4         -9.589702   1.000000
      5         -6.760403   1.000000
      6         -6.577207   1.000000
      7         -6.342267   1.000000
      8         -4.912032   1.000000
      9         -4.153060   1.000000
     10         -3.060691   1.000000
     11         -2.308237   1.000000
     12         -2.016776   1.000000
     13         -1.766893   1.000000
     14         -1.207279   1.000000
     15         -1.138987   1.000000
     16         -0.872196   1.000000
     17         -0.110050   1.000000
     18          1.326120   1.000000
     19          1.349592   1.000000
     20          1.849425   1.000000
     21          2.177784   0.998255
     22          2.324718   0.800393
     23          3.604224   0.000000
     24          4.531825   0.000000
     25          4.932625   0.000000
     26          4.967348   0.000000
     27          4.986702   0.000000
     28          5.922753   0.000000
     29          6.628331   0.000000
     30          7.543651   0.000000
     31          7.704116   0.000000
     32          7.727860   0.000000
     33          8.663265   0.000000
     34          8.880878   0.000000
     35         10.414214   0.000000
     36         10.985428   0.000000
     37         11.237482   0.000000
     38         12.320576   0.000000
     39         12.333580   0.000000
     40         13.013850   0.000000
     41         13.038924   0.000000
     42         13.276159   0.000000
     43         13.550239   0.000000
     44         14.121632   0.000000
     45         14.292646   0.000000
     46         14.546950   0.000000
     47         15.522253   0.000000
     48         16.134649   0.000000
 
  0.0000000E+00  0.0000000E+00  0.3666667E+00  0.8928571E-02
      1        -13.652330   1.000000
      2        -12.508072   1.000000
      3         -9.806374   1.000000
      4         -9.566583   1.000000
      5         -6.839416   1.000000
      6         -6.485395   1.000000
      7         -6.424765   1.000000
      8         -5.052964   1.000000
      9         -3.879366   1.000000
     10         -2.995493   1.000000
     11         -2.248453   1.000000
     12         -1.915726   1.000000
     13         -1.813375   1.000000
     14         -1.246239   1.000000
     15         -1.244132   1.000000
     16         -0.945016   1.000000
     17          0.057123   1.000000
     18          1.172053   1.000000
     19          1.183991   1.000000
     20          1.674630   1.000000
     21          2.176341   0.998366
     22          2.365961   0.602479
     23          3.682254   0.000000
     24          4.454848   0.000000
     25          4.804367   0.000000
     26          4.845197   0.000000
     27          5.034066   0.000000
     28          5.847979   0.000000
     29          6.783047   0.000000
     30          7.586941   0.000000
     31          7.684139   0.000000
     32          7.706928   0.000000
     33          8.864528   0.000000
     34          8.951030   0.000000
     35         10.367768   0.000000
     36         11.088615   0.000000
     37         11.266383   0.000000
     38         12.290174   0.000000
     39         12.382230   0.000000
     40         13.176018   0.000000
     41         13.181674   0.000000
     42         13.426466   0.000000
     43         13.469642   0.000000
     44         14.124710   0.000000
     45         14.364384   0.000000
     46         14.381128   0.000000
     47         15.599352   0.000000
     48         15.918601   0.000000
 
  0.0000000E+00  0.0000000E+00  0.4000000E+00  0.8928571E-02
      1        -13.534935   1.000000
      2        -12.670649   1.000000
      3         -9.746170   1.000000
      4         -9.554031   1.000000
      5         -6.894450   1.000000
      6         -6.617010   1.000000
      7         -6.262369   1.000000
      8         -5.209800   1.000000
      9         -3.609995   1.000000
     10         -2.941313   1.000000
     11         -2.192109   1.000000
     12         -1.869331   1.000000
     13         -1.815817   1.000000
     14         -1.333218   1.000000
     15         -1.287291   1.000000
     16         -1.044941   1.000000
     17          0.237935   1.000000
     18          1.041084   1.000000
     19          1.046464   1.000000
     20          1.450180   1.000000
     21          2.239472   0.979749
     22          2.399068   0.417440
     23          3.773580   0.000000
     24          4.405711   0.000000
     25          4.639309   0.000000
     26          4.719489   0.000000
     27          5.139009   0.000000
     28          5.762381   0.000000
     29          6.927799   0.000000
     30          7.617555   0.000000
     31          7.624028   0.000000
     32          7.707672   0.000000
     33          9.000949   0.000000
     34          9.014396   0.000000
     35         10.349538   0.000000
     36         10.923855   0.000000
     37         11.577357   0.000000
     38         12.251689   0.000000
     39         12.496589   0.000000
     40         13.324029   0.000000
     41         13.332266   0.000000
     42         13.433907   0.000000
     43         13.548154   0.000000
     44         14.083035   0.000000
     45         14.189181   0.000000
     46         14.493269   0.000000
     47         15.460537   0.000000
     48         15.630227   0.000000
 
  0.0000000E+00  0.0000000E+00  0.4333333E+00  0.8928571E-02
      1        -13.408870   1.000000
      2        -12.829868   1.000000
      3         -9.689024   1.000000
      4         -9.554383   1.000000
      5         -6.921629   1.000000
      6         -6.730565   1.000000
      7         -6.091779   1.000000
      8         -5.378615   1.000000
      9         -3.361503   1.000000
     10         -2.911713   1.000000
     11         -2.140996   1.000000
     12         -1.930622   1.000000
     13         -1.720263   1.000000
     14         -1.407865   1.000000
     15         -1.321324   1.000000
     16         -1.154092   1.000000
     17          0.425027   1.000000
     18          0.940674   1.000000
     19          0.942772   1.000000
     20          1.227601   1.000000
     21          2.308112   0.859453
     22          2.419027   0.311820
     23          3.880051   0.000000
     24          4.375230   0.000000
     25          4.486381   0.000000
     26          4.611903   0.000000
     27          5.246319   0.000000
     28          5.668158   0.000000
     29          7.065000   0.000000
     30          7.531961   0.000000
     31          7.653896   0.000000
     32          7.705974   0.000000
     33          9.066997   0.000000
     34          9.081320   0.000000
     35         10.364214   0.000000
     36         10.762422   0.000000
     37         11.831350   0.000000
     38         12.203230   0.000000
     39         12.740757   0.000000
     40         13.440359   0.000000
     41         13.459846   0.000000
     42         13.478594   0.000000
     43         13.622996   0.000000
     44         14.005770   0.000000
     45         14.033869   0.000000
     46         14.630693   0.000000
     47         14.942423   0.000000
     48         15.410823   0.000000
 
  0.0000000E+00  0.0000000E+00  0.4666667E+00  0.8928571E-02
      1        -13.274652   1.000000
      2        -12.984327   1.000000
      3         -9.638363   1.000000
      4         -9.568920   1.000000
      5         -6.918575   1.000000
      6         -6.821097   1.000000
      7         -5.915168   1.000000
      8         -5.555128   1.000000
      9         -3.153049   1.000000
     10         -2.926158   1.000000
     11         -2.093996   1.000000
     12         -1.991248   1.000000
     13         -1.631767   1.000000
     14         -1.478348   1.000000
     15         -1.333438   1.000000
     16         -1.249627   1.000000
     17          0.616177   1.000000
     18          0.877361   1.000000
     19          0.878038   1.000000
     20          1.015065   1.000000
     21          2.365268   0.606250
     22          2.421601   0.299060
     23          4.002466   0.000000
     24          4.282911   0.000000
     25          4.429749   0.000000
     26          4.524810   0.000000
     27          5.354604   0.000000
     28          5.567423   0.000000
     29          7.195276   0.000000
     30          7.430988   0.000000
     31          7.676202   0.000000
     32          7.700985   0.000000
     33          9.104971   0.000000
     34          9.118693   0.000000
     35         10.414352   0.000000
     36         10.617975   0.000000
     37         11.984173   0.000000
     38         12.145350   0.000000
     39         13.112802   0.000000
     40         13.468122   0.000000
     41         13.558409   0.000000
     42         13.622268   0.000000
     43         13.655950   0.000000
     44         13.901276   0.000000
     45         13.928591   0.000000
     46         14.418519   0.000000
     47         14.793759   0.000000
     48         15.188372   0.000000
 
  0.0000000E+00  0.0000000E+00  0.5000000E+00  0.8928571E-02
      1        -13.132889   1.000000
      2        -13.132889   1.000000
      3         -9.597435   1.000000
      4         -9.597435   1.000000
      5         -6.884653   1.000000
      6         -6.884653   1.000000
      7         -5.735209   1.000000
      8         -5.735209   1.000000
      9         -3.004295   1.000000
     10         -3.004295   1.000000
     11         -2.045849   1.000000
     12         -2.045849   1.000000
     13         -1.551542   1.000000
     14         -1.551542   1.000000
     15         -1.311718   1.000000
     16         -1.311718   1.000000
     17          0.812121   1.000000
     18          0.812121   1.000000
     19          0.855863   1.000000
     20          0.855863   1.000000
     21          2.403925   0.390842
     22          2.403925   0.390842
     23          4.139363   0.000000
     24          4.139363   0.000000
     25          4.461439   0.000000
     26          4.461439   0.000000
     27          5.462253   0.000000
     28          5.462253   0.000000
     29          7.317888   0.000000
     30          7.317888   0.000000
     31          7.691530   0.000000
     32          7.691530   0.000000
     33          9.124032   0.000000
     34          9.124032   0.000000
     35         10.499929   0.000000
     36         10.499929   0.000000
     37         12.076577   0.000000
     38         12.076577   0.000000
     39         13.422279   0.000000
     40         13.422279   0.000000
     41         13.621368   0.000000
     42         13.621368   0.000000
     43         13.776243   0.000000
     44         13.776243   0.000000
     45         14.007245   0.000000
     46         14.007246   0.000000
     47         14.980888   0.000000
     48         14.980899   0.000000
 
  0.0000000E+00  0.0000000E+00  0.5000000E+00  0.8928571E-02
      1        -13.132889   1.000000
      2        -13.132889   1.000000
      3         -9.597435   1.000000
      4         -9.597435   1.000000
      5         -6.884653   1.000000
      6         -6.884653   1.000000
      7         -5.735209   1.000000
      8         -5.735209   1.000000