 vasp.6.4.3 19Mar24 (build May 31 2024 16:31:43) complex                        
  
 executed on             LinuxIFC date 2024.11.21  18:46:05
 running   24 mpi-ranks, with    1 threads/rank, on    1 nodes
 distrk:  each k-point on   24 cores,    1 groups
 distr:  one band on NCORE=   1 cores,   24 groups


--------------------------------------------------------------------------------------------------------


 INCAR:
   SYSTEM = BS
   ISTART = 0
   ICHARG = 11
   PREC = Accurate
   LORBIT = 11
   ENCUT = 600
   ALGO = Normal
   NELM = 64
   EDIFF = 1E-6
   EDIFFG = -1E-3
   SIGMA = 0.1
   ISMEAR = 0
   GGA = PE
   IVDW = 12

 POTCAR:    PAW_PBE B 06Sep2000                   
 POTCAR:    PAW_PBE B 06Sep2000                   
   SHA256 =  a32ced30f5ae56fd4d10b4325ff17eb3e4e38ee0f4288bc219fb012fddfa6e97 B/POTCAR              
   COPYR  = (c) Copyright 06Sep2000 Georg Kresse                                                    
   COPYR  = This file is part of the software VASP. Any use, copying, and all other rights are regul
   COPYR  = If you do not have a valid VASP license, you may not use, copy or distribute this file. 
   VRHFIN =B: s2p1                                                                                  
   LEXCH  = PE                                                                                      
   EATOM  =    71.1703 eV,    5.2309 Ry                                                             
                                                                                                    
   TITEL  = PAW_PBE B 06Sep2000                                                                     
   LULTRA =        F    use ultrasoft PP ?                                                          
   IUNSCR =        1    unscreen: 0-lin 1-nonlin 2-no                                               
   RPACOR =    1.200    partial core radius                                                         
   POMASS =   10.811; ZVAL   =    3.000    mass and valenz                                          
   RCORE  =    1.700    outmost cutoff radius                                                       
   RWIGS  =    1.710; RWIGS  =    0.905    wigner-seitz radius (au A)                               
   ENMAX  =  318.614; ENMIN  =  238.960 eV                                                          
   ICORE  =        2    local potential                                                             
   LCOR   =        T    correct aug charges                                                         
   LPAW   =        T    paw PP                                                                      
   EAUG   =  535.514                                                                                
   DEXC   =    0.000                                                                                
   RMAX   =    1.732    core radius for proj-oper                                                   
   RAUG   =    1.300    factor for augmentation sphere                                              
   RDEP   =    1.757    radius for radial grids                                                     
   RDEPT  =    1.436    core radius for aug-charge                                                  
                                                                                                    
   Atomic configuration                                                                             
    4 entries                                                                                       
     n  l   j            E        occ.                                                              
     1  0  0.50      -180.5896   2.0000                                                             
     2  0  0.50        -9.4431   2.0000                                                             
     2  1  0.50        -3.6068   1.0000                                                             
     3  2  1.50        -4.0817   0.0000                                                             
   Description                                                                                      
     l       E           TYP  RCUT    TYP  RCUT                                                     
     0     -9.4430752     23  1.500                                                                 
     0      0.8675899     23  1.500                                                                 
     1     -3.6067955     23  1.700                                                                 
     1      6.1086146     23  1.700                                                                 
     2     -4.0817478      7  1.700                                                                 
  local pseudopotential read in
  partial core-charges read in
  partial kinetic energy density read in
  atomic valenz-charges read in
  non local Contribution for L=           0  read in
    real space projection operators read in
  non local Contribution for L=           0  read in
    real space projection operators read in
  non local Contribution for L=           1  read in
    real space projection operators read in
  non local Contribution for L=           1  read in
    real space projection operators read in
    PAW grid and wavefunctions read in
 
   number of l-projection  operators is LMAX  =           4
   number of lm-projection operators is LMMAX =           8
 
  PAW_PBE B 06Sep2000                   :
 energy of atom  1       EATOM=  -71.1703
 kinetic energy error for atom=    0.0007 (will be added to EATOM!!)
 
 
 POSCAR: o-B14
  positions in direct lattice
  No initial velocities read in
 IVDW         = 12
 VDW_S6       =    1.0000
 VDW_S8       =    0.7875
 VDW_A1       =    0.4289
 VDW_A2       =    4.4407
 VDW_RADIUS   =   50.2022 A
 VDW_CNRADIUS =   21.1671 A


 exchange-correlation table for PE
   RHO(1)=    0.500       N(1)  =     2000
   RHO(2)=  100.500       N(2)  =     4000
 


--------------------------------------------------------------------------------------------------------


 ion  position               nearest neighbor table
   1  0.638  0.500  0.521-  13 1.31  14 1.37   5 1.65   2 1.72   3 1.85  11 1.99   9 1.99
   2  0.362  0.500  0.479-  14 1.31  13 1.37   6 1.65   1 1.72   4 1.85  10 1.99  12 1.99
   3  0.638  0.500  0.979-  13 1.31  14 1.37   7 1.65   4 1.72   1 1.85  11 1.99   9 1.99
   4  0.362  0.500  0.021-  14 1.31  13 1.37   8 1.65   3 1.72   2 1.85  10 1.99  12 1.99
   5  0.900  0.500  0.597-   7 1.23   6 1.47   1 1.65  11 2.06   9 2.06
   6  0.100  0.500  0.403-   8 1.23   5 1.47   2 1.65  10 2.06  12 2.06
   7  0.900  0.500  0.903-   5 1.23   8 1.47   3 1.65  11 2.06   9 2.06
   8  0.100  0.500  0.097-   6 1.23   7 1.47   4 1.65  10 2.06  12 2.06
   9  0.730  0.792  0.750-   1 1.99   3 1.99   5 2.06   7 2.06
  10  0.270  0.208  0.250-   2 1.99   4 1.99   6 2.06   8 2.06
  11  0.730  0.208  0.750-   1 1.99   3 1.99   5 2.06   7 2.06
  12  0.270  0.792  0.250-   2 1.99   4 1.99   6 2.06   8 2.06
  13  0.524  0.500  0.250-   1 1.31   3 1.31   2 1.37   4 1.37  14 2.04  14 2.04
  14  0.476  0.500  0.750-   2 1.31   4 1.31   3 1.37   1 1.37  13 2.04  13 2.04
 
  LATTYP: Found a simple orthorhombic cell.
 ALAT       =     4.0440580961
 B/A-ratio  =     1.4097153303
 C/A-ratio  =     1.5335761871
  
  Lattice vectors:
  
 A1 = (   0.0000000000,   0.0000000000,  -4.0440580961)
 A2 = (   0.0000000000,   5.7009706948,   0.0000000000)
 A3 = (   6.2018711955,   0.0000000000,   0.0000000000)


Analysis of symmetry for initial positions (statically):
=====================================================================
 Subroutine PRICEL returns:
 Original cell was already a primitive cell.
 

 Routine SETGRP: Setting up the symmetry group for a 
 simple orthorhombic supercell.


 Subroutine GETGRP returns: Found  8 space group operations
 (whereof  4 operations were pure point group operations)
 out of a pool of  8 trial point group operations.


The static configuration has the point symmetry C_2h.
 The point group associated with its full space group is D_2h.


Analysis of symmetry for dynamics (positions and initial velocities):
=====================================================================
 Subroutine PRICEL returns:
 Original cell was already a primitive cell.
 

 Routine SETGRP: Setting up the symmetry group for a 
 simple orthorhombic supercell.


 Subroutine GETGRP returns: Found  8 space group operations
 (whereof  4 operations were pure point group operations)
 out of a pool of  8 trial point group operations.


The dynamic configuration has the point symmetry C_2h.
 The point group associated with its full space group is D_2h.


 Subroutine INISYM returns: Found  8 space group operations
 (whereof  4 operations are pure point group operations),
 and found     1 'primitive' translations


----------------------------------------------------------------------------------------

                                     Primitive cell                                     

  volume of cell :     142.9845

  direct lattice vectors                    reciprocal lattice vectors
     6.201871195  0.000000000  0.000000000     0.161241659  0.000000000  0.000000000
     0.000000000  5.700970695  0.000000000     0.000000000  0.175408725  0.000000000
     0.000000000  0.000000000  4.044058096     0.000000000  0.000000000  0.247276368

  length of vectors
     6.201871195  5.700970695  4.044058096     0.161241659  0.175408725  0.247276368

  position of ions in fractional coordinates (direct lattice)
     0.637957702  0.500000000  0.521289885
     0.362042298  0.500000000  0.478710115
     0.637957702  0.500000000  0.978710115
     0.362042298  0.500000000  0.021289885
     0.899868316  0.500000000  0.597449662
     0.100131684  0.500000000  0.402550338
     0.899868316  0.500000000  0.902550338
     0.100131684  0.500000000  0.097449662
     0.729579396  0.791564932  0.750000000
     0.270420604  0.208435068  0.250000000
     0.729579396  0.208435068  0.750000000
     0.270420604  0.791564932  0.250000000
     0.523993035  0.500000000  0.250000000
     0.476006965  0.500000000  0.750000000

  ion indices of the primitive-cell ions
   primitive index   ion index
                 1           1
                 2           2
                 3           3
                 4           4
                 5           5
                 6           6
                 7           7
                 8           8
                 9           9
                10          10
                11          11
                12          12
                13          13
                14          14

----------------------------------------------------------------------------------------

 
 
 KPOINTS: K-points                                

Interpolating k-points between supplied coordinates.

 Line segments in fractional coordinates (reciprocal lattice):
    0.000000  0.000000  0.000000  ...  0.000000  0.000000  0.500000
    0.000000  0.000000  0.500000  ...  0.000000  0.500000  0.500000
    0.000000  0.500000  0.500000  ...  0.000000  0.500000  0.000000
    0.000000  0.500000  0.000000  ...  0.500000  0.500000  0.000000
    0.500000  0.500000  0.000000  ...  0.500000  0.000000  0.000000
    0.500000  0.000000  0.000000  ...  0.500000  0.000000  0.500000
    0.500000  0.000000  0.500000  ...  0.500000  0.500000  0.500000

 Generated    16 points on each line segment, for a total of    112 k-points:

 Following reciprocal coordinates:
            Coordinates               Weight
  0.000000  0.000000  0.000000      0.008929
  0.000000  0.000000  0.033333      0.008929
  0.000000  0.000000  0.066667      0.008929
  0.000000  0.000000  0.100000      0.008929
  0.000000  0.000000  0.133333      0.008929
  0.000000  0.000000  0.166667      0.008929
  0.000000  0.000000  0.200000      0.008929
  0.000000  0.000000  0.233333      0.008929
  0.000000  0.000000  0.266667      0.008929
  0.000000  0.000000  0.300000      0.008929
  0.000000  0.000000  0.333333      0.008929
  0.000000  0.000000  0.366667      0.008929
  0.000000  0.000000  0.400000      0.008929
  0.000000  0.000000  0.433333      0.008929
  0.000000  0.000000  0.466667      0.008929
  0.000000  0.000000  0.500000      0.008929
  0.000000  0.000000  0.500000      0.008929
  0.000000  0.033333  0.500000      0.008929
  0.000000  0.066667  0.500000      0.008929
  0.000000  0.100000  0.500000      0.008929
  0.000000  0.133333  0.500000      0.008929
  0.000000  0.166667  0.500000      0.008929
  0.000000  0.200000  0.500000      0.008929
  0.000000  0.233333  0.500000      0.008929
  0.000000  0.266667  0.500000      0.008929
  0.000000  0.300000  0.500000      0.008929
  0.000000  0.333333  0.500000      0.008929
  0.000000  0.366667  0.500000      0.008929
  0.000000  0.400000  0.500000      0.008929
  0.000000  0.433333  0.500000      0.008929
  0.000000  0.466667  0.500000      0.008929
  0.000000  0.500000  0.500000      0.008929
  0.000000  0.500000  0.500000      0.008929
  0.000000  0.500000  0.466667      0.008929
  0.000000  0.500000  0.433333      0.008929
  0.000000  0.500000  0.400000      0.008929
  0.000000  0.500000  0.366667      0.008929
  0.000000  0.500000  0.333333      0.008929
  0.000000  0.500000  0.300000      0.008929
  0.000000  0.500000  0.266667      0.008929
  0.000000  0.500000  0.233333      0.008929
  0.000000  0.500000  0.200000      0.008929
  0.000000  0.500000  0.166667      0.008929
  0.000000  0.500000  0.133333      0.008929
  0.000000  0.500000  0.100000      0.008929
  0.000000  0.500000  0.066667      0.008929
  0.000000  0.500000  0.033333      0.008929
  0.000000  0.500000  0.000000      0.008929
  0.000000  0.500000  0.000000      0.008929
  0.033333  0.500000  0.000000      0.008929
  0.066667  0.500000  0.000000      0.008929
  0.100000  0.500000  0.000000      0.008929
  0.133333  0.500000  0.000000      0.008929
  0.166667  0.500000  0.000000      0.008929
  0.200000  0.500000  0.000000      0.008929
  0.233333  0.500000  0.000000      0.008929
  0.266667  0.500000  0.000000      0.008929
  0.300000  0.500000  0.000000      0.008929
  0.333333  0.500000  0.000000      0.008929
  0.366667  0.500000  0.000000      0.008929
  0.400000  0.500000  0.000000      0.008929
  0.433333  0.500000  0.000000      0.008929
  0.466667  0.500000  0.000000      0.008929
  0.500000  0.500000  0.000000      0.008929
  0.500000  0.500000  0.000000      0.008929
  0.500000  0.466667  0.000000      0.008929
  0.500000  0.433333  0.000000      0.008929
  0.500000  0.400000  0.000000      0.008929
  0.500000  0.366667  0.000000      0.008929
  0.500000  0.333333  0.000000      0.008929
  0.500000  0.300000  0.000000      0.008929
  0.500000  0.266667  0.000000      0.008929
  0.500000  0.233333  0.000000      0.008929
  0.500000  0.200000  0.000000      0.008929
  0.500000  0.166667  0.000000      0.008929
  0.500000  0.133333  0.000000      0.008929
  0.500000  0.100000  0.000000      0.008929
  0.500000  0.066667  0.000000      0.008929
  0.500000  0.033333  0.000000      0.008929
  0.500000  0.000000  0.000000      0.008929
  0.500000  0.000000  0.000000      0.008929
  0.500000  0.000000  0.033333      0.008929
  0.500000  0.000000  0.066667      0.008929
  0.500000  0.000000  0.100000      0.008929
  0.500000  0.000000  0.133333      0.008929
  0.500000  0.000000  0.166667      0.008929
  0.500000  0.000000  0.200000      0.008929
  0.500000  0.000000  0.233333      0.008929
  0.500000  0.000000  0.266667      0.008929
  0.500000  0.000000  0.300000      0.008929
  0.500000  0.000000  0.333333      0.008929
  0.500000  0.000000  0.366667      0.008929
  0.500000  0.000000  0.400000      0.008929
  0.500000  0.000000  0.433333      0.008929
  0.500000  0.000000  0.466667      0.008929
  0.500000  0.000000  0.500000      0.008929
  0.500000  0.000000  0.500000      0.008929
  0.500000  0.033333  0.500000      0.008929
  0.500000  0.066667  0.500000      0.008929
  0.500000  0.100000  0.500000      0.008929
  0.500000  0.133333  0.500000      0.008929
  0.500000  0.166667  0.500000      0.008929
  0.500000  0.200000  0.500000      0.008929
  0.500000  0.233333  0.500000      0.008929
  0.500000  0.266667  0.500000      0.008929
  0.500000  0.300000  0.500000      0.008929
  0.500000  0.333333  0.500000      0.008929
  0.500000  0.366667  0.500000      0.008929
  0.500000  0.400000  0.500000      0.008929
  0.500000  0.433333  0.500000      0.008929
  0.500000  0.466667  0.500000      0.008929
  0.500000  0.500000  0.500000      0.008929

 Following cartesian coordinates:
            Coordinates               Weight
  0.000000  0.000000  0.000000      0.008929
  0.000000  0.000000  0.008243      0.008929
  0.000000  0.000000  0.016485      0.008929
  0.000000  0.000000  0.024728      0.008929
  0.000000  0.000000  0.032970      0.008929
  0.000000  0.000000  0.041213      0.008929
  0.000000  0.000000  0.049455      0.008929
  0.000000  0.000000  0.057698      0.008929
  0.000000  0.000000  0.065940      0.008929
  0.000000  0.000000  0.074183      0.008929
  0.000000  0.000000  0.082425      0.008929
  0.000000  0.000000  0.090668      0.008929
  0.000000  0.000000  0.098911      0.008929
  0.000000  0.000000  0.107153      0.008929
  0.000000  0.000000  0.115396      0.008929
  0.000000  0.000000  0.123638      0.008929
  0.000000  0.000000  0.123638      0.008929
  0.000000  0.005847  0.123638      0.008929
  0.000000  0.011694  0.123638      0.008929
  0.000000  0.017541  0.123638      0.008929
  0.000000  0.023388  0.123638      0.008929
  0.000000  0.029235  0.123638      0.008929
  0.000000  0.035082  0.123638      0.008929
  0.000000  0.040929  0.123638      0.008929
  0.000000  0.046776  0.123638      0.008929
  0.000000  0.052623  0.123638      0.008929
  0.000000  0.058470  0.123638      0.008929
  0.000000  0.064317  0.123638      0.008929
  0.000000  0.070163  0.123638      0.008929
  0.000000  0.076010  0.123638      0.008929
  0.000000  0.081857  0.123638      0.008929
  0.000000  0.087704  0.123638      0.008929
  0.000000  0.087704  0.123638      0.008929
  0.000000  0.087704  0.115396      0.008929
  0.000000  0.087704  0.107153      0.008929
  0.000000  0.087704  0.098911      0.008929
  0.000000  0.087704  0.090668      0.008929
  0.000000  0.087704  0.082425      0.008929
  0.000000  0.087704  0.074183      0.008929
  0.000000  0.087704  0.065940      0.008929
  0.000000  0.087704  0.057698      0.008929
  0.000000  0.087704  0.049455      0.008929
  0.000000  0.087704  0.041213      0.008929
  0.000000  0.087704  0.032970      0.008929
  0.000000  0.087704  0.024728      0.008929
  0.000000  0.087704  0.016485      0.008929
  0.000000  0.087704  0.008243      0.008929
  0.000000  0.087704  0.000000      0.008929
  0.000000  0.087704  0.000000      0.008929
  0.005375  0.087704  0.000000      0.008929
  0.010749  0.087704  0.000000      0.008929
  0.016124  0.087704  0.000000      0.008929
  0.021499  0.087704  0.000000      0.008929
  0.026874  0.087704  0.000000      0.008929
  0.032248  0.087704  0.000000      0.008929
  0.037623  0.087704  0.000000      0.008929
  0.042998  0.087704  0.000000      0.008929
  0.048372  0.087704  0.000000      0.008929
  0.053747  0.087704  0.000000      0.008929
  0.059122  0.087704  0.000000      0.008929
  0.064497  0.087704  0.000000      0.008929
  0.069871  0.087704  0.000000      0.008929
  0.075246  0.087704  0.000000      0.008929
  0.080621  0.087704  0.000000      0.008929
  0.080621  0.087704  0.000000      0.008929
  0.080621  0.081857  0.000000      0.008929
  0.080621  0.076010  0.000000      0.008929
  0.080621  0.070163  0.000000      0.008929
  0.080621  0.064317  0.000000      0.008929
  0.080621  0.058470  0.000000      0.008929
  0.080621  0.052623  0.000000      0.008929
  0.080621  0.046776  0.000000      0.008929
  0.080621  0.040929  0.000000      0.008929
  0.080621  0.035082  0.000000      0.008929
  0.080621  0.029235  0.000000      0.008929
  0.080621  0.023388  0.000000      0.008929
  0.080621  0.017541  0.000000      0.008929
  0.080621  0.011694  0.000000      0.008929
  0.080621  0.005847  0.000000      0.008929
  0.080621  0.000000  0.000000      0.008929
  0.080621  0.000000  0.000000      0.008929
  0.080621  0.000000  0.008243      0.008929
  0.080621  0.000000  0.016485      0.008929
  0.080621  0.000000  0.024728      0.008929
  0.080621  0.000000  0.032970      0.008929
  0.080621  0.000000  0.041213      0.008929
  0.080621  0.000000  0.049455      0.008929
  0.080621  0.000000  0.057698      0.008929
  0.080621  0.000000  0.065940      0.008929
  0.080621  0.000000  0.074183      0.008929
  0.080621  0.000000  0.082425      0.008929
  0.080621  0.000000  0.090668      0.008929
  0.080621  0.000000  0.098911      0.008929
  0.080621  0.000000  0.107153      0.008929
  0.080621  0.000000  0.115396      0.008929
  0.080621  0.000000  0.123638      0.008929
  0.080621  0.000000  0.123638      0.008929
  0.080621  0.005847  0.123638      0.008929
  0.080621  0.011694  0.123638      0.008929
  0.080621  0.017541  0.123638      0.008929
  0.080621  0.023388  0.123638      0.008929
  0.080621  0.029235  0.123638      0.008929
  0.080621  0.035082  0.123638      0.008929
  0.080621  0.040929  0.123638      0.008929
  0.080621  0.046776  0.123638      0.008929
  0.080621  0.052623  0.123638      0.008929
  0.080621  0.058470  0.123638      0.008929
  0.080621  0.064317  0.123638      0.008929
  0.080621  0.070163  0.123638      0.008929
  0.080621  0.076010  0.123638      0.008929
  0.080621  0.081857  0.123638      0.008929
  0.080621  0.087704  0.123638      0.008929
 


--------------------------------------------------------------------------------------------------------




 Dimension of arrays:
   k-points           NKPTS =    112   k-points in BZ     NKDIM =    112   number of bands    NBANDS=     48
   number of dos      NEDOS =    301   number of ions     NIONS =     14
   non local maximal  LDIM  =      4   non local SUM 2l+1 LMDIM =      8
   total plane-waves  NPLWV =  76800
   max r-space proj   IRMAX =      1   max aug-charges    IRDMAX=   8575
   dimension x,y,z NGX =    50 NGY =   48 NGZ =   32
   dimension x,y,z NGXF=   100 NGYF=   96 NGZF=   64
   support grid    NGXF=   100 NGYF=   96 NGZF=   64
   ions per type =              14
   NGX,Y,Z   is equivalent  to a cutoff of  13.40, 14.00, 13.15 a.u.
   NGXF,Y,Z  is equivalent  to a cutoff of  26.81, 27.99, 26.31 a.u.

 SYSTEM =  BS                                      
 POSCAR =  o-B14                                   

 Startparameter for this run:
   NWRITE =      2    write-flag & timer
   PREC   = accura    normal or accurate (medium, high low for compatibility)
   ISTART =      0    job   : 0-new  1-cont  2-samecut
   ICHARG =     11    charge: 1-file 2-atom 10-const
   ISPIN  =      1    spin polarized calculation?
   LNONCOLLINEAR =      F non collinear calculations
   LSORBIT =      F    spin-orbit coupling
   INIWAV =      1    electr: 0-lowe 1-rand  2-diag
   LASPH  =      F    aspherical Exc in radial PAW
 Electronic Relaxation 1
   ENCUT  =  600.0 eV  44.10 Ry    6.64 a.u.  12.39 11.39  8.08*2*pi/ulx,y,z
   ENINI  =  600.0     initial cutoff
   ENAUG  =  535.5 eV  augmentation charge cutoff
   NELM   =     64;   NELMIN=  2; NELMDL= -5     # of ELM steps 
   EDIFF  = 0.1E-05   stopping-criterion for ELM
   LREAL  =      F    real-space projection
   NLSPLINE    = F    spline interpolate recip. space projectors
   LCOMPAT=      F    compatible to vasp.4.4
   GGA_COMPAT  = T    GGA compatible to vasp.4.4-vasp.4.6
   LMAXPAW     = -100 max onsite density
   LMAXMIX     =    2 max onsite mixed and CHGCAR
   VOSKOWN=      0    Vosko Wilk Nusair interpolation
   ROPT   =    0.00000
 Ionic relaxation
   EDIFFG = -.1E-02   stopping-criterion for IOM
   NSW    =      0    number of steps for IOM
   NBLOCK =      1;   KBLOCK =      1    inner block; outer block 
   IBRION =     -1    ionic relax: 0-MD 1-quasi-New 2-CG
   NFREE  =      0    steps in history (QN), initial steepest desc. (CG)
   ISIF   =      2    stress and relaxation
   IWAVPR =     10    prediction:  0-non 1-charg 2-wave 3-comb
   ISYM   =      2    0-nonsym 1-usesym 2-fastsym
   LCORR  =      T    Harris-Foulkes like correction to forces

   POTIM  = 0.5000    time-step for ionic-motion
   TEIN   =    0.0    initial temperature
   TEBEG  =    0.0;   TEEND  =   0.0 temperature during run
   SMASS  =  -3.00    Nose mass-parameter (am)
   estimated Nose-frequenzy (Omega)   =  0.10E-29 period in steps = 0.13E+47 mass=  -0.879E-27a.u.
   SCALEE = 1.0000    scale energy and forces
   NPACO  =    256;   APACO  = 10.0  distance and # of slots for P.C.
   PSTRESS=    0.0 pullay stress

  Mass of Ions in am
   POMASS =  10.81
  Ionic Valenz
   ZVAL   =   3.00
  Atomic Wigner-Seitz radii
   RWIGS  =  -1.00
  virtual crystal weights 
   VCA    =   1.00
   NELECT =      42.0000    total number of electrons
   NUPDOWN=      -1.0000    fix difference up-down

 DOS related values:
   EMIN   =  10.00;   EMAX   =-10.00  energy-range for DOS
   EFERMI =   0.00;   METHOD = LEGACY      
   ISMEAR =     0;   SIGMA  =   0.10  broadening in eV -4-tet -1-fermi 0-gaus

 Electronic relaxation 2 (details)
   IALGO  =     38    algorithm
   LDIAG  =      T    sub-space diagonalisation (order eigenvalues)
   LSUBROT=      F    optimize rotation matrix (better conditioning)
   TURBO    =      0    0=normal 1=particle mesh
   IRESTART =      0    0=no restart 2=restart with 2 vectors
   NREBOOT  =      0    no. of reboots
   NMIN     =      0    reboot dimension
   EREF     =   0.00    reference energy to select bands
   IMIX   =      4    mixing-type and parameters
     AMIX     =   0.40;   BMIX     =  1.00
     AMIX_MAG =   1.60;   BMIX_MAG =  1.00
     AMIN     =   0.10
     WC   =   100.;   INIMIX=   1;  MIXPRE=   1;  MAXMIX= -45

 Intra band minimization:
   WEIMIN = 0.0000     energy-eigenvalue tresh-hold
   EBREAK =  0.52E-08  absolut break condition
   DEPER  =   0.30     relativ break condition  

   TIME   =   0.40     timestep for ELM

  volume/ion in A,a.u.               =      10.21        68.92
  Fermi-wavevector in a.u.,A,eV,Ry     =   1.088249  2.056492 16.113188  1.184286
  Thomas-Fermi vector in A             =   2.224426
 
 Write flags
   LWAVE        =      T    write WAVECAR
   LDOWNSAMPLE  =      F    k-point downsampling of WAVECAR
   LCHARG       =      T    write CHGCAR
   LVTOT        =      F    write LOCPOT, total local potential
   LVHAR        =      F    write LOCPOT, Hartree potential only
   WRT_POTENTIAL= false  ! write potential to hdf5 file
   LELF         =      F    write electronic localiz. function (ELF)
   LORBIT       =     11    0 simple, 1 ext, 2 COOP (PROOUT), +10 PAW based schemes


 Dipole corrections
   LMONO      =      F    monopole corrections only (constant potential shift)
   LDIPOL     =      F    correct potential (dipole corrections)
   IDIPOL     =      0    1-x, 2-y, 3-z, 4-all directions 
   EPSILON    =  1.0000000 bulk dielectric constant
   LVACPOTAV  =      F  vacuum potentials using an averaging scheme for the charge density
   VACPOTFLAT =  0.1000000 required flatness to determine vacuum potential
 Exchange correlation treatment:
   GGA     = PE    functional components
   XC_C    = 1    coefficients multiplying the functional components
   LIBXC   =     F    Libxc                    
   VOSKOWN =     0    Vosko Wilk Nusair interpolation
   LHFCALC =     F    Hartree Fock is set to
   LHFONE  =     F    Hartree Fock one center treatment
   AEXX    =    0.0000 exact exchange contribution

 Parameters of functionals:
   PE:
     No parameter
 
 Van der Waals corrections
   IVDW    =    12    specifies the selected vdW correction

 Linear response parameters
   LEPSILON=     F    determine dielectric tensor
   LRPA    =     F    only Hartree local field effects (RPA)
   LNABLA  =     F    use nabla operator in PAW spheres
   LVEL    =     F    velocity operator in full k-point grid
   CSHIFT  =0.1000    complex shift for real part using Kramers Kronig
   OMEGAMAX=  -1.0    maximum frequency
   DEG_THRESHOLD= 0.2000000E-02 threshold for treating states as degnerate
   RTIME   =   -0.100 relaxation time in fs
  (WPLASMAI=    0.000 imaginary part of plasma frequency in eV, 0.658/RTIME)
   DFIELD  = 0.0000000 0.0000000 0.0000000 field for delta impulse in time
 
  Optional k-point grid parameters
   LKPOINTS_OPT  =     F    use optional k-point grid
   KPOINTS_OPT_MODE=     1    mode for optional k-point grid
 
 Orbital magnetization related:
   ORBITALMAG=     F  switch on orbital magnetization
   LCHIMAG   =     F  perturbation theory with respect to B field
   DQ        =  0.001000  dq finite difference perturbation B field
   LLRAUG    =     F  two centre corrections for induced B field
   LBONE     =     F  B-component reconstruction in AE one-centre
   LVGVCALC  =     T  calculate vGv susceptibility
   LVGVAPPL  =     F  apply vGv susceptibility instead of pGv for G=0

 Random number generation:
   RANDOM_GENERATOR = DEFAULT
   PCG_SEED         = not used


--------------------------------------------------------------------------------------------------------


 Static calculation
 charge density and potential remain constant during run
 non-spin polarized calculation
 Variant of blocked Davidson
 Davidson routine will perform the subspace rotation
 perform sub-space diagonalisation
    after iterative eigenvector-optimisation
 no mixing
 using additional bands           27
 reciprocal scheme for non local part
 use partial core corrections
 calculate Harris-corrections to forces 
   (improved forces if not selfconsistent)
 use gradient corrections 
 WARNING: stress and forces are not correct
  (second derivative of E(xc) not defined)
 use of overlap-Matrix (Vanderbilt PP)
 Gauss-broadening in eV      SIGMA  =   0.10


--------------------------------------------------------------------------------------------------------


  energy-cutoff  :      600.00
  volume of cell :      142.98
      direct lattice vectors                 reciprocal lattice vectors
     6.201871195  0.000000000  0.000000000     0.161241659  0.000000000  0.000000000
     0.000000000  5.700970695  0.000000000     0.000000000  0.175408725  0.000000000
     0.000000000  0.000000000  4.044058096     0.000000000  0.000000000  0.247276368

  length of vectors
     6.201871195  5.700970695  4.044058096     0.161241659  0.175408725  0.247276368


 
 k-points in units of 2pi/SCALE and weight: K-points                                
   0.00000000  0.00000000  0.00000000       0.009
   0.00000000  0.00000000  0.00824255       0.009
   0.00000000  0.00000000  0.01648509       0.009
   0.00000000  0.00000000  0.02472764       0.009
   0.00000000  0.00000000  0.03297018       0.009
   0.00000000  0.00000000  0.04121273       0.009
   0.00000000  0.00000000  0.04945527       0.009
   0.00000000  0.00000000  0.05769782       0.009
   0.00000000  0.00000000  0.06594036       0.009
   0.00000000  0.00000000  0.07418291       0.009
   0.00000000  0.00000000  0.08242546       0.009
   0.00000000  0.00000000  0.09066800       0.009
   0.00000000  0.00000000  0.09891055       0.009
   0.00000000  0.00000000  0.10715309       0.009
   0.00000000  0.00000000  0.11539564       0.009
   0.00000000  0.00000000  0.12363818       0.009
   0.00000000  0.00000000  0.12363818       0.009
   0.00000000  0.00584696  0.12363818       0.009
   0.00000000  0.01169391  0.12363818       0.009
   0.00000000  0.01754087  0.12363818       0.009
   0.00000000  0.02338783  0.12363818       0.009
   0.00000000  0.02923479  0.12363818       0.009
   0.00000000  0.03508174  0.12363818       0.009
   0.00000000  0.04092870  0.12363818       0.009
   0.00000000  0.04677566  0.12363818       0.009
   0.00000000  0.05262262  0.12363818       0.009
   0.00000000  0.05846957  0.12363818       0.009
   0.00000000  0.06431653  0.12363818       0.009
   0.00000000  0.07016349  0.12363818       0.009
   0.00000000  0.07601045  0.12363818       0.009
   0.00000000  0.08185740  0.12363818       0.009
   0.00000000  0.08770436  0.12363818       0.009
   0.00000000  0.08770436  0.12363818       0.009
   0.00000000  0.08770436  0.11539564       0.009
   0.00000000  0.08770436  0.10715309       0.009
   0.00000000  0.08770436  0.09891055       0.009
   0.00000000  0.08770436  0.09066800       0.009
   0.00000000  0.08770436  0.08242546       0.009
   0.00000000  0.08770436  0.07418291       0.009
   0.00000000  0.08770436  0.06594036       0.009
   0.00000000  0.08770436  0.05769782       0.009
   0.00000000  0.08770436  0.04945527       0.009
   0.00000000  0.08770436  0.04121273       0.009
   0.00000000  0.08770436  0.03297018       0.009
   0.00000000  0.08770436  0.02472764       0.009
   0.00000000  0.08770436  0.01648509       0.009
   0.00000000  0.08770436  0.00824255       0.009
   0.00000000  0.08770436  0.00000000       0.009
   0.00000000  0.08770436  0.00000000       0.009
   0.00537472  0.08770436  0.00000000       0.009
   0.01074944  0.08770436  0.00000000       0.009
   0.01612417  0.08770436  0.00000000       0.009
   0.02149889  0.08770436  0.00000000       0.009
   0.02687361  0.08770436  0.00000000       0.009
   0.03224833  0.08770436  0.00000000       0.009
   0.03762305  0.08770436  0.00000000       0.009
   0.04299778  0.08770436  0.00000000       0.009
   0.04837250  0.08770436  0.00000000       0.009
   0.05374722  0.08770436  0.00000000       0.009
   0.05912194  0.08770436  0.00000000       0.009
   0.06449666  0.08770436  0.00000000       0.009
   0.06987139  0.08770436  0.00000000       0.009
   0.07524611  0.08770436  0.00000000       0.009
   0.08062083  0.08770436  0.00000000       0.009
   0.08062083  0.08770436  0.00000000       0.009
   0.08062083  0.08185740  0.00000000       0.009
   0.08062083  0.07601045  0.00000000       0.009
   0.08062083  0.07016349  0.00000000       0.009
   0.08062083  0.06431653  0.00000000       0.009
   0.08062083  0.05846957  0.00000000       0.009
   0.08062083  0.05262262  0.00000000       0.009
   0.08062083  0.04677566  0.00000000       0.009
   0.08062083  0.04092870  0.00000000       0.009
   0.08062083  0.03508174  0.00000000       0.009
   0.08062083  0.02923479  0.00000000       0.009
   0.08062083  0.02338783  0.00000000       0.009
   0.08062083  0.01754087  0.00000000       0.009
   0.08062083  0.01169391  0.00000000       0.009
   0.08062083  0.00584696  0.00000000       0.009
   0.08062083  0.00000000  0.00000000       0.009
   0.08062083  0.00000000  0.00000000       0.009
   0.08062083  0.00000000  0.00824255       0.009
   0.08062083  0.00000000  0.01648509       0.009
   0.08062083  0.00000000  0.02472764       0.009
   0.08062083  0.00000000  0.03297018       0.009
   0.08062083  0.00000000  0.04121273       0.009
   0.08062083  0.00000000  0.04945527       0.009
   0.08062083  0.00000000  0.05769782       0.009
   0.08062083  0.00000000  0.06594036       0.009
   0.08062083  0.00000000  0.07418291       0.009
   0.08062083  0.00000000  0.08242546       0.009
   0.08062083  0.00000000  0.09066800       0.009
   0.08062083  0.00000000  0.09891055       0.009
   0.08062083  0.00000000  0.10715309       0.009
   0.08062083  0.00000000  0.11539564       0.009
   0.08062083  0.00000000  0.12363818       0.009
   0.08062083  0.00000000  0.12363818       0.009
   0.08062083  0.00584696  0.12363818       0.009
   0.08062083  0.01169391  0.12363818       0.009
   0.08062083  0.01754087  0.12363818       0.009
   0.08062083  0.02338783  0.12363818       0.009
   0.08062083  0.02923479  0.12363818       0.009
   0.08062083  0.03508174  0.12363818       0.009
   0.08062083  0.04092870  0.12363818       0.009
   0.08062083  0.04677566  0.12363818       0.009
   0.08062083  0.05262262  0.12363818       0.009
   0.08062083  0.05846957  0.12363818       0.009
   0.08062083  0.06431653  0.12363818       0.009
   0.08062083  0.07016349  0.12363818       0.009
   0.08062083  0.07601045  0.12363818       0.009
   0.08062083  0.08185740  0.12363818       0.009
   0.08062083  0.08770436  0.12363818       0.009
 
 k-points in reciprocal lattice and weights: K-points                                
   0.00000000  0.00000000  0.00000000       0.009
   0.00000000  0.00000000  0.03333333       0.009
   0.00000000  0.00000000  0.06666667       0.009
   0.00000000  0.00000000  0.10000000       0.009
   0.00000000  0.00000000  0.13333333       0.009
   0.00000000  0.00000000  0.16666667       0.009
   0.00000000  0.00000000  0.20000000       0.009
   0.00000000  0.00000000  0.23333333       0.009
   0.00000000  0.00000000  0.26666667       0.009
   0.00000000  0.00000000  0.30000000       0.009
   0.00000000  0.00000000  0.33333333       0.009
   0.00000000  0.00000000  0.36666667       0.009
   0.00000000  0.00000000  0.40000000       0.009
   0.00000000  0.00000000  0.43333333       0.009
   0.00000000  0.00000000  0.46666667       0.009
   0.00000000  0.00000000  0.50000000       0.009
   0.00000000  0.00000000  0.50000000       0.009
   0.00000000  0.03333333  0.50000000       0.009
   0.00000000  0.06666667  0.50000000       0.009
   0.00000000  0.10000000  0.50000000       0.009
   0.00000000  0.13333333  0.50000000       0.009
   0.00000000  0.16666667  0.50000000       0.009
   0.00000000  0.20000000  0.50000000       0.009
   0.00000000  0.23333333  0.50000000       0.009
   0.00000000  0.26666667  0.50000000       0.009
   0.00000000  0.30000000  0.50000000       0.009
   0.00000000  0.33333333  0.50000000       0.009
   0.00000000  0.36666667  0.50000000       0.009
   0.00000000  0.40000000  0.50000000       0.009
   0.00000000  0.43333333  0.50000000       0.009
   0.00000000  0.46666667  0.50000000       0.009
   0.00000000  0.50000000  0.50000000       0.009
   0.00000000  0.50000000  0.50000000       0.009
   0.00000000  0.50000000  0.46666667       0.009
   0.00000000  0.50000000  0.43333333       0.009
   0.00000000  0.50000000  0.40000000       0.009
   0.00000000  0.50000000  0.36666667       0.009
   0.00000000  0.50000000  0.33333333       0.009
   0.00000000  0.50000000  0.30000000       0.009
   0.00000000  0.50000000  0.26666667       0.009
   0.00000000  0.50000000  0.23333333       0.009
   0.00000000  0.50000000  0.20000000       0.009
   0.00000000  0.50000000  0.16666667       0.009
   0.00000000  0.50000000  0.13333333       0.009
   0.00000000  0.50000000  0.10000000       0.009
   0.00000000  0.50000000  0.06666667       0.009
   0.00000000  0.50000000  0.03333333       0.009
   0.00000000  0.50000000  0.00000000       0.009
   0.00000000  0.50000000  0.00000000       0.009
   0.03333333  0.50000000  0.00000000       0.009
   0.06666667  0.50000000  0.00000000       0.009
   0.10000000  0.50000000  0.00000000       0.009
   0.13333333  0.50000000  0.00000000       0.009
   0.16666667  0.50000000  0.00000000       0.009
   0.20000000  0.50000000  0.00000000       0.009
   0.23333333  0.50000000  0.00000000       0.009
   0.26666667  0.50000000  0.00000000       0.009
   0.30000000  0.50000000  0.00000000       0.009
   0.33333333  0.50000000  0.00000000       0.009
   0.36666667  0.50000000  0.00000000       0.009
   0.40000000  0.50000000  0.00000000       0.009
   0.43333333  0.50000000  0.00000000       0.009
   0.46666667  0.50000000  0.00000000       0.009
   0.50000000  0.50000000  0.00000000       0.009
   0.50000000  0.50000000  0.00000000       0.009
   0.50000000  0.46666667  0.00000000       0.009
   0.50000000  0.43333333  0.00000000       0.009
   0.50000000  0.40000000  0.00000000       0.009
   0.50000000  0.36666667  0.00000000       0.009
   0.50000000  0.33333333  0.00000000       0.009
   0.50000000  0.30000000  0.00000000       0.009
   0.50000000  0.26666667  0.00000000       0.009
   0.50000000  0.23333333  0.00000000       0.009
   0.50000000  0.20000000  0.00000000       0.009
   0.50000000  0.16666667  0.00000000       0.009
   0.50000000  0.13333333  0.00000000       0.009
   0.50000000  0.10000000  0.00000000       0.009
   0.50000000  0.06666667  0.00000000       0.009
   0.50000000  0.03333333  0.00000000       0.009
   0.50000000  0.00000000  0.00000000       0.009
   0.50000000  0.00000000  0.00000000       0.009
   0.50000000  0.00000000  0.03333333       0.009
   0.50000000  0.00000000  0.06666667       0.009
   0.50000000  0.00000000  0.10000000       0.009
   0.50000000  0.00000000  0.13333333       0.009
   0.50000000  0.00000000  0.16666667       0.009
   0.50000000  0.00000000  0.20000000       0.009
   0.50000000  0.00000000  0.23333333       0.009
   0.50000000  0.00000000  0.26666667       0.009
   0.50000000  0.00000000  0.30000000       0.009
   0.50000000  0.00000000  0.33333333       0.009
   0.50000000  0.00000000  0.36666667       0.009
   0.50000000  0.00000000  0.40000000       0.009
   0.50000000  0.00000000  0.43333333       0.009
   0.50000000  0.00000000  0.46666667       0.009
   0.50000000  0.00000000  0.50000000       0.009
   0.50000000  0.00000000  0.50000000       0.009
   0.50000000  0.03333333  0.50000000       0.009
   0.50000000  0.06666667  0.50000000       0.009
   0.50000000  0.10000000  0.50000000       0.009
   0.50000000  0.13333333  0.50000000       0.009
   0.50000000  0.16666667  0.50000000       0.009
   0.50000000  0.20000000  0.50000000       0.009
   0.50000000  0.23333333  0.50000000       0.009
   0.50000000  0.26666667  0.50000000       0.009
   0.50000000  0.30000000  0.50000000       0.009
   0.50000000  0.33333333  0.50000000       0.009
   0.50000000  0.36666667  0.50000000       0.009
   0.50000000  0.40000000  0.50000000       0.009
   0.50000000  0.43333333  0.50000000       0.009
   0.50000000  0.46666667  0.50000000       0.009
   0.50000000  0.50000000  0.50000000       0.009
 
 position of ions in fractional coordinates (direct lattice) 
   0.63795770  0.50000000  0.52128988
   0.36204230  0.50000000  0.47871012
   0.63795770  0.50000000  0.97871012
   0.36204230  0.50000000  0.02128988
   0.89986832  0.50000000  0.59744966
   0.10013168  0.50000000  0.40255034
   0.89986832  0.50000000  0.90255034
   0.10013168  0.50000000  0.09744966
   0.72957940  0.79156493  0.75000000
   0.27042060  0.20843507  0.25000000
   0.72957940  0.20843507  0.75000000
   0.27042060  0.79156493  0.25000000
   0.52399303  0.50000000  0.25000000
   0.47600697  0.50000000  0.75000000
 
 position of ions in cartesian coordinates  (Angst):
   3.95653149  2.85048535  2.10812658
   2.24533970  2.85048535  1.93593152
   3.95653149  2.85048535  3.95796056
   2.24533970  2.85048535  0.08609753
   5.58086739  2.85048535  2.41612114
   0.62100381  2.85048535  1.62793695
   5.58086739  2.85048535  3.64996600
   0.62100381  2.85048535  0.39409209
   4.52475744  4.51268848  3.03304357
   1.67711376  1.18828221  1.01101452
   4.52475744  1.18828221  3.03304357
   1.67711376  4.51268848  1.01101452
   3.24973731  2.85048535  1.01101452
   2.95213389  2.85048535  3.03304357
 


--------------------------------------------------------------------------------------------------------


 k-point     1 :   0.0000 0.0000 0.0000  plane waves:    4791
 k-point     2 :   0.0000 0.0000 0.0333  plane waves:    4775
 k-point     3 :   0.0000 0.0000 0.0667  plane waves:    4761
 k-point     4 :   0.0000 0.0000 0.1000  plane waves:    4758
 k-point     5 :   0.0000 0.0000 0.1333  plane waves:    4742
 k-point     6 :   0.0000 0.0000 0.1667  plane waves:    4750
 k-point     7 :   0.0000 0.0000 0.2000  plane waves:    4766
 k-point     8 :   0.0000 0.0000 0.2333  plane waves:    4772
 k-point     9 :   0.0000 0.0000 0.2667  plane waves:    4774
 k-point    10 :   0.0000 0.0000 0.3000  plane waves:    4796
 k-point    11 :   0.0000 0.0000 0.3333  plane waves:    4788
 k-point    12 :   0.0000 0.0000 0.3667  plane waves:    4792
 k-point    13 :   0.0000 0.0000 0.4000  plane waves:    4796
 k-point    14 :   0.0000 0.0000 0.4333  plane waves:    4788
 k-point    15 :   0.0000 0.0000 0.4667  plane waves:    4800
 k-point    16 :   0.0000 0.0000 0.5000  plane waves:    4788
 k-point    17 :   0.0000 0.0000 0.5000  plane waves:    4788
 k-point    18 :   0.0000 0.0333 0.5000  plane waves:    4792
 k-point    19 :   0.0000 0.0667 0.5000  plane waves:    4800
 k-point    20 :   0.0000 0.1000 0.5000  plane waves:    4796
 k-point    21 :   0.0000 0.1333 0.5000  plane waves:    4808
 k-point    22 :   0.0000 0.1667 0.5000  plane waves:    4796
 k-point    23 :   0.0000 0.2000 0.5000  plane waves:    4788
 k-point    24 :   0.0000 0.2333 0.5000  plane waves:    4778
 k-point    25 :   0.0000 0.2667 0.5000  plane waves:    4786
 k-point    26 :   0.0000 0.3000 0.5000  plane waves:    4790
 k-point    27 :   0.0000 0.3333 0.5000  plane waves:    4798
 k-point    28 :   0.0000 0.3667 0.5000  plane waves:    4802
 k-point    29 :   0.0000 0.4000 0.5000  plane waves:    4790
 k-point    30 :   0.0000 0.4333 0.5000  plane waves:    4794
 k-point    31 :   0.0000 0.4667 0.5000  plane waves:    4796
 k-point    32 :   0.0000 0.5000 0.5000  plane waves:    4796
 k-point    33 :   0.0000 0.5000 0.5000  plane waves:    4796
 k-point    34 :   0.0000 0.5000 0.4667  plane waves:    4796
 k-point    35 :   0.0000 0.5000 0.4333  plane waves:    4794
 k-point    36 :   0.0000 0.5000 0.4000  plane waves:    4792
 k-point    37 :   0.0000 0.5000 0.3667  plane waves:    4788
 k-point    38 :   0.0000 0.5000 0.3333  plane waves:    4772
 k-point    39 :   0.0000 0.5000 0.3000  plane waves:    4766
 k-point    40 :   0.0000 0.5000 0.2667  plane waves:    4778
 k-point    41 :   0.0000 0.5000 0.2333  plane waves:    4770
 k-point    42 :   0.0000 0.5000 0.2000  plane waves:    4766
 k-point    43 :   0.0000 0.5000 0.1667  plane waves:    4766
 k-point    44 :   0.0000 0.5000 0.1333  plane waves:    4754
 k-point    45 :   0.0000 0.5000 0.1000  plane waves:    4754
 k-point    46 :   0.0000 0.5000 0.0667  plane waves:    4772
 k-point    47 :   0.0000 0.5000 0.0333  plane waves:    4764
 k-point    48 :   0.0000 0.5000 0.0000  plane waves:    4762
 k-point    49 :   0.0000 0.5000 0.0000  plane waves:    4762
 k-point    50 :   0.0333 0.5000 0.0000  plane waves:    4766
 k-point    51 :   0.0667 0.5000 0.0000  plane waves:    4770
 k-point    52 :   0.1000 0.5000 0.0000  plane waves:    4760
 k-point    53 :   0.1333 0.5000 0.0000  plane waves:    4752
 k-point    54 :   0.1667 0.5000 0.0000  plane waves:    4762
 k-point    55 :   0.2000 0.5000 0.0000  plane waves:    4758
 k-point    56 :   0.2333 0.5000 0.0000  plane waves:    4766
 k-point    57 :   0.2667 0.5000 0.0000  plane waves:    4776
 k-point    58 :   0.3000 0.5000 0.0000  plane waves:    4762
 k-point    59 :   0.3333 0.5000 0.0000  plane waves:    4784
 k-point    60 :   0.3667 0.5000 0.0000  plane waves:    4784
 k-point    61 :   0.4000 0.5000 0.0000  plane waves:    4776
 k-point    62 :   0.4333 0.5000 0.0000  plane waves:    4768
 k-point    63 :   0.4667 0.5000 0.0000  plane waves:    4780
 k-point    64 :   0.5000 0.5000 0.0000  plane waves:    4772
 k-point    65 :   0.5000 0.5000 0.0000  plane waves:    4772
 k-point    66 :   0.5000 0.4667 0.0000  plane waves:    4772
 k-point    67 :   0.5000 0.4333 0.0000  plane waves:    4764
 k-point    68 :   0.5000 0.4000 0.0000  plane waves:    4760
 k-point    69 :   0.5000 0.3667 0.0000  plane waves:    4752
 k-point    70 :   0.5000 0.3333 0.0000  plane waves:    4752
 k-point    71 :   0.5000 0.3000 0.0000  plane waves:    4754
 k-point    72 :   0.5000 0.2667 0.0000  plane waves:    4756
 k-point    73 :   0.5000 0.2333 0.0000  plane waves:    4752
 k-point    74 :   0.5000 0.2000 0.0000  plane waves:    4752
 k-point    75 :   0.5000 0.1667 0.0000  plane waves:    4752
 k-point    76 :   0.5000 0.1333 0.0000  plane waves:    4762
 k-point    77 :   0.5000 0.1000 0.0000  plane waves:    4758
 k-point    78 :   0.5000 0.0667 0.0000  plane waves:    4748
 k-point    79 :   0.5000 0.0333 0.0000  plane waves:    4748
 k-point    80 :   0.5000 0.0000 0.0000  plane waves:    4748
 k-point    81 :   0.5000 0.0000 0.0000  plane waves:    4748
 k-point    82 :   0.5000 0.0000 0.0333  plane waves:    4760
 k-point    83 :   0.5000 0.0000 0.0667  plane waves:    4760
 k-point    84 :   0.5000 0.0000 0.1000  plane waves:    4756
 k-point    85 :   0.5000 0.0000 0.1333  plane waves:    4772
 k-point    86 :   0.5000 0.0000 0.1667  plane waves:    4780
 k-point    87 :   0.5000 0.0000 0.2000  plane waves:    4782
 k-point    88 :   0.5000 0.0000 0.2333  plane waves:    4778
 k-point    89 :   0.5000 0.0000 0.2667  plane waves:    4782
 k-point    90 :   0.5000 0.0000 0.3000  plane waves:    4792
 k-point    91 :   0.5000 0.0000 0.3333  plane waves:    4796
 k-point    92 :   0.5000 0.0000 0.3667  plane waves:    4804
 k-point    93 :   0.5000 0.0000 0.4000  plane waves:    4792
 k-point    94 :   0.5000 0.0000 0.4333  plane waves:    4782
 k-point    95 :   0.5000 0.0000 0.4667  plane waves:    4786
 k-point    96 :   0.5000 0.0000 0.5000  plane waves:    4776
 k-point    97 :   0.5000 0.0000 0.5000  plane waves:    4776
 k-point    98 :   0.5000 0.0333 0.5000  plane waves:    4776
 k-point    99 :   0.5000 0.0667 0.5000  plane waves:    4780
 k-point   100 :   0.5000 0.1000 0.5000  plane waves:    4792
 k-point   101 :   0.5000 0.1333 0.5000  plane waves:    4792
 k-point   102 :   0.5000 0.1667 0.5000  plane waves:    4792
 k-point   103 :   0.5000 0.2000 0.5000  plane waves:    4784
 k-point   104 :   0.5000 0.2333 0.5000  plane waves:    4776
 k-point   105 :   0.5000 0.2667 0.5000  plane waves:    4780
 k-point   106 :   0.5000 0.3000 0.5000  plane waves:    4776
 k-point   107 :   0.5000 0.3333 0.5000  plane waves:    4776
 k-point   108 :   0.5000 0.3667 0.5000  plane waves:    4756
 k-point   109 :   0.5000 0.4000 0.5000  plane waves:    4760
 k-point   110 :   0.5000 0.4333 0.5000  plane waves:    4768
 k-point   111 :   0.5000 0.4667 0.5000  plane waves:    4764
 k-point   112 :   0.5000 0.5000 0.5000  plane waves:    4752

 maximum and minimum number of plane-waves per node :      4808     4742

 maximum number of plane-waves:      4808
 maximum index in each direction: 
   IXMAX=   12   IYMAX=   11   IZMAX=    8
   IXMIN=  -12   IYMIN=  -11   IZMIN=   -8


 serial   3D FFT for wavefunctions
 parallel 3D FFT for charge:
    minimum data exchange during FFTs selected (reduces bandwidth)


 total amount of memory used by VASP MPI-rank0    89391. kBytes
=======================================================================

   base      :      30000. kBytes
   nonl-proj :      35659. kBytes
   fftplans  :       1355. kBytes
   grid      :       4615. kBytes
   one-center:         43. kBytes
   wavefun   :      17719. kBytes
 
     INWAV:  cpu time      0.0000: real time      0.0000
 initial charge density was supplied:
 number of electron      42.0000000 magnetization 
 keeping initial charge density in first step


--------------------------------------------------------------------------------------------------------


 Maximum index for augmentation-charges          549 (set IRDMAX)


--------------------------------------------------------------------------------------------------------


 First call to EWALD:  gamma=   0.339
 Maximum number of real-space cells 2x 3x 3
 Maximum number of reciprocal cells 3x 3x 2

    FEWALD:  cpu time      0.0011: real time      0.0011


--------------------------------------- Ionic step        1  -------------------------------------------




--------------------------------------- Iteration      1(   1)  ---------------------------------------


    POTLOK:  cpu time      0.0153: real time      0.0161
    SETDIJ:  cpu time      0.0017: real time      0.0017
     EDDAV:  cpu time      3.6819: real time      3.6872
       DOS:  cpu time      0.0015: real time      0.0015
    --------------------------------------------
      LOOP:  cpu time      3.7003: real time      3.7065

 eigenvalue-minimisations  : 10752
 total energy-change (2. order) : 0.1201161E+03  (-0.1983415E+04)
 number of electron      42.0000000 magnetization 
 augmentation part       42.0000000 magnetization 

 Free energy of the ion-electron system (eV)
  ---------------------------------------------------
  alpha Z        PSCENC =        94.30280740
  Ewald energy   TEWEN  =      -447.83269088
  -Hartree energ DENC   =      -651.40319229
  -exchange      EXHF   =         0.00000000
  -V(xc)+E(xc)   XCENC  =       104.99741066
  PAW double counting   =      5412.56112591    -5402.79661115
  entropy T*S    EENTRO =        -0.01111106
  eigenvalues    EBANDS =        13.92393686
  atomic energy  EATOM  =       996.37441054
  Solvation  Ediel_sol  =         0.00000000
  ---------------------------------------------------
  free energy    TOTEN  =       120.11608600 eV

  energy without entropy =      120.12719706  energy(sigma->0) =      120.12164153


--------------------------------------------------------------------------------------------------------




--------------------------------------- Iteration      1(   2)  ---------------------------------------


     EDDAV:  cpu time      4.9274: real time      4.9295
       DOS:  cpu time      0.0010: real time      0.0010
    --------------------------------------------
      LOOP:  cpu time      4.9283: real time      4.9305

 eigenvalue-minimisations  : 15048
 total energy-change (2. order) :-0.1666804E+03  (-0.1508258E+03)
 number of electron      42.0000000 magnetization 
 augmentation part       42.0000000 magnetization 

 Free energy of the ion-electron system (eV)
  ---------------------------------------------------
  alpha Z        PSCENC =        94.30280740
  Ewald energy   TEWEN  =      -447.83269088
  -Hartree energ DENC   =      -651.40319229
  -exchange      EXHF   =         0.00000000
  -V(xc)+E(xc)   XCENC  =       104.99741066
  PAW double counting   =      5412.56112591    -5402.79661115
  entropy T*S    EENTRO =        -0.04586136
  eigenvalues    EBANDS =      -152.72166341
  atomic energy  EATOM  =       996.37441054
  Solvation  Ediel_sol  =         0.00000000
  ---------------------------------------------------
  free energy    TOTEN  =       -46.56426457 eV

  energy without entropy =      -46.51840321  energy(sigma->0) =      -46.54133389


--------------------------------------------------------------------------------------------------------




--------------------------------------- Iteration      1(   3)  ---------------------------------------


     EDDAV:  cpu time      4.9023: real time      4.9041
       DOS:  cpu time      0.0010: real time      0.0010
    --------------------------------------------
      LOOP:  cpu time      4.9033: real time      4.9051

 eigenvalue-minimisations  : 14904
 total energy-change (2. order) :-0.5755640E+01  (-0.5709483E+01)
 number of electron      42.0000000 magnetization 
 augmentation part       42.0000000 magnetization 

 Free energy of the ion-electron system (eV)
  ---------------------------------------------------
  alpha Z        PSCENC =        94.30280740
  Ewald energy   TEWEN  =      -447.83269088
  -Hartree energ DENC   =      -651.40319229
  -exchange      EXHF   =         0.00000000
  -V(xc)+E(xc)   XCENC  =       104.99741066
  PAW double counting   =      5412.56112591    -5402.79661115
  entropy T*S    EENTRO =        -0.04490163
  eigenvalues    EBANDS =      -158.47826332
  atomic energy  EATOM  =       996.37441054
  Solvation  Ediel_sol  =         0.00000000
  ---------------------------------------------------
  free energy    TOTEN  =       -52.31990476 eV

  energy without entropy =      -52.27500312  energy(sigma->0) =      -52.29745394


--------------------------------------------------------------------------------------------------------




--------------------------------------- Iteration      1(   4)  ---------------------------------------


     EDDAV:  cpu time      4.3164: real time      4.3183
       DOS:  cpu time      0.0009: real time      0.0009
    --------------------------------------------
      LOOP:  cpu time      4.3173: real time      4.3192

 eigenvalue-minimisations  : 13032
 total energy-change (2. order) :-0.2711803E-01  (-0.2711410E-01)
 number of electron      42.0000000 magnetization 
 augmentation part       42.0000000 magnetization 

 Free energy of the ion-electron system (eV)
  ---------------------------------------------------
  alpha Z        PSCENC =        94.30280740
  Ewald energy   TEWEN  =      -447.83269088
  -Hartree energ DENC   =      -651.40319229
  -exchange      EXHF   =         0.00000000
  -V(xc)+E(xc)   XCENC  =       104.99741066
  PAW double counting   =      5412.56112591    -5402.79661115
  entropy T*S    EENTRO =        -0.04488194
  eigenvalues    EBANDS =      -158.50540105
  atomic energy  EATOM  =       996.37441054
  Solvation  Ediel_sol  =         0.00000000
  ---------------------------------------------------
  free energy    TOTEN  =       -52.34702279 eV

  energy without entropy =      -52.30214085  energy(sigma->0) =      -52.32458182


--------------------------------------------------------------------------------------------------------




--------------------------------------- Iteration      1(   5)  ---------------------------------------


     EDDAV:  cpu time      4.7242: real time      4.7260
       DOS:  cpu time      0.0010: real time      0.0010
    --------------------------------------------
      LOOP:  cpu time      4.7252: real time      4.7270

 eigenvalue-minimisations  : 14448
 total energy-change (2. order) :-0.2112231E-03  (-0.2112103E-03)
 number of electron      42.0000000 magnetization 
 augmentation part       42.0000000 magnetization 

 Free energy of the ion-electron system (eV)
  ---------------------------------------------------
  alpha Z        PSCENC =        94.30280740
  Ewald energy   TEWEN  =      -447.83269088
  -Hartree energ DENC   =      -651.40319229
  -exchange      EXHF   =         0.00000000
  -V(xc)+E(xc)   XCENC  =       104.99741066
  PAW double counting   =      5412.56112591    -5402.79661115
  entropy T*S    EENTRO =        -0.04488181
  eigenvalues    EBANDS =      -158.50561241
  atomic energy  EATOM  =       996.37441054
  Solvation  Ediel_sol  =         0.00000000
  ---------------------------------------------------
  free energy    TOTEN  =       -52.34723401 eV

  energy without entropy =      -52.30235221  energy(sigma->0) =      -52.32479311


--------------------------------------------------------------------------------------------------------




--------------------------------------- Iteration      1(   6)  ---------------------------------------


     EDDAV:  cpu time      4.2601: real time      4.2618
       DOS:  cpu time      0.0009: real time      0.0009
    --------------------------------------------
      LOOP:  cpu time      4.2611: real time      4.2627

 eigenvalue-minimisations  : 12720
 total energy-change (2. order) :-0.2502888E-05  (-0.2503068E-05)
 number of electron      42.0000000 magnetization 
 augmentation part       42.0000000 magnetization 

 Free energy of the ion-electron system (eV)
  ---------------------------------------------------
  alpha Z        PSCENC =        94.30280740
  Ewald energy   TEWEN  =      -447.83269088
  -Hartree energ DENC   =      -651.40319229
  -exchange      EXHF   =         0.00000000
  -V(xc)+E(xc)   XCENC  =       104.99741066
  PAW double counting   =      5412.56112591    -5402.79661115
  entropy T*S    EENTRO =        -0.04488181
  eigenvalues    EBANDS =      -158.50561491
  atomic energy  EATOM  =       996.37441054
  Solvation  Ediel_sol  =         0.00000000
  ---------------------------------------------------
  free energy    TOTEN  =       -52.34723652 eV

  energy without entropy =      -52.30235471  energy(sigma->0) =      -52.32479562


--------------------------------------------------------------------------------------------------------




--------------------------------------- Iteration      1(   7)  ---------------------------------------


     EDDAV:  cpu time      4.6193: real time      4.6212
       DOS:  cpu time      0.0010: real time      0.0010
    --------------------------------------------
      LOOP:  cpu time      4.6203: real time      4.6221

 eigenvalue-minimisations  : 13776
 total energy-change (2. order) :-0.3613650E-07  (-0.3616577E-07)
 number of electron      42.0000000 magnetization 
 augmentation part       42.0000000 magnetization 

 Free energy of the ion-electron system (eV)
  ---------------------------------------------------
  alpha Z        PSCENC =        94.30280740
  Ewald energy   TEWEN  =      -447.83269088
  -Hartree energ DENC   =      -651.40319229
  -exchange      EXHF   =         0.00000000
  -V(xc)+E(xc)   XCENC  =       104.99741066
  PAW double counting   =      5412.56112591    -5402.79661115
  entropy T*S    EENTRO =        -0.04488181
  eigenvalues    EBANDS =      -158.50561495
  atomic energy  EATOM  =       996.37441054
  Solvation  Ediel_sol  =         0.00000000
  ---------------------------------------------------
  free energy    TOTEN  =       -52.34723655 eV

  energy without entropy =      -52.30235475  energy(sigma->0) =      -52.32479565


--------------------------------------------------------------------------------------------------------




 average (electrostatic) potential at core
  the test charge radii are     0.7672
  (the norm of the test charge is              1.0000)
       1 -30.0529       2 -30.0529       3 -30.0529       4 -30.0529       5 -28.6037
       6 -28.6037       7 -28.6037       8 -28.6037       9 -31.4769      10 -31.4769
      11 -31.4769      12 -31.4769      13 -30.0945      14 -30.0945
 
 
 
 E-fermi :   2.3843     XC(G=0):  -9.3475     alpha+bet :-10.8673

 val. band max:        2.3842636908   @ k =   0.5000   0.0000   0.5000
 cond. band min:       2.3844160647   @ k =   0.5000   0.0000   0.1333
 fundamental gap:      0.0001523739
 Fermi energy:         2.3843289726

 k-point     1 :       0.0000    0.0000    0.0000
  band No.  band energies     occupation 
      1     -14.2897      2.00000
      2     -11.2854      2.00000
      3     -10.0660      2.00000
      4      -9.8492      2.00000
      5      -7.3482      2.00000
      6      -6.5018      2.00000
      7      -5.8684      2.00000
      8      -4.4247      2.00000
      9      -4.2444      2.00000
     10      -3.4258      2.00000
     11      -2.6690      2.00000
     12      -2.6066      2.00000
     13      -2.5161      2.00000
     14      -1.6260      2.00000
     15      -1.3769      2.00000
     16      -0.1856      2.00000
     17       0.7265      2.00000
     18       1.6773      2.00000
     19       2.1223      1.99979
     20       2.4383      0.44566
     21       3.0477      0.00000
     22       3.2594      0.00000
     23       4.1117      0.00000
     24       4.2718      0.00000
     25       4.4566      0.00000
     26       5.7731      0.00000
     27       5.7957      0.00000
     28       6.1843      0.00000
     29       6.3529      0.00000
     30       7.0032      0.00000
     31       7.0994      0.00000
     32       7.1825      0.00000
     33       7.5904      0.00000
     34       8.4888      0.00000
     35      10.6068      0.00000
     36      10.7797      0.00000
     37      10.8758      0.00000
     38      11.3006      0.00000
     39      11.9763      0.00000
     40      12.1886      0.00000
     41      12.6258      0.00000
     42      12.6927      0.00000
     43      13.6331      0.00000
     44      14.0185      0.00000
     45      14.1836      0.00000
     46      14.6114      0.00000
     47      15.0581      0.00000
     48      15.3264      0.00000

 k-point     2 :       0.0000    0.0000    0.0333
  band No.  band energies     occupation 
      1     -14.2843      2.00000
      2     -11.2978      2.00000
      3     -10.0686      2.00000
      4      -9.8455      2.00000
      5      -7.3402      2.00000
      6      -6.4777      2.00000
      7      -5.8832      2.00000
      8      -4.4270      2.00000
      9      -4.2847      2.00000
     10      -3.4233      2.00000
     11      -2.6655      2.00000
     12      -2.5999      2.00000
     13      -2.4711      2.00000
     14      -1.6253      2.00000
     15      -1.3595      2.00000
     16      -0.1918      2.00000
     17       0.6710      2.00000
     18       1.6786      2.00000
     19       2.1224      1.99979
     20       2.4367      0.45931
     21       3.0138      0.00000
     22       3.2621      0.00000
     23       4.0816      0.00000
     24       4.2846      0.00000
     25       4.5064      0.00000
     26       5.7457      0.00000
     27       5.7885      0.00000
     28       6.1834      0.00000
     29       6.3246      0.00000
     30       7.0165      0.00000
     31       7.1113      0.00000
     32       7.2015      0.00000
     33       7.5947      0.00000
     34       8.4921      0.00000
     35      10.6021      0.00000
     36      10.8085      0.00000
     37      10.8815      0.00000
     38      11.3186      0.00000
     39      11.9901      0.00000
     40      12.1522      0.00000
     41      12.6821      0.00000
     42      12.6922      0.00000
     43      13.6560      0.00000
     44      14.0369      0.00000
     45      14.1761      0.00000
     46      14.5296      0.00000
     47      15.1250      0.00000
     48      15.3292      0.00000

 k-point     3 :       0.0000    0.0000    0.0667
  band No.  band energies     occupation 
      1     -14.2681      2.00000
      2     -11.3353      2.00000
      3     -10.0746      2.00000
      4      -9.8346      2.00000
      5      -7.3162      2.00000
      6      -6.4082      2.00000
      7      -5.9265      2.00000
      8      -4.4342      2.00000
      9      -4.3922      2.00000
     10      -3.4152      2.00000
     11      -2.6549      2.00000
     12      -2.5801      2.00000
     13      -2.3495      2.00000
     14      -1.6229      2.00000
     15      -1.3095      2.00000
     16      -0.2103      2.00000
     17       0.5199      2.00000
     18       1.6826      2.00000
     19       2.1233      1.99978
     20       2.4212      0.60226
     21       2.9175      0.00000
     22       3.2700      0.00000
     23       3.9929      0.00000
     24       4.3198      0.00000
     25       4.6507      0.00000
     26       5.6673      0.00000
     27       5.7666      0.00000
     28       6.1806      0.00000
     29       6.2455      0.00000
     30       7.0572      0.00000
     31       7.1429      0.00000
     32       7.2556      0.00000
     33       7.6064      0.00000
     34       8.5021      0.00000
     35      10.5892      0.00000
     36      10.8884      0.00000
     37      10.8928      0.00000
     38      11.3758      0.00000
     39      12.0286      0.00000
     40      12.0919      0.00000
     41      12.6523      0.00000
     42      12.8448      0.00000
     43      13.7216      0.00000
     44      14.0938      0.00000
     45      14.1498      0.00000
     46      14.3603      0.00000
     47      15.2574      0.00000
     48      15.3373      0.00000

 k-point     4 :       0.0000    0.0000    0.1000
  band No.  band energies     occupation 
      1     -14.2412      2.00000
      2     -11.3979      2.00000
      3     -10.0798      2.00000
      4      -9.8168      2.00000
      5      -7.2762      2.00000
      6      -6.3017      2.00000
      7      -5.9956      2.00000
      8      -4.5375      2.00000
      9      -4.4476      2.00000
     10      -3.4004      2.00000
     11      -2.6364      2.00000
     12      -2.5473      2.00000
     13      -2.1791      2.00000
     14      -1.6183      2.00000
     15      -1.2336      2.00000
     16      -0.2397      2.00000
     17       0.3067      2.00000
     18       1.6900      2.00000
     19       2.1265      1.99973
     20       2.3740      1.11569
     21       2.7719      0.00000
     22       3.2824      0.00000
     23       3.8514      0.00000
     24       4.3709      0.00000
     25       4.8736      0.00000
     26       5.5480      0.00000
     27       5.7287      0.00000
     28       6.1278      0.00000
     29       6.1757      0.00000
     30       7.1279      0.00000
     31       7.1862      0.00000
     32       7.3367      0.00000
     33       7.6225      0.00000
     34       8.5192      0.00000
     35      10.5712      0.00000
     36      10.8949      0.00000
     37      11.0008      0.00000
     38      11.4809      0.00000
     39      12.0635      0.00000
     40      12.0837      0.00000
     41      12.6089      0.00000
     42      13.0338      0.00000
     43      13.8208      0.00000
     44      14.0599      0.00000
     45      14.1932      0.00000
     46      14.2140      0.00000
     47      15.3493      0.00000
     48      15.3939      0.00000

 k-point     5 :       0.0000    0.0000    0.1333
  band No.  band energies     occupation 
      1     -14.2037      2.00000
      2     -11.4850      2.00000
      3     -10.0794      2.00000
      4      -9.7927      2.00000
      5      -7.2205      2.00000
      6      -6.1734      2.00000
      7      -6.0861      2.00000
      8      -4.6893      2.00000
      9      -4.4689      2.00000
     10      -3.3774      2.00000
     11      -2.6098      2.00000
     12      -2.5020      2.00000
     13      -1.9888      2.00000
     14      -1.6080      2.00000
     15      -1.1414      2.00000
     16      -0.2775      2.00000
     17       0.0634      2.00000
     18       1.7023      2.00000
     19       2.1341      1.99960
     20       2.2877      1.82817
     21       2.5914      0.00341
     22       3.2967      0.00000
     23       3.6676      0.00000
     24       4.4324      0.00000
     25       5.1492      0.00000
     26       5.4009      0.00000
     27       5.6735      0.00000
     28       5.9834      0.00000
     29       6.1680      0.00000
     30       7.2337      0.00000
     31       7.2351      0.00000
     32       7.4333      0.00000
     33       7.6399      0.00000
     34       8.5440      0.00000
     35      10.5530      0.00000
     36      10.8725      0.00000
     37      11.1209      0.00000
     38      11.6438      0.00000
     39      12.0911      0.00000
     40      12.1446      0.00000
     41      12.5583      0.00000
     42      13.2372      0.00000
     43      13.8612      0.00000
     44      13.9358      0.00000
     45      14.1637      0.00000
     46      14.3397      0.00000
     47      15.1828      0.00000
     48      15.3632      0.00000

 k-point     6 :       0.0000    0.0000    0.1667
  band No.  band energies     occupation 
      1     -14.1555      2.00000
      2     -11.5946      2.00000
      3     -10.0696      2.00000
      4      -9.7631      2.00000
      5      -7.1493      2.00000
      6      -6.1928      2.00000
      7      -6.0497      2.00000
      8      -4.8133      2.00000
      9      -4.5007      2.00000
     10      -3.3453      2.00000
     11      -2.5749      2.00000
     12      -2.4447      2.00000
     13      -1.8148      2.00000
     14      -1.5765      2.00000
     15      -1.0443      2.00000
     16      -0.3189      2.00000
     17      -0.1867      2.00000
     18       1.7212      2.00000
     19       2.1481      1.99917
     20       2.1656      1.99802
     21       2.3886      0.95200
     22       3.2903      0.00000
     23       3.4732      0.00000
     24       4.5012      0.00000
     25       5.2385      0.00000
     26       5.4462      0.00000
     27       5.5997      0.00000
     28       5.8221      0.00000
     29       6.1566      0.00000
     30       7.2866      0.00000
     31       7.3823      0.00000
     32       7.5325      0.00000
     33       7.6565      0.00000
     34       8.5775      0.00000
     35      10.5412      0.00000
     36      10.8202      0.00000
     37      11.2310      0.00000
     38      11.8620      0.00000
     39      12.1773      0.00000
     40      12.2006      0.00000
     41      12.5061      0.00000
     42      13.4426      0.00000
     43      13.6387      0.00000
     44      14.0286      0.00000
     45      14.1446      0.00000
     46      14.5337      0.00000
     47      15.0454      0.00000
     48      15.3766      0.00000

 k-point     7 :       0.0000    0.0000    0.2000
  band No.  band energies     occupation 
      1     -14.0968      2.00000
      2     -11.7230      2.00000
      3     -10.0486      2.00000
      4      -9.7294      2.00000
      5      -7.0630      2.00000
      6      -6.3099      2.00000
      7      -5.9721      2.00000
      8      -4.8652      2.00000
      9      -4.5461      2.00000
     10      -3.3035      2.00000
     11      -2.5323      2.00000
     12      -2.3762      2.00000
     13      -1.7201      2.00000
     14      -1.4797      2.00000
     15      -0.9543      2.00000
     16      -0.4274      2.00000
     17      -0.3545      2.00000
     18       1.7487      2.00000
     19       2.0161      2.00000
     20       2.1699      1.99757
     21       2.1739      1.99708
     22       3.1330      0.00000
     23       3.4089      0.00000
     24       4.5763      0.00000
     25       5.0723      0.00000
     26       5.5069      0.00000
     27       5.6515      0.00000
     28       5.7327      0.00000
     29       6.1425      0.00000
     30       7.3392      0.00000
     31       7.5808      0.00000
     32       7.6219      0.00000
     33       7.6710      0.00000
     34       8.6208      0.00000
     35      10.5446      0.00000
     36      10.7445      0.00000
     37      11.3222      0.00000
     38      12.1187      0.00000
     39      12.2449      0.00000
     40      12.3100      0.00000
     41      12.4567      0.00000
     42      13.4297      0.00000
     43      13.6393      0.00000
     44      14.0387      0.00000
     45      14.1405      0.00000
     46      14.7593      0.00000
     47      15.0428      0.00000
     48      15.3903      0.00000

 k-point     8 :       0.0000    0.0000    0.2333
  band No.  band energies     occupation 
      1     -14.0278      2.00000
      2     -11.8662      2.00000
      3     -10.0163      2.00000
      4      -9.6929      2.00000
      5      -6.9620      2.00000
      6      -6.4312      2.00000
      7      -5.9797      2.00000
      8      -4.8060      2.00000
      9      -4.6078      2.00000
     10      -3.2526      2.00000
     11      -2.4828      2.00000
     12      -2.2975      2.00000
     13      -1.7008      2.00000
     14      -1.3434      2.00000
     15      -0.8831      2.00000
     16      -0.6481      2.00000
     17      -0.3681      2.00000
     18       1.7864      2.00000
     19       1.8487      2.00000
     20       1.9557      2.00000
     21       2.2001      1.99083
     22       2.8753      0.00000
     23       3.4359      0.00000
     24       4.6571      0.00000
     25       4.9116      0.00000
     26       5.3953      0.00000
     27       5.4779      0.00000
     28       5.9649      0.00000
     29       6.1459      0.00000
     30       7.3922      0.00000
     31       7.6830      0.00000
     32       7.6911      0.00000
     33       7.8295      0.00000
     34       8.6747      0.00000
     35      10.5745      0.00000
     36      10.6562      0.00000
     37      11.3833      0.00000
     38      12.2756      0.00000
     39      12.3914      0.00000
     40      12.4135      0.00000
     41      12.4730      0.00000
     42      13.2599      0.00000
     43      13.8167      0.00000
     44      13.9487      0.00000
     45      14.1516      0.00000
     46      14.9258      0.00000
     47      15.1973      0.00000
     48      15.4022      0.00000

 k-point     9 :       0.0000    0.0000    0.2667
  band No.  band energies     occupation 
      1     -13.9487      2.00000
      2     -12.0199      2.00000
      3      -9.9738      2.00000
      4      -9.6558      2.00000
      5      -6.8469      2.00000
      6      -6.5506      2.00000
      7      -6.0668      2.00000
      8      -4.6887      2.00000
      9      -4.6429      2.00000
     10      -3.1935      2.00000
     11      -2.4277      2.00000
     12      -2.2102      2.00000
     13      -1.7091      2.00000
     14      -1.2403      2.00000
     15      -0.8418      2.00000
     16      -0.8414      2.00000
     17      -0.3375      2.00000
     18       1.6724      2.00000
     19       1.7414      2.00000
     20       1.8329      2.00000
     21       2.2377      1.96190
     22       2.6034      0.00195
     23       3.4814      0.00000
     24       4.7436      0.00000
     25       4.7641      0.00000
     26       5.2665      0.00000
     27       5.3064      0.00000
     28       6.0227      0.00000
     29       6.2769      0.00000
     30       7.4448      0.00000
     31       7.6924      0.00000
     32       7.7331      0.00000
     33       8.1140      0.00000
     34       8.7382      0.00000
     35      10.5660      0.00000
     36      10.6461      0.00000
     37      11.3963      0.00000
     38      12.2953      0.00000
     39      12.3776      0.00000
     40      12.6517      0.00000
     41      12.6560      0.00000
     42      13.1595      0.00000
     43      13.8099      0.00000
     44      13.9633      0.00000
     45      14.1795      0.00000
     46      14.8790      0.00000
     47      15.4305      0.00000
     48      15.4614      0.00000

 k-point    10 :       0.0000    0.0000    0.3000
  band No.  band energies     occupation 
      1     -13.8595      2.00000
      2     -12.1802      2.00000
      3      -9.9231      2.00000
      4      -9.6205      2.00000
      5      -6.7183      2.00000
      6      -6.6623      2.00000
      7      -6.1973      2.00000
      8      -4.7901      2.00000
      9      -4.4146      2.00000
     10      -3.1285      2.00000
     11      -2.3688      2.00000
     12      -2.1158      2.00000
     13      -1.7318      2.00000
     14      -1.1979      2.00000
     15      -1.0054      2.00000
     16      -0.8367      2.00000
     17      -0.2484      2.00000
     18       1.4955      2.00000
     19       1.5374      2.00000
     20       1.8755      2.00000
     21       2.2804      1.85824
     22       2.3470      1.40275
     23       3.5376      0.00000
     24       4.6359      0.00000
     25       4.8356      0.00000
     26       5.1227      0.00000
     27       5.1414      0.00000
     28       5.9839      0.00000
     29       6.4597      0.00000
     30       7.4957      0.00000
     31       7.6993      0.00000
     32       7.7451      0.00000
     33       8.4040      0.00000
     34       8.8083      0.00000
     35      10.4826      0.00000
     36      10.7778      0.00000
     37      11.3467      0.00000
     38      12.3110      0.00000
     39      12.3478      0.00000
     40      12.8349      0.00000
     41      12.8804      0.00000
     42      13.1617      0.00000
     43      13.6685      0.00000
     44      14.0675      0.00000
     45      14.2260      0.00000
     46      14.7256      0.00000
     47      15.4648      0.00000
     48      15.7948      0.00000

 k-point    11 :       0.0000    0.0000    0.3333
  band No.  band energies     occupation 
      1     -13.7606      2.00000
      2     -12.3439      2.00000
      3      -9.8663      2.00000
      4      -9.5897      2.00000
      5      -6.7604      2.00000
      6      -6.5772      2.00000
      7      -6.3423      2.00000
      8      -4.9120      2.00000
      9      -4.1531      2.00000
     10      -3.0607      2.00000
[...]
      1     -13.0977      2.00000
      2     -13.0977      2.00000
      3      -9.8549      2.00000
      4      -9.8549      2.00000
      5      -5.9449      2.00000
      6      -5.9449      2.00000
      7      -5.5543      2.00000
      8      -5.5543      2.00000
      9      -4.7606      2.00000
     10      -4.7606      2.00000
     11      -2.4802      2.00000
     12      -2.4802      2.00000
     13      -1.1331      2.00000
     14      -1.1331      2.00000
     15      -0.6481      2.00000
     16      -0.6481      2.00000
     17       1.7082      2.00000
     18       1.7082      2.00000
     19       1.8848      2.00000
     20       1.8848      2.00000
     21       2.0441      2.00000
     22       2.0441      2.00000
     23       3.1472      0.00000
     24       3.1472      0.00000
     25       4.3072      0.00000
     26       4.3072      0.00000
     27       5.2957      0.00000
     28       5.2957      0.00000
     29       6.7637      0.00000
     30       6.7637      0.00000
     31       7.1126      0.00000
     32       7.1126      0.00000
     33      10.6608      0.00000
     34      10.6608      0.00000
     35      10.9842      0.00000
     36      10.9842      0.00000
     37      11.6978      0.00000
     38      11.6978      0.00000
     39      12.4385      0.00000
     40      12.4385      0.00000
     41      12.8000      0.00000
     42      12.8000      0.00000
     43      13.1826      0.00000
     44      13.1826      0.00000
     45      14.7314      0.00000
     46      14.7314      0.00000
     47      15.1833      0.00000
     48      15.1835      0.00000

 k-point   109 :       0.5000    0.4000    0.5000
  band No.  band energies     occupation 
      1     -13.0971      2.00000
      2     -13.0971      2.00000
      3      -9.8538      2.00000
      4      -9.8538      2.00000
      5      -5.9656      2.00000
      6      -5.9656      2.00000
      7      -5.5532      2.00000
      8      -5.5532      2.00000
      9      -4.7593      2.00000
     10      -4.7593      2.00000
     11      -2.4986      2.00000
     12      -2.4986      2.00000
     13      -1.1241      2.00000
     14      -1.1241      2.00000
     15      -0.5048      2.00000
     16      -0.5048      2.00000
     17       1.6277      2.00000
     18       1.6277      2.00000
     19       1.8868      2.00000
     20       1.8868      2.00000
     21       2.0185      2.00000
     22       2.0185      2.00000
     23       3.0401      0.00000
     24       3.0401      0.00000
     25       4.3948      0.00000
     26       4.3948      0.00000
     27       5.3036      0.00000
     28       5.3036      0.00000
     29       6.8439      0.00000
     30       6.8439      0.00000
     31       6.9538      0.00000
     32       6.9538      0.00000
     33      10.8429      0.00000
     34      10.8429      0.00000
     35      10.9129      0.00000
     36      10.9129      0.00000
     37      11.7797      0.00000
     38      11.7797      0.00000
     39      12.3451      0.00000
     40      12.3451      0.00000
     41      12.8304      0.00000
     42      12.8304      0.00000
     43      13.1970      0.00000
     44      13.1970      0.00000
     45      14.7434      0.00000
     46      14.7434      0.00000
     47      15.1374      0.00000
     48      15.1374      0.00000

 k-point   110 :       0.5000    0.4333    0.5000
  band No.  band energies     occupation 
      1     -13.0966      2.00000
      2     -13.0966      2.00000
      3      -9.8529      2.00000
      4      -9.8529      2.00000
      5      -5.9809      2.00000
      6      -5.9809      2.00000
      7      -5.5524      2.00000
      8      -5.5524      2.00000
      9      -4.7584      2.00000
     10      -4.7584      2.00000
     11      -2.5121      2.00000
     12      -2.5121      2.00000
     13      -1.1192      2.00000
     14      -1.1192      2.00000
     15      -0.3819      2.00000
     16      -0.3819      2.00000
     17       1.5426      2.00000
     18       1.5426      2.00000
     19       1.8939      2.00000
     20       1.8939      2.00000
     21       1.9983      2.00000
     22       1.9983      2.00000
     23       2.9674      0.00000
     24       2.9674      0.00000
     25       4.4630      0.00000
     26       4.4630      0.00000
     27       5.3224      0.00000
     28       5.3224      0.00000
     29       6.7621      0.00000
     30       6.7621      0.00000
     31       6.9664      0.00000
     32       6.9664      0.00000
     33      10.7863      0.00000
     34      10.7863      0.00000
     35      11.0558      0.00000
     36      11.0558      0.00000
     37      11.8642      0.00000
     38      11.8642      0.00000
     39      12.2456      0.00000
     40      12.2456      0.00000
     41      12.8566      0.00000
     42      12.8566      0.00000
     43      13.2041      0.00000
     44      13.2041      0.00000
     45      14.7717      0.00000
     46      14.7717      0.00000
     47      15.0943      0.00000
     48      15.0948      0.00000

 k-point   111 :       0.5000    0.4667    0.5000
  band No.  band energies     occupation 
      1     -13.0963      2.00000
      2     -13.0963      2.00000
      3      -9.8524      2.00000
      4      -9.8524      2.00000
      5      -5.9902      2.00000
      6      -5.9902      2.00000
      7      -5.5519      2.00000
      8      -5.5519      2.00000
      9      -4.7578      2.00000
     10      -4.7578      2.00000
     11      -2.5204      2.00000
     12      -2.5204      2.00000
     13      -1.1167      2.00000
     14      -1.1167      2.00000
     15      -0.2970      2.00000
     16      -0.2970      2.00000
     17       1.4775      2.00000
     18       1.4775      2.00000
     19       1.9001      2.00000
     20       1.9001      2.00000
     21       1.9851      2.00000
     22       1.9851      2.00000
     23       2.9259      0.00000
     24       2.9259      0.00000
     25       4.5060      0.00000
     26       4.5060      0.00000
     27       5.3425      0.00000
     28       5.3425      0.00000
     29       6.6673      0.00000
     30       6.6673      0.00000
     31       7.0117      0.00000
     32       7.0117      0.00000
     33      10.7340      0.00000
     34      10.7340      0.00000
     35      11.1649      0.00000
     36      11.1649      0.00000
     37      11.9506      0.00000
     38      11.9506      0.00000
     39      12.1463      0.00000
     40      12.1463      0.00000
     41      12.8739      0.00000
     42      12.8739      0.00000
     43      13.2057      0.00000
     44      13.2057      0.00000
     45      14.8062      0.00000
     46      14.8062      0.00000
     47      15.0584      0.00000
     48      15.0585      0.00000

 k-point   112 :       0.5000    0.5000    0.5000
  band No.  band energies     occupation 
      1     -13.0962      2.00000
      2     -13.0962      2.00000
      3      -9.8522      2.00000
      4      -9.8522      2.00000
      5      -5.9933      2.00000
      6      -5.9933      2.00000
      7      -5.5517      2.00000
      8      -5.5517      2.00000
      9      -4.7576      2.00000
     10      -4.7576      2.00000
     11      -2.5231      2.00000
     12      -2.5231      2.00000
     13      -1.1159      2.00000
     14      -1.1159      2.00000
     15      -0.2663      2.00000
     16      -0.2663      2.00000
     17       1.4530      2.00000
     18       1.4530      2.00000
     19       1.9025      2.00000
     20       1.9025      2.00000
     21       1.9805      2.00000
     22       1.9805      2.00000
     23       2.9125      0.00000
     24       2.9125      0.00000
     25       4.5205      0.00000
     26       4.5205      0.00000
     27       5.3513      0.00000
     28       5.3513      0.00000
     29       6.6324      0.00000
     30       6.6324      0.00000
     31       7.0282      0.00000
     32       7.0282      0.00000
     33      10.7157      0.00000
     34      10.7157      0.00000
     35      11.2034      0.00000
     36      11.2034      0.00000
     37      12.0227      0.00000
     38      12.0227      0.00000
     39      12.0690      0.00000
     40      12.0690      0.00000
     41      12.8800      0.00000
     42      12.8800      0.00000
     43      13.2056      0.00000
     44      13.2056      0.00000
     45      14.8236      0.00000
     46      14.8236      0.00000
     47      15.0424      0.00000
     48      15.0424      0.00000


--------------------------------------------------------------------------------------------------------


 soft charge-density along one line, spin component           1
         0         1         2         3         4         5         6         7         8         9
 total charge-density along one line
 
 pseudopotential strength for first ion, spin component:           1
  6.497   9.894  -0.000   0.003  -0.025  -0.000   0.006  -0.037
  9.894  15.062  -0.000   0.005  -0.038  -0.000   0.008  -0.056
 -0.000  -0.000  -2.160   0.000  -0.000  -3.669   0.000  -0.000
  0.003   0.005   0.000  -2.174  -0.003   0.000  -3.701  -0.006
 -0.025  -0.038  -0.000  -0.003  -2.175  -0.000  -0.006  -3.701
 -0.000  -0.000  -3.669   0.000  -0.000  -6.031   0.000  -0.000
  0.006   0.008   0.000  -3.701  -0.006   0.000  -6.098  -0.013
 -0.037  -0.056  -0.000  -0.006  -3.701  -0.000  -0.013  -6.097
 total augmentation occupancy for first ion, spin component:           1
  2.000   0.000   0.000   0.000   0.000   0.000   0.000   0.000
  0.000   0.000   0.000   0.000   0.000   0.000   0.000   0.000
  0.000   0.000   0.333   0.000   0.000   0.000   0.000   0.000
  0.000   0.000   0.000   0.333   0.000   0.000   0.000   0.000
  0.000   0.000   0.000   0.000   0.333   0.000   0.000   0.000
  0.000   0.000   0.000   0.000   0.000   0.000   0.000   0.000
  0.000   0.000   0.000   0.000   0.000   0.000   0.000   0.000
  0.000   0.000   0.000   0.000   0.000   0.000   0.000   0.000


------------------------ aborting loop because EDIFF is reached ----------------------------------------





 total charge

# of ion       s       p       d       tot
------------------------------------------
    1        0.854   1.731   0.000   2.585
    2        0.854   1.731   0.000   2.585
    3        0.854   1.731   0.000   2.585
    4        0.854   1.731   0.000   2.585
    5        0.903   1.653   0.000   2.557
    6        0.903   1.653   0.000   2.557
    7        0.903   1.653   0.000   2.557
    8        0.903   1.653   0.000   2.557
    9        0.699   0.780   0.000   1.479
   10        0.699   0.780   0.000   1.479
   11        0.699   0.780   0.000   1.479
   12        0.699   0.780   0.000   1.479
   13        1.063   2.071   0.000   3.134
   14        1.063   2.071   0.000   3.134
--------------------------------------------------
tot         11.954  20.798   0.000  32.752
 
    CHARGE:  cpu time      0.0789: real time      0.0797
    FORLOC:  cpu time      0.0012: real time      0.0012
    FORNL :  cpu time      0.5308: real time      0.5308
    STRESS:  cpu time      2.4461: real time      2.4467
    FORCOR:  cpu time      0.0122: real time      0.0122
    FORHAR:  cpu time      0.0036: real time      0.0036
    OFIELD:  cpu time      0.0001: real time      0.0001

 ---------------------------------------------------------------------------------------------

         DFTD3 V3.0 Rev 1        
 DF pbe       
 parameters
 k1-k3        =   16.0000    1.3333   -4.0000
 Edisp (eV)   -2.20372

 E6    (eV) :    -1.4726
 E8    (eV) :    -0.7311
 % E8        : 33.17
    FORVDW:  cpu time      0.0580: real time      0.0580

  FORCE on cell =-STRESS in cart. coord.  units (eV):
  Direction    XX          YY          ZZ          XY          YZ          ZX
  --------------------------------------------------------------------------------------
  Alpha Z    94.30281    94.30281    94.30281
  Ewald     355.22312 -1270.28380   467.22556     0.00000     0.00000    -0.00000
  Hartree   530.31558  -449.89002   566.97865     0.00000    -0.00000    -0.00000
  E(xc)    -139.64020  -139.42539  -140.18075     0.00000     0.00000    -0.00000
  Local   -1257.48595  1255.08397 -1363.81893    -0.00000     0.00000     0.00000
  n-local    -2.07909    -2.06384    -5.98835     0.00000    -0.00000     0.00000
  augment     2.18604     2.35697     2.23229     0.00000    -0.00000     0.00000
  Kinetic   495.24536   462.19332   530.67866    -0.00000    -0.00000    -0.00000
  Fock        0.00000     0.00000     0.00000     0.00000     0.00000     0.00000
  vdW        -0.12274     5.52557    -0.92661    -0.00000    -0.00000     0.00000
  -------------------------------------------------------------------------------------
  Total      77.94493   -42.20042   150.50333     0.00000     0.00000    -0.00000
  in kB     873.39258  -472.86635  1686.42779     0.00000     0.00000    -0.00000
  external pressure =      695.65 kB  Pullay stress =        0.00 kB


 VOLUME and BASIS-vectors are now :
 -----------------------------------------------------------------------------
  energy-cutoff  :      600.00
  volume of cell :      142.98
      direct lattice vectors                 reciprocal lattice vectors
     6.201871195  0.000000000  0.000000000     0.161241659  0.000000000  0.000000000
     0.000000000  5.700970695  0.000000000     0.000000000  0.175408725  0.000000000
     0.000000000  0.000000000  4.044058096     0.000000000  0.000000000  0.247276368

  length of vectors
     6.201871195  5.700970695  4.044058096     0.161241659  0.175408725  0.247276368


 FORCES acting on ions
    electron-ion (+dipol)            ewald-force                    non-local-force                 convergence-correction
 -----------------------------------------------------------------------------------------------
   -.615E+02 0.558E-11 0.226E+02   0.744E+02 0.337E-13 -.219E+02   0.791E+00 0.411E-23 0.508E+01   -.285E+00 -.409E-12 -.164E+00
   0.615E+02 0.579E-11 -.226E+02   -.744E+02 0.356E-13 0.219E+02   -.791E+00 0.364E-23 -.508E+01   0.285E+00 -.561E-12 0.164E+00
   -.615E+02 0.544E-11 -.226E+02   0.744E+02 0.364E-13 0.219E+02   0.791E+00 0.367E-23 -.508E+01   -.285E+00 -.421E-12 0.164E+00
   0.615E+02 0.563E-11 0.226E+02   -.744E+02 0.355E-13 -.219E+02   -.791E+00 -.472E-23 0.508E+01   0.285E+00 -.585E-12 -.164E+00
   -.221E+02 0.735E-11 0.403E+02   0.250E+02 0.320E-13 -.532E+02   -.516E+01 -.309E-23 -.511E+01   0.980E-01 -.665E-12 -.831E-01
   0.221E+02 0.575E-11 -.403E+02   -.250E+02 0.320E-13 0.532E+02   0.516E+01 0.239E-23 0.511E+01   -.980E-01 -.884E-12 0.831E-01
   -.221E+02 0.742E-11 -.403E+02   0.250E+02 0.320E-13 0.532E+02   -.516E+01 0.217E-23 0.511E+01   0.980E-01 -.498E-12 0.831E-01
   0.221E+02 0.583E-11 0.403E+02   -.250E+02 0.320E-13 -.532E+02   0.516E+01 -.223E-23 -.511E+01   -.980E-01 -.730E-12 -.831E-01
   -.211E+02 -.120E+03 0.466E-08   0.207E+02 0.122E+03 -.884E-15   0.109E+01 -.446E+01 -.276E-22   -.297E-01 -.476E+00 -.156E-12
   0.211E+02 0.120E+03 -.466E-08   -.207E+02 -.122E+03 0.517E-15   -.109E+01 0.446E+01 -.602E-23   0.297E-01 0.476E+00 -.376E-13
   -.211E+02 0.120E+03 0.834E-09   0.207E+02 -.122E+03 -.374E-15   0.109E+01 0.446E+01 -.193E-23   -.297E-01 0.476E+00 -.207E-12
   0.211E+02 -.120E+03 -.833E-09   -.207E+02 0.122E+03 -.139E-14   -.109E+01 -.446E+01 0.973E-23   0.297E-01 -.476E+00 -.677E-13
   -.305E+02 0.662E-11 0.189E-07   0.329E+02 0.249E-13 -.695E-14   -.489E+01 -.543E-24 0.727E-23   0.767E-01 -.404E-12 -.625E-13
   0.305E+02 0.913E-11 -.189E-07   -.329E+02 0.248E-13 -.104E-13   0.489E+01 0.191E-23 0.136E-22   -.767E-01 -.460E-12 0.112E-12
 -----------------------------------------------------------------------------------------------
   0.710E-11 0.648E-10 -.532E-12   0.711E-14 -.708E-14 0.184E-14   0.888E-15 -.888E-15 -.178E-14   0.727E-12 -.476E-11 -.602E-12
 
 
 POSITION                                       TOTAL-FORCE (eV/Angst)
 -----------------------------------------------------------------------------------
      3.95653      2.85049      2.10813        13.173603     -0.000000      5.337638
      2.24534      2.85049      1.93593       -13.173603     -0.000000     -5.337638
      3.95653      2.85049      3.95796        13.173603     -0.000000     -5.337638
      2.24534      2.85049      0.08610       -13.173603     -0.000000      5.337638
      5.58087      2.85049      2.41612        -1.966389     -0.000000    -18.262994
      0.62100      2.85049      1.62794         1.966389     -0.000000     18.262994
      5.58087      2.85049      3.64997        -1.966389     -0.000000     18.262994
      0.62100      2.85049      0.39409         1.966389     -0.000000    -18.262994
      4.52476      4.51269      3.03304         0.712698     -1.969681     -0.000000
      1.67711      1.18828      1.01101        -0.712698      1.969681     -0.000000
      4.52476      1.18828      3.03304         0.712698      1.969681     -0.000000
      1.67711      4.51269      1.01101        -0.712698     -1.969681     -0.000000
      3.24974      2.85049      1.01101        -2.248193     -0.000000     -0.000000
      2.95213      2.85049      3.03304         2.248193     -0.000000     -0.000000
 -----------------------------------------------------------------------------------
    total drift:                                0.000000      0.000000     -0.000000


--------------------------------------------------------------------------------------------------------



  FREE ENERGIE OF THE ION-ELECTRON SYSTEM (eV)
  ---------------------------------------------------
  free  energy   TOTEN  =       -54.55095671 eV

  energy  without entropy=      -54.50607490  energy(sigma->0) =      -54.52851581
 


--------------------------------------------------------------------------------------------------------


    POTLOK:  cpu time      0.0163: real time      0.0163


--------------------------------------------------------------------------------------------------------


 writing wavefunctions
     LOOP+:  cpu time     35.8799: real time     35.9031
    4ORBIT:  cpu time      0.0000: real time      0.0000



 total charge

# of ion       s       p       d       tot
------------------------------------------
    1        0.854   1.731   0.000   2.585
    2        0.854   1.731   0.000   2.585
    3        0.854   1.731   0.000   2.585
    4        0.854   1.731   0.000   2.585
    5        0.903   1.653   0.000   2.557
    6        0.903   1.653   0.000   2.557
    7        0.903   1.653   0.000   2.557
    8        0.903   1.653   0.000   2.557
    9        0.699   0.780   0.000   1.479
   10        0.699   0.780   0.000   1.479
   11        0.699   0.780   0.000   1.479
   12        0.699   0.780   0.000   1.479
   13        1.063   2.071   0.000   3.134
   14        1.063   2.071   0.000   3.134
--------------------------------------------------
tot         11.954  20.798   0.000  32.752
 

 total amount of memory used by VASP MPI-rank0    89391. kBytes
=======================================================================

   base      :      30000. kBytes
   nonl-proj :      35659. kBytes
   fftplans  :       1355. kBytes
   grid      :       4615. kBytes
   one-center:         43. kBytes
   wavefun   :      17719. kBytes
 
  
  
 General timing and accounting informations for this job:
 ========================================================
  
                  Total CPU time used (sec):       39.748
                            User time (sec):       38.426
                          System time (sec):        1.322
                         Elapsed time (sec):       40.542
  
                   Maximum memory used (kb):      441608.
                   Average memory used (kb):          N/A
  
                          Minor page faults:       160841
                          Major page faults:         1002
                 Voluntary context switches:         3794
