 running   24 mpi-ranks, with    1 threads/rank, on    1 nodes
 distrk:  each k-point on   24 cores,    1 groups
 distr:  one band on    1 cores,   24 groups
 vasp.6.4.3 19Mar24 (build May 31 2024 16:31:43) complex                        
  
 POSCAR found type information on POSCAR B 
 POSCAR found :  1 types and      14 ions
 Reading from existing POTCAR
 scaLAPACK will be used
 Reading from existing POTCAR
 LDA part: xc-table for (Slater+PW92), standard interpolation
 WARNING: stress and forces are not correct
 POSCAR, INCAR and KPOINTS ok, starting setup
 FFT: planning ... GRIDC
 FFT: planning ... GRID_SOFT
 FFT: planning ... GRID
 WAVECAR not read
 charge-density read from file: SC                                      
 entering main loop
       N       E                     dE             d eps       ncg     rms          rms(c)
DAV:   1     0.120116086005E+03    0.12012E+03   -0.19834E+04 10752   0.862E+02
DAV:   2    -0.465642645703E+02   -0.16668E+03   -0.15083E+03 15048   0.162E+02
DAV:   3    -0.523199047593E+02   -0.57556E+01   -0.57095E+01 14904   0.269E+01
DAV:   4    -0.523470227919E+02   -0.27118E-01   -0.27114E-01 13032   0.220E+00
DAV:   5    -0.523472340149E+02   -0.21122E-03   -0.21121E-03 14448   0.181E-01
DAV:   6    -0.523472365178E+02   -0.25029E-05   -0.25031E-05 12720   0.193E-02
DAV:   7    -0.523472365540E+02   -0.36136E-07   -0.36166E-07 13776   0.217E-03
   1 F= -.54550957E+02 E0= -.54528516E+02  d E =-.448818E-01
 writing wavefunctions
