Automatically generated mesh
     616
Reciprocal lattice
    0.00000000000000    0.00000000000000    0.03571428571428             2
    0.06666666666667    0.00000000000000    0.03571428571428             4
    0.13333333333333    0.00000000000000    0.03571428571428             4
    0.20000000000000    0.00000000000000    0.03571428571428             4
    0.26666666666667    0.00000000000000    0.03571428571428             4
    0.33333333333334    0.00000000000000    0.03571428571428             4
    0.40000000000000    0.00000000000000    0.03571428571428             4
    0.46666666666667    0.00000000000000    0.03571428571428             4
    0.00000000000000    0.04761904761905    0.03571428571428             4
    0.06666666666667    0.04761904761905    0.03571428571428             8
    0.13333333333333    0.04761904761905    0.03571428571428             8
    0.20000000000000    0.04761904761905    0.03571428571428             8
    0.26666666666667    0.04761904761905    0.03571428571428             8
    0.33333333333334    0.04761904761905    0.03571428571428             8
    0.40000000000000    0.04761904761905    0.03571428571428             8
    0.46666666666667    0.04761904761905    0.03571428571428             8
    0.00000000000000    0.09523809523809    0.03571428571428             4
    0.06666666666667    0.09523809523809    0.03571428571428             8
    0.13333333333333    0.09523809523809    0.03571428571428             8
    0.20000000000000    0.09523809523809    0.03571428571428             8
    0.26666666666667    0.09523809523809    0.03571428571428             8
    0.33333333333334    0.09523809523809    0.03571428571428             8
    0.40000000000000    0.09523809523809    0.03571428571428             8
    0.46666666666667    0.09523809523809    0.03571428571428             8
    0.00000000000000    0.14285714285715    0.03571428571428             4
    0.06666666666667    0.14285714285715    0.03571428571428             8
    0.13333333333333    0.14285714285715    0.03571428571428             8
    0.20000000000000    0.14285714285715    0.03571428571428             8
    0.26666666666667    0.14285714285715    0.03571428571428             8
    0.33333333333334    0.14285714285715    0.03571428571428             8
    0.40000000000000    0.14285714285715    0.03571428571428             8
    0.46666666666667    0.14285714285715    0.03571428571428             8
    0.00000000000000    0.19047619047619    0.03571428571428             4
    0.06666666666667    0.19047619047619    0.03571428571428             8
    0.13333333333333    0.19047619047619    0.03571428571428             8
    0.20000000000000    0.19047619047619    0.03571428571428             8
    0.26666666666667    0.19047619047619    0.03571428571428             8
    0.33333333333334    0.19047619047619    0.03571428571428             8
    0.40000000000000    0.19047619047619    0.03571428571428             8
    0.46666666666667    0.19047619047619    0.03571428571428             8
    0.00000000000000    0.23809523809524    0.03571428571428             4
    0.06666666666667    0.23809523809524    0.03571428571428             8
    0.13333333333333    0.23809523809524    0.03571428571428             8
    0.20000000000000    0.23809523809524    0.03571428571428             8
    0.26666666666667    0.23809523809524    0.03571428571428             8
    0.33333333333334    0.23809523809524    0.03571428571428             8
    0.40000000000000    0.23809523809524    0.03571428571428             8
    0.46666666666667    0.23809523809524    0.03571428571428             8
    0.00000000000000    0.28571428571428    0.03571428571428             4
    0.06666666666667    0.28571428571428    0.03571428571428             8
    0.13333333333333    0.28571428571428    0.03571428571428             8
    0.20000000000000    0.28571428571428    0.03571428571428             8
    0.26666666666667    0.28571428571428    0.03571428571428             8
    0.33333333333334    0.28571428571428    0.03571428571428             8
    0.40000000000000    0.28571428571428    0.03571428571428             8
    0.46666666666667    0.28571428571428    0.03571428571428             8
    0.00000000000000    0.33333333333334    0.03571428571428             4
    0.06666666666667    0.33333333333334    0.03571428571428             8
    0.13333333333333    0.33333333333334    0.03571428571428             8
    0.20000000000000    0.33333333333334    0.03571428571428             8
    0.26666666666667    0.33333333333334    0.03571428571428             8
    0.33333333333334    0.33333333333334    0.03571428571428             8
    0.40000000000000    0.33333333333334    0.03571428571428             8
    0.46666666666667    0.33333333333334    0.03571428571428             8
    0.00000000000000    0.38095238095238    0.03571428571428             4
    0.06666666666667    0.38095238095238    0.03571428571428             8
    0.13333333333333    0.38095238095238    0.03571428571428             8
    0.20000000000000    0.38095238095238    0.03571428571428             8
    0.26666666666667    0.38095238095238    0.03571428571428             8
    0.33333333333334    0.38095238095238    0.03571428571428             8
    0.40000000000000    0.38095238095238    0.03571428571428             8
    0.46666666666667    0.38095238095238    0.03571428571428             8
    0.00000000000000    0.42857142857143    0.03571428571428             4
    0.06666666666667    0.42857142857143    0.03571428571428             8
    0.13333333333333    0.42857142857143    0.03571428571428             8
    0.20000000000000    0.42857142857143    0.03571428571428             8
    0.26666666666667    0.42857142857143    0.03571428571428             8
    0.33333333333334    0.42857142857143    0.03571428571428             8
    0.40000000000000    0.42857142857143    0.03571428571428             8
    0.46666666666667    0.42857142857143    0.03571428571428             8
    0.00000000000000    0.47619047619047    0.03571428571428             4
    0.06666666666667    0.47619047619047    0.03571428571428             8
    0.13333333333333    0.47619047619047    0.03571428571428             8
    0.20000000000000    0.47619047619047    0.03571428571428             8
    0.26666666666667    0.47619047619047    0.03571428571428             8
    0.33333333333334    0.47619047619047    0.03571428571428             8
    0.40000000000000    0.47619047619047    0.03571428571428             8
    0.46666666666667    0.47619047619047    0.03571428571428             8
    0.00000000000000    0.00000000000000    0.10714285714285             2
    0.06666666666667    0.00000000000000    0.10714285714285             4
    0.13333333333333    0.00000000000000    0.10714285714285             4
    0.20000000000000    0.00000000000000    0.10714285714285             4
    0.26666666666667    0.00000000000000    0.10714285714285             4
    0.33333333333334    0.00000000000000    0.10714285714285             4
    0.40000000000000    0.00000000000000    0.10714285714285             4
    0.46666666666667    0.00000000000000    0.10714285714285             4
    0.00000000000000    0.04761904761905    0.10714285714285             4
    0.06666666666667    0.04761904761905    0.10714285714285             8
    0.13333333333333    0.04761904761905    0.10714285714285             8
    0.20000000000000    0.04761904761905    0.10714285714285             8
    0.26666666666667    0.04761904761905    0.10714285714285             8
    0.33333333333334    0.04761904761905    0.10714285714285             8
    0.40000000000000    0.04761904761905    0.10714285714285             8
    0.46666666666667    0.04761904761905    0.10714285714285             8
    0.00000000000000    0.09523809523809    0.10714285714285             4
    0.06666666666667    0.09523809523809    0.10714285714285             8
    0.13333333333333    0.09523809523809    0.10714285714285             8
    0.20000000000000    0.09523809523809    0.10714285714285             8
    0.26666666666667    0.09523809523809    0.10714285714285             8
    0.33333333333334    0.09523809523809    0.10714285714285             8
    0.40000000000000    0.09523809523809    0.10714285714285             8
    0.46666666666667    0.09523809523809    0.10714285714285             8
    0.00000000000000    0.14285714285715    0.10714285714285             4
    0.06666666666667    0.14285714285715    0.10714285714285             8
    0.13333333333333    0.14285714285715    0.10714285714285             8
    0.20000000000000    0.14285714285715    0.10714285714285             8
    0.26666666666667    0.14285714285715    0.10714285714285             8
    0.33333333333334    0.14285714285715    0.10714285714285             8
    0.40000000000000    0.14285714285715    0.10714285714285             8
    0.46666666666667    0.14285714285715    0.10714285714285             8
    0.00000000000000    0.19047619047619    0.10714285714285             4
    0.06666666666667    0.19047619047619    0.10714285714285             8
    0.13333333333333    0.19047619047619    0.10714285714285             8
    0.20000000000000    0.19047619047619    0.10714285714285             8
    0.26666666666667    0.19047619047619    0.10714285714285             8
    0.33333333333334    0.19047619047619    0.10714285714285             8
    0.40000000000000    0.19047619047619    0.10714285714285             8
    0.46666666666667    0.19047619047619    0.10714285714285             8
    0.00000000000000    0.23809523809524    0.10714285714285             4
    0.06666666666667    0.23809523809524    0.10714285714285             8
    0.13333333333333    0.23809523809524    0.10714285714285             8
    0.20000000000000    0.23809523809524    0.10714285714285             8
    0.26666666666667    0.23809523809524    0.10714285714285             8
    0.33333333333334    0.23809523809524    0.10714285714285             8
    0.40000000000000    0.23809523809524    0.10714285714285             8
    0.46666666666667    0.23809523809524    0.10714285714285             8
    0.00000000000000    0.28571428571428    0.10714285714285             4
    0.06666666666667    0.28571428571428    0.10714285714285             8
    0.13333333333333    0.28571428571428    0.10714285714285             8
    0.20000000000000    0.28571428571428    0.10714285714285             8
    0.26666666666667    0.28571428571428    0.10714285714285             8
    0.33333333333334    0.28571428571428    0.10714285714285             8
    0.40000000000000    0.28571428571428    0.10714285714285             8
    0.46666666666667    0.28571428571428    0.10714285714285             8
    0.00000000000000    0.33333333333334    0.10714285714285             4
    0.06666666666667    0.33333333333334    0.10714285714285             8
    0.13333333333333    0.33333333333334    0.10714285714285             8
    0.20000000000000    0.33333333333334    0.10714285714285             8
    0.26666666666667    0.33333333333334    0.10714285714285             8
    0.33333333333334    0.33333333333334    0.10714285714285             8
    0.40000000000000    0.33333333333334    0.10714285714285             8
    0.46666666666667    0.33333333333334    0.10714285714285             8
    0.00000000000000    0.38095238095238    0.10714285714285             4
    0.06666666666667    0.38095238095238    0.10714285714285             8
    0.13333333333333    0.38095238095238    0.10714285714285             8
    0.20000000000000    0.38095238095238    0.10714285714285             8
    0.26666666666667    0.38095238095238    0.10714285714285             8
    0.33333333333334    0.38095238095238    0.10714285714285             8
    0.40000000000000    0.38095238095238    0.10714285714285             8
    0.46666666666667    0.38095238095238    0.10714285714285             8
    0.00000000000000    0.42857142857143    0.10714285714285             4
    0.06666666666667    0.42857142857143    0.10714285714285             8
    0.13333333333333    0.42857142857143    0.10714285714285             8
    0.20000000000000    0.42857142857143    0.10714285714285             8
    0.26666666666667    0.42857142857143    0.10714285714285             8
    0.33333333333334    0.42857142857143    0.10714285714285             8
    0.40000000000000    0.42857142857143    0.10714285714285             8
    0.46666666666667    0.42857142857143    0.10714285714285             8
    0.00000000000000    0.47619047619047    0.10714285714285             4
    0.06666666666667    0.47619047619047    0.10714285714285             8
    0.13333333333333    0.47619047619047    0.10714285714285             8
    0.20000000000000    0.47619047619047    0.10714285714285             8
    0.26666666666667    0.47619047619047    0.10714285714285             8
    0.33333333333334    0.47619047619047    0.10714285714285             8
    0.40000000000000    0.47619047619047    0.10714285714285             8
    0.46666666666667    0.47619047619047    0.10714285714285             8
    0.00000000000000    0.00000000000000    0.17857142857143             2
    0.06666666666667    0.00000000000000    0.17857142857143             4
    0.13333333333333    0.00000000000000    0.17857142857143             4
    0.20000000000000    0.00000000000000    0.17857142857143             4
    0.26666666666667    0.00000000000000    0.17857142857143             4
    0.33333333333334    0.00000000000000    0.17857142857143             4
    0.40000000000000    0.00000000000000    0.17857142857143             4
    0.46666666666667    0.00000000000000    0.17857142857143             4
    0.00000000000000    0.04761904761905    0.17857142857143             4
    0.06666666666667    0.04761904761905    0.17857142857143             8
    0.13333333333333    0.04761904761905    0.17857142857143             8
    0.20000000000000    0.04761904761905    0.17857142857143             8
    0.26666666666667    0.04761904761905    0.17857142857143             8
    0.33333333333334    0.04761904761905    0.17857142857143             8
    0.40000000000000    0.04761904761905    0.17857142857143             8
    0.46666666666667    0.04761904761905    0.17857142857143             8
    0.00000000000000    0.09523809523809    0.17857142857143             4
    0.06666666666667    0.09523809523809    0.17857142857143             8
    0.13333333333333    0.09523809523809    0.17857142857143             8
    0.20000000000000    0.09523809523809    0.17857142857143             8
    0.26666666666667    0.09523809523809    0.17857142857143             8
    0.33333333333334    0.09523809523809    0.17857142857143             8
    0.40000000000000    0.09523809523809    0.17857142857143             8
    0.46666666666667    0.09523809523809    0.17857142857143             8
    0.00000000000000    0.14285714285715    0.17857142857143             4
    0.06666666666667    0.14285714285715    0.17857142857143             8
    0.13333333333333    0.14285714285715    0.17857142857143             8
    0.20000000000000    0.14285714285715    0.17857142857143             8
    0.26666666666667    0.14285714285715    0.17857142857143             8
    0.33333333333334    0.14285714285715    0.17857142857143             8
    0.40000000000000    0.14285714285715    0.17857142857143             8
    0.46666666666667    0.14285714285715    0.17857142857143             8
    0.00000000000000    0.19047619047619    0.17857142857143             4
    0.06666666666667    0.19047619047619    0.17857142857143             8
    0.13333333333333    0.19047619047619    0.17857142857143             8
    0.20000000000000    0.19047619047619    0.17857142857143             8
    0.26666666666667    0.19047619047619    0.17857142857143             8
    0.33333333333334    0.19047619047619    0.17857142857143             8
    0.40000000000000    0.19047619047619    0.17857142857143             8
    0.46666666666667    0.19047619047619    0.17857142857143             8
    0.00000000000000    0.23809523809524    0.17857142857143             4
    0.06666666666667    0.23809523809524    0.17857142857143             8
    0.13333333333333    0.23809523809524    0.17857142857143             8
    0.20000000000000    0.23809523809524    0.17857142857143             8
    0.26666666666667    0.23809523809524    0.17857142857143             8
    0.33333333333334    0.23809523809524    0.17857142857143             8
    0.40000000000000    0.23809523809524    0.17857142857143             8
    0.46666666666667    0.23809523809524    0.17857142857143             8
    0.00000000000000    0.28571428571428    0.17857142857143             4
    0.06666666666667    0.28571428571428    0.17857142857143             8
    0.13333333333333    0.28571428571428    0.17857142857143             8
    0.20000000000000    0.28571428571428    0.17857142857143             8
    0.26666666666667    0.28571428571428    0.17857142857143             8
    0.33333333333334    0.28571428571428    0.17857142857143             8
    0.40000000000000    0.28571428571428    0.17857142857143             8
    0.46666666666667    0.28571428571428    0.17857142857143             8
    0.00000000000000    0.33333333333334    0.17857142857143             4
    0.06666666666667    0.33333333333334    0.17857142857143             8
    0.13333333333333    0.33333333333334    0.17857142857143             8
    0.20000000000000    0.33333333333334    0.17857142857143             8
    0.26666666666667    0.33333333333334    0.17857142857143             8
    0.33333333333334    0.33333333333334    0.17857142857143             8
    0.40000000000000    0.33333333333334    0.17857142857143             8
    0.46666666666667    0.33333333333334    0.17857142857143             8
    0.00000000000000    0.38095238095238    0.17857142857143             4
    0.06666666666667    0.38095238095238    0.17857142857143             8
    0.13333333333333    0.38095238095238    0.17857142857143             8
    0.20000000000000    0.38095238095238    0.17857142857143             8
    0.26666666666667    0.38095238095238    0.17857142857143             8
    0.33333333333334    0.38095238095238    0.17857142857143             8
    0.40000000000000    0.38095238095238    0.17857142857143             8
    0.46666666666667    0.38095238095238    0.17857142857143             8
    0.00000000000000    0.42857142857143    0.17857142857143             4
    0.06666666666667    0.42857142857143    0.17857142857143             8
    0.13333333333333    0.42857142857143    0.17857142857143             8
    0.20000000000000    0.42857142857143    0.17857142857143             8
    0.26666666666667    0.42857142857143    0.17857142857143             8
    0.33333333333334    0.42857142857143    0.17857142857143             8
    0.40000000000000    0.42857142857143    0.17857142857143             8
    0.46666666666667    0.42857142857143    0.17857142857143             8
    0.00000000000000    0.47619047619047    0.17857142857143             4
    0.06666666666667    0.47619047619047    0.17857142857143             8
    0.13333333333333    0.47619047619047    0.17857142857143             8
    0.20000000000000    0.47619047619047    0.17857142857143             8
    0.26666666666667    0.47619047619047    0.17857142857143             8
    0.33333333333334    0.47619047619047    0.17857142857143             8
    0.40000000000000    0.47619047619047    0.17857142857143             8
    0.46666666666667    0.47619047619047    0.17857142857143             8
    0.00000000000000    0.00000000000000    0.25000000000000             2
    0.06666666666667    0.00000000000000    0.25000000000000             4
    0.13333333333333    0.00000000000000    0.25000000000000             4
    0.20000000000000    0.00000000000000    0.25000000000000             4
    0.26666666666667    0.00000000000000    0.25000000000000             4
    0.33333333333334    0.00000000000000    0.25000000000000             4
    0.40000000000000    0.00000000000000    0.25000000000000             4
    0.46666666666667    0.00000000000000    0.25000000000000             4
    0.00000000000000    0.04761904761905    0.25000000000000             4
    0.06666666666667    0.04761904761905    0.25000000000000             8
    0.13333333333333    0.04761904761905    0.25000000000000             8
    0.20000000000000    0.04761904761905    0.25000000000000             8
    0.26666666666667    0.04761904761905    0.25000000000000             8
    0.33333333333334    0.04761904761905    0.25000000000000             8
    0.40000000000000    0.04761904761905    0.25000000000000             8
    0.46666666666667    0.04761904761905    0.25000000000000             8
    0.00000000000000    0.09523809523809    0.25000000000000             4
    0.06666666666667    0.09523809523809    0.25000000000000             8
    0.13333333333333    0.09523809523809    0.25000000000000             8
    0.20000000000000    0.09523809523809    0.25000000000000             8
    0.26666666666667    0.09523809523809    0.25000000000000             8
    0.33333333333334    0.09523809523809    0.25000000000000             8
    0.40000000000000    0.09523809523809    0.25000000000000             8
    0.46666666666667    0.09523809523809    0.25000000000000             8
    0.00000000000000    0.14285714285715    0.25000000000000             4
    0.06666666666667    0.14285714285715    0.25000000000000             8
    0.13333333333333    0.14285714285715    0.25000000000000             8
    0.20000000000000    0.14285714285715    0.25000000000000             8
    0.26666666666667    0.14285714285715    0.25000000000000             8
    0.33333333333334    0.14285714285715    0.25000000000000             8
    0.40000000000000    0.14285714285715    0.25000000000000             8
    0.46666666666667    0.14285714285715    0.25000000000000             8
    0.00000000000000    0.19047619047619    0.25000000000000             4
    0.06666666666667    0.19047619047619    0.25000000000000             8
    0.13333333333333    0.19047619047619    0.25000000000000             8
    0.20000000000000    0.19047619047619    0.25000000000000             8
    0.26666666666667    0.19047619047619    0.25000000000000             8
    0.33333333333334    0.19047619047619    0.25000000000000             8
    0.40000000000000    0.19047619047619    0.25000000000000             8
    0.46666666666667    0.19047619047619    0.25000000000000             8
    0.00000000000000    0.23809523809524    0.25000000000000             4
    0.06666666666667    0.23809523809524    0.25000000000000             8
    0.13333333333333    0.23809523809524    0.25000000000000             8
    0.20000000000000    0.23809523809524    0.25000000000000             8
    0.26666666666667    0.23809523809524    0.25000000000000             8
    0.33333333333334    0.23809523809524    0.25000000000000             8
    0.40000000000000    0.23809523809524    0.25000000000000             8
    0.46666666666667    0.23809523809524    0.25000000000000             8
    0.00000000000000    0.28571428571428    0.25000000000000             4
    0.06666666666667    0.28571428571428    0.25000000000000             8
    0.13333333333333    0.28571428571428    0.25000000000000             8
    0.20000000000000    0.28571428571428    0.25000000000000             8
    0.26666666666667    0.28571428571428    0.25000000000000             8
    0.33333333333334    0.28571428571428    0.25000000000000             8
    0.40000000000000    0.28571428571428    0.25000000000000             8
    0.46666666666667    0.28571428571428    0.25000000000000             8
    0.00000000000000    0.33333333333334    0.25000000000000             4
    0.06666666666667    0.33333333333334    0.25000000000000             8
    0.13333333333333    0.33333333333334    0.25000000000000             8
    0.20000000000000    0.33333333333334    0.25000000000000             8
    0.26666666666667    0.33333333333334    0.25000000000000             8
    0.33333333333334    0.33333333333334    0.25000000000000             8
    0.40000000000000    0.33333333333334    0.25000000000000             8
    0.46666666666667    0.33333333333334    0.25000000000000             8
    0.00000000000000    0.38095238095238    0.25000000000000             4
    0.06666666666667    0.38095238095238    0.25000000000000             8
    0.13333333333333    0.38095238095238    0.25000000000000             8
    0.20000000000000    0.38095238095238    0.25000000000000             8
    0.26666666666667    0.38095238095238    0.25000000000000             8
    0.33333333333334    0.38095238095238    0.25000000000000             8
    0.40000000000000    0.38095238095238    0.25000000000000             8
    0.46666666666667    0.38095238095238    0.25000000000000             8
    0.00000000000000    0.42857142857143    0.25000000000000             4
    0.06666666666667    0.42857142857143    0.25000000000000             8
    0.13333333333333    0.42857142857143    0.25000000000000             8
    0.20000000000000    0.42857142857143    0.25000000000000             8
    0.26666666666667    0.42857142857143    0.25000000000000             8
    0.33333333333334    0.42857142857143    0.25000000000000             8
    0.40000000000000    0.42857142857143    0.25000000000000             8
    0.46666666666667    0.42857142857143    0.25000000000000             8
    0.00000000000000    0.47619047619047    0.25000000000000             4
    0.06666666666667    0.47619047619047    0.25000000000000             8
    0.13333333333333    0.47619047619047    0.25000000000000             8
    0.20000000000000    0.47619047619047    0.25000000000000             8
    0.26666666666667    0.47619047619047    0.25000000000000             8
    0.33333333333334    0.47619047619047    0.25000000000000             8
    0.40000000000000    0.47619047619047    0.25000000000000             8
    0.46666666666667    0.47619047619047    0.25000000000000             8
    0.00000000000000    0.00000000000000    0.32142857142857             2
    0.06666666666667    0.00000000000000    0.32142857142857             4
    0.13333333333333    0.00000000000000    0.32142857142857             4
    0.20000000000000    0.00000000000000    0.32142857142857             4
    0.26666666666667    0.00000000000000    0.32142857142857             4
    0.33333333333334    0.00000000000000    0.32142857142857             4
    0.40000000000000    0.00000000000000    0.32142857142857             4
    0.46666666666667    0.00000000000000    0.32142857142857             4
    0.00000000000000    0.04761904761905    0.32142857142857             4
    0.06666666666667    0.04761904761905    0.32142857142857             8
    0.13333333333333    0.04761904761905    0.32142857142857             8
    0.20000000000000    0.04761904761905    0.32142857142857             8
    0.26666666666667    0.04761904761905    0.32142857142857             8
    0.33333333333334    0.04761904761905    0.32142857142857             8
    0.40000000000000    0.04761904761905    0.32142857142857             8
    0.46666666666667    0.04761904761905    0.32142857142857             8
    0.00000000000000    0.09523809523809    0.32142857142857             4
    0.06666666666667    0.09523809523809    0.32142857142857             8
    0.13333333333333    0.09523809523809    0.32142857142857             8
    0.20000000000000    0.09523809523809    0.32142857142857             8
    0.26666666666667    0.09523809523809    0.32142857142857             8
    0.33333333333334    0.09523809523809    0.32142857142857             8
    0.40000000000000    0.09523809523809    0.32142857142857             8
    0.46666666666667    0.09523809523809    0.32142857142857             8
    0.00000000000000    0.14285714285715    0.32142857142857             4
    0.06666666666667    0.14285714285715    0.32142857142857             8
    0.13333333333333    0.14285714285715    0.32142857142857             8
    0.20000000000000    0.14285714285715    0.32142857142857             8
    0.26666666666667    0.14285714285715    0.32142857142857             8
    0.33333333333334    0.14285714285715    0.32142857142857             8
    0.40000000000000    0.14285714285715    0.32142857142857             8
    0.46666666666667    0.14285714285715    0.32142857142857             8
    0.00000000000000    0.19047619047619    0.32142857142857             4
    0.06666666666667    0.19047619047619    0.32142857142857             8
    0.13333333333333    0.19047619047619    0.32142857142857             8
    0.20000000000000    0.19047619047619    0.32142857142857             8
    0.26666666666667    0.19047619047619    0.32142857142857             8
    0.33333333333334    0.19047619047619    0.32142857142857             8
    0.40000000000000    0.19047619047619    0.32142857142857             8
    0.46666666666667    0.19047619047619    0.32142857142857             8
    0.00000000000000    0.23809523809524    0.32142857142857             4
    0.06666666666667    0.23809523809524    0.32142857142857             8
    0.13333333333333    0.23809523809524    0.32142857142857             8
    0.20000000000000    0.23809523809524    0.32142857142857             8
    0.26666666666667    0.23809523809524    0.32142857142857             8
    0.33333333333334    0.23809523809524    0.32142857142857             8
    0.40000000000000    0.23809523809524    0.32142857142857             8