    1    1    1    1
  0.3375000E+04  0.1500000E-08  0.1250000E-08  0.1800000E-08  0.5000000E-15
  1.000000000000000E-004
  CAR 
 Convergence                             
      3    175      8
 
  0.5000000E-01  0.3571429E-01  0.0000000E+00  0.3174603E-02
      1         -9.409848   1.000000
      2         -3.572523   0.166729
      3         -3.572514   0.166670
      4         -3.572401   0.165872
      5         -0.261747   0.000000
      6          0.296358   0.000000
      7          0.309957   0.000000
      8          0.439881   0.000000
 
  0.1500000E+00  0.3571429E-01  0.0000000E+00  0.3174603E-02
      1         -9.409848   1.000000
      2         -3.572522   0.166727
      3         -3.572517   0.166688
      4         -3.572401   0.165870
      5         -0.251897   0.000000
      6          0.269917   0.000000
      7          0.321182   0.000000
      8          0.375760   0.000000
 
  0.2500000E+00  0.3571429E-01  0.0000000E+00  0.3174603E-02
      1         -9.409848   1.000000
      2         -3.572522   0.166726
      3         -3.572522   0.166723
      4         -3.572401   0.165872
      5         -0.233756   0.000000
      6          0.199607   0.000000
      7          0.342784   0.000000
      8          0.378451   0.000000
 
  0.3500000E+00  0.3571429E-01  0.0000000E+00  0.3174603E-02
      1         -9.409848   1.000000
      2         -3.572528   0.166768
      3         -3.572521   0.166721
      4         -3.572401   0.165870
      5         -0.211577   0.000000
      6          0.131777   0.000000
      7          0.371858   0.000000
      8          0.410008   0.000000
 
  0.4500000E+00  0.3571429E-01  0.0000000E+00  0.3174603E-02
      1         -9.409848   1.000000
      2         -3.572531   0.166788
      3         -3.572521   0.166720
      4         -3.572400   0.165867
      5         -0.194560   0.000000
      6          0.090651   0.000000
      7          0.398279   0.000000
      8          0.448923   0.000000
 
  0.5000000E-01  0.1071429E+00  0.0000000E+00  0.3174603E-02
      1         -9.409849   1.000000
      2         -3.572521   0.166718
      3         -3.572513   0.166660
      4         -3.572424   0.166031
      5         -0.252619   0.000000
      6          0.304451   0.000000
      7          0.318928   0.000000
      8          0.448747   0.000000
 
  0.1500000E+00  0.1071429E+00  0.0000000E+00  0.3174603E-02
      1         -9.409848   1.000000
      2         -3.572520   0.166712
      3         -3.572515   0.166678
      4         -3.572423   0.166030
      5         -0.242784   0.000000
      6          0.278401   0.000000
      7          0.330130   0.000000
      8          0.384708   0.000000
 
  0.2500000E+00  0.1071429E+00  0.0000000E+00  0.3174603E-02
      1         -9.409848   1.000000
      2         -3.572520   0.166712
      3         -3.572520   0.166711
      4         -3.572423   0.166027
      5         -0.224675   0.000000
      6          0.208653   0.000000
      7          0.351677   0.000000
      8          0.387035   0.000000
 
  0.3500000E+00  0.1071429E+00  0.0000000E+00  0.3174603E-02
      1         -9.409849   1.000000
      2         -3.572526   0.166757
      3         -3.572520   0.166711
      4         -3.572423   0.166029
      5         -0.202545   0.000000
      6          0.141062   0.000000
      7          0.380646   0.000000
      8          0.418459   0.000000
 
  0.4500000E+00  0.1071429E+00  0.0000000E+00  0.3174603E-02
      1         -9.409848   1.000000
      2         -3.572529   0.166776
      3         -3.572520   0.166709
      4         -3.572423   0.166027
      5         -0.185578   0.000000
      6          0.100051   0.000000
      7          0.406907   0.000000
      8          0.457257   0.000000
 
  0.5000000E-01  0.1785714E+00  0.0000000E+00  0.3174603E-02
      1         -9.409849   1.000000
      2         -3.572518   0.166697
      3         -3.572510   0.166638
      4         -3.572464   0.166316
      5         -0.234680   0.000000
      6          0.317203   0.000000
      7          0.336759   0.000000
      8          0.462211   0.000000
 
  0.1500000E+00  0.1785714E+00  0.0000000E+00  0.3174603E-02
      1         -9.409849   1.000000
      2         -3.572518   0.166694
      3         -3.572513   0.166659
      4         -3.572464   0.166315
      5         -0.224880   0.000000
      6          0.293530   0.000000
      7          0.347910   0.000000
      8          0.401001   0.000000
 
  0.2500000E+00  0.1785714E+00  0.0000000E+00  0.3174603E-02
      1         -9.409848   1.000000
      2         -3.572517   0.166690
      3         -3.572517   0.166689
      4         -3.572463   0.166311
      5         -0.206847   0.000000
      6          0.226292   0.000000
      7          0.369341   0.000000
      8          0.400851   0.000000
 
  0.3500000E+00  0.1785714E+00  0.0000000E+00  0.3174603E-02
      1         -9.409848   1.000000
      2         -3.572523   0.166732
      3         -3.572517   0.166688
      4         -3.572463   0.166308
      5         -0.184840   0.000000
      6          0.159484   0.000000
      7          0.398083   0.000000
      8          0.431080   0.000000
 
  0.4500000E+00  0.1785714E+00  0.0000000E+00  0.3174603E-02
      1         -9.409848   1.000000
      2         -3.572526   0.166754
      3         -3.572517   0.166688
      4         -3.572463   0.166307
      5         -0.167997   0.000000
      6          0.118790   0.000000
      7          0.424004   0.000000
      8          0.467951   0.000000
 
  0.5000000E-01  0.2500000E+00  0.0000000E+00  0.3174603E-02
      1         -9.409849   1.000000
      2         -3.572515   0.166673
      3         -3.572514   0.166670
      4         -3.572506   0.166611
      5         -0.208726   0.000000
      6          0.308274   0.000000
      7          0.363145   0.000000
      8          0.400976   0.000000
 
  0.1500000E+00  0.2500000E+00  0.0000000E+00  0.3174603E-02
      1         -9.409848   1.000000
      2         -3.572514   0.166667
      3         -3.572513   0.166665
      4         -3.572508   0.166630
      5         -0.198996   0.000000
      6          0.301271   0.000000
      7          0.374210   0.000000
      8          0.384662   0.000000
 
  0.2500000E+00  0.2500000E+00  0.0000000E+00  0.3174603E-02
      1         -9.409848   1.000000
      2         -3.572514   0.166666
      3         -3.572513   0.166665
      4         -3.572513   0.166663
      5         -0.181118   0.000000
      6          0.250333   0.000000
      7          0.374925   0.000000
      8          0.395438   0.000000
 
  0.3500000E+00  0.2500000E+00  0.0000000E+00  0.3174603E-02
      1         -9.409848   1.000000
      2         -3.572519   0.166704
      3         -3.572513   0.166663
      4         -3.572513   0.166660
      5         -0.159360   0.000000
      6          0.186556   0.000000
      7          0.397532   0.000000
      8          0.423793   0.000000
 
  0.4500000E+00  0.2500000E+00  0.0000000E+00  0.3174603E-02
      1         -9.409848   1.000000
      2         -3.572522   0.166727
      3         -3.572513   0.166665
      4         -3.572513   0.166659
      5         -0.142774   0.000000
      6          0.146699   0.000000
      7          0.422128   0.000000
      8          0.449144   0.000000
 
  0.5000000E-01  0.3214286E+00  0.0000000E+00  0.3174603E-02
      1         -9.409848   1.000000
      2         -3.572564   0.167021
      3         -3.572510   0.166642
      4         -3.572502   0.166585
      5         -0.176567   0.000000
      6          0.243420   0.000000
      7          0.397297   0.000000
      8          0.415815   0.000000
 
  0.1500000E+00  0.3214286E+00  0.0000000E+00  0.3174603E-02
      1         -9.409848   1.000000
      2         -3.572564   0.167020
      3         -3.572510   0.166638
      4         -3.572505   0.166603
      5         -0.166969   0.000000
      6          0.252272   0.000000
      7          0.384943   0.000000
      8          0.408215   0.000000
 
  0.2500000E+00  0.3214286E+00  0.0000000E+00  0.3174603E-02
      1         -9.409848   1.000000
      2         -3.572563   0.167018
      3         -3.572510   0.166639
      4         -3.572510   0.166638
      5         -0.149384   0.000000
      6          0.258821   0.000000
      7          0.321663   0.000000
      8          0.429103   0.000000
 
  0.3500000E+00  0.3214286E+00  0.0000000E+00  0.3174603E-02
      1         -9.409848   1.000000
      2         -3.572563   0.167015
      3         -3.572515   0.166675
      4         -3.572509   0.166637
      5         -0.128100   0.000000
      6          0.220164   0.000000
      7          0.319608   0.000000
      8          0.456817   0.000000
 
  0.4500000E+00  0.3214286E+00  0.0000000E+00  0.3174603E-02
      1         -9.409848   1.000000
      2         -3.572563   0.167016
      3         -3.572518   0.166699
      4         -3.572509   0.166637
      5         -0.112001   0.000000
      6          0.183304   0.000000
      7          0.340613   0.000000
      8          0.481253   0.000000
 
  0.5000000E-01  0.3928571E+00  0.0000000E+00  0.3174603E-02
      1         -9.409848   1.000000
      2         -3.572604   0.167306
      3         -3.572507   0.166620
      4         -3.572499   0.166563
      5         -0.142567   0.000000
      6          0.176298   0.000000
      7          0.436783   0.000000
      8          0.458308   0.000000
 
  0.1500000E+00  0.3928571E+00  0.0000000E+00  0.3174603E-02
      1         -9.409848   1.000000
      2         -3.572604   0.167304
      3         -3.572507   0.166619
      4         -3.572502   0.166582
      5         -0.133196   0.000000
      6          0.187345   0.000000
      7          0.422515   0.000000
      8          0.447438   0.000000
 
  0.2500000E+00  0.3928571E+00  0.0000000E+00  0.3174603E-02
      1         -9.409848   1.000000
      2         -3.572604   0.167302
      3         -3.572507   0.166618
      4         -3.572507   0.166617
      5         -0.116115   0.000000
      6          0.208138   0.000000
      7          0.345023   0.000000
      8          0.467723   0.000000
 
  0.3500000E+00  0.3928571E+00  0.0000000E+00  0.3174603E-02
      1         -9.409848   1.000000
      2         -3.572603   0.167299
      3         -3.572511   0.166651
      4         -3.572506   0.166616
      5         -0.095644   0.000000
      6          0.232248   0.000000
      7          0.281673   0.000000
      8          0.496369   0.000000
 
  0.4500000E+00  0.3928571E+00  0.0000000E+00  0.3174603E-02
      1         -9.409848   1.000000
      2         -3.572603   0.167298
      3         -3.572515   0.166679
      4         -3.572506   0.166616
      5         -0.080369   0.000000
      6          0.226572   0.000000
      7          0.273373   0.000000
      8          0.447704   0.000000
 
  0.5000000E-01  0.4642857E+00  0.0000000E+00  0.3174603E-02
      1         -9.409847   1.000000
      2         -3.572626   0.167464
      3         -3.572505   0.166605
      4         -3.572497   0.166548
      5         -0.117358   0.000000
      6          0.133447   0.000000
      7          0.471756   0.000000
      8          0.506641   0.000000
 
  0.1500000E+00  0.4642857E+00  0.0000000E+00  0.3174603E-02
      1         -9.409848   1.000000
      2         -3.572626   0.167462
      3         -3.572505   0.166606
      4         -3.572500   0.166571
      5         -0.108258   0.000000
      6          0.145129   0.000000
      7          0.462517   0.000000
      8          0.481968   0.000000
 
  0.2500000E+00  0.4642857E+00  0.0000000E+00  0.3174603E-02
      1         -9.409848   1.000000
      2         -3.572626   0.167460
      3         -3.572505   0.166607
      4         -3.572505   0.166606
      5         -0.091774   0.000000
      6          0.167798   0.000000
      7          0.381916   0.000000
      8          0.501286   0.000000
 
  0.3500000E+00  0.4642857E+00  0.0000000E+00  0.3174603E-02
      1         -9.409848   1.000000
      2         -3.572625   0.167456
      3         -3.572510   0.166640
      4         -3.572505   0.166606
      5         -0.072249   0.000000
      6          0.199020   0.000000
      7          0.313965   0.000000
      8          0.438704   0.000000
 
  0.4500000E+00  0.4642857E+00  0.0000000E+00  0.3174603E-02
      1         -9.409848   1.000000
      2         -3.572625   0.167454
      3         -3.572513   0.166665
      4         -3.572505   0.166607
      5         -0.057902   0.000000
      6          0.229528   0.000000
      7          0.273564   0.000000
      8          0.385407   0.000000
 
  0.5000000E-01  0.3571429E-01  0.1111111E+00  0.6349206E-02
      1         -9.409848   1.000000
      2         -3.572522   0.166729
      3         -3.572514   0.166670
      4         -3.572401   0.165871
      5         -0.258726   0.000000
      6          0.218880   0.000000
      7          0.388584   0.000000
      8          0.453255   0.000000
 
  0.1500000E+00  0.3571429E-01  0.1111111E+00  0.6349206E-02
      1         -9.409848   1.000000
      2         -3.572522   0.166727
      3         -3.572517   0.166689
      4         -3.572401   0.165871
      5         -0.248925   0.000000
      6          0.224128   0.000000
      7          0.319389   0.000000
      8          0.439899   0.000000
 
  0.2500000E+00  0.3571429E-01  0.1111111E+00  0.6349206E-02
      1         -9.409848   1.000000
      2         -3.572522   0.166728
      3         -3.572522   0.166724
      4         -3.572401   0.165871
      5         -0.230892   0.000000
      6          0.197659   0.000000
      7          0.279928   0.000000
      8          0.459794   0.000000
 
  0.3500000E+00  0.3571429E-01  0.1111111E+00  0.6349206E-02
      1         -9.409848   1.000000
      2         -3.572528   0.166766
      3         -3.572522   0.166722
      4         -3.572401   0.165870
      5         -0.208892   0.000000
      6          0.135773   0.000000
      7          0.302662   0.000000
      8          0.488466   0.000000
 
  0.4500000E+00  0.3571429E-01  0.1111111E+00  0.6349206E-02
      1         -9.409848   1.000000
      2         -3.572531   0.166788
      3         -3.572521   0.166722
      4         -3.572401   0.165869
      5         -0.192062   0.000000
      6          0.095521   0.000000
      7          0.333227   0.000000
      8          0.472603   0.000000
 
  0.5000000E-01  0.1071429E+00  0.1111111E+00  0.6349206E-02
      1         -9.409848   1.000000
      2         -3.572521   0.166717
      3         -3.572512   0.166657
      4         -3.572424   0.166032
      5         -0.249609   0.000000
      6          0.227884   0.000000
      7          0.396074   0.000000
      8          0.461988   0.000000
 
  0.1500000E+00  0.1071429E+00  0.1111111E+00  0.6349206E-02
      1         -9.409848   1.000000
      2         -3.572521   0.166716
      3         -3.572515   0.166678
      4         -3.572423   0.166030
      5         -0.239822   0.000000
      6          0.233090   0.000000
      7          0.328235   0.000000
      8          0.447847   0.000000
 
  0.2500000E+00  0.1071429E+00  0.1111111E+00  0.6349206E-02
      1         -9.409848   1.000000
      2         -3.572521   0.166715
      3         -3.572520   0.166714
      4         -3.572423   0.166028
      5         -0.221821   0.000000
      6          0.206716   0.000000
      7          0.289060   0.000000
      8          0.467538   0.000000
 
  0.3500000E+00  0.1071429E+00  0.1111111E+00  0.6349206E-02
      1         -9.409848   1.000000
      2         -3.572526   0.166754
      3         -3.572520   0.166711
      4         -3.572423   0.166027
      5         -0.199869   0.000000
      6          0.145054   0.000000
      7          0.311695   0.000000
      8          0.496258   0.000000
 
  0.4500000E+00  0.1071429E+00  0.1111111E+00  0.6349206E-02
      1         -9.409848   1.000000
      2         -3.572529   0.166776
      3         -3.572520   0.166709
      4         -3.572423   0.166026
      5         -0.183088   0.000000
      6          0.104914   0.000000
      7          0.342138   0.000000
      8          0.481884   0.000000
 
  0.5000000E-01  0.1785714E+00  0.1111111E+00  0.6349206E-02
      1         -9.409848   1.000000
      2         -3.572518   0.166696
      3         -3.572509   0.166636
      4         -3.572464   0.166316
      5         -0.231693   0.000000
      6          0.245232   0.000000
      7          0.402632   0.000000
      8          0.471320   0.000000
 
  0.1500000E+00  0.1785714E+00  0.1111111E+00  0.6349206E-02
      1         -9.409848   1.000000
      2         -3.572518   0.166694
      3         -3.572512   0.166658
      4         -3.572464   0.166313
      5         -0.221941   0.000000
      6          0.250282   0.000000
      7          0.345180   0.000000
      8          0.449974   0.000000
 
  0.2500000E+00  0.1785714E+00  0.1111111E+00  0.6349206E-02
      1         -9.409848   1.000000
      2         -3.572517   0.166692
      3         -3.572517   0.166691
      4         -3.572463   0.166311
      5         -0.204016   0.000000
      6          0.224365   0.000000
      7          0.307163   0.000000
      8          0.467475   0.000000
 
  0.3500000E+00  0.1785714E+00  0.1111111E+00  0.6349206E-02
      1         -9.409848   1.000000
      2         -3.572523   0.166731
      3         -3.572517   0.166688
      4         -3.572463   0.166308
      5         -0.182185   0.000000
      6          0.163463   0.000000
      7          0.329411   0.000000
      8          0.495831   0.000000
 
  0.4500000E+00  0.1785714E+00  0.1111111E+00  0.6349206E-02
      1         -9.409848   1.000000
      2         -3.572526   0.166753
      3         -3.572517   0.166689
      4         -3.572463   0.166308
      5         -0.165526   0.000000
      6          0.123638   0.000000
      7          0.359535   0.000000
      8          0.500063   0.000000
 
  0.5000000E-01  0.2500000E+00  0.1111111E+00  0.6349206E-02
      1         -9.409848   1.000000
      2         -3.572514   0.166671
      3         -3.572514   0.166668
      4         -3.572506   0.166611
      5         -0.205786   0.000000
      6          0.266382   0.000000
      7          0.351892   0.000000
      8          0.458721   0.000000
 
  0.1500000E+00  0.2500000E+00  0.1111111E+00  0.6349206E-02
      1         -9.409848   1.000000
      2         -3.572514   0.166669
      3         -3.572513   0.166665
      4         -3.572509   0.166631
      5         -0.196104   0.000000
      6          0.271045   0.000000
      7          0.355853   0.000000
      8          0.390318   0.000000
 
  0.2500000E+00  0.2500000E+00  0.1111111E+00  0.6349206E-02
      1         -9.409848   1.000000
      2         -3.572514   0.166668
      3         -3.572513   0.166665
      4         -3.572513   0.166663
      5         -0.178333   0.000000
      6          0.248446   0.000000
      7          0.333259   0.000000
      8          0.389393   0.000000
 
  0.3500000E+00  0.2500000E+00  0.1111111E+00  0.6349206E-02
      1         -9.409848   1.000000
      2         -3.572519   0.166704
      3         -3.572513   0.166665
      4         -3.572513   0.166660
      5         -0.156748   0.000000
      6          0.190508   0.000000
      7          0.353047   0.000000
      8          0.415595   0.000000
 
  0.4500000E+00  0.2500000E+00  0.1111111E+00  0.6349206E-02
      1         -9.409848   1.000000
      2         -3.572522   0.166726
      3         -3.572513   0.166663
      4         -3.572512   0.166657
      5         -0.140342   0.000000
      6          0.151519   0.000000
      7          0.381809   0.000000
      8          0.439397   0.000000
 
  0.5000000E-01  0.3214286E+00  0.1111111E+00  0.6349206E-02
      1         -9.409848   1.000000
      2         -3.572564   0.167021
      3         -3.572510   0.166641
      4         -3.572502   0.166584
      5         -0.173716   0.000000
      6          0.243602   0.000000
      7          0.327421   0.000000
      8          0.489812   0.000000
 
  0.1500000E+00  0.3214286E+00  0.1111111E+00  0.6349206E-02
      1         -9.409848   1.000000
      2         -3.572563   0.167018
      3         -3.572510   0.166641
      4         -3.572505   0.166603
      5         -0.164165   0.000000
      6          0.252356   0.000000
      7          0.336620   0.000000
      8          0.412574   0.000000
 
  0.2500000E+00  0.3214286E+00  0.1111111E+00  0.6349206E-02
      1         -9.409848   1.000000
      2         -3.572563   0.167018
      3         -3.572510   0.166640
      4         -3.572510   0.166639
      5         -0.146684   0.000000
      6          0.259309   0.000000
      7          0.324877   0.000000
      8          0.371725   0.000000
 
  0.3500000E+00  0.3214286E+00  0.1111111E+00  0.6349206E-02
      1         -9.409848   1.000000
      2         -3.572563   0.167015
      3         -3.572515   0.166675
      4         -3.572509   0.166637
      5         -0.125568   0.000000
      6          0.224038   0.000000
      7          0.322221   0.000000
      8          0.398109   0.000000
 
  0.4500000E+00  0.3214286E+00  0.1111111E+00  0.6349206E-02
      1         -9.409848   1.000000
      2         -3.572563   0.167014
      3         -3.572518   0.166700
      4         -3.572509   0.166636
      5         -0.109640   0.000000
      6          0.188074   0.000000
      7          0.342676   0.000000
      8          0.427366   0.000000
 
  0.5000000E-01  0.3928571E+00  0.1111111E+00  0.6349206E-02
      1         -9.409848   1.000000
      2         -3.572604   0.167305
      3         -3.572507   0.166619
      4         -3.572499   0.166562
      5         -0.139869   0.000000
      6          0.180181   0.000000
      7          0.363849   0.000000
      8          0.529811   0.000000
 
  0.1500000E+00  0.3928571E+00  0.1111111E+00  0.6349206E-02
      1         -9.409848   1.000000
      2         -3.572604   0.167305
      3         -3.572507   0.166620
      4         -3.572502   0.166584
      5         -0.130543   0.000000
      6          0.191203   0.000000
      7          0.371263   0.000000
      8          0.452045   0.000000
 
  0.2500000E+00  0.3928571E+00  0.1111111E+00  0.6349206E-02
      1         -9.409848   1.000000
      2         -3.572603   0.167302
      3         -3.572507   0.166617
      4         -3.572507   0.166616
      5         -0.113561   0.000000
      6          0.211940   0.000000
      7          0.345173   0.000000
      8          0.412402   0.000000
 
  0.3500000E+00  0.3928571E+00  0.1111111E+00  0.6349206E-02
      1         -9.409848   1.000000
      2         -3.572603   0.167299
      3         -3.572512   0.166654
      4         -3.572507   0.166618
      5         -0.093246   0.000000
      6          0.236065   0.000000
      7          0.285739   0.000000
      8          0.437061   0.000000
 
  0.4500000E+00  0.3928571E+00  0.1111111E+00  0.6349206E-02
      1         -9.409848   1.000000
      2         -3.572603   0.167299
      3         -3.572515   0.166676
      4         -3.572506   0.166614
      5         -0.078124   0.000000
      6          0.231224   0.000000
      7          0.276939   0.000000
      8          0.452190   0.000000
 
  0.5000000E-01  0.4642857E+00  0.1111111E+00  0.6349206E-02
      1         -9.409848   1.000000
      2         -3.572626   0.167463
      3         -3.572505   0.166608
      4         -3.572497   0.166550
      5         -0.114845   0.000000
      6          0.137885   0.000000
      7          0.404532   0.000000
      8          0.525164   0.000000
 
  0.1500000E+00  0.4642857E+00  0.1111111E+00  0.6349206E-02
      1         -9.409848   1.000000
      2         -3.572626   0.167463
      3         -3.572505   0.166607
      4         -3.572500   0.166572
      5         -0.105786   0.000000
      6          0.149535   0.000000
      7          0.411472   0.000000
      8          0.488222   0.000000
 
  0.2500000E+00  0.4642857E+00  0.1111111E+00  0.6349206E-02
      1         -9.409848   1.000000
      2         -3.572626   0.167459
      3         -3.572505   0.166605
      4         -3.572505   0.166605
      5         -0.089390   0.000000
      6          0.172124   0.000000
      7          0.381922   0.000000
      8          0.450948   0.000000
 
  0.3500000E+00  0.4642857E+00  0.1111111E+00  0.6349206E-02
      1         -9.409848   1.000000
      2         -3.572625   0.167455
      3         -3.572510   0.166639
      4         -3.572505   0.166603
      5         -0.070000   0.000000
      6          0.203183   0.000000
      7          0.317808   0.000000
      8          0.442947   0.000000
 
  0.4500000E+00  0.4642857E+00  0.1111111E+00  0.6349206E-02
      1         -9.409848   1.000000
      2         -3.572625   0.167454
      3         -3.572513   0.166665
      4         -3.572504   0.166601
      5         -0.055782   0.000000
      6          0.233392   0.000000
      7          0.277978   0.000000
      8          0.390565   0.000000
 
  0.5000000E-01  0.3571429E-01  0.2222222E+00  0.6349206E-02
      1         -9.409848   1.000000
      2         -3.572523   0.166731
      3         -3.572514   0.166668
      4         -3.572401   0.165872
      5         -0.250531   0.000000
      6          0.147757   0.000000
      7          0.433270   0.000000
      8          0.516394   0.000000
 
  0.1500000E+00  0.3571429E-01  0.2222222E+00  0.6349206E-02
      1         -9.409848   1.000000
      2         -3.572523   0.166730
      3         -3.572517   0.166689
      4         -3.572401   0.165872
      5         -0.240873   0.000000
      6          0.158274   0.000000
      7          0.330125   0.000000
      8          0.541256   0.000000
 
  0.2500000E+00  0.3571429E-01  0.2222222E+00  0.6349206E-02
      1         -9.409849   1.000000
      2         -3.572523   0.166731
      3         -3.572523   0.166730
      4         -3.572401   0.165872
      5         -0.223160   0.000000
      6          0.172518   0.000000
      7          0.246887   0.000000
      8          0.529613   0.000000
 
  0.3500000E+00  0.3571429E-01  0.2222222E+00  0.6349206E-02
      1         -9.409849   1.000000
      2         -3.572528   0.166766
      3         -3.572522   0.166725
      4         -3.572401   0.165870
      5         -0.201680   0.000000
      6          0.146184   0.000000
      7          0.234522   0.000000
      8          0.452827   0.000000
 
  0.4500000E+00  0.3571429E-01  0.2222222E+00  0.6349206E-02
      1         -9.409849   1.000000
      2         -3.572531   0.166788
      3         -3.572522   0.166725
      4         -3.572401   0.165870
      5         -0.185392   0.000000
      6          0.109699   0.000000
      7          0.263601   0.000000
      8          0.393401   0.000000
 
  0.5000000E-01  0.1071429E+00  0.2222222E+00  0.6349206E-02
      1         -9.409848   1.000000
      2         -3.572521   0.166720
      3         -3.572512   0.166657
      4         -3.572424   0.166032
      5         -0.241442   0.000000
      6          0.157038   0.000000
      7          0.440894   0.000000
      8          0.520207   0.000000
 
  0.1500000E+00  0.1071429E+00  0.2222222E+00  0.6349206E-02
      1         -9.409848   1.000000
      2         -3.572521   0.166720
      3         -3.572515   0.166678
      4         -3.572424   0.166031
      5         -0.231799   0.000000
      6          0.167543   0.000000
      7          0.338895   0.000000
      8          0.544242   0.000000
 
  0.2500000E+00  0.1071429E+00  0.2222222E+00  0.6349206E-02
      1         -9.409849   1.000000
      2         -3.572521   0.166719
      3         -3.572521   0.166716
      4         -3.572423   0.166028
      5         -0.214115   0.000000
      6          0.181751   0.000000
      7          0.256017   0.000000
      8          0.537989   0.000000
 
  0.3500000E+00  0.1071429E+00  0.2222222E+00  0.6349206E-02
      1         -9.409849   1.000000
      2         -3.572526   0.166752
      3         -3.572520   0.166715
      4         -3.572423   0.166027
      5         -0.192683   0.000000
      6          0.155458   0.000000
      7          0.243740   0.000000
      8          0.462143   0.000000
 
  0.4500000E+00  0.1071429E+00  0.2222222E+00  0.6349206E-02
      1         -9.409848   1.000000
      2         -3.572529   0.166775
      3         -3.572520   0.166710
      4         -3.572423   0.166026
      5         -0.176440   0.000000
      6          0.119067   0.000000
      7          0.272727   0.000000
      8          0.402879   0.000000
 
  0.5000000E-01  0.1785714E+00  0.2222222E+00  0.6349206E-02
      1         -9.409848   1.000000
      2         -3.572518   0.166699
      3         -3.572509   0.166636
      4         -3.572464   0.166314
      5         -0.223596   0.000000
      6          0.175359   0.000000
      7          0.440158   0.000000
      8          0.481854   0.000000
 
  0.1500000E+00  0.1785714E+00  0.2222222E+00  0.6349206E-02
      1         -9.409848   1.000000
      2         -3.572518   0.166697
      3         -3.572512   0.166658
      4         -3.572464   0.166314
      5         -0.213987   0.000000
      6          0.185828   0.000000
      7          0.355457   0.000000
      8          0.476229   0.000000
 
  0.2500000E+00  0.1785714E+00  0.2222222E+00  0.6349206E-02
      1         -9.409849   1.000000
      2         -3.572518   0.166698
      3         -3.572518   0.166695
      4         -3.572463   0.166311
      5         -0.196378   0.000000
      6          0.199927   0.000000
      7          0.274132   0.000000
      8          0.495527   0.000000
 