       N       E                     dE             d eps       ncg     rms          rms(c)
DAV:   1     0.108318204670E+03    0.10832E+03   -0.22665E+04 16800   0.103E+03
DAV:   2    -0.904090615804E+02   -0.19873E+03   -0.18531E+03 23016   0.185E+02
DAV:   3    -0.976117337364E+02   -0.72027E+01   -0.71498E+01 24912   0.311E+01
DAV:   4    -0.976549796267E+02   -0.43246E-01   -0.43243E-01 19224   0.280E+00
DAV:   5    -0.976554441652E+02   -0.46454E-03   -0.46453E-03 24864   0.276E-01    0.123E+01
DAV:   6    -0.922393874726E+02    0.54161E+01   -0.39497E+00 24288   0.659E+00    0.680E+00
DAV:   7    -0.905879780386E+02    0.16514E+01   -0.32226E+00 25152   0.587E+00    0.171E+00
DAV:   8    -0.906003638577E+02   -0.12386E-01   -0.23485E-01 18456   0.168E+00    0.705E-01
DAV:   9    -0.906145354452E+02   -0.14172E-01   -0.16958E-02 23448   0.441E-01    0.198E-01
DAV:  10    -0.906185933733E+02   -0.40579E-02   -0.21043E-03 19104   0.162E-01    0.610E-02
DAV:  11    -0.906196643833E+02   -0.10710E-02   -0.63059E-04 21744   0.880E-02    0.321E-02
DAV:  12    -0.906197798250E+02   -0.11544E-03   -0.92793E-05 20664   0.377E-02    0.429E-03
DAV:  13    -0.906197846683E+02   -0.48433E-05   -0.41078E-06 23568   0.903E-03    0.182E-03
DAV:  14    -0.906197853549E+02   -0.68657E-06   -0.28975E-07 20424   0.239E-03
   1 F= -.90619785E+02 E0= -.90618179E+02  d E =-.321358E-02
