       N       E                     dE             d eps       ncg     rms          rms(c)
DAV:   1     0.539127657325E+02    0.53913E+02   -0.17649E+04168960   0.724E+02
DAV:   2    -0.928996060393E+02   -0.14681E+03   -0.13816E+03235200   0.150E+02
DAV:   3    -0.975874599502E+02   -0.46879E+01   -0.46642E+01246336   0.240E+01
DAV:   4    -0.976146330583E+02   -0.27173E-01   -0.27172E-01207984   0.210E+00
DAV:   5    -0.976149441684E+02   -0.31111E-03   -0.31110E-03245040   0.216E-01    0.123E+01
DAV:   6    -0.922023701810E+02    0.54126E+01   -0.39642E+00245832   0.658E+00    0.678E+00
