       N       E                     dE             d eps       ncg     rms          rms(c)
DAV:   1     0.539127657325E+02    0.53913E+02   -0.17649E+04168960   0.724E+02
