<?xml version="1.0" encoding="ISO-8859-1"?>
<modeling>
 <generator>
  <i name="program" type="string">vasp </i>
  <i name="version" type="string">6.4.3  </i>
  <i name="subversion" type="string">19Mar24 (build May 31 2024 16:31:43) complex                          parallel </i>
  <i name="platform" type="string">LinuxIFC </i>
  <i name="date" type="string">2024 10 29 </i>
  <i name="time" type="string">15:51:20 </i>
 </generator>
 <incar>
  <i type="string" name="SYSTEM">Kpoints</i>
  <i type="int" name="ISTART">     0</i>
  <i type="string" name="PREC">Accurate</i>
  <i type="string" name="ALGO">Normal</i>
  <i type="int" name="ISPIN">     1</i>
  <i type="int" name="ICHARG">     2</i>
  <i type="int" name="NELM">   100</i>
  <i type="int" name="IBRION">    -1</i>
  <i name="EDIFF">      0.00000100</i>
  <i name="EDIFFG">     -0.00100000</i>
  <i type="int" name="NSW">     0</i>
  <i type="int" name="ISIF">     2</i>
  <i name="ENCUT">    450.00000000</i>
  <i name="POTIM">      0.50000000</i>
  <i type="int" name="ISMEAR">     0</i>
  <i name="SIGMA">      0.05000000</i>
  <i type="logical" name="LWAVE"> F  </i>
  <i type="logical" name="LCHARG"> F  </i>
  <i type="string" name="GGA">PE</i>
 </incar>
 <primitive_cell>
  <structure name="primitive_cell" >
   <crystal>
    <varray name="basis" >
     <v>       5.69700000       0.00000000       0.00000000 </v>
     <v>       0.00000000       4.04790000       0.00000000 </v>
     <v>       0.00000000       0.00000000       6.20420000 </v>
    </varray>
    <i name="volume">    143.07435078 </i>
    <varray name="rec_basis" >
     <v>       0.17553098       0.00000000       0.00000000 </v>
     <v>       0.00000000       0.24704168       0.00000000 </v>
     <v>       0.00000000       0.00000000       0.16118114 </v>
    </varray>
   </crystal>
   <varray name="positions" >
    <v>       0.52123000       0.50000000       0.63796000 </v>
    <v>       0.47877000       0.50000000       0.36204000 </v>
    <v>       0.97877000       0.50000000       0.63796000 </v>
    <v>       0.02123000       0.50000000       0.36204000 </v>
    <v>       0.60090000       0.50000000       0.89991000 </v>
    <v>       0.39910000       0.50000000       0.10009000 </v>
    <v>       0.89910000       0.50000000       0.89991000 </v>
    <v>       0.10090000       0.50000000       0.10009000 </v>
    <v>       0.75000000       0.79171000       0.72973000 </v>
    <v>       0.25000000       0.20829000       0.27027000 </v>
    <v>       0.75000000       0.20829000       0.72973000 </v>
    <v>       0.25000000       0.79171000       0.27027000 </v>
    <v>       0.25000000       0.50000000       0.52367000 </v>
    <v>       0.75000000       0.50000000       0.47633000 </v>
   </varray>
  </structure>
  <varray name="primitive_index" >
   <v type="int" >        1 </v>
   <v type="int" >        2 </v>
   <v type="int" >        3 </v>
   <v type="int" >        4 </v>
   <v type="int" >        5 </v>
   <v type="int" >        6 </v>
   <v type="int" >        7 </v>
   <v type="int" >        8 </v>
   <v type="int" >        9 </v>
   <v type="int" >       10 </v>
   <v type="int" >       11 </v>
   <v type="int" >       12 </v>
   <v type="int" >       13 </v>
   <v type="int" >       14 </v>
  </varray>
 </primitive_cell>
 <kpoints>
  <generation param="Monkhorst-Pack">
   <v type="int" name="divisions">      22       31       20 </v>
   <v name="usershift">      0.00000000       0.00000000       0.00000000 </v>
   <v name="genvec1">      0.04545455       0.00000000       0.00000000 </v>
   <v name="genvec2">      0.00000000       0.03225806       0.00000000 </v>
   <v name="genvec3">      0.00000000       0.00000000       0.05000000 </v>
   <v name="shift">      0.50000000       0.00000000       0.50000000 </v>
  </generation>
  <varray name="kpointlist" >
   <v>       0.02272727       0.00000000       0.02500000 </v>
   <v>       0.06818182       0.00000000       0.02500000 </v>
   <v>       0.11363636       0.00000000       0.02500000 </v>
   <v>       0.15909091       0.00000000       0.02500000 </v>
   <v>       0.20454545       0.00000000       0.02500000 </v>
   <v>       0.25000000       0.00000000       0.02500000 </v>
   <v>       0.29545455       0.00000000       0.02500000 </v>
   <v>       0.34090909       0.00000000       0.02500000 </v>
   <v>       0.38636364       0.00000000       0.02500000 </v>
   <v>       0.43181818       0.00000000       0.02500000 </v>
   <v>       0.47727273       0.00000000       0.02500000 </v>
   <v>       0.02272727       0.03225806       0.02500000 </v>
   <v>       0.06818182       0.03225806       0.02500000 </v>
   <v>       0.11363636       0.03225806       0.02500000 </v>
   <v>       0.15909091       0.03225806       0.02500000 </v>
   <v>       0.20454545       0.03225806       0.02500000 </v>
   <v>       0.25000000       0.03225806       0.02500000 </v>
   <v>       0.29545455       0.03225806       0.02500000 </v>
   <v>       0.34090909       0.03225806       0.02500000 </v>
   <v>       0.38636364       0.03225806       0.02500000 </v>
   <v>       0.43181818       0.03225806       0.02500000 </v>
   <v>       0.47727273       0.03225806       0.02500000 </v>
   <v>       0.02272727       0.06451613       0.02500000 </v>
   <v>       0.06818182       0.06451613       0.02500000 </v>
   <v>       0.11363636       0.06451613       0.02500000 </v>
   <v>       0.15909091       0.06451613       0.02500000 </v>
   <v>       0.20454545       0.06451613       0.02500000 </v>
   <v>       0.25000000       0.06451613       0.02500000 </v>
   <v>       0.29545455       0.06451613       0.02500000 </v>
   <v>       0.34090909       0.06451613       0.02500000 </v>
   <v>       0.38636364       0.06451613       0.02500000 </v>
   <v>       0.43181818       0.06451613       0.02500000 </v>
   <v>       0.47727273       0.06451613       0.02500000 </v>
   <v>       0.02272727       0.09677419       0.02500000 </v>
   <v>       0.06818182       0.09677419       0.02500000 </v>
   <v>       0.11363636       0.09677419       0.02500000 </v>
   <v>       0.15909091       0.09677419       0.02500000 </v>
   <v>       0.20454545       0.09677419       0.02500000 </v>
   <v>       0.25000000       0.09677419       0.02500000 </v>
   <v>       0.29545455       0.09677419       0.02500000 </v>
   <v>       0.34090909       0.09677419       0.02500000 </v>
   <v>       0.38636364       0.09677419       0.02500000 </v>
   <v>       0.43181818       0.09677419       0.02500000 </v>
   <v>       0.47727273       0.09677419       0.02500000 </v>
   <v>       0.02272727       0.12903226       0.02500000 </v>
   <v>       0.06818182       0.12903226       0.02500000 </v>
   <v>       0.11363636       0.12903226       0.02500000 </v>
   <v>       0.15909091       0.12903226       0.02500000 </v>
   <v>       0.20454545       0.12903226       0.02500000 </v>
   <v>       0.25000000       0.12903226       0.02500000 </v>
   <v>       0.29545455       0.12903226       0.02500000 </v>
   <v>       0.34090909       0.12903226       0.02500000 </v>
   <v>       0.38636364       0.12903226       0.02500000 </v>
   <v>       0.43181818       0.12903226       0.02500000 </v>
   <v>       0.47727273       0.12903226       0.02500000 </v>
   <v>       0.02272727       0.16129032       0.02500000 </v>
   <v>       0.06818182       0.16129032       0.02500000 </v>
   <v>       0.11363636       0.16129032       0.02500000 </v>
   <v>       0.15909091       0.16129032       0.02500000 </v>
   <v>       0.20454545       0.16129032       0.02500000 </v>
   <v>       0.25000000       0.16129032       0.02500000 </v>
   <v>       0.29545455       0.16129032       0.02500000 </v>
   <v>       0.34090909       0.16129032       0.02500000 </v>
   <v>       0.38636364       0.16129032       0.02500000 </v>
   <v>       0.43181818       0.16129032       0.02500000 </v>
   <v>       0.47727273       0.16129032       0.02500000 </v>
   <v>       0.02272727       0.19354839       0.02500000 </v>
   <v>       0.06818182       0.19354839       0.02500000 </v>
   <v>       0.11363636       0.19354839       0.02500000 </v>
   <v>       0.15909091       0.19354839       0.02500000 </v>
   <v>       0.20454545       0.19354839       0.02500000 </v>
   <v>       0.25000000       0.19354839       0.02500000 </v>
   <v>       0.29545455       0.19354839       0.02500000 </v>
   <v>       0.34090909       0.19354839       0.02500000 </v>
   <v>       0.38636364       0.19354839       0.02500000 </v>
   <v>       0.43181818       0.19354839       0.02500000 </v>
   <v>       0.47727273       0.19354839       0.02500000 </v>
   <v>       0.02272727       0.22580645       0.02500000 </v>
   <v>       0.06818182       0.22580645       0.02500000 </v>
   <v>       0.11363636       0.22580645       0.02500000 </v>
   <v>       0.15909091       0.22580645       0.02500000 </v>
   <v>       0.20454545       0.22580645       0.02500000 </v>
   <v>       0.25000000       0.22580645       0.02500000 </v>
   <v>       0.29545455       0.22580645       0.02500000 </v>
   <v>       0.34090909       0.22580645       0.02500000 </v>
   <v>       0.38636364       0.22580645       0.02500000 </v>
   <v>       0.43181818       0.22580645       0.02500000 </v>
   <v>       0.47727273       0.22580645       0.02500000 </v>
   <v>       0.02272727       0.25806452       0.02500000 </v>
   <v>       0.06818182       0.25806452       0.02500000 </v>
   <v>       0.11363636       0.25806452       0.02500000 </v>
   <v>       0.15909091       0.25806452       0.02500000 </v>
   <v>       0.20454545       0.25806452       0.02500000 </v>
   <v>       0.25000000       0.25806452       0.02500000 </v>
   <v>       0.29545455       0.25806452       0.02500000 </v>
   <v>       0.34090909       0.25806452       0.02500000 </v>
   <v>       0.38636364       0.25806452       0.02500000 </v>
   <v>       0.43181818       0.25806452       0.02500000 </v>
   <v>       0.47727273       0.25806452       0.02500000 </v>
   <v>       0.02272727       0.29032258       0.02500000 </v>
   <v>       0.06818182       0.29032258       0.02500000 </v>
   <v>       0.11363636       0.29032258       0.02500000 </v>
   <v>       0.15909091       0.29032258       0.02500000 </v>
   <v>       0.20454545       0.29032258       0.02500000 </v>
   <v>       0.25000000       0.29032258       0.02500000 </v>
   <v>       0.29545455       0.29032258       0.02500000 </v>
   <v>       0.34090909       0.29032258       0.02500000 </v>
   <v>       0.38636364       0.29032258       0.02500000 </v>
   <v>       0.43181818       0.29032258       0.02500000 </v>
   <v>       0.47727273       0.29032258       0.02500000 </v>
   <v>       0.02272727       0.32258065       0.02500000 </v>
   <v>       0.06818182       0.32258065       0.02500000 </v>
   <v>       0.11363636       0.32258065       0.02500000 </v>
   <v>       0.15909091       0.32258065       0.02500000 </v>
   <v>       0.20454545       0.32258065       0.02500000 </v>
   <v>       0.25000000       0.32258065       0.02500000 </v>
   <v>       0.29545455       0.32258065       0.02500000 </v>
   <v>       0.34090909       0.32258065       0.02500000 </v>
   <v>       0.38636364       0.32258065       0.02500000 </v>
   <v>       0.43181818       0.32258065       0.02500000 </v>
   <v>       0.47727273       0.32258065       0.02500000 </v>
   <v>       0.02272727       0.35483871       0.02500000 </v>
   <v>       0.06818182       0.35483871       0.02500000 </v>
   <v>       0.11363636       0.35483871       0.02500000 </v>
   <v>       0.15909091       0.35483871       0.02500000 </v>
   <v>       0.20454545       0.35483871       0.02500000 </v>
   <v>       0.25000000       0.35483871       0.02500000 </v>
   <v>       0.29545455       0.35483871       0.02500000 </v>
   <v>       0.34090909       0.35483871       0.02500000 </v>
   <v>       0.38636364       0.35483871       0.02500000 </v>
   <v>       0.43181818       0.35483871       0.02500000 </v>
   <v>       0.47727273       0.35483871       0.02500000 </v>
   <v>       0.02272727       0.38709677       0.02500000 </v>
   <v>       0.06818182       0.38709677       0.02500000 </v>
   <v>       0.11363636       0.38709677       0.02500000 </v>
   <v>       0.15909091       0.38709677       0.02500000 </v>
   <v>       0.20454545       0.38709677       0.02500000 </v>
   <v>       0.25000000       0.38709677       0.02500000 </v>
   <v>       0.29545455       0.38709677       0.02500000 </v>
   <v>       0.34090909       0.38709677       0.02500000 </v>
   <v>       0.38636364       0.38709677       0.02500000 </v>
   <v>       0.43181818       0.38709677       0.02500000 </v>
   <v>       0.47727273       0.38709677       0.02500000 </v>
   <v>       0.02272727       0.41935484       0.02500000 </v>
   <v>       0.06818182       0.41935484       0.02500000 </v>
   <v>       0.11363636       0.41935484       0.02500000 </v>
   <v>       0.15909091       0.41935484       0.02500000 </v>
   <v>       0.20454545       0.41935484       0.02500000 </v>
   <v>       0.25000000       0.41935484       0.02500000 </v>
   <v>       0.29545455       0.41935484       0.02500000 </v>
   <v>       0.34090909       0.41935484       0.02500000 </v>
   <v>       0.38636364       0.41935484       0.02500000 </v>
   <v>       0.43181818       0.41935484       0.02500000 </v>
   <v>       0.47727273       0.41935484       0.02500000 </v>
   <v>       0.02272727       0.45161290       0.02500000 </v>
   <v>       0.06818182       0.45161290       0.02500000 </v>
   <v>       0.11363636       0.45161290       0.02500000 </v>
   <v>       0.15909091       0.45161290       0.02500000 </v>
   <v>       0.20454545       0.45161290       0.02500000 </v>
   <v>       0.25000000       0.45161290       0.02500000 </v>
   <v>       0.29545455       0.45161290       0.02500000 </v>
   <v>       0.34090909       0.45161290       0.02500000 </v>
   <v>       0.38636364       0.45161290       0.02500000 </v>
   <v>       0.43181818       0.45161290       0.02500000 </v>
   <v>       0.47727273       0.45161290       0.02500000 </v>
   <v>       0.02272727       0.48387097       0.02500000 </v>
   <v>       0.06818182       0.48387097       0.02500000 </v>
   <v>       0.11363636       0.48387097       0.02500000 </v>
   <v>       0.15909091       0.48387097       0.02500000 </v>
   <v>       0.20454545       0.48387097       0.02500000 </v>
   <v>       0.25000000       0.48387097       0.02500000 </v>
   <v>       0.29545455       0.48387097       0.02500000 </v>
   <v>       0.34090909       0.48387097       0.02500000 </v>
   <v>       0.38636364       0.48387097       0.02500000 </v>
   <v>       0.43181818       0.48387097       0.02500000 </v>
   <v>       0.47727273       0.48387097       0.02500000 </v>
   <v>       0.02272727       0.00000000       0.07500000 </v>
   <v>       0.06818182       0.00000000       0.07500000 </v>
   <v>       0.11363636       0.00000000       0.07500000 </v>
   <v>       0.15909091       0.00000000       0.07500000 </v>
   <v>       0.20454545       0.00000000       0.07500000 </v>
   <v>       0.25000000       0.00000000       0.07500000 </v>
   <v>       0.29545455       0.00000000       0.07500000 </v>
   <v>       0.34090909       0.00000000       0.07500000 </v>
   <v>       0.38636364       0.00000000       0.07500000 </v>
   <v>       0.43181818       0.00000000       0.07500000 </v>
   <v>       0.47727273       0.00000000       0.07500000 </v>
   <v>       0.02272727       0.03225806       0.07500000 </v>
   <v>       0.06818182       0.03225806       0.07500000 </v>
   <v>       0.11363636       0.03225806       0.07500000 </v>
   <v>       0.15909091       0.03225806       0.07500000 </v>
   <v>       0.20454545       0.03225806       0.07500000 </v>
   <v>       0.25000000       0.03225806       0.07500000 </v>
   <v>       0.29545455       0.03225806       0.07500000 </v>
   <v>       0.34090909       0.03225806       0.07500000 </v>
   <v>       0.38636364       0.03225806       0.07500000 </v>
   <v>       0.43181818       0.03225806       0.07500000 </v>
   <v>       0.47727273       0.03225806       0.07500000 </v>
   <v>       0.02272727       0.06451613       0.07500000 </v>
   <v>       0.06818182       0.06451613       0.07500000 </v>
   <v>       0.11363636       0.06451613       0.07500000 </v>
   <v>       0.15909091       0.06451613       0.07500000 </v>
   <v>       0.20454545       0.06451613       0.07500000 </v>
   <v>       0.25000000       0.06451613       0.07500000 </v>
   <v>       0.29545455       0.06451613       0.07500000 </v>
   <v>       0.34090909       0.06451613       0.07500000 </v>
   <v>       0.38636364       0.06451613       0.07500000 </v>
   <v>       0.43181818       0.06451613       0.07500000 </v>
   <v>       0.47727273       0.06451613       0.07500000 </v>
   <v>       0.02272727       0.09677419       0.07500000 </v>
   <v>       0.06818182       0.09677419       0.07500000 </v>
   <v>       0.11363636       0.09677419       0.07500000 </v>
   <v>       0.15909091       0.09677419       0.07500000 </v>
   <v>       0.20454545       0.09677419       0.07500000 </v>
   <v>       0.25000000       0.09677419       0.07500000 </v>
   <v>       0.29545455       0.09677419       0.07500000 </v>
   <v>       0.34090909       0.09677419       0.07500000 </v>
   <v>       0.38636364       0.09677419       0.07500000 </v>
   <v>       0.43181818       0.09677419       0.07500000 </v>
   <v>       0.47727273       0.09677419       0.07500000 </v>
   <v>       0.02272727       0.12903226       0.07500000 </v>
   <v>       0.06818182       0.12903226       0.07500000 </v>
   <v>       0.11363636       0.12903226       0.07500000 </v>
   <v>       0.15909091       0.12903226       0.07500000 </v>
   <v>       0.20454545       0.12903226       0.07500000 </v>
   <v>       0.25000000       0.12903226       0.07500000 </v>
   <v>       0.29545455       0.12903226       0.07500000 </v>
   <v>       0.34090909       0.12903226       0.07500000 </v>
   <v>       0.38636364       0.12903226       0.07500000 </v>
   <v>       0.43181818       0.12903226       0.07500000 </v>
   <v>       0.47727273       0.12903226       0.07500000 </v>
   <v>       0.02272727       0.16129032       0.07500000 </v>
   <v>       0.06818182       0.16129032       0.07500000 </v>
   <v>       0.11363636       0.16129032       0.07500000 </v>
   <v>       0.15909091       0.16129032       0.07500000 </v>
   <v>       0.20454545       0.16129032       0.07500000 </v>
   <v>       0.25000000       0.16129032       0.07500000 </v>
   <v>       0.29545455       0.16129032       0.07500000 </v>
   <v>       0.34090909       0.16129032       0.07500000 </v>
   <v>       0.38636364       0.16129032       0.07500000 </v>
   <v>       0.43181818       0.16129032       0.07500000 </v>
   <v>       0.47727273       0.16129032       0.07500000 </v>
   <v>       0.02272727       0.19354839       0.07500000 </v>
   <v>       0.06818182       0.19354839       0.07500000 </v>
   <v>       0.11363636       0.19354839       0.07500000 </v>
   <v>       0.15909091       0.19354839       0.07500000 </v>
   <v>       0.20454545       0.19354839       0.07500000 </v>
   <v>       0.25000000       0.19354839       0.07500000 </v>
   <v>       0.29545455       0.19354839       0.07500000 </v>
   <v>       0.34090909       0.19354839       0.07500000 </v>
   <v>       0.38636364       0.19354839       0.07500000 </v>
   <v>       0.43181818       0.19354839       0.07500000 </v>
   <v>       0.47727273       0.19354839       0.07500000 </v>
   <v>       0.02272727       0.22580645       0.07500000 </v>
   <v>       0.06818182       0.22580645       0.07500000 </v>
   <v>       0.11363636       0.22580645       0.07500000 </v>
   <v>       0.15909091       0.22580645       0.07500000 </v>
   <v>       0.20454545       0.22580645       0.07500000 </v>
   <v>       0.25000000       0.22580645       0.07500000 </v>
   <v>       0.29545455       0.22580645       0.07500000 </v>
   <v>       0.34090909       0.22580645       0.07500000 </v>
   <v>       0.38636364       0.22580645       0.07500000 </v>
   <v>       0.43181818       0.22580645       0.07500000 </v>
   <v>       0.47727273       0.22580645       0.07500000 </v>
   <v>       0.02272727       0.25806452       0.07500000 </v>
   <v>       0.06818182       0.25806452       0.07500000 </v>
   <v>       0.11363636       0.25806452       0.07500000 </v>
   <v>       0.15909091       0.25806452       0.07500000 </v>
   <v>       0.20454545       0.25806452       0.07500000 </v>
   <v>       0.25000000       0.25806452       0.07500000 </v>
   <v>       0.29545455       0.25806452       0.07500000 </v>
   <v>       0.34090909       0.25806452       0.07500000 </v>
   <v>       0.38636364       0.25806452       0.07500000 </v>
   <v>       0.43181818       0.25806452       0.07500000 </v>
   <v>       0.47727273       0.25806452       0.07500000 </v>
   <v>       0.02272727       0.29032258       0.07500000 </v>
   <v>       0.06818182       0.29032258       0.07500000 </v>
   <v>       0.11363636       0.29032258       0.07500000 </v>
   <v>       0.15909091       0.29032258       0.07500000 </v>
   <v>       0.20454545       0.29032258       0.07500000 </v>
   <v>       0.25000000       0.29032258       0.07500000 </v>
   <v>       0.29545455       0.29032258       0.07500000 </v>
   <v>       0.34090909       0.29032258       0.07500000 </v>
   <v>       0.38636364       0.29032258       0.07500000 </v>
   <v>       0.43181818       0.29032258       0.07500000 </v>
   <v>       0.47727273       0.29032258       0.07500000 </v>
   <v>       0.02272727       0.32258065       0.07500000 </v>
   <v>       0.06818182       0.32258065       0.07500000 </v>
   <v>       0.11363636       0.32258065       0.07500000 </v>
   <v>       0.15909091       0.32258065       0.07500000 </v>
   <v>       0.20454545       0.32258065       0.07500000 </v>
   <v>       0.25000000       0.32258065       0.07500000 </v>
   <v>       0.29545455       0.32258065       0.07500000 </v>
   <v>       0.34090909       0.32258065       0.07500000 </v>
   <v>       0.38636364       0.32258065       0.07500000 </v>
   <v>       0.43181818       0.32258065       0.07500000 </v>
   <v>       0.47727273       0.32258065       0.07500000 </v>
   <v>       0.02272727       0.35483871       0.07500000 </v>
   <v>       0.06818182       0.35483871       0.07500000 </v>
   <v>       0.11363636       0.35483871       0.07500000 </v>
   <v>       0.15909091       0.35483871       0.07500000 </v>
   <v>       0.20454545       0.35483871       0.07500000 </v>
   <v>       0.25000000       0.35483871       0.07500000 </v>
   <v>       0.29545455       0.35483871       0.07500000 </v>
   <v>       0.34090909       0.35483871       0.07500000 </v>
   <v>       0.38636364       0.35483871       0.07500000 </v>
   <v>       0.43181818       0.35483871       0.07500000 </v>
   <v>       0.47727273       0.35483871       0.07500000 </v>
   <v>       0.02272727       0.38709677       0.07500000 </v>
   <v>       0.06818182       0.38709677       0.07500000 </v>
   <v>       0.11363636       0.38709677       0.07500000 </v>
   <v>       0.15909091       0.38709677       0.07500000 </v>
   <v>       0.20454545       0.38709677       0.07500000 </v>
   <v>       0.25000000       0.38709677       0.07500000 </v>
   <v>       0.29545455       0.38709677       0.07500000 </v>
   <v>       0.34090909       0.38709677       0.07500000 </v>
   <v>       0.38636364       0.38709677       0.07500000 </v>
   <v>       0.43181818       0.38709677       0.07500000 </v>
   <v>       0.47727273       0.38709677       0.07500000 </v>
   <v>       0.02272727       0.41935484       0.07500000 </v>
   <v>       0.06818182       0.41935484       0.07500000 </v>
   <v>       0.11363636       0.41935484       0.07500000 </v>
   <v>       0.15909091       0.41935484       0.07500000 </v>
   <v>       0.20454545       0.41935484       0.07500000 </v>
   <v>       0.25000000       0.41935484       0.07500000 </v>
   <v>       0.29545455       0.41935484       0.07500000 </v>
   <v>       0.34090909       0.41935484       0.07500000 </v>
   <v>       0.38636364       0.41935484       0.07500000 </v>
   <v>       0.43181818       0.41935484       0.07500000 </v>
   <v>       0.47727273       0.41935484       0.07500000 </v>
   <v>       0.02272727       0.45161290       0.07500000 </v>
   <v>       0.06818182       0.45161290       0.07500000 </v>
   <v>       0.11363636       0.45161290       0.07500000 </v>
   <v>       0.15909091       0.45161290       0.07500000 </v>
   <v>       0.20454545       0.45161290       0.07500000 </v>
   <v>       0.25000000       0.45161290       0.07500000 </v>
   <v>       0.29545455       0.45161290       0.07500000 </v>
   <v>       0.34090909       0.45161290       0.07500000 </v>
   <v>       0.38636364       0.45161290       0.07500000 </v>
   <v>       0.43181818       0.45161290       0.07500000 </v>
   <v>       0.47727273       0.45161290       0.07500000 </v>
   <v>       0.02272727       0.48387097       0.07500000 </v>
   <v>       0.06818182       0.48387097       0.07500000 </v>
   <v>       0.11363636       0.48387097       0.07500000 </v>
   <v>       0.15909091       0.48387097       0.07500000 </v>
   <v>       0.20454545       0.48387097       0.07500000 </v>
   <v>       0.25000000       0.48387097       0.07500000 </v>
   <v>       0.29545455       0.48387097       0.07500000 </v>
   <v>       0.34090909       0.48387097       0.07500000 </v>
   <v>       0.38636364       0.48387097       0.07500000 </v>
   <v>       0.43181818       0.48387097       0.07500000 </v>
   <v>       0.47727273       0.48387097       0.07500000 </v>
   <v>       0.02272727       0.00000000       0.12500000 </v>
   <v>       0.06818182       0.00000000       0.12500000 </v>
   <v>       0.11363636       0.00000000       0.12500000 </v>
   <v>       0.15909091       0.00000000       0.12500000 </v>
   <v>       0.20454545       0.00000000       0.12500000 </v>
   <v>       0.25000000       0.00000000       0.12500000 </v>
   <v>       0.29545455       0.00000000       0.12500000 </v>
   <v>       0.34090909       0.00000000       0.12500000 </v>
   <v>       0.38636364       0.00000000       0.12500000 </v>
   <v>       0.43181818       0.00000000       0.12500000 </v>
   <v>       0.47727273       0.00000000       0.12500000 </v>
   <v>       0.02272727       0.03225806       0.12500000 </v>
   <v>       0.06818182       0.03225806       0.12500000 </v>
   <v>       0.11363636       0.03225806       0.12500000 </v>
   <v>       0.15909091       0.03225806       0.12500000 </v>
   <v>       0.20454545       0.03225806       0.12500000 </v>
   <v>       0.25000000       0.03225806       0.12500000 </v>
   <v>       0.29545455       0.03225806       0.12500000 </v>
   <v>       0.34090909       0.03225806       0.12500000 </v>
   <v>       0.38636364       0.03225806       0.12500000 </v>
   <v>       0.43181818       0.03225806       0.12500000 </v>
   <v>       0.47727273       0.03225806       0.12500000 </v>
   <v>       0.02272727       0.06451613       0.12500000 </v>
   <v>       0.06818182       0.06451613       0.12500000 </v>
   <v>       0.11363636       0.06451613       0.12500000 </v>
   <v>       0.15909091       0.06451613       0.12500000 </v>
   <v>       0.20454545       0.06451613       0.12500000 </v>
   <v>       0.25000000       0.06451613       0.12500000 </v>
   <v>       0.29545455       0.06451613       0.12500000 </v>
   <v>       0.34090909       0.06451613       0.12500000 </v>
   <v>       0.38636364       0.06451613       0.12500000 </v>
   <v>       0.43181818       0.06451613       0.12500000 </v>
   <v>       0.47727273       0.06451613       0.12500000 </v>
   <v>       0.02272727       0.09677419       0.12500000 </v>
   <v>       0.06818182       0.09677419       0.12500000 </v>
   <v>       0.11363636       0.09677419       0.12500000 </v>
   <v>       0.15909091       0.09677419       0.12500000 </v>
   <v>       0.20454545       0.09677419       0.12500000 </v>
   <v>       0.25000000       0.09677419       0.12500000 </v>
   <v>       0.29545455       0.09677419       0.12500000 </v>
   <v>       0.34090909       0.09677419       0.12500000 </v>
   <v>       0.38636364       0.09677419       0.12500000 </v>
   <v>       0.43181818       0.09677419       0.12500000 </v>
   <v>       0.47727273       0.09677419       0.12500000 </v>
   <v>       0.02272727       0.12903226       0.12500000 </v>
   <v>       0.06818182       0.12903226       0.12500000 </v>
   <v>       0.11363636       0.12903226       0.12500000 </v>
   <v>       0.15909091       0.12903226       0.12500000 </v>
   <v>       0.20454545       0.12903226       0.12500000 </v>
   <v>       0.25000000       0.12903226       0.12500000 </v>
   <v>       0.29545455       0.12903226       0.12500000 </v>
   <v>       0.34090909       0.12903226       0.12500000 </v>
   <v>       0.38636364       0.12903226       0.12500000 </v>
   <v>       0.43181818       0.12903226       0.12500000 </v>
   <v>       0.47727273       0.12903226       0.12500000 </v>
   <v>       0.02272727       0.16129032       0.12500000 </v>
   <v>       0.06818182       0.16129032       0.12500000 </v>
   <v>       0.11363636       0.16129032       0.12500000 </v>
   <v>       0.15909091       0.16129032       0.12500000 </v>
   <v>       0.20454545       0.16129032       0.12500000 </v>
   <v>       0.25000000       0.16129032       0.12500000 </v>
   <v>       0.29545455       0.16129032       0.12500000 </v>
   <v>       0.34090909       0.16129032       0.12500000 </v>
   <v>       0.38636364       0.16129032       0.12500000 </v>
   <v>       0.43181818       0.16129032       0.12500000 </v>
   <v>       0.47727273       0.16129032       0.12500000 </v>
   <v>       0.02272727       0.19354839       0.12500000 </v>
   <v>       0.06818182       0.19354839       0.12500000 </v>
   <v>       0.11363636       0.19354839       0.12500000 </v>
   <v>       0.15909091       0.19354839       0.12500000 </v>
   <v>       0.20454545       0.19354839       0.12500000 </v>
   <v>       0.25000000       0.19354839       0.12500000 </v>
   <v>       0.29545455       0.19354839       0.12500000 </v>
   <v>       0.34090909       0.19354839       0.12500000 </v>
   <v>       0.38636364       0.19354839       0.12500000 </v>
   <v>       0.43181818       0.19354839       0.12500000 </v>
   <v>       0.47727273       0.19354839       0.12500000 </v>
   <v>       0.02272727       0.22580645       0.12500000 </v>
   <v>       0.06818182       0.22580645       0.12500000 </v>
   <v>       0.11363636       0.22580645       0.12500000 </v>
   <v>       0.15909091       0.22580645       0.12500000 </v>
   <v>       0.20454545       0.22580645       0.12500000 </v>
   <v>       0.25000000       0.22580645       0.12500000 </v>
   <v>       0.29545455       0.22580645       0.12500000 </v>
   <v>       0.34090909       0.22580645       0.12500000 </v>
   <v>       0.38636364       0.22580645       0.12500000 </v>
   <v>       0.43181818       0.22580645       0.12500000 </v>
   <v>       0.47727273       0.22580645       0.12500000 </v>
   <v>       0.02272727       0.25806452       0.12500000 </v>
   <v>       0.06818182       0.25806452       0.12500000 </v>
   <v>       0.11363636       0.25806452       0.12500000 </v>
   <v>       0.15909091       0.25806452       0.12500000 </v>
   <v>       0.20454545       0.25806452       0.12500000 </v>
   <v>       0.25000000       0.25806452       0.12500000 </v>
   <v>       0.29545455       0.25806452       0.12500000 </v>
   <v>       0.34090909       0.25806452       0.12500000 </v>
   <v>       0.38636364       0.25806452       0.12500000 </v>
   <v>       0.43181818       0.25806452       0.12500000 </v>
   <v>       0.47727273       0.25806452       0.12500000 </v>
   <v>       0.02272727       0.29032258       0.12500000 </v>
   <v>       0.06818182       0.29032258       0.12500000 </v>
   <v>       0.11363636       0.29032258       0.12500000 </v>
   <v>       0.15909091       0.29032258       0.12500000 </v>
   <v>       0.20454545       0.29032258       0.12500000 </v>
   <v>       0.25000000       0.29032258       0.12500000 </v>
   <v>       0.29545455       0.29032258       0.12500000 </v>
   <v>       0.34090909       0.29032258       0.12500000 </v>
   <v>       0.38636364       0.29032258       0.12500000 </v>
   <v>       0.43181818       0.29032258       0.12500000 </v>
   <v>       0.47727273       0.29032258       0.12500000 </v>
   <v>       0.02272727       0.32258065       0.12500000 </v>
   <v>       0.06818182       0.32258065       0.12500000 </v>
   <v>       0.11363636       0.32258065       0.12500000 </v>
   <v>       0.15909091       0.32258065       0.12500000 </v>
   <v>       0.20454545       0.32258065       0.12500000 </v>
   <v>       0.25000000       0.32258065       0.12500000 </v>
   <v>       0.29545455       0.32258065       0.12500000 </v>
   <v>       0.34090909       0.32258065       0.12500000 </v>
   <v>       0.38636364       0.32258065       0.12500000 </v>
   <v>       0.43181818       0.32258065       0.12500000 </v>
   <v>       0.47727273       0.32258065       0.12500000 </v>
   <v>       0.02272727       0.35483871       0.12500000 </v>
   <v>       0.06818182       0.35483871       0.12500000 </v>
   <v>       0.11363636       0.35483871       0.12500000 </v>
   <v>       0.15909091       0.35483871       0.12500000 </v>
   <v>       0.20454545       0.35483871       0.12500000 </v>
   <v>       0.25000000       0.35483871       0.12500000 </v>
   <v>       0.29545455       0.35483871       0.12500000 </v>
   <v>       0.34090909       0.35483871       0.12500000 </v>
   <v>       0.38636364       0.35483871       0.12500000 </v>
   <v>       0.43181818       0.35483871       0.12500000 </v>
   <v>       0.47727273       0.35483871       0.12500000 </v>
   <v>       0.02272727       0.38709677       0.12500000 </v>
   <v>       0.06818182       0.38709677       0.12500000 </v>
   <v>       0.11363636       0.38709677       0.12500000 </v>
   <v>       0.15909091       0.38709677       0.12500000 </v>
   <v>       0.20454545       0.38709677       0.12500000 </v>
   <v>       0.25000000       0.38709677       0.12500000 </v>
   <v>       0.29545455       0.38709677       0.12500000 </v>
   <v>       0.34090909       0.38709677       0.12500000 </v>
   <v>       0.38636364       0.38709677       0.12500000 </v>
   <v>       0.43181818       0.38709677       0.12500000 </v>
   <v>       0.47727273       0.38709677       0.12500000 </v>
   <v>       0.02272727       0.41935484       0.12500000 </v>
   <v>       0.06818182       0.41935484       0.12500000 </v>
   <v>       0.11363636       0.41935484       0.12500000 </v>
   <v>       0.15909091       0.41935484       0.12500000 </v>
   <v>       0.20454545       0.41935484       0.12500000 </v>
   <v>       0.25000000       0.41935484       0.12500000 </v>
   <v>       0.29545455       0.41935484       0.12500000 </v>
   <v>       0.34090909       0.41935484       0.12500000 </v>
   <v>       0.38636364       0.41935484       0.12500000 </v>
   <v>       0.43181818       0.41935484       0.12500000 </v>
   <v>       0.47727273       0.41935484       0.12500000 </v>
   <v>       0.02272727       0.45161290       0.12500000 </v>
   <v>       0.06818182       0.45161290       0.12500000 </v>
   <v>       0.11363636       0.45161290       0.12500000 </v>
   <v>       0.15909091       0.45161290       0.12500000 </v>
   <v>       0.20454545       0.45161290       0.12500000 </v>
   <v>       0.25000000       0.45161290       0.12500000 </v>
   <v>       0.29545455       0.45161290       0.12500000 </v>
   <v>       0.34090909       0.45161290       0.12500000 </v>
   <v>       0.38636364       0.45161290       0.12500000 </v>
   <v>       0.43181818       0.45161290       0.12500000 </v>
   <v>       0.47727273       0.45161290       0.12500000 </v>
   <v>       0.02272727       0.48387097       0.12500000 </v>
   <v>       0.06818182       0.48387097       0.12500000 </v>
   <v>       0.11363636       0.48387097       0.12500000 </v>
   <v>       0.15909091       0.48387097       0.12500000 </v>
   <v>       0.20454545       0.48387097       0.12500000 </v>
   <v>       0.25000000       0.48387097       0.12500000 </v>
   <v>       0.29545455       0.48387097       0.12500000 </v>
   <v>       0.34090909       0.48387097       0.12500000 </v>
   <v>       0.38636364       0.48387097       0.12500000 </v>
   <v>       0.43181818       0.48387097       0.12500000 </v>
   <v>       0.47727273       0.48387097       0.12500000 </v>
   <v>       0.02272727       0.00000000       0.17500000 </v>
   <v>       0.06818182       0.00000000       0.17500000 </v>
   <v>       0.11363636       0.00000000       0.17500000 </v>
   <v>       0.15909091       0.00000000       0.17500000 </v>
   <v>       0.20454545       0.00000000       0.17500000 </v>
   <v>       0.25000000       0.00000000       0.17500000 </v>
   <v>       0.29545455       0.00000000       0.17500000 </v>
   <v>       0.34090909       0.00000000       0.17500000 </v>
   <v>       0.38636364       0.00000000       0.17500000 </v>
   <v>       0.43181818       0.00000000       0.17500000 </v>
   <v>       0.47727273       0.00000000       0.17500000 </v>
   <v>       0.02272727       0.03225806       0.17500000 </v>
   <v>       0.06818182       0.03225806       0.17500000 </v>
   <v>       0.11363636       0.03225806       0.17500000 </v>
   <v>       0.15909091       0.03225806       0.17500000 </v>
   <v>       0.20454545       0.03225806       0.17500000 </v>
   <v>       0.25000000       0.03225806       0.17500000 </v>
   <v>       0.29545455       0.03225806       0.17500000 </v>
   <v>       0.34090909       0.03225806       0.17500000 </v>
   <v>       0.38636364       0.03225806       0.17500000 </v>
   <v>       0.43181818       0.03225806       0.17500000 </v>
   <v>       0.47727273       0.03225806       0.17500000 </v>
   <v>       0.02272727       0.06451613       0.17500000 </v>
   <v>       0.06818182       0.06451613       0.17500000 </v>
   <v>       0.11363636       0.06451613       0.17500000 </v>
   <v>       0.15909091       0.06451613       0.17500000 </v>
   <v>       0.20454545       0.06451613       0.17500000 </v>
   <v>       0.25000000       0.06451613       0.17500000 </v>
   <v>       0.29545455       0.06451613       0.17500000 </v>
   <v>       0.34090909       0.06451613       0.17500000 </v>
   <v>       0.38636364       0.06451613       0.17500000 </v>
   <v>       0.43181818       0.06451613       0.17500000 </v>
   <v>       0.47727273       0.06451613       0.17500000 </v>
   <v>       0.02272727       0.09677419       0.17500000 </v>
   <v>       0.06818182       0.09677419       0.17500000 </v>
   <v>       0.11363636       0.09677419       0.17500000 </v>
   <v>       0.15909091       0.09677419       0.17500000 </v>
   <v>       0.20454545       0.09677419       0.17500000 </v>
   <v>       0.25000000       0.09677419       0.17500000 </v>
   <v>       0.29545455       0.09677419       0.17500000 </v>
   <v>       0.34090909       0.09677419       0.17500000 </v>
   <v>       0.38636364       0.09677419       0.17500000 </v>
   <v>       0.43181818       0.09677419       0.17500000 </v>
   <v>       0.47727273       0.09677419       0.17500000 </v>
   <v>       0.02272727       0.12903226       0.17500000 </v>
   <v>       0.06818182       0.12903226       0.17500000 </v>
   <v>       0.11363636       0.12903226       0.17500000 </v>
   <v>       0.15909091       0.12903226       0.17500000 </v>
   <v>       0.20454545       0.12903226       0.17500000 </v>
   <v>       0.25000000       0.12903226       0.17500000 </v>
   <v>       0.29545455       0.12903226       0.17500000 </v>
   <v>       0.34090909       0.12903226       0.17500000 </v>
   <v>       0.38636364       0.12903226       0.17500000 </v>
   <v>       0.43181818       0.12903226       0.17500000 </v>
   <v>       0.47727273       0.12903226       0.17500000 </v>
   <v>       0.02272727       0.16129032       0.17500000 </v>
   <v>       0.06818182       0.16129032       0.17500000 </v>
   <v>       0.11363636       0.16129032       0.17500000 </v>
   <v>       0.15909091       0.16129032       0.17500000 </v>
   <v>       0.20454545       0.16129032       0.17500000 </v>
   <v>       0.25000000       0.16129032       0.17500000 </v>
   <v>       0.29545455       0.16129032       0.17500000 </v>
   <v>       0.34090909       0.16129032       0.17500000 </v>
   <v>       0.38636364       0.16129032       0.17500000 </v>
   <v>       0.43181818       0.16129032       0.17500000 </v>
   <v>       0.47727273       0.16129032       0.17500000 </v>
   <v>       0.02272727       0.19354839       0.17500000 </v>
   <v>       0.06818182       0.19354839       0.17500000 </v>
   <v>       0.11363636       0.19354839       0.17500000 </v>
   <v>       0.15909091       0.19354839       0.17500000 </v>
   <v>       0.20454545       0.19354839       0.17500000 </v>
   <v>       0.25000000       0.19354839       0.17500000 </v>
   <v>       0.29545455       0.19354839       0.17500000 </v>
   <v>       0.34090909       0.19354839       0.17500000 </v>
   <v>       0.38636364       0.19354839       0.17500000 </v>
   <v>       0.43181818       0.19354839       0.17500000 </v>
   <v>       0.47727273       0.19354839       0.17500000 </v>
   <v>       0.02272727       0.22580645       0.17500000 </v>
   <v>       0.06818182       0.22580645       0.17500000 </v>
   <v>       0.11363636       0.22580645       0.17500000 </v>
   <v>       0.15909091       0.22580645       0.17500000 </v>
   <v>       0.20454545       0.22580645       0.17500000 </v>
   <v>       0.25000000       0.22580645       0.17500000 </v>
   <v>       0.29545455       0.22580645       0.17500000 </v>
   <v>       0.34090909       0.22580645       0.17500000 </v>
   <v>       0.38636364       0.22580645       0.17500000 </v>
   <v>       0.43181818       0.22580645       0.17500000 </v>
   <v>       0.47727273       0.22580645       0.17500000 </v>
   <v>       0.02272727       0.25806452       0.17500000 </v>
   <v>       0.06818182       0.25806452       0.17500000 </v>
   <v>       0.11363636       0.25806452       0.17500000 </v>
   <v>       0.15909091       0.25806452       0.17500000 </v>
   <v>       0.20454545       0.25806452       0.17500000 </v>
   <v>       0.25000000       0.25806452       0.17500000 </v>
   <v>       0.29545455       0.25806452       0.17500000 </v>
   <v>       0.34090909       0.25806452       0.17500000 </v>
   <v>       0.38636364       0.25806452       0.17500000 </v>
   <v>       0.43181818       0.25806452       0.17500000 </v>
   <v>       0.47727273       0.25806452       0.17500000 </v>
   <v>       0.02272727       0.29032258       0.17500000 </v>
   <v>       0.06818182       0.29032258       0.17500000 </v>
   <v>       0.11363636       0.29032258       0.17500000 </v>
   <v>       0.15909091       0.29032258       0.17500000 </v>
   <v>       0.20454545       0.29032258       0.17500000 </v>
   <v>       0.25000000       0.29032258       0.17500000 </v>
   <v>       0.29545455       0.29032258       0.17500000 </v>
   <v>       0.34090909       0.29032258       0.17500000 </v>
   <v>       0.38636364       0.29032258       0.17500000 </v>
   <v>       0.43181818       0.29032258       0.17500000 </v>
   <v>       0.47727273       0.29032258       0.17500000 </v>
   <v>       0.02272727       0.32258065       0.17500000 </v>
   <v>       0.06818182       0.32258065       0.17500000 </v>
   <v>       0.11363636       0.32258065       0.17500000 </v>
   <v>       0.15909091       0.32258065       0.17500000 </v>
   <v>       0.20454545       0.32258065       0.17500000 </v>
   <v>       0.25000000       0.32258065       0.17500000 </v>
   <v>       0.29545455       0.32258065       0.17500000 </v>
   <v>       0.34090909       0.32258065       0.17500000 </v>
   <v>       0.38636364       0.32258065       0.17500000 </v>
   <v>       0.43181818       0.32258065       0.17500000 </v>
   <v>       0.47727273       0.32258065       0.17500000 </v>
   <v>       0.02272727       0.35483871       0.17500000 </v>
   <v>       0.06818182       0.35483871       0.17500000 </v>
   <v>       0.11363636       0.35483871       0.17500000 </v>
   <v>       0.15909091       0.35483871       0.17500000 </v>
   <v>       0.20454545       0.35483871       0.17500000 </v>
   <v>       0.25000000       0.35483871       0.17500000 </v>
   <v>       0.29545455       0.35483871       0.17500000 </v>
   <v>       0.34090909       0.35483871       0.17500000 </v>
   <v>       0.38636364       0.35483871       0.17500000 </v>
   <v>       0.43181818       0.35483871       0.17500000 </v>
   <v>       0.47727273       0.35483871       0.17500000 </v>
   <v>       0.02272727       0.38709677       0.17500000 </v>
   <v>       0.06818182       0.38709677       0.17500000 </v>
   <v>       0.11363636       0.38709677       0.17500000 </v>
   <v>       0.15909091       0.38709677       0.17500000 </v>
   <v>       0.20454545       0.38709677       0.17500000 </v>
   <v>       0.25000000       0.38709677       0.17500000 </v>
   <v>       0.29545455       0.38709677       0.17500000 </v>
   <v>       0.34090909       0.38709677       0.17500000 </v>
   <v>       0.38636364       0.38709677       0.17500000 </v>
   <v>       0.43181818       0.38709677       0.17500000 </v>
   <v>       0.47727273       0.38709677       0.17500000 </v>
   <v>       0.02272727       0.41935484       0.17500000 </v>
   <v>       0.06818182       0.41935484       0.17500000 </v>
   <v>       0.11363636       0.41935484       0.17500000 </v>
   <v>       0.15909091       0.41935484       0.17500000 </v>
   <v>       0.20454545       0.41935484       0.17500000 </v>
   <v>       0.25000000       0.41935484       0.17500000 </v>
   <v>       0.29545455       0.41935484       0.17500000 </v>
   <v>       0.34090909       0.41935484       0.17500000 </v>
   <v>       0.38636364       0.41935484       0.17500000 </v>
   <v>       0.43181818       0.41935484       0.17500000 </v>
   <v>       0.47727273       0.41935484       0.17500000 </v>
   <v>       0.02272727       0.45161290       0.17500000 </v>
   <v>       0.06818182       0.45161290       0.17500000 </v>
   <v>       0.11363636       0.45161290       0.17500000 </v>
   <v>       0.15909091       0.45161290       0.17500000 </v>
   <v>       0.20454545       0.45161290       0.17500000 </v>
   <v>       0.25000000       0.45161290       0.17500000 </v>
   <v>       0.29545455       0.45161290       0.17500000 </v>
   <v>       0.34090909       0.45161290       0.17500000 </v>
   <v>       0.38636364       0.45161290       0.17500000 </v>
   <v>       0.43181818       0.45161290       0.17500000 </v>
   <v>       0.47727273       0.45161290       0.17500000 </v>
   <v>       0.02272727       0.48387097       0.17500000 </v>
   <v>       0.06818182       0.48387097       0.17500000 </v>
   <v>       0.11363636       0.48387097       0.17500000 </v>
   <v>       0.15909091       0.48387097       0.17500000 </v>
   <v>       0.20454545       0.48387097       0.17500000 </v>
   <v>       0.25000000       0.48387097       0.17500000 </v>
   <v>       0.29545455       0.48387097       0.17500000 </v>
   <v>       0.34090909       0.48387097       0.17500000 </v>
   <v>       0.38636364       0.48387097       0.17500000 </v>
   <v>       0.43181818       0.48387097       0.17500000 </v>
   <v>       0.47727273       0.48387097       0.17500000 </v>
   <v>       0.02272727       0.00000000       0.22500000 </v>
   <v>       0.06818182       0.00000000       0.22500000 </v>
   <v>       0.11363636       0.00000000       0.22500000 </v>
   <v>       0.15909091       0.00000000       0.22500000 </v>
   <v>       0.20454545       0.00000000       0.22500000 </v>
   <v>       0.25000000       0.00000000       0.22500000 </v>
   <v>       0.29545455       0.00000000       0.22500000 </v>
   <v>       0.34090909       0.00000000       0.22500000 </v>
   <v>       0.38636364       0.00000000       0.22500000 </v>
   <v>       0.43181818       0.00000000       0.22500000 </v>
   <v>       0.47727273       0.00000000       0.22500000 </v>
   <v>       0.02272727       0.03225806       0.22500000 </v>
   <v>       0.06818182       0.03225806       0.22500000 </v>
   <v>       0.11363636       0.03225806       0.22500000 </v>
   <v>       0.15909091       0.03225806       0.22500000 </v>
   <v>       0.20454545       0.03225806       0.22500000 </v>
   <v>       0.25000000       0.03225806       0.22500000 </v>
   <v>       0.29545455       0.03225806       0.22500000 </v>
   <v>       0.34090909       0.03225806       0.22500000 </v>
   <v>       0.38636364       0.03225806       0.22500000 </v>
   <v>       0.43181818       0.03225806       0.22500000 </v>
   <v>       0.47727273       0.03225806       0.22500000 </v>
   <v>       0.02272727       0.06451613       0.22500000 </v>
   <v>       0.06818182       0.06451613       0.22500000 </v>
   <v>       0.11363636       0.06451613       0.22500000 </v>
   <v>       0.15909091       0.06451613       0.22500000 </v>
   <v>       0.20454545       0.06451613       0.22500000 </v>
   <v>       0.25000000       0.06451613       0.22500000 </v>
   <v>       0.29545455       0.06451613       0.22500000 </v>
   <v>       0.34090909       0.06451613       0.22500000 </v>
   <v>       0.38636364       0.06451613       0.22500000 </v>
   <v>       0.43181818       0.06451613       0.22500000 </v>
   <v>       0.47727273       0.06451613       0.22500000 </v>
   <v>       0.02272727       0.09677419       0.22500000 </v>
   <v>       0.06818182       0.09677419       0.22500000 </v>
   <v>       0.11363636       0.09677419       0.22500000 </v>
   <v>       0.15909091       0.09677419       0.22500000 </v>
   <v>       0.20454545       0.09677419       0.22500000 </v>
   <v>       0.25000000       0.09677419       0.22500000 </v>
   <v>       0.29545455       0.09677419       0.22500000 </v>
   <v>       0.34090909       0.09677419       0.22500000 </v>
   <v>       0.38636364       0.09677419       0.22500000 </v>
   <v>       0.43181818       0.09677419       0.22500000 </v>
   <v>       0.47727273       0.09677419       0.22500000 </v>
   <v>       0.02272727       0.12903226       0.22500000 </v>
   <v>       0.06818182       0.12903226       0.22500000 </v>
   <v>       0.11363636       0.12903226       0.22500000 </v>
   <v>       0.15909091       0.12903226       0.22500000 </v>
   <v>       0.20454545       0.12903226       0.22500000 </v>
   <v>       0.25000000       0.12903226       0.22500000 </v>
   <v>       0.29545455       0.12903226       0.22500000 </v>
   <v>       0.34090909       0.12903226       0.22500000 </v>
   <v>       0.38636364       0.12903226       0.22500000 </v>
   <v>       0.43181818       0.12903226       0.22500000 </v>
   <v>       0.47727273       0.12903226       0.22500000 </v>
   <v>       0.02272727       0.16129032       0.22500000 </v>
   <v>       0.06818182       0.16129032       0.22500000 </v>
   <v>       0.11363636       0.16129032       0.22500000 </v>
   <v>       0.15909091       0.16129032       0.22500000 </v>
   <v>       0.20454545       0.16129032       0.22500000 </v>
   <v>       0.25000000       0.16129032       0.22500000 </v>
   <v>       0.29545455       0.16129032       0.22500000 </v>
   <v>       0.34090909       0.16129032       0.22500000 </v>
   <v>       0.38636364       0.16129032       0.22500000 </v>
   <v>       0.43181818       0.16129032       0.22500000 </v>
   <v>       0.47727273       0.16129032       0.22500000 </v>
   <v>       0.02272727       0.19354839       0.22500000 </v>
   <v>       0.06818182       0.19354839       0.22500000 </v>
   <v>       0.11363636       0.19354839       0.22500000 </v>
   <v>       0.15909091       0.19354839       0.22500000 </v>
   <v>       0.20454545       0.19354839       0.22500000 </v>
   <v>       0.25000000       0.19354839       0.22500000 </v>
   <v>       0.29545455       0.19354839       0.22500000 </v>
   <v>       0.34090909       0.19354839       0.22500000 </v>
   <v>       0.38636364       0.19354839       0.22500000 </v>
   <v>       0.43181818       0.19354839       0.22500000 </v>
   <v>       0.47727273       0.19354839       0.22500000 </v>
   <v>       0.02272727       0.22580645       0.22500000 </v>
   <v>       0.06818182       0.22580645       0.22500000 </v>
   <v>       0.11363636       0.22580645       0.22500000 </v>
   <v>       0.15909091       0.22580645       0.22500000 </v>
   <v>       0.20454545       0.22580645       0.22500000 </v>
   <v>       0.25000000       0.22580645       0.22500000 </v>
   <v>       0.29545455       0.22580645       0.22500000 </v>
   <v>       0.34090909       0.22580645       0.22500000 </v>
   <v>       0.38636364       0.22580645       0.22500000 </v>
   <v>       0.43181818       0.22580645       0.22500000 </v>
   <v>       0.47727273       0.22580645       0.22500000 </v>
   <v>       0.02272727       0.25806452       0.22500000 </v>
   <v>       0.06818182       0.25806452       0.22500000 </v>
   <v>       0.11363636       0.25806452       0.22500000 </v>
   <v>       0.15909091       0.25806452       0.22500000 </v>
   <v>       0.20454545       0.25806452       0.22500000 </v>
   <v>       0.25000000       0.25806452       0.22500000 </v>
   <v>       0.29545455       0.25806452       0.22500000 </v>
   <v>       0.34090909       0.25806452       0.22500000 </v>
   <v>       0.38636364       0.25806452       0.22500000 </v>
   <v>       0.43181818       0.25806452       0.22500000 </v>
   <v>       0.47727273       0.25806452       0.22500000 </v>
   <v>       0.02272727       0.29032258       0.22500000 </v>
   <v>       0.06818182       0.29032258       0.22500000 </v>
   <v>       0.11363636       0.29032258       0.22500000 </v>
   <v>       0.15909091       0.29032258       0.22500000 </v>
   <v>       0.20454545       0.29032258       0.22500000 </v>
   <v>       0.25000000       0.29032258       0.22500000 </v>
   <v>       0.29545455       0.29032258       0.22500000 </v>
   <v>       0.34090909       0.29032258       0.22500000 </v>
   <v>       0.38636364       0.29032258       0.22500000 </v>
   <v>       0.43181818       0.29032258       0.22500000 </v>
   <v>       0.47727273       0.29032258       0.22500000 </v>
   <v>       0.02272727       0.32258065       0.22500000 </v>
   <v>       0.06818182       0.32258065       0.22500000 </v>
   <v>       0.11363636       0.32258065       0.22500000 </v>
   <v>       0.15909091       0.32258065       0.22500000 </v>
   <v>       0.20454545       0.32258065       0.22500000 </v>
   <v>       0.25000000       0.32258065       0.22500000 </v>
   <v>       0.29545455       0.32258065       0.22500000 </v>
   <v>       0.34090909       0.32258065       0.22500000 </v>
   <v>       0.38636364       0.32258065       0.22500000 </v>
   <v>       0.43181818       0.32258065       0.22500000 </v>
   <v>       0.47727273       0.32258065       0.22500000 </v>
   <v>       0.02272727       0.35483871       0.22500000 </v>
   <v>       0.06818182       0.35483871       0.22500000 </v>
   <v>       0.11363636       0.35483871       0.22500000 </v>
   <v>       0.15909091       0.35483871       0.22500000 </v>
   <v>       0.20454545       0.35483871       0.22500000 </v>
   <v>       0.25000000       0.35483871       0.22500000 </v>
   <v>       0.29545455       0.35483871       0.22500000 </v>
   <v>       0.34090909       0.35483871       0.22500000 </v>
   <v>       0.38636364       0.35483871       0.22500000 </v>
   <v>       0.43181818       0.35483871       0.22500000 </v>
   <v>       0.47727273       0.35483871       0.22500000 </v>
   <v>       0.02272727       0.38709677       0.22500000 </v>
   <v>       0.06818182       0.38709677       0.22500000 </v>
   <v>       0.11363636       0.38709677       0.22500000 </v>
   <v>       0.15909091       0.38709677       0.22500000 </v>
   <v>       0.20454545       0.38709677       0.22500000 </v>
   <v>       0.25000000       0.38709677       0.22500000 </v>
   <v>       0.29545455       0.38709677       0.22500000 </v>
   <v>       0.34090909       0.38709677       0.22500000 </v>
   <v>       0.38636364       0.38709677       0.22500000 </v>
   <v>       0.43181818       0.38709677       0.22500000 </v>
   <v>       0.47727273       0.38709677       0.22500000 </v>
   <v>       0.02272727       0.41935484       0.22500000 </v>
   <v>       0.06818182       0.41935484       0.22500000 </v>
   <v>       0.11363636       0.41935484       0.22500000 </v>
   <v>       0.15909091       0.41935484       0.22500000 </v>
   <v>       0.20454545       0.41935484       0.22500000 </v>
   <v>       0.25000000       0.41935484       0.22500000 </v>
   <v>       0.29545455       0.41935484       0.22500000 </v>
   <v>       0.34090909       0.41935484       0.22500000 </v>
   <v>       0.38636364       0.41935484       0.22500000 </v>
   <v>       0.43181818       0.41935484       0.22500000 </v>
   <v>       0.47727273       0.41935484       0.22500000 </v>
   <v>       0.02272727       0.45161290       0.22500000 </v>
   <v>       0.06818182       0.45161290       0.22500000 </v>
   <v>       0.11363636       0.45161290       0.22500000 </v>
   <v>       0.15909091       0.45161290       0.22500000 </v>
   <v>       0.20454545       0.45161290       0.22500000 </v>
   <v>       0.25000000       0.45161290       0.22500000 </v>
   <v>       0.29545455       0.45161290       0.22500000 </v>
   <v>       0.34090909       0.45161290       0.22500000 </v>
   <v>       0.38636364       0.45161290       0.22500000 </v>
   <v>       0.43181818       0.45161290       0.22500000 </v>
   <v>       0.47727273       0.45161290       0.22500000 </v>
   <v>       0.02272727       0.48387097       0.22500000 </v>
   <v>       0.06818182       0.48387097       0.22500000 </v>
   <v>       0.11363636       0.48387097       0.22500000 </v>
   <v>       0.15909091       0.48387097       0.22500000 </v>
   <v>       0.20454545       0.48387097       0.22500000 </v>
   <v>       0.25000000       0.48387097       0.22500000 </v>
   <v>       0.29545455       0.48387097       0.22500000 </v>
   <v>       0.34090909       0.48387097       0.22500000 </v>
   <v>       0.38636364       0.48387097       0.22500000 </v>
   <v>       0.43181818       0.48387097       0.22500000 </v>
   <v>       0.47727273       0.48387097       0.22500000 </v>
   <v>       0.02272727       0.00000000       0.27500000 </v>
   <v>       0.06818182       0.00000000       0.27500000 </v>
   <v>       0.11363636       0.00000000       0.27500000 </v>
   <v>       0.15909091       0.00000000       0.27500000 </v>
   <v>       0.20454545       0.00000000       0.27500000 </v>
   <v>       0.25000000       0.00000000       0.27500000 </v>
   <v>       0.29545455       0.00000000       0.27500000 </v>
   <v>       0.34090909       0.00000000       0.27500000 </v>
   <v>       0.38636364       0.00000000       0.27500000 </v>
   <v>       0.43181818       0.00000000       0.27500000 </v>
   <v>       0.47727273       0.00000000       0.27500000 </v>
   <v>       0.02272727       0.03225806       0.27500000 </v>
   <v>       0.06818182       0.03225806       0.27500000 </v>
   <v>       0.11363636       0.03225806       0.27500000 </v>
   <v>       0.15909091       0.03225806       0.27500000 </v>
   <v>       0.20454545       0.03225806       0.27500000 </v>
   <v>       0.25000000       0.03225806       0.27500000 </v>
   <v>       0.29545455       0.03225806       0.27500000 </v>
   <v>       0.34090909       0.03225806       0.27500000 </v>
   <v>       0.38636364       0.03225806       0.27500000 </v>
   <v>       0.43181818       0.03225806       0.27500000 </v>
   <v>       0.47727273       0.03225806       0.27500000 </v>
   <v>       0.02272727       0.06451613       0.27500000 </v>
   <v>       0.06818182       0.06451613       0.27500000 </v>
   <v>       0.11363636       0.06451613       0.27500000 </v>
   <v>       0.15909091       0.06451613       0.27500000 </v>
   <v>       0.20454545       0.06451613       0.27500000 </v>
   <v>       0.25000000       0.06451613       0.27500000 </v>
   <v>       0.29545455       0.06451613       0.27500000 </v>
   <v>       0.34090909       0.06451613       0.27500000 </v>
   <v>       0.38636364       0.06451613       0.27500000 </v>
   <v>       0.43181818       0.06451613       0.27500000 </v>
   <v>       0.47727273       0.06451613       0.27500000 </v>
   <v>       0.02272727       0.09677419       0.27500000 </v>
   <v>       0.06818182       0.09677419       0.27500000 </v>
   <v>       0.11363636       0.09677419       0.27500000 </v>
   <v>       0.15909091       0.09677419       0.27500000 </v>
   <v>       0.20454545       0.09677419       0.27500000 </v>
   <v>       0.25000000       0.09677419       0.27500000 </v>
   <v>       0.29545455       0.09677419       0.27500000 </v>
   <v>       0.34090909       0.09677419       0.27500000 </v>
   <v>       0.38636364       0.09677419       0.27500000 </v>
   <v>       0.43181818       0.09677419       0.27500000 </v>
   <v>       0.47727273       0.09677419       0.27500000 </v>
   <v>       0.02272727       0.12903226       0.27500000 </v>
   <v>       0.06818182       0.12903226       0.27500000 </v>
   <v>       0.11363636       0.12903226       0.27500000 </v>
   <v>       0.15909091       0.12903226       0.27500000 </v>
   <v>       0.20454545       0.12903226       0.27500000 </v>
   <v>       0.25000000       0.12903226       0.27500000 </v>
   <v>       0.29545455       0.12903226       0.27500000 </v>
   <v>       0.34090909       0.12903226       0.27500000 </v>
   <v>       0.38636364       0.12903226       0.27500000 </v>
   <v>       0.43181818       0.12903226       0.27500000 </v>
   <v>       0.47727273       0.12903226       0.27500000 </v>
   <v>       0.02272727       0.16129032       0.27500000 </v>
   <v>       0.06818182       0.16129032       0.27500000 </v>
   <v>       0.11363636       0.16129032       0.27500000 </v>
   <v>       0.15909091       0.16129032       0.27500000 </v>
   <v>       0.20454545       0.16129032       0.27500000 </v>
   <v>       0.25000000       0.16129032       0.27500000 </v>
   <v>       0.29545455       0.16129032       0.27500000 </v>
   <v>       0.34090909       0.16129032       0.27500000 </v>
   <v>       0.38636364       0.16129032       0.27500000 </v>
   <v>       0.43181818       0.16129032       0.27500000 </v>
   <v>       0.47727273       0.16129032       0.27500000 </v>
   <v>       0.02272727       0.19354839       0.27500000 </v>
   <v>       0.06818182       0.19354839       0.27500000 </v>
   <v>       0.11363636       0.19354839       0.27500000 </v>
   <v>       0.15909091       0.19354839       0.27500000 </v>
   <v>       0.20454545       0.19354839       0.27500000 </v>
   <v>       0.25000000       0.19354839       0.27500000 </v>
   <v>       0.29545455       0.19354839       0.27500000 </v>
   <v>       0.34090909       0.19354839       0.27500000 </v>
   <v>       0.38636364       0.19354839       0.27500000 </v>
   <v>       0.43181818       0.19354839       0.27500000 </v>
   <v>       0.47727273       0.19354839       0.27500000 </v>
   <v>       0.02272727       0.22580645       0.27500000 </v>
   <v>       0.06818182       0.22580645       0.27500000 </v>
   <v>       0.11363636       0.22580645       0.27500000 </v>
   <v>       0.15909091       0.22580645       0.27500000 </v>
   <v>       0.20454545       0.22580645       0.27500000 </v>
   <v>       0.25000000       0.22580645       0.27500000 </v>
   <v>       0.29545455       0.22580645       0.27500000 </v>
   <v>       0.34090909       0.22580645       0.27500000 </v>
   <v>       0.38636364       0.22580645       0.27500000 </v>
   <v>       0.43181818       0.22580645       0.27500000 </v>
   <v>       0.47727273       0.22580645       0.27500000 </v>
   <v>       0.02272727       0.25806452       0.27500000 </v>
   <v>       0.06818182       0.25806452       0.27500000 </v>
   <v>       0.11363636       0.25806452       0.27500000 </v>
   <v>       0.15909091       0.25806452       0.27500000 </v>
   <v>       0.20454545       0.25806452       0.27500000 </v>
   <v>       0.25000000       0.25806452       0.27500000 </v>
   <v>       0.29545455       0.25806452       0.27500000 </v>
   <v>       0.34090909       0.25806452       0.27500000 </v>
   <v>       0.38636364       0.25806452       0.27500000 </v>
   <v>       0.43181818       0.25806452       0.27500000 </v>
   <v>       0.47727273       0.25806452       0.27500000 </v>
   <v>       0.02272727       0.29032258       0.27500000 </v>
   <v>       0.06818182       0.29032258       0.27500000 </v>
   <v>       0.11363636       0.29032258       0.27500000 </v>
   <v>       0.15909091       0.29032258       0.27500000 </v>
   <v>       0.20454545       0.29032258       0.27500000 </v>
   <v>       0.25000000       0.29032258       0.27500000 </v>
   <v>       0.29545455       0.29032258       0.27500000 </v>
   <v>       0.34090909       0.29032258       0.27500000 </v>
   <v>       0.38636364       0.29032258       0.27500000 </v>
   <v>       0.43181818       0.29032258       0.27500000 </v>
   <v>       0.47727273       0.29032258       0.27500000 </v>
   <v>       0.02272727       0.32258065       0.27500000 </v>
   <v>       0.06818182       0.32258065       0.27500000 </v>
   <v>       0.11363636       0.32258065       0.27500000 </v>
   <v>       0.15909091       0.32258065       0.27500000 </v>
   <v>       0.20454545       0.32258065       0.27500000 </v>
   <v>       0.25000000       0.32258065       0.27500000 </v>
   <v>       0.29545455       0.32258065       0.27500000 </v>
   <v>       0.34090909       0.32258065       0.27500000 </v>
   <v>       0.38636364       0.32258065       0.27500000 </v>
   <v>       0.43181818       0.32258065       0.27500000 </v>
   <v>       0.47727273       0.32258065       0.27500000 </v>
   <v>       0.02272727       0.35483871       0.27500000 </v>
   <v>       0.06818182       0.35483871       0.27500000 </v>
   <v>       0.11363636       0.35483871       0.27500000 </v>
   <v>       0.15909091       0.35483871       0.27500000 </v>
   <v>       0.20454545       0.35483871       0.27500000 </v>
   <v>       0.25000000       0.35483871       0.27500000 </v>
   <v>       0.29545455       0.35483871       0.27500000 </v>
   <v>       0.34090909       0.35483871       0.27500000 </v>
   <v>       0.38636364       0.35483871       0.27500000 </v>
   <v>       0.43181818       0.35483871       0.27500000 </v>
   <v>       0.47727273       0.35483871       0.27500000 </v>
   <v>       0.02272727       0.38709677       0.27500000 </v>
   <v>       0.06818182       0.38709677       0.27500000 </v>
   <v>       0.11363636       0.38709677       0.27500000 </v>
   <v>       0.15909091       0.38709677       0.27500000 </v>
   <v>       0.20454545       0.38709677       0.27500000 </v>
   <v>       0.25000000       0.38709677       0.27500000 </v>
   <v>       0.29545455       0.38709677       0.27500000 </v>
   <v>       0.34090909       0.38709677       0.27500000 </v>
   <v>       0.38636364       0.38709677       0.27500000 </v>
   <v>       0.43181818       0.38709677       0.27500000 </v>
   <v>       0.47727273       0.38709677       0.27500000 </v>
   <v>       0.02272727       0.41935484       0.27500000 </v>
   <v>       0.06818182       0.41935484       0.27500000 </v>
   <v>       0.11363636       0.41935484       0.27500000 </v>
   <v>       0.15909091       0.41935484       0.27500000 </v>
   <v>       0.20454545       0.41935484       0.27500000 </v>
   <v>       0.25000000       0.41935484       0.27500000 </v>
   <v>       0.29545455       0.41935484       0.27500000 </v>
   <v>       0.34090909       0.41935484       0.27500000 </v>
   <v>       0.38636364       0.41935484       0.27500000 </v>
   <v>       0.43181818       0.41935484       0.27500000 </v>
   <v>       0.47727273       0.41935484       0.27500000 </v>
   <v>       0.02272727       0.45161290       0.27500000 </v>
   <v>       0.06818182       0.45161290       0.27500000 </v>
   <v>       0.11363636       0.45161290       0.27500000 </v>
   <v>       0.15909091       0.45161290       0.27500000 </v>
   <v>       0.20454545       0.45161290       0.27500000 </v>
   <v>       0.25000000       0.45161290       0.27500000 </v>
   <v>       0.29545455       0.45161290       0.27500000 </v>
   <v>       0.34090909       0.45161290       0.27500000 </v>
   <v>       0.38636364       0.45161290       0.27500000 </v>
   <v>       0.43181818       0.45161290       0.27500000 </v>
   <v>       0.47727273       0.45161290       0.27500000 </v>
   <v>       0.02272727       0.48387097       0.27500000 </v>
   <v>       0.06818182       0.48387097       0.27500000 </v>
   <v>       0.11363636       0.48387097       0.27500000 </v>
   <v>       0.15909091       0.48387097       0.27500000 </v>
   <v>       0.20454545       0.48387097       0.27500000 </v>
   <v>       0.25000000       0.48387097       0.27500000 </v>
   <v>       0.29545455       0.48387097       0.27500000 </v>
   <v>       0.34090909       0.48387097       0.27500000 </v>
   <v>       0.38636364       0.48387097       0.27500000 </v>
   <v>       0.43181818       0.48387097       0.27500000 </v>
   <v>       0.47727273       0.48387097       0.27500000 </v>
   <v>       0.02272727       0.00000000       0.32500000 </v>
   <v>       0.06818182       0.00000000       0.32500000 </v>
   <v>       0.11363636       0.00000000       0.32500000 </v>
   <v>       0.15909091       0.00000000       0.32500000 </v>
   <v>       0.20454545       0.00000000       0.32500000 </v>
   <v>       0.25000000       0.00000000       0.32500000 </v>
   <v>       0.29545455       0.00000000       0.32500000 </v>
   <v>       0.34090909       0.00000000       0.32500000 </v>
   <v>       0.38636364       0.00000000       0.32500000 </v>
   <v>       0.43181818       0.00000000       0.32500000 </v>
   <v>       0.47727273       0.00000000       0.32500000 </v>
   <v>       0.02272727       0.03225806       0.32500000 </v>
   <v>       0.06818182       0.03225806       0.32500000 </v>
   <v>       0.11363636       0.03225806       0.32500000 </v>
   <v>       0.15909091       0.03225806       0.32500000 </v>
   <v>       0.20454545       0.03225806       0.32500000 </v>
   <v>       0.25000000       0.03225806       0.32500000 </v>
   <v>       0.29545455       0.03225806       0.32500000 </v>
   <v>       0.34090909       0.03225806       0.32500000 </v>
   <v>       0.38636364       0.03225806       0.32500000 </v>
   <v>       0.43181818       0.03225806       0.32500000 </v>
   <v>       0.47727273       0.03225806       0.32500000 </v>
   <v>       0.02272727       0.06451613       0.32500000 </v>
   <v>       0.06818182       0.06451613       0.32500000 </v>
   <v>       0.11363636       0.06451613       0.32500000 </v>
   <v>       0.15909091       0.06451613       0.32500000 </v>
   <v>       0.20454545       0.06451613       0.32500000 </v>
   <v>       0.25000000       0.06451613       0.32500000 </v>
   <v>       0.29545455       0.06451613       0.32500000 </v>
   <v>       0.34090909       0.06451613       0.32500000 </v>
   <v>       0.38636364       0.06451613       0.32500000 </v>
   <v>       0.43181818       0.06451613       0.32500000 </v>
   <v>       0.47727273       0.06451613       0.32500000 </v>
   <v>       0.02272727       0.09677419       0.32500000 </v>
   <v>       0.06818182       0.09677419       0.32500000 </v>
   <v>       0.11363636       0.09677419       0.32500000 </v>
   <v>       0.15909091       0.09677419       0.32500000 </v>
   <v>       0.20454545       0.09677419       0.32500000 </v>
   <v>       0.25000000       0.09677419       0.32500000 </v>
   <v>       0.29545455       0.09677419       0.32500000 </v>
   <v>       0.34090909       0.09677419       0.32500000 </v>
   <v>       0.38636364       0.09677419       0.32500000 </v>
   <v>       0.43181818       0.09677419       0.32500000 </v>
   <v>       0.47727273       0.09677419       0.32500000 </v>
   <v>       0.02272727       0.12903226       0.32500000 </v>
   <v>       0.06818182       0.12903226       0.32500000 </v>
   <v>       0.11363636       0.12903226       0.32500000 </v>
   <v>       0.15909091       0.12903226       0.32500000 </v>
   <v>       0.20454545       0.12903226       0.32500000 </v>
   <v>       0.25000000       0.12903226       0.32500000 </v>
   <v>       0.29545455       0.12903226       0.32500000 </v>
   <v>       0.34090909       0.12903226       0.32500000 </v>
   <v>       0.38636364       0.12903226       0.32500000 </v>
   <v>       0.43181818       0.12903226       0.32500000 </v>
   <v>       0.47727273       0.12903226       0.32500000 </v>
   <v>       0.02272727       0.16129032       0.32500000 </v>
   <v>       0.06818182       0.16129032       0.32500000 </v>
   <v>       0.11363636       0.16129032       0.32500000 </v>
   <v>       0.15909091       0.16129032       0.32500000 </v>
   <v>       0.20454545       0.16129032       0.32500000 </v>
   <v>       0.25000000       0.16129032       0.32500000 </v>
   <v>       0.29545455       0.16129032       0.32500000 </v>
   <v>       0.34090909       0.16129032       0.32500000 </v>
   <v>       0.38636364       0.16129032       0.32500000 </v>
   <v>       0.43181818       0.16129032       0.32500000 </v>
   <v>       0.47727273       0.16129032       0.32500000 </v>
   <v>       0.02272727       0.19354839       0.32500000 </v>
   <v>       0.06818182       0.19354839       0.32500000 </v>
   <v>       0.11363636       0.19354839       0.32500000 </v>
   <v>       0.15909091       0.19354839       0.32500000 </v>
   <v>       0.20454545       0.19354839       0.32500000 </v>
   <v>       0.25000000       0.19354839       0.32500000 </v>
   <v>       0.29545455       0.19354839       0.32500000 </v>
   <v>       0.34090909       0.19354839       0.32500000 </v>
   <v>       0.38636364       0.19354839       0.32500000 </v>
   <v>       0.43181818       0.19354839       0.32500000 </v>
   <v>       0.47727273       0.19354839       0.32500000 </v>
   <v>       0.02272727       0.22580645       0.32500000 </v>
   <v>       0.06818182       0.22580645       0.32500000 </v>
   <v>       0.11363636       0.22580645       0.32500000 </v>
   <v>       0.15909091       0.22580645       0.32500000 </v>
   <v>       0.20454545       0.22580645       0.32500000 </v>
   <v>       0.25000000       0.22580645       0.32500000 </v>
   <v>       0.29545455       0.22580645       0.32500000 </v>
   <v>       0.34090909       0.22580645       0.32500000 </v>
   <v>       0.38636364       0.22580645       0.32500000 </v>
   <v>       0.43181818       0.22580645       0.32500000 </v>
   <v>       0.47727273       0.22580645       0.32500000 </v>
   <v>       0.02272727       0.25806452       0.32500000 </v>
   <v>       0.06818182       0.25806452       0.32500000 </v>
   <v>       0.11363636       0.25806452       0.32500000 </v>
   <v>       0.15909091       0.25806452       0.32500000 </v>
   <v>       0.20454545       0.25806452       0.32500000 </v>
   <v>       0.25000000       0.25806452       0.32500000 </v>
   <v>       0.29545455       0.25806452       0.32500000 </v>
   <v>       0.34090909       0.25806452       0.32500000 </v>
   <v>       0.38636364       0.25806452       0.32500000 </v>
   <v>       0.43181818       0.25806452       0.32500000 </v>
   <v>       0.47727273       0.25806452       0.32500000 </v>
   <v>       0.02272727       0.29032258       0.32500000 </v>
   <v>       0.06818182       0.29032258       0.32500000 </v>
   <v>       0.11363636       0.29032258       0.32500000 </v>
   <v>       0.15909091       0.29032258       0.32500000 </v>
   <v>       0.20454545       0.29032258       0.32500000 </v>
   <v>       0.25000000       0.29032258       0.32500000 </v>
   <v>       0.29545455       0.29032258       0.32500000 </v>
   <v>       0.34090909       0.29032258       0.32500000 </v>
   <v>       0.38636364       0.29032258       0.32500000 </v>
   <v>       0.43181818       0.29032258       0.32500000 </v>
   <v>       0.47727273       0.29032258       0.32500000 </v>
   <v>       0.02272727       0.32258065       0.32500000 </v>
   <v>       0.06818182       0.32258065       0.32500000 </v>
   <v>       0.11363636       0.32258065       0.32500000 </v>
   <v>       0.15909091       0.32258065       0.32500000 </v>
   <v>       0.20454545       0.32258065       0.32500000 </v>
   <v>       0.25000000       0.32258065       0.32500000 </v>
   <v>       0.29545455       0.32258065       0.32500000 </v>
   <v>       0.34090909       0.32258065       0.32500000 </v>
   <v>       0.38636364       0.32258065       0.32500000 </v>
   <v>       0.43181818       0.32258065       0.32500000 </v>
   <v>       0.47727273       0.32258065       0.32500000 </v>
   <v>       0.02272727       0.35483871       0.32500000 </v>
   <v>       0.06818182       0.35483871       0.32500000 </v>
   <v>       0.11363636       0.35483871       0.32500000 </v>
   <v>       0.15909091       0.35483871       0.32500000 </v>
   <v>       0.20454545       0.35483871       0.32500000 </v>
   <v>       0.25000000       0.35483871       0.32500000 </v>
   <v>       0.29545455       0.35483871       0.32500000 </v>
   <v>       0.34090909       0.35483871       0.32500000 </v>
   <v>       0.38636364       0.35483871       0.32500000 </v>
   <v>       0.43181818       0.35483871       0.32500000 </v>
   <v>       0.47727273       0.35483871       0.32500000 </v>
   <v>       0.02272727       0.38709677       0.32500000 </v>
   <v>       0.06818182       0.38709677       0.32500000 </v>
   <v>       0.11363636       0.38709677       0.32500000 </v>
   <v>       0.15909091       0.38709677       0.32500000 </v>
   <v>       0.20454545       0.38709677       0.32500000 </v>
   <v>       0.25000000       0.38709677       0.32500000 </v>
   <v>       0.29545455       0.38709677       0.32500000 </v>
   <v>       0.34090909       0.38709677       0.32500000 </v>
   <v>       0.38636364       0.38709677       0.32500000 </v>
   <v>       0.43181818       0.38709677       0.32500000 </v>
   <v>       0.47727273       0.38709677       0.32500000 </v>
   <v>       0.02272727       0.41935484       0.32500000 </v>
   <v>       0.06818182       0.41935484       0.32500000 </v>
   <v>       0.11363636       0.41935484       0.32500000 </v>
   <v>       0.15909091       0.41935484       0.32500000 </v>
   <v>       0.20454545       0.41935484       0.32500000 </v>
   <v>       0.25000000       0.41935484       0.32500000 </v>
   <v>       0.29545455       0.41935484       0.32500000 </v>
   <v>       0.34090909       0.41935484       0.32500000 </v>
   <v>       0.38636364       0.41935484       0.32500000 </v>
[...]
       <r>   -2.2143    1.0000 </r>
       <r>   -2.1430    1.0000 </r>
       <r>   -2.1050    1.0000 </r>
       <r>   -1.7236    1.0000 </r>
       <r>   -0.3270    1.0000 </r>
       <r>   -0.0030    1.0000 </r>
       <r>    0.3862    1.0000 </r>
       <r>    0.4533    1.0000 </r>
       <r>    0.5406    1.0000 </r>
       <r>    0.9789    1.0000 </r>
       <r>    1.6509    1.0000 </r>
       <r>    1.7680    0.9997 </r>
       <r>    5.7994    0.0000 </r>
       <r>    6.0686    0.0000 </r>
       <r>    6.7805    0.0000 </r>
       <r>    7.4072    0.0000 </r>
       <r>    7.5685    0.0000 </r>
       <r>    7.6152    0.0000 </r>
       <r>    9.3647    0.0000 </r>
       <r>    9.6802    0.0000 </r>
       <r>    9.7426    0.0000 </r>
       <r>    9.9400    0.0000 </r>
       <r>   10.4903    0.0000 </r>
       <r>   10.8787    0.0000 </r>
       <r>   11.1691    0.0000 </r>
       <r>   11.4659    0.0000 </r>
       <r>   11.5208    0.0000 </r>
       <r>   11.6053    0.0000 </r>
       <r>   13.0518    0.0000 </r>
       <r>   13.2101    0.0000 </r>
       <r>   13.6674    0.0000 </r>
       <r>   14.1505    0.0000 </r>
       <r>   14.2512    0.0000 </r>
       <r>   14.3592    0.0000 </r>
       <r>   14.5231    0.0000 </r>
       <r>   14.7934    0.0000 </r>
       <r>   14.9878    0.0000 </r>
       <r>   15.0957    0.0000 </r>
      </set>
      <set comment="kpoint 1760">
       <r>  -11.9796    1.0000 </r>
       <r>  -11.9166    1.0000 </r>
       <r>   -8.5252    1.0000 </r>
       <r>   -8.4741    1.0000 </r>
       <r>   -5.9079    1.0000 </r>
       <r>   -5.8608    1.0000 </r>
       <r>   -4.6670    1.0000 </r>
       <r>   -4.5471    1.0000 </r>
       <r>   -4.4035    1.0000 </r>
       <r>   -4.2179    1.0000 </r>
       <r>   -2.2121    1.0000 </r>
       <r>   -2.1880    1.0000 </r>
       <r>   -1.9841    1.0000 </r>
       <r>   -1.8560    1.0000 </r>
       <r>   -0.1113    1.0000 </r>
       <r>    0.0040    1.0000 </r>
       <r>    0.4445    1.0000 </r>
       <r>    0.4680    1.0000 </r>
       <r>    0.5859    1.0000 </r>
       <r>    0.7250    1.0000 </r>
       <r>    1.6725    1.0000 </r>
       <r>    1.7128    1.0000 </r>
       <r>    5.9112    0.0000 </r>
       <r>    5.9959    0.0000 </r>
       <r>    6.9997    0.0000 </r>
       <r>    7.2847    0.0000 </r>
       <r>    7.4580    0.0000 </r>
       <r>    7.5089    0.0000 </r>
       <r>    9.5214    0.0000 </r>
       <r>    9.6414    0.0000 </r>
       <r>    9.8968    0.0000 </r>
       <r>    9.9673    0.0000 </r>
       <r>   10.4989    0.0000 </r>
       <r>   10.6598    0.0000 </r>
       <r>   11.2947    0.0000 </r>
       <r>   11.4393    0.0000 </r>
       <r>   11.4851    0.0000 </r>
       <r>   11.5086    0.0000 </r>
       <r>   13.1360    0.0000 </r>
       <r>   13.1791    0.0000 </r>
       <r>   13.9305    0.0000 </r>
       <r>   14.1618    0.0000 </r>
       <r>   14.2641    0.0000 </r>
       <r>   14.3055    0.0000 </r>
       <r>   14.6959    0.0000 </r>
       <r>   14.7722    0.0000 </r>
       <r>   14.8205    0.0000 </r>
       <r>   14.9367    0.0000 </r>
      </set>
     </set>
    </set>
   </array>
  </eigenvalues>
  <separator name="orbital magnetization" >
   <v name="MAGDIPOLOUT">      0.00000000      0.00000000      0.00000000</v>
  </separator>
  <dos>
   <i name="efermi">      1.88906628 </i>
   <total>
    <array>
     <dimension dim="1">gridpoints</dimension>
     <dimension dim="2">spin</dimension>
     <field>energy</field>
     <field>total</field>
     <field>integrated</field>
     <set>
      <set comment="spin 1">
       <r>   -14.1962     0.0000     0.0000 </r>
       <r>   -14.0888     0.0000     0.0000 </r>
       <r>   -13.9814     0.0000     0.0000 </r>
       <r>   -13.8740     0.0000     0.0000 </r>
       <r>   -13.7666     0.0000     0.0000 </r>
       <r>   -13.6592     0.0000     0.0000 </r>
       <r>   -13.5518     0.0000     0.0000 </r>
       <r>   -13.4444     0.0000     0.0000 </r>
       <r>   -13.3371     0.0000     0.0000 </r>
       <r>   -13.2297     0.0000     0.0000 </r>
       <r>   -13.1223     0.0000     0.0000 </r>
       <r>   -13.0149     0.0000     0.0000 </r>
       <r>   -12.9075     0.0000     0.0000 </r>
       <r>   -12.8001     0.0022     0.0002 </r>
       <r>   -12.6927     0.4255     0.0459 </r>
       <r>   -12.5853     2.2769     0.2905 </r>
       <r>   -12.4779     3.5235     0.6689 </r>
       <r>   -12.3705     4.3433     1.1353 </r>
       <r>   -12.2631     3.5610     1.5178 </r>
       <r>   -12.1557     2.8672     1.8257 </r>
       <r>   -12.0483     2.6315     2.1083 </r>
       <r>   -11.9409     2.5901     2.3865 </r>
       <r>   -11.8335     2.7415     2.6809 </r>
       <r>   -11.7261     3.3209     3.0376 </r>
       <r>   -11.6187     3.6228     3.4266 </r>
       <r>   -11.5113     3.1294     3.7627 </r>
       <r>   -11.4039     1.7338     3.9489 </r>
       <r>   -11.2965     0.4660     3.9990 </r>
       <r>   -11.1891     0.0095     4.0000 </r>
       <r>   -11.0817     0.0000     4.0000 </r>
       <r>   -10.9743     0.0000     4.0000 </r>
       <r>   -10.8669     0.0000     4.0000 </r>
       <r>   -10.7595     0.0000     4.0000 </r>
       <r>   -10.6521     0.0000     4.0000 </r>
       <r>   -10.5447     0.0000     4.0000 </r>
       <r>   -10.4373     0.0000     4.0000 </r>
       <r>   -10.3299     0.0000     4.0000 </r>
       <r>   -10.2225     0.0000     4.0000 </r>
       <r>   -10.1151     0.0000     4.0000 </r>
       <r>   -10.0077     0.0000     4.0000 </r>
       <r>    -9.9003     0.0000     4.0000 </r>
       <r>    -9.7929     0.0000     4.0000 </r>
       <r>    -9.6855     0.0000     4.0000 </r>
       <r>    -9.5782     0.0000     4.0000 </r>
       <r>    -9.4708     0.0000     4.0000 </r>
       <r>    -9.3634     0.0000     4.0000 </r>
       <r>    -9.2560     0.0000     4.0000 </r>
       <r>    -9.1486     0.0000     4.0000 </r>
       <r>    -9.0412     0.0000     4.0000 </r>
       <r>    -8.9338     0.0006     4.0001 </r>
       <r>    -8.8264     0.2798     4.0301 </r>
       <r>    -8.7190     2.1092     4.2566 </r>
       <r>    -8.6116     5.3303     4.8291 </r>
       <r>    -8.5042     7.0105     5.5820 </r>
       <r>    -8.3968     6.2528     6.2535 </r>
       <r>    -8.2894     5.3053     6.8233 </r>
       <r>    -8.1820     4.8779     7.3472 </r>
       <r>    -8.0746     3.7974     7.7550 </r>
       <r>    -7.9672     1.6670     7.9340 </r>
       <r>    -7.8598     0.5676     7.9950 </r>
       <r>    -7.7524     0.0466     8.0000 </r>
       <r>    -7.6450     0.0000     8.0000 </r>
       <r>    -7.5376     0.0000     8.0000 </r>
       <r>    -7.4302     0.0000     8.0000 </r>
       <r>    -7.3228     0.0000     8.0000 </r>
       <r>    -7.2154     0.0000     8.0000 </r>
       <r>    -7.1080     0.0000     8.0000 </r>
       <r>    -7.0006     0.0033     8.0004 </r>
       <r>    -6.8932     0.1026     8.0114 </r>
       <r>    -6.7858     0.2809     8.0415 </r>
       <r>    -6.6784     0.4696     8.0920 </r>
       <r>    -6.5710     0.7011     8.1673 </r>
       <r>    -6.4636     0.8782     8.2616 </r>
       <r>    -6.3562     1.4589     8.4183 </r>
       <r>    -6.2488     2.0684     8.6404 </r>
       <r>    -6.1414     3.0075     8.9634 </r>
       <r>    -6.0340     3.8707     9.3791 </r>
       <r>    -5.9266     4.0765     9.8169 </r>
       <r>    -5.8192     3.9240    10.2383 </r>
       <r>    -5.7119     4.1450    10.6835 </r>
       <r>    -5.6045     4.0285    11.1161 </r>
       <r>    -5.4971     4.0701    11.5533 </r>
       <r>    -5.3897     4.4761    12.0340 </r>
       <r>    -5.2823     4.7655    12.5458 </r>
       <r>    -5.1749     4.4145    13.0199 </r>
       <r>    -5.0675     3.9207    13.4410 </r>
       <r>    -4.9601     3.3811    13.8041 </r>
       <r>    -4.8527     2.4700    14.0694 </r>
       <r>    -4.7453     2.4249    14.3298 </r>
       <r>    -4.6379     2.9960    14.6516 </r>
       <r>    -4.5305     3.5955    15.0377 </r>
       <r>    -4.4231     3.4775    15.4112 </r>
       <r>    -4.3157     3.1155    15.7458 </r>
       <r>    -4.2083     2.9281    16.0602 </r>
       <r>    -4.1009     2.8715    16.3686 </r>
       <r>    -3.9935     3.0115    16.6921 </r>
       <r>    -3.8861     2.9798    17.0121 </r>
       <r>    -3.7787     3.0211    17.3365 </r>
       <r>    -3.6713     2.9028    17.6483 </r>
       <r>    -3.5639     2.7736    17.9462 </r>
       <r>    -3.4565     2.8797    18.2555 </r>
       <r>    -3.3491     2.7338    18.5491 </r>
       <r>    -3.2417     2.7427    18.8436 </r>
       <r>    -3.1343     2.8146    19.1459 </r>
       <r>    -3.0269     2.8942    19.4567 </r>
       <r>    -2.9195     3.0459    19.7838 </r>
       <r>    -2.8121     2.8825    20.0934 </r>
       <r>    -2.7047     2.3621    20.3471 </r>
       <r>    -2.5973     2.6016    20.6265 </r>
       <r>    -2.4899     2.9733    20.9458 </r>
       <r>    -2.3825     3.1902    21.2884 </r>
       <r>    -2.2751     3.7401    21.6901 </r>
       <r>    -2.1677     3.2679    22.0411 </r>
       <r>    -2.0603     3.6820    22.4365 </r>
       <r>    -1.9530     3.6310    22.8264 </r>
       <r>    -1.8456     5.2146    23.3865 </r>
       <r>    -1.7382     5.3844    23.9647 </r>
       <r>    -1.6308     5.8284    24.5907 </r>
       <r>    -1.5234     6.0999    25.2458 </r>
       <r>    -1.4160     6.1625    25.9077 </r>
       <r>    -1.3086     5.5469    26.5034 </r>
       <r>    -1.2012     5.2482    27.0670 </r>
       <r>    -1.0938     5.3115    27.6375 </r>
       <r>    -0.9864     3.8935    28.0556 </r>
       <r>    -0.8790     2.7574    28.3517 </r>
       <r>    -0.7716     2.4673    28.6167 </r>
       <r>    -0.6642     3.1998    28.9604 </r>
       <r>    -0.5568     5.1833    29.5170 </r>
       <r>    -0.4494     5.9766    30.1589 </r>
       <r>    -0.3420     6.2472    30.8298 </r>
       <r>    -0.2346     6.3401    31.5107 </r>
       <r>    -0.1272     6.6535    32.2253 </r>
       <r>    -0.0198     7.0031    32.9774 </r>
       <r>     0.0876     6.2456    33.6482 </r>
       <r>     0.1950     6.7330    34.3713 </r>
       <r>     0.3024     8.5312    35.2875 </r>
       <r>     0.4098     8.5021    36.2006 </r>
       <r>     0.5172     8.4707    37.1104 </r>
       <r>     0.6246     4.6087    37.6053 </r>
       <r>     0.7320     2.8932    37.9160 </r>
       <r>     0.8394     3.1700    38.2565 </r>
       <r>     0.9468     3.2272    38.6031 </r>
       <r>     1.0542     3.4027    38.9685 </r>
       <r>     1.1616     3.9073    39.3882 </r>
       <r>     1.2690     3.4492    39.7586 </r>
       <r>     1.3764     3.8981    40.1772 </r>
       <r>     1.4838     3.8225    40.5878 </r>
       <r>     1.5912     3.8909    41.0056 </r>
       <r>     1.6986     3.9849    41.4336 </r>
       <r>     1.8060     3.0642    41.7627 </r>
       <r>     1.9133     2.8915    42.0732 </r>
       <r>     2.0207     2.8562    42.3800 </r>
       <r>     2.1281     2.5252    42.6512 </r>
       <r>     2.2355     2.2674    42.8947 </r>
       <r>     2.3429     2.0610    43.1160 </r>
       <r>     2.4503     1.4738    43.2743 </r>
       <r>     2.5577     0.8333    43.3638 </r>
       <r>     2.6651     0.7627    43.4457 </r>
       <r>     2.7725     0.6930    43.5201 </r>
       <r>     2.8799     0.5037    43.5742 </r>
       <r>     2.9873     0.5184    43.6299 </r>
       <r>     3.0947     0.5504    43.6890 </r>
       <r>     3.2021     0.4698    43.7395 </r>
       <r>     3.3095     0.3546    43.7776 </r>
       <r>     3.4169     0.4406    43.8249 </r>
       <r>     3.5243     0.3909    43.8669 </r>
       <r>     3.6317     0.2758    43.8965 </r>
       <r>     3.7391     0.3445    43.9335 </r>
       <r>     3.8465     0.2872    43.9643 </r>
       <r>     3.9539     0.2193    43.9879 </r>
       <r>     4.0613     0.1098    43.9997 </r>
       <r>     4.1687     0.0034    44.0000 </r>
       <r>     4.2761     0.0558    44.0060 </r>
       <r>     4.3835     0.2409    44.0319 </r>
       <r>     4.4909     0.3700    44.0716 </r>
       <r>     4.5983     0.5271    44.1282 </r>
       <r>     4.7057     0.7323    44.2069 </r>
       <r>     4.8131     0.8282    44.2958 </r>
       <r>     4.9205     0.8528    44.3874 </r>
       <r>     5.0279     1.0149    44.4964 </r>
       <r>     5.1353     1.1256    44.6173 </r>
       <r>     5.2427     1.3745    44.7649 </r>
       <r>     5.3501     1.7122    44.9488 </r>
       <r>     5.4575     2.1695    45.1818 </r>
       <r>     5.5649     2.5654    45.4573 </r>
       <r>     5.6722     2.9651    45.7758 </r>
       <r>     5.7796     3.3122    46.1315 </r>
       <r>     5.8870     3.6885    46.5276 </r>
       <r>     5.9944     4.1678    46.9752 </r>
       <r>     6.1018     4.5738    47.4665 </r>
       <r>     6.2092     4.4988    47.9496 </r>
       <r>     6.3166     4.1928    48.3999 </r>
       <r>     6.4240     4.2147    48.8526 </r>
       <r>     6.5314     4.3193    49.3164 </r>
       <r>     6.6388     3.9282    49.7383 </r>
       <r>     6.7462     3.5772    50.1225 </r>
       <r>     6.8536     3.9457    50.5463 </r>
       <r>     6.9610     4.4435    51.0235 </r>
       <r>     7.0684     4.8285    51.5420 </r>
       <r>     7.1758     5.0239    52.0816 </r>
       <r>     7.2832     5.1000    52.6293 </r>
       <r>     7.3906     4.5669    53.1198 </r>
       <r>     7.4980     4.4377    53.5964 </r>
       <r>     7.6054     4.1260    54.0395 </r>
       <r>     7.7128     3.4421    54.4092 </r>
       <r>     7.8202     3.0316    54.7348 </r>
       <r>     7.9276     3.2399    55.0827 </r>
       <r>     8.0350     3.3846    55.4462 </r>
       <r>     8.1424     3.4915    55.8212 </r>
       <r>     8.2498     4.0081    56.2516 </r>
       <r>     8.3572     4.0207    56.6835 </r>
       <r>     8.4646     4.1308    57.1271 </r>
       <r>     8.5720     3.9654    57.5530 </r>
       <r>     8.6794     4.3599    58.0212 </r>
       <r>     8.7868     4.8096    58.5377 </r>
       <r>     8.8942     5.2632    59.1030 </r>
       <r>     9.0016     4.9246    59.6319 </r>
       <r>     9.1090     5.1211    60.1819 </r>
       <r>     9.2164     5.1377    60.7336 </r>
       <r>     9.3238     4.9355    61.2637 </r>
       <r>     9.4312     4.8552    61.7851 </r>
       <r>     9.5385     4.4553    62.2636 </r>
       <r>     9.6459     4.7809    62.7771 </r>
       <r>     9.7533     5.1627    63.3315 </r>
       <r>     9.8607     5.0300    63.8717 </r>
       <r>     9.9681     4.9910    64.4078 </r>
       <r>    10.0755     4.0327    64.8409 </r>
       <r>    10.1829     4.1978    65.2917 </r>
       <r>    10.2903     4.2339    65.7464 </r>
       <r>    10.3977     5.1703    66.3017 </r>
       <r>    10.5051     5.6445    66.9079 </r>
       <r>    10.6125     5.0235    67.4474 </r>
       <r>    10.7199     4.2832    67.9074 </r>
       <r>    10.8273     3.8327    68.3190 </r>
       <r>    10.9347     3.4760    68.6923 </r>
       <r>    11.0421     4.8061    69.2085 </r>
       <r>    11.1495     5.4789    69.7969 </r>
       <r>    11.2569     6.2713    70.4704 </r>
       <r>    11.3643     5.6879    71.0813 </r>
       <r>    11.4717     4.9741    71.6155 </r>
       <r>    11.5791     4.6828    72.1184 </r>
       <r>    11.6865     4.5916    72.6115 </r>
       <r>    11.7939     4.8510    73.1325 </r>
       <r>    11.9013     5.1557    73.6862 </r>
       <r>    12.0087     6.0926    74.3405 </r>
       <r>    12.1161     6.0731    74.9928 </r>
       <r>    12.2235     5.4229    75.5752 </r>
       <r>    12.3309     5.2682    76.1410 </r>
       <r>    12.4383     5.5459    76.7366 </r>
       <r>    12.5457     5.9703    77.3778 </r>
       <r>    12.6531     5.9431    78.0161 </r>
       <r>    12.7605     5.7477    78.6333 </r>
       <r>    12.8679     5.9484    79.2722 </r>
       <r>    12.9753     5.9949    79.9160 </r>
       <r>    13.0827     5.8901    80.5486 </r>
       <r>    13.1901     6.4694    81.2434 </r>
       <r>    13.2974     5.7601    81.8620 </r>
       <r>    13.4048     5.6318    82.4668 </r>
       <r>    13.5122     5.4685    83.0541 </r>
       <r>    13.6196     5.2712    83.6202 </r>
       <r>    13.7270     5.5335    84.2145 </r>
       <r>    13.8344     5.8045    84.8379 </r>
       <r>    13.9418     5.4401    85.4222 </r>
       <r>    14.0492     5.4746    86.0101 </r>
       <r>    14.1566     5.1517    86.5634 </r>
       <r>    14.2640     4.9245    87.0923 </r>
       <r>    14.3714     4.8747    87.6158 </r>
       <r>    14.4788     4.8851    88.1405 </r>
       <r>    14.5862     5.2853    88.7081 </r>
       <r>    14.6936     5.1740    89.2637 </r>
       <r>    14.8010     4.5096    89.7481 </r>
       <r>    14.9084     4.2977    90.2096 </r>
       <r>    15.0158     5.5936    90.8104 </r>
       <r>    15.1232     6.0690    91.4622 </r>
       <r>    15.2306     5.9146    92.0974 </r>
       <r>    15.3380     5.7609    92.7161 </r>
       <r>    15.4454     5.8112    93.3402 </r>
       <r>    15.5528     6.1405    93.9997 </r>
       <r>    15.6602     5.0818    94.5454 </r>
       <r>    15.7676     3.8409    94.9579 </r>
       <r>    15.8750     2.6262    95.2400 </r>
       <r>    15.9824     2.1761    95.4737 </r>
       <r>    16.0898     1.4793    95.6326 </r>
       <r>    16.1972     1.1007    95.7508 </r>
       <r>    16.3046     0.9907    95.8572 </r>
       <r>    16.4120     0.7956    95.9426 </r>
       <r>    16.5194     0.4610    95.9921 </r>
       <r>    16.6268     0.0731    96.0000 </r>
       <r>    16.7342     0.0003    96.0000 </r>
       <r>    16.8416     0.0000    96.0000 </r>
       <r>    16.9490     0.0000    96.0000 </r>
       <r>    17.0563     0.0000    96.0000 </r>
       <r>    17.1637     0.0000    96.0000 </r>
       <r>    17.2711     0.0000    96.0000 </r>
       <r>    17.3785     0.0000    96.0000 </r>
       <r>    17.4859     0.0000    96.0000 </r>
       <r>    17.5933     0.0000    96.0000 </r>
       <r>    17.7007     0.0000    96.0000 </r>
       <r>    17.8081     0.0000    96.0000 </r>
       <r>    17.9155     0.0000    96.0000 </r>
       <r>    18.0229     0.0000    96.0000 </r>
      </set>
     </set>
    </array>
   </total>
  </dos>
 </calculation>
 <structure name="finalpos" >
  <crystal>
   <varray name="basis" >
    <v>       5.69700000       0.00000000       0.00000000 </v>
    <v>       0.00000000       4.04790000       0.00000000 </v>
    <v>       0.00000000       0.00000000       6.20420000 </v>
   </varray>
   <i name="volume">    143.07435078 </i>
   <varray name="rec_basis" >
    <v>       0.17553098       0.00000000       0.00000000 </v>
    <v>       0.00000000       0.24704168       0.00000000 </v>
    <v>       0.00000000       0.00000000       0.16118114 </v>
   </varray>
  </crystal>
  <varray name="positions" >
   <v>       0.52123000       0.50000000       0.63796000 </v>
   <v>       0.47877000       0.50000000       0.36204000 </v>
   <v>       0.97877000       0.50000000       0.63796000 </v>
   <v>       0.02123000       0.50000000       0.36204000 </v>
   <v>       0.60090000       0.50000000       0.89991000 </v>
   <v>       0.39910000       0.50000000       0.10009000 </v>
   <v>       0.89910000       0.50000000       0.89991000 </v>
   <v>       0.10090000       0.50000000       0.10009000 </v>
   <v>       0.75000000       0.79171000       0.72973000 </v>
   <v>       0.25000000       0.20829000       0.27027000 </v>
   <v>       0.75000000       0.20829000       0.72973000 </v>
   <v>       0.25000000       0.79171000       0.27027000 </v>
   <v>       0.25000000       0.50000000       0.52367000 </v>
   <v>       0.75000000       0.50000000       0.47633000 </v>
  </varray>
 </structure>
</modeling>
