 vasp.6.4.3 19Mar24 (build May 31 2024 16:31:43) complex                        
  
 executed on             LinuxIFC date 2024.10.31  00:21:47
 running   24 mpi-ranks, with    1 threads/rank, on    1 nodes
 distrk:  each k-point on   24 cores,    1 groups
 distr:  one band on NCORE=   1 cores,   24 groups


--------------------------------------------------------------------------------------------------------


 INCAR:
   SYSTEM = Kpoints
   ISTART = 0
   ICHARG = 2
   PREC = Accurate
   ENCUT = 480
   LCHARG = .FALSE.
   LWAVE = .FALSE.
   ALGO = Normal
   NELM = 100
   EDIFF = 1E-6
   EDIFFG = -1E-3
   SIGMA = 0.05
   ISMEAR = 0
   ISPIN = 1
   NSW = 0
   IBRION = -1
   POTIM = .5
   ISIF = 2
   GGA = PE

 POTCAR:    PAW_PBE B 06Sep2000                   
 POTCAR:    PAW_PBE B 06Sep2000                   
   SHA256 =  a32ced30f5ae56fd4d10b4325ff17eb3e4e38ee0f4288bc219fb012fddfa6e97 B/POTCAR              
   COPYR  = (c) Copyright 06Sep2000 Georg Kresse                                                    
   COPYR  = This file is part of the software VASP. Any use, copying, and all other rights are regul
   COPYR  = If you do not have a valid VASP license, you may not use, copy or distribute this file. 
   VRHFIN =B: s2p1                                                                                  
   LEXCH  = PE                                                                                      
   EATOM  =    71.1703 eV,    5.2309 Ry                                                             
                                                                                                    
   TITEL  = PAW_PBE B 06Sep2000                                                                     
   LULTRA =        F    use ultrasoft PP ?                                                          
   IUNSCR =        1    unscreen: 0-lin 1-nonlin 2-no                                               
   RPACOR =    1.200    partial core radius                                                         
   POMASS =   10.811; ZVAL   =    3.000    mass and valenz                                          
   RCORE  =    1.700    outmost cutoff radius                                                       
   RWIGS  =    1.710; RWIGS  =    0.905    wigner-seitz radius (au A)                               
   ENMAX  =  318.614; ENMIN  =  238.960 eV                                                          
   ICORE  =        2    local potential                                                             
   LCOR   =        T    correct aug charges                                                         
   LPAW   =        T    paw PP                                                                      
   EAUG   =  535.514                                                                                
   DEXC   =    0.000                                                                                
   RMAX   =    1.732    core radius for proj-oper                                                   
   RAUG   =    1.300    factor for augmentation sphere                                              
   RDEP   =    1.757    radius for radial grids                                                     
   RDEPT  =    1.436    core radius for aug-charge                                                  
                                                                                                    
   Atomic configuration                                                                             
    4 entries                                                                                       
     n  l   j            E        occ.                                                              
     1  0  0.50      -180.5896   2.0000                                                             
     2  0  0.50        -9.4431   2.0000                                                             
     2  1  0.50        -3.6068   1.0000                                                             
     3  2  1.50        -4.0817   0.0000                                                             
   Description                                                                                      
     l       E           TYP  RCUT    TYP  RCUT                                                     
     0     -9.4430752     23  1.500                                                                 
     0      0.8675899     23  1.500                                                                 
     1     -3.6067955     23  1.700                                                                 
     1      6.1086146     23  1.700                                                                 
     2     -4.0817478      7  1.700                                                                 
  local pseudopotential read in
  partial core-charges read in
  partial kinetic energy density read in
  atomic valenz-charges read in
  non local Contribution for L=           0  read in
    real space projection operators read in
  non local Contribution for L=           0  read in
    real space projection operators read in
  non local Contribution for L=           1  read in
    real space projection operators read in
  non local Contribution for L=           1  read in
    real space projection operators read in
    PAW grid and wavefunctions read in
 
   number of l-projection  operators is LMAX  =           4
   number of lm-projection operators is LMMAX =           8
 
  PAW_PBE B 06Sep2000                   :
 energy of atom  1       EATOM=  -71.1703
 kinetic energy error for atom=    0.0013 (will be added to EATOM!!)
 
 
 POSCAR: o-B14
  positions in direct lattice
  No initial velocities read in


 exchange-correlation table for PE
   RHO(1)=    0.500       N(1)  =     2000
   RHO(2)=  100.500       N(2)  =     4000
 


--------------------------------------------------------------------------------------------------------


 ion  position               nearest neighbor table
   1  0.521  0.500  0.638-  14 1.64   5 1.69  13 1.70   2 1.73   9 1.85  11 1.85
   2  0.479  0.500  0.362-  13 1.64   6 1.69  14 1.70   1 1.73  10 1.85  12 1.85
   3  0.979  0.500  0.638-  14 1.64   7 1.69  13 1.70   4 1.73   9 1.85  11 1.85
   4  0.021  0.500  0.362-  13 1.64   8 1.69  14 1.70   3 1.73  10 1.85  12 1.85
   5  0.601  0.500  0.900-   1 1.69   6 1.69   7 1.70   9 1.80  11 1.80
   6  0.399  0.500  0.100-   2 1.69   5 1.69   8 1.70  10 1.80  12 1.80
   7  0.899  0.500  0.900-   3 1.69   8 1.69   5 1.70   9 1.80  11 1.80
   8  0.101  0.500  0.100-   4 1.69   7 1.69   6 1.70  10 1.80  12 1.80
   9  0.750  0.792  0.730-  11 1.69   7 1.80   5 1.80   3 1.85   1 1.85  14 1.97
  10  0.250  0.208  0.270-  12 1.69   8 1.80   6 1.80   4 1.85   2 1.85  13 1.97
  11  0.750  0.208  0.730-   9 1.69   7 1.80   5 1.80   3 1.85   1 1.85  14 1.97
  12  0.250  0.792  0.270-  10 1.69   8 1.80   6 1.80   4 1.85   2 1.85  13 1.97
  13  0.250  0.500  0.524-   2 1.64   4 1.64   3 1.70   1 1.70  10 1.97  12 1.97
  14  0.750  0.500  0.476-   1 1.64   3 1.64   2 1.70   4 1.70   9 1.97  11 1.97
 
  LATTYP: Found a simple orthorhombic cell.
 ALAT       =     4.0479000000
 B/A-ratio  =     1.4073964278
 C/A-ratio  =     1.5326959658
  
  Lattice vectors:
  
 A1 = (   0.0000000000,  -4.0479000000,   0.0000000000)
 A2 = (   5.6970000000,   0.0000000000,   0.0000000000)
 A3 = (   0.0000000000,   0.0000000000,   6.2042000000)


Analysis of symmetry for initial positions (statically):
=====================================================================
 Subroutine PRICEL returns:
 Original cell was already a primitive cell.
 

 Routine SETGRP: Setting up the symmetry group for a 
 simple orthorhombic supercell.


 Subroutine GETGRP returns: Found  8 space group operations
 (whereof  4 operations were pure point group operations)
 out of a pool of  8 trial point group operations.


The static configuration has the point symmetry C_2h.
 The point group associated with its full space group is D_2h.


Analysis of symmetry for dynamics (positions and initial velocities):
=====================================================================
 Subroutine PRICEL returns:
 Original cell was already a primitive cell.
 

 Routine SETGRP: Setting up the symmetry group for a 
 simple orthorhombic supercell.


 Subroutine GETGRP returns: Found  8 space group operations
 (whereof  4 operations were pure point group operations)
 out of a pool of  8 trial point group operations.


The dynamic configuration has the point symmetry C_2h.
 The point group associated with its full space group is D_2h.


 Subroutine INISYM returns: Found  8 space group operations
 (whereof  4 operations are pure point group operations),
 and found     1 'primitive' translations


----------------------------------------------------------------------------------------

                                     Primitive cell                                     

  volume of cell :     143.0744

  direct lattice vectors                    reciprocal lattice vectors
     5.697000000  0.000000000  0.000000000     0.175530981  0.000000000  0.000000000
     0.000000000  4.047900000  0.000000000     0.000000000  0.247041676  0.000000000
     0.000000000  0.000000000  6.204200000     0.000000000  0.000000000  0.161181135

  length of vectors
     5.697000000  4.047900000  6.204200000     0.175530981  0.247041676  0.161181135

  position of ions in fractional coordinates (direct lattice)
     0.521230000  0.500000000  0.637960000
     0.478770000  0.500000000  0.362040000
     0.978770000  0.500000000  0.637960000
     0.021230000  0.500000000  0.362040000
     0.600900000  0.500000000  0.899910000
     0.399100000  0.500000000  0.100090000
     0.899100000  0.500000000  0.899910000
     0.100900000  0.500000000  0.100090000
     0.750000000  0.791710000  0.729730000
     0.250000000  0.208290000  0.270270000
     0.750000000  0.208290000  0.729730000
     0.250000000  0.791710000  0.270270000
     0.250000000  0.500000000  0.523670000
     0.750000000  0.500000000  0.476330000

  ion indices of the primitive-cell ions
   primitive index   ion index
                 1           1
                 2           2
                 3           3
                 4           4
                 5           5
                 6           6
                 7           7
                 8           8
                 9           9
                10          10
                11          11
                12          12
                13          13
                14          14

----------------------------------------------------------------------------------------

 
 
 KPOINTS: k-points                                

Automatic generation of k-mesh.
 Grid dimensions read from file:
 generate k-points for:    5    7    5

 Generating k-lattice:

  Cartesian coordinates                     Fractional coordinates (reciprocal lattice)
     0.035106196  0.000000000  0.000000000     0.200000000  0.000000000  0.000000000
     0.000000000  0.035291668  0.000000000     0.000000000  0.142857143  0.000000000
     0.000000000  0.000000000  0.032236227     0.000000000  0.000000000  0.200000000

  Length of vectors
     0.035106196  0.035291668  0.032236227

  Shift w.r.t. Gamma in fractional coordinates (k-lattice)
     0.000000000  0.000000000  0.000000000

 
 Subroutine IBZKPT returns following result:
 ===========================================
 
 Found     36 irreducible k-points:
 
 Following reciprocal coordinates:
            Coordinates               Weight
  0.000000  0.000000  0.000000      1.000000
  0.200000  0.000000  0.000000      2.000000
  0.400000  0.000000  0.000000      2.000000
  0.000000  0.142857  0.000000      2.000000
  0.200000  0.142857  0.000000      4.000000
  0.400000  0.142857  0.000000      4.000000
  0.000000  0.285714  0.000000      2.000000
  0.200000  0.285714  0.000000      4.000000
  0.400000  0.285714  0.000000      4.000000
  0.000000  0.428571  0.000000      2.000000
  0.200000  0.428571  0.000000      4.000000
  0.400000  0.428571  0.000000      4.000000
  0.000000  0.000000  0.200000      2.000000
  0.200000  0.000000  0.200000      4.000000
  0.400000  0.000000  0.200000      4.000000
  0.000000  0.142857  0.200000      4.000000
  0.200000  0.142857  0.200000      8.000000
  0.400000  0.142857  0.200000      8.000000
  0.000000  0.285714  0.200000      4.000000
  0.200000  0.285714  0.200000      8.000000
  0.400000  0.285714  0.200000      8.000000
  0.000000  0.428571  0.200000      4.000000
  0.200000  0.428571  0.200000      8.000000
  0.400000  0.428571  0.200000      8.000000
  0.000000  0.000000  0.400000      2.000000
  0.200000  0.000000  0.400000      4.000000
  0.400000  0.000000  0.400000      4.000000
  0.000000  0.142857  0.400000      4.000000
  0.200000  0.142857  0.400000      8.000000
  0.400000  0.142857  0.400000      8.000000
  0.000000  0.285714  0.400000      4.000000
  0.200000  0.285714  0.400000      8.000000
  0.400000  0.285714  0.400000      8.000000
  0.000000  0.428571  0.400000      4.000000
  0.200000  0.428571  0.400000      8.000000
  0.400000  0.428571  0.400000      8.000000
 
 Following cartesian coordinates:
            Coordinates               Weight
  0.000000  0.000000  0.000000      1.000000
  0.035106  0.000000  0.000000      2.000000
  0.070212  0.000000  0.000000      2.000000
  0.000000  0.035292  0.000000      2.000000
  0.035106  0.035292  0.000000      4.000000
  0.070212  0.035292  0.000000      4.000000
  0.000000  0.070583  0.000000      2.000000
  0.035106  0.070583  0.000000      4.000000
  0.070212  0.070583  0.000000      4.000000
  0.000000  0.105875  0.000000      2.000000
  0.035106  0.105875  0.000000      4.000000
  0.070212  0.105875  0.000000      4.000000
  0.000000  0.000000  0.032236      2.000000
  0.035106  0.000000  0.032236      4.000000
  0.070212  0.000000  0.032236      4.000000
  0.000000  0.035292  0.032236      4.000000
  0.035106  0.035292  0.032236      8.000000
  0.070212  0.035292  0.032236      8.000000
  0.000000  0.070583  0.032236      4.000000
  0.035106  0.070583  0.032236      8.000000
  0.070212  0.070583  0.032236      8.000000
  0.000000  0.105875  0.032236      4.000000
  0.035106  0.105875  0.032236      8.000000
  0.070212  0.105875  0.032236      8.000000
  0.000000  0.000000  0.064472      2.000000
  0.035106  0.000000  0.064472      4.000000
  0.070212  0.000000  0.064472      4.000000
  0.000000  0.035292  0.064472      4.000000
  0.035106  0.035292  0.064472      8.000000
  0.070212  0.035292  0.064472      8.000000
  0.000000  0.070583  0.064472      4.000000
  0.035106  0.070583  0.064472      8.000000
  0.070212  0.070583  0.064472      8.000000
  0.000000  0.105875  0.064472      4.000000
  0.035106  0.105875  0.064472      8.000000
  0.070212  0.105875  0.064472      8.000000
 


--------------------------------------------------------------------------------------------------------




 Dimension of arrays:
   k-points           NKPTS =     36   k-points in BZ     NKDIM =     36   number of bands    NBANDS=     48
   number of dos      NEDOS =    301   number of ions     NIONS =     14
   non local maximal  LDIM  =      4   non local SUM 2l+1 LMDIM =      8
   total plane-waves  NPLWV =  60480
   max r-space proj   IRMAX =      1   max aug-charges    IRDMAX=   6791
   dimension x,y,z NGX =    42 NGY =   30 NGZ =   48
   dimension x,y,z NGXF=    84 NGYF=   60 NGZF=   96
   support grid    NGXF=    84 NGYF=   60 NGZF=   96
   ions per type =              14
   NGX,Y,Z   is equivalent  to a cutoff of  12.26, 12.32, 12.86 a.u.
   NGXF,Y,Z  is equivalent  to a cutoff of  24.51, 24.64, 25.72 a.u.

 SYSTEM =  Kpoints                                 
 POSCAR =  o-B14                                   

 Startparameter for this run:
   NWRITE =      2    write-flag & timer
   PREC   = accura    normal or accurate (medium, high low for compatibility)
   ISTART =      0    job   : 0-new  1-cont  2-samecut
   ICHARG =      2    charge: 1-file 2-atom 10-const
   ISPIN  =      1    spin polarized calculation?
   LNONCOLLINEAR =      F non collinear calculations
   LSORBIT =      F    spin-orbit coupling
   INIWAV =      1    electr: 0-lowe 1-rand  2-diag
   LASPH  =      F    aspherical Exc in radial PAW
 Electronic Relaxation 1
   ENCUT  =  480.0 eV  35.28 Ry    5.94 a.u.  10.18  7.23 11.08*2*pi/ulx,y,z
   ENINI  =  480.0     initial cutoff
   ENAUG  =  535.5 eV  augmentation charge cutoff
   NELM   =    100;   NELMIN=  2; NELMDL= -5     # of ELM steps 
   EDIFF  = 0.1E-05   stopping-criterion for ELM
   LREAL  =      F    real-space projection
   NLSPLINE    = F    spline interpolate recip. space projectors
   LCOMPAT=      F    compatible to vasp.4.4
   GGA_COMPAT  = T    GGA compatible to vasp.4.4-vasp.4.6
   LMAXPAW     = -100 max onsite density
   LMAXMIX     =    2 max onsite mixed and CHGCAR
   VOSKOWN=      0    Vosko Wilk Nusair interpolation
   ROPT   =    0.00000
 Ionic relaxation
   EDIFFG = -.1E-02   stopping-criterion for IOM
   NSW    =      0    number of steps for IOM
   NBLOCK =      1;   KBLOCK =      1    inner block; outer block 
   IBRION =     -1    ionic relax: 0-MD 1-quasi-New 2-CG
   NFREE  =      0    steps in history (QN), initial steepest desc. (CG)
   ISIF   =      2    stress and relaxation
   IWAVPR =     10    prediction:  0-non 1-charg 2-wave 3-comb
   ISYM   =      2    0-nonsym 1-usesym 2-fastsym
   LCORR  =      T    Harris-Foulkes like correction to forces

   POTIM  = 0.5000    time-step for ionic-motion
   TEIN   =    0.0    initial temperature
   TEBEG  =    0.0;   TEEND  =   0.0 temperature during run
   SMASS  =  -3.00    Nose mass-parameter (am)
   estimated Nose-frequenzy (Omega)   =  0.10E-29 period in steps = 0.13E+47 mass=  -0.742E-27a.u.
   SCALEE = 1.0000    scale energy and forces
   NPACO  =    256;   APACO  = 10.0  distance and # of slots for P.C.
   PSTRESS=    0.0 pullay stress

  Mass of Ions in am
   POMASS =  10.81
  Ionic Valenz
   ZVAL   =   3.00
  Atomic Wigner-Seitz radii
   RWIGS  =  -1.00
  virtual crystal weights 
   VCA    =   1.00
   NELECT =      42.0000    total number of electrons
   NUPDOWN=      -1.0000    fix difference up-down

 DOS related values:
   EMIN   =  10.00;   EMAX   =-10.00  energy-range for DOS
   EFERMI =   0.00;   METHOD = LEGACY      
   ISMEAR =     0;   SIGMA  =   0.05  broadening in eV -4-tet -1-fermi 0-gaus

 Electronic relaxation 2 (details)
   IALGO  =     38    algorithm
   LDIAG  =      T    sub-space diagonalisation (order eigenvalues)
   LSUBROT=      F    optimize rotation matrix (better conditioning)
   TURBO    =      0    0=normal 1=particle mesh
   IRESTART =      0    0=no restart 2=restart with 2 vectors
   NREBOOT  =      0    no. of reboots
   NMIN     =      0    reboot dimension
   EREF     =   0.00    reference energy to select bands
   IMIX   =      4    mixing-type and parameters
     AMIX     =   0.40;   BMIX     =  1.00
     AMIX_MAG =   1.60;   BMIX_MAG =  1.00
     AMIN     =   0.10
     WC   =   100.;   INIMIX=   1;  MIXPRE=   1;  MAXMIX= -45

 Intra band minimization:
   WEIMIN = 0.0000     energy-eigenvalue tresh-hold
   EBREAK =  0.52E-08  absolut break condition
   DEPER  =   0.30     relativ break condition  

   TIME   =   0.40     timestep for ELM

  volume/ion in A,a.u.               =      10.22        68.97
  Fermi-wavevector in a.u.,A,eV,Ry     =   1.088021  2.056062 16.106441  1.183790
  Thomas-Fermi vector in A             =   2.224193
 
 Write flags
   LWAVE        =      F    write WAVECAR
   LDOWNSAMPLE  =      F    k-point downsampling of WAVECAR
   LCHARG       =      F    write CHGCAR
   LVTOT        =      F    write LOCPOT, total local potential
   LVHAR        =      F    write LOCPOT, Hartree potential only
   WRT_POTENTIAL= false  ! write potential to hdf5 file
   LELF         =      F    write electronic localiz. function (ELF)
   LORBIT       =      0    0 simple, 1 ext, 2 COOP (PROOUT), +10 PAW based schemes


 Dipole corrections
   LMONO      =      F    monopole corrections only (constant potential shift)
   LDIPOL     =      F    correct potential (dipole corrections)
   IDIPOL     =      0    1-x, 2-y, 3-z, 4-all directions 
   EPSILON    =  1.0000000 bulk dielectric constant
   LVACPOTAV  =      F  vacuum potentials using an averaging scheme for the charge density
   VACPOTFLAT =  0.1000000 required flatness to determine vacuum potential
 Exchange correlation treatment:
   GGA     = PE    functional components
   XC_C    = 1    coefficients multiplying the functional components
   LIBXC   =     F    Libxc                    
   VOSKOWN =     0    Vosko Wilk Nusair interpolation
   LHFCALC =     F    Hartree Fock is set to
   LHFONE  =     F    Hartree Fock one center treatment
   AEXX    =    0.0000 exact exchange contribution

 Parameters of functionals:
   PE:
     No parameter
 
 Van der Waals corrections
   IVDW    =     0    specifies the selected vdW correction

 Linear response parameters
   LEPSILON=     F    determine dielectric tensor
   LRPA    =     F    only Hartree local field effects (RPA)
   LNABLA  =     F    use nabla operator in PAW spheres
   LVEL    =     F    velocity operator in full k-point grid
   CSHIFT  =0.1000    complex shift for real part using Kramers Kronig
   OMEGAMAX=  -1.0    maximum frequency
   DEG_THRESHOLD= 0.2000000E-02 threshold for treating states as degnerate
   RTIME   =   -0.100 relaxation time in fs
  (WPLASMAI=    0.000 imaginary part of plasma frequency in eV, 0.658/RTIME)
   DFIELD  = 0.0000000 0.0000000 0.0000000 field for delta impulse in time
 
  Optional k-point grid parameters
   LKPOINTS_OPT  =     F    use optional k-point grid
   KPOINTS_OPT_MODE=     1    mode for optional k-point grid
 
 Orbital magnetization related:
   ORBITALMAG=     F  switch on orbital magnetization
   LCHIMAG   =     F  perturbation theory with respect to B field
   DQ        =  0.001000  dq finite difference perturbation B field
   LLRAUG    =     F  two centre corrections for induced B field
   LBONE     =     F  B-component reconstruction in AE one-centre
   LVGVCALC  =     T  calculate vGv susceptibility
   LVGVAPPL  =     F  apply vGv susceptibility instead of pGv for G=0

 Random number generation:
   RANDOM_GENERATOR = DEFAULT
   PCG_SEED         = not used


--------------------------------------------------------------------------------------------------------


 Static calculation
 charge density and potential will be updated during run
 non-spin polarized calculation
 Variant of blocked Davidson
 Davidson routine will perform the subspace rotation
 perform sub-space diagonalisation
    after iterative eigenvector-optimisation
 modified Broyden-mixing scheme, WC =      100.0
 initial mixing is a Kerker type mixing with AMIX =  0.4000 and BMIX =      1.0000
 Hartree-type preconditioning will be used
 using additional bands           27
 reciprocal scheme for non local part
 use partial core corrections
 calculate Harris-corrections to forces 
   (improved forces if not selfconsistent)
 use gradient corrections 
 use of overlap-Matrix (Vanderbilt PP)
 Gauss-broadening in eV      SIGMA  =   0.05


--------------------------------------------------------------------------------------------------------


  energy-cutoff  :      480.00
  volume of cell :      143.07
      direct lattice vectors                 reciprocal lattice vectors
     5.697000000  0.000000000  0.000000000     0.175530981  0.000000000  0.000000000
     0.000000000  4.047900000  0.000000000     0.000000000  0.247041676  0.000000000
     0.000000000  0.000000000  6.204200000     0.000000000  0.000000000  0.161181135

  length of vectors
     5.697000000  4.047900000  6.204200000     0.175530981  0.247041676  0.161181135


 
 k-points in units of 2pi/SCALE and weight: k-points                                
   0.00000000  0.00000000  0.00000000       0.006
   0.03510620  0.00000000  0.00000000       0.011
   0.07021239  0.00000000  0.00000000       0.011
   0.00000000  0.03529167  0.00000000       0.011
   0.03510620  0.03529167  0.00000000       0.023
   0.07021239  0.03529167  0.00000000       0.023
   0.00000000  0.07058334  0.00000000       0.011
   0.03510620  0.07058334  0.00000000       0.023
   0.07021239  0.07058334  0.00000000       0.023
   0.00000000  0.10587500  0.00000000       0.011
   0.03510620  0.10587500  0.00000000       0.023
   0.07021239  0.10587500  0.00000000       0.023
   0.00000000  0.00000000  0.03223623       0.011
   0.03510620  0.00000000  0.03223623       0.023
   0.07021239  0.00000000  0.03223623       0.023
   0.00000000  0.03529167  0.03223623       0.023
   0.03510620  0.03529167  0.03223623       0.046
   0.07021239  0.03529167  0.03223623       0.046
   0.00000000  0.07058334  0.03223623       0.023
   0.03510620  0.07058334  0.03223623       0.046
   0.07021239  0.07058334  0.03223623       0.046
   0.00000000  0.10587500  0.03223623       0.023
   0.03510620  0.10587500  0.03223623       0.046
   0.07021239  0.10587500  0.03223623       0.046
   0.00000000  0.00000000  0.06447245       0.011
   0.03510620  0.00000000  0.06447245       0.023
   0.07021239  0.00000000  0.06447245       0.023
   0.00000000  0.03529167  0.06447245       0.023
   0.03510620  0.03529167  0.06447245       0.046
   0.07021239  0.03529167  0.06447245       0.046
   0.00000000  0.07058334  0.06447245       0.023
   0.03510620  0.07058334  0.06447245       0.046
   0.07021239  0.07058334  0.06447245       0.046
   0.00000000  0.10587500  0.06447245       0.023
   0.03510620  0.10587500  0.06447245       0.046
   0.07021239  0.10587500  0.06447245       0.046
 
 k-points in reciprocal lattice and weights: k-points                                
   0.00000000  0.00000000  0.00000000       0.006
   0.20000000  0.00000000  0.00000000       0.011
   0.40000000  0.00000000  0.00000000       0.011
   0.00000000  0.14285714  0.00000000       0.011
   0.20000000  0.14285714  0.00000000       0.023
   0.40000000  0.14285714  0.00000000       0.023
   0.00000000  0.28571429  0.00000000       0.011
   0.20000000  0.28571429  0.00000000       0.023
   0.40000000  0.28571429  0.00000000       0.023
   0.00000000  0.42857143  0.00000000       0.011
   0.20000000  0.42857143  0.00000000       0.023
   0.40000000  0.42857143  0.00000000       0.023
   0.00000000  0.00000000  0.20000000       0.011
   0.20000000  0.00000000  0.20000000       0.023
   0.40000000  0.00000000  0.20000000       0.023
   0.00000000  0.14285714  0.20000000       0.023
   0.20000000  0.14285714  0.20000000       0.046
   0.40000000  0.14285714  0.20000000       0.046
   0.00000000  0.28571429  0.20000000       0.023
   0.20000000  0.28571429  0.20000000       0.046
   0.40000000  0.28571429  0.20000000       0.046
   0.00000000  0.42857143  0.20000000       0.023
   0.20000000  0.42857143  0.20000000       0.046
   0.40000000  0.42857143  0.20000000       0.046
   0.00000000  0.00000000  0.40000000       0.011
   0.20000000  0.00000000  0.40000000       0.023
   0.40000000  0.00000000  0.40000000       0.023
   0.00000000  0.14285714  0.40000000       0.023
   0.20000000  0.14285714  0.40000000       0.046
   0.40000000  0.14285714  0.40000000       0.046
   0.00000000  0.28571429  0.40000000       0.023
   0.20000000  0.28571429  0.40000000       0.046
   0.40000000  0.28571429  0.40000000       0.046
   0.00000000  0.42857143  0.40000000       0.023
   0.20000000  0.42857143  0.40000000       0.046
   0.40000000  0.42857143  0.40000000       0.046
 
 position of ions in fractional coordinates (direct lattice) 
   0.52123000  0.50000000  0.63796000
   0.47877000  0.50000000  0.36204000
   0.97877000  0.50000000  0.63796000
   0.02123000  0.50000000  0.36204000
   0.60090000  0.50000000  0.89991000
   0.39910000  0.50000000  0.10009000
   0.89910000  0.50000000  0.89991000
   0.10090000  0.50000000  0.10009000
   0.75000000  0.79171000  0.72973000
   0.25000000  0.20829000  0.27027000
   0.75000000  0.20829000  0.72973000
   0.25000000  0.79171000  0.27027000
   0.25000000  0.50000000  0.52367000
   0.75000000  0.50000000  0.47633000
 
 position of ions in cartesian coordinates  (Angst):
   2.96944731  2.02395000  3.95803143
   2.72755269  2.02395000  2.24616857
   5.57605269  2.02395000  3.95803143
   0.12094731  2.02395000  2.24616857
   3.42332730  2.02395000  5.58322162
   2.27367270  2.02395000  0.62097838
   5.12217270  2.02395000  5.58322162
   0.57482730  2.02395000  0.62097838
   4.27275000  3.20476291  4.52739087
   1.42425000  0.84313709  1.67680913
   4.27275000  0.84313709  4.52739087
   1.42425000  3.20476291  1.67680913
   1.42425000  2.02395000  3.24895341
   4.27275000  2.02395000  2.95524659
 


--------------------------------------------------------------------------------------------------------


 k-point     1 :   0.0000 0.0000 0.0000  plane waves:    3433
 k-point     2 :   0.2000 0.0000 0.0000  plane waves:    3414
 k-point     3 :   0.4000 0.0000 0.0000  plane waves:    3396
 k-point     4 :   0.0000 0.1429 0.0000  plane waves:    3413
 k-point     5 :   0.2000 0.1429 0.0000  plane waves:    3402
 k-point     6 :   0.4000 0.1429 0.0000  plane waves:    3406
 k-point     7 :   0.0000 0.2857 0.0000  plane waves:    3396
 k-point     8 :   0.2000 0.2857 0.0000  plane waves:    3416
 k-point     9 :   0.4000 0.2857 0.0000  plane waves:    3421
 k-point    10 :   0.0000 0.4286 0.0000  plane waves:    3390
 k-point    11 :   0.2000 0.4286 0.0000  plane waves:    3418
 k-point    12 :   0.4000 0.4286 0.0000  plane waves:    3431
 k-point    13 :   0.0000 0.0000 0.2000  plane waves:    3412
 k-point    14 :   0.2000 0.0000 0.2000  plane waves:    3414
 k-point    15 :   0.4000 0.0000 0.2000  plane waves:    3415
 k-point    16 :   0.0000 0.1429 0.2000  plane waves:    3420
 k-point    17 :   0.2000 0.1429 0.2000  plane waves:    3405
 k-point    18 :   0.4000 0.1429 0.2000  plane waves:    3415
 k-point    19 :   0.0000 0.2857 0.2000  plane waves:    3418
 k-point    20 :   0.2000 0.2857 0.2000  plane waves:    3412
 k-point    21 :   0.4000 0.2857 0.2000  plane waves:    3417
 k-point    22 :   0.0000 0.4286 0.2000  plane waves:    3408
 k-point    23 :   0.2000 0.4286 0.2000  plane waves:    3415
 k-point    24 :   0.4000 0.4286 0.2000  plane waves:    3426
 k-point    25 :   0.0000 0.0000 0.4000  plane waves:    3436
 k-point    26 :   0.2000 0.0000 0.4000  plane waves:    3430
 k-point    27 :   0.4000 0.0000 0.4000  plane waves:    3418
 k-point    28 :   0.0000 0.1429 0.4000  plane waves:    3429
 k-point    29 :   0.2000 0.1429 0.4000  plane waves:    3427
 k-point    30 :   0.4000 0.1429 0.4000  plane waves:    3409
 k-point    31 :   0.0000 0.2857 0.4000  plane waves:    3419
 k-point    32 :   0.2000 0.2857 0.4000  plane waves:    3407
 k-point    33 :   0.4000 0.2857 0.4000  plane waves:    3417
 k-point    34 :   0.0000 0.4286 0.4000  plane waves:    3416
 k-point    35 :   0.2000 0.4286 0.4000  plane waves:    3427
 k-point    36 :   0.4000 0.4286 0.4000  plane waves:    3420

 maximum and minimum number of plane-waves per node :      3436     3390

 maximum number of plane-waves:      3436
 maximum index in each direction: 
   IXMAX=   10   IYMAX=    7   IZMAX=   11
   IXMIN=  -10   IYMIN=   -7   IZMIN=  -11


 serial   3D FFT for wavefunctions
 parallel 3D FFT for charge:
    minimum data exchange during FFTs selected (reduces bandwidth)


 total amount of memory used by VASP MPI-rank0    47477. kBytes
=======================================================================

   base      :      30000. kBytes
   nonl-proj :       8736. kBytes
   fftplans  :       1019. kBytes
   grid      :       3560. kBytes
   one-center:         43. kBytes
   wavefun   :       4119. kBytes
 
     INWAV:  cpu time      0.0000: real time      0.0000
 Broyden mixing: mesh for mixing (old mesh)
   NGX = 21   NGY = 15   NGZ = 23
  (NGX  = 84   NGY  = 60   NGZ  = 96)
  gives a total of   7245 points

 initial charge density was supplied:
 charge density of overlapping atoms calculated
 number of electron      42.0000000 magnetization 
 keeping initial charge density in first step


--------------------------------------------------------------------------------------------------------


 Maximum index for augmentation-charges          566 (set IRDMAX)


--------------------------------------------------------------------------------------------------------


 First call to EWALD:  gamma=   0.339
 Maximum number of real-space cells 3x 3x 2
 Maximum number of reciprocal cells 3x 2x 3

    FEWALD:  cpu time      0.0027: real time      0.0026


--------------------------------------- Ionic step        1  -------------------------------------------




--------------------------------------- Iteration      1(   1)  ---------------------------------------


    POTLOK:  cpu time      0.0191: real time      0.0196
    SETDIJ:  cpu time      0.0018: real time      0.0018
     EDDAV:  cpu time      1.0361: real time      1.0897
       DOS:  cpu time      0.0009: real time      0.0009
    --------------------------------------------
      LOOP:  cpu time      1.0579: real time      1.1120

 eigenvalue-minimisations  :  3456
 total energy-change (2. order) : 0.5511042E+02  (-0.1766518E+04)
 number of electron      42.0000000 magnetization 
 augmentation part       42.0000000 magnetization 

 Free energy of the ion-electron system (eV)
  ---------------------------------------------------
  alpha Z        PSCENC =        94.24357992
  Ewald energy   TEWEN  =      -795.76658092
  -Hartree energ DENC   =      -271.33601302
  -exchange      EXHF   =         0.00000000
  -V(xc)+E(xc)   XCENC  =        97.50108136
  PAW double counting   =       608.99811708     -597.02363782
  entropy T*S    EENTRO =        -0.00391602
  eigenvalues    EBANDS =       -77.86833852
  atomic energy  EATOM  =       996.36613177
  Solvation  Ediel_sol  =         0.00000000
  ---------------------------------------------------
  free energy    TOTEN  =        55.11042383 eV

  energy without entropy =       55.11433985  energy(sigma->0) =       55.11238184


--------------------------------------------------------------------------------------------------------




--------------------------------------- Iteration      1(   2)  ---------------------------------------


     EDDAV:  cpu time      1.2869: real time      1.2893
       DOS:  cpu time      0.0004: real time      0.0004
    --------------------------------------------
      LOOP:  cpu time      1.2874: real time      1.2897

 eigenvalue-minimisations  :  4824
 total energy-change (2. order) :-0.1480300E+03  (-0.1396564E+03)
 number of electron      42.0000000 magnetization 
 augmentation part       42.0000000 magnetization 

 Free energy of the ion-electron system (eV)
  ---------------------------------------------------
  alpha Z        PSCENC =        94.24357992
  Ewald energy   TEWEN  =      -795.76658092
  -Hartree energ DENC   =      -271.33601302
  -exchange      EXHF   =         0.00000000
  -V(xc)+E(xc)   XCENC  =        97.50108136
  PAW double counting   =       608.99811708     -597.02363782
  entropy T*S    EENTRO =        -0.00516657
  eigenvalues    EBANDS =      -225.89705872
  atomic energy  EATOM  =       996.36613177
  Solvation  Ediel_sol  =         0.00000000
  ---------------------------------------------------
  free energy    TOTEN  =       -92.91954693 eV

  energy without entropy =      -92.91438035  energy(sigma->0) =      -92.91696364


--------------------------------------------------------------------------------------------------------




--------------------------------------- Iteration      1(   3)  ---------------------------------------


     EDDAV:  cpu time      1.3326: real time      1.3347
       DOS:  cpu time      0.0004: real time      0.0004
    --------------------------------------------
      LOOP:  cpu time      1.3330: real time      1.3350

 eigenvalue-minimisations  :  5064
 total energy-change (2. order) :-0.4693042E+01  (-0.4669919E+01)
 number of electron      42.0000000 magnetization 
 augmentation part       42.0000000 magnetization 

 Free energy of the ion-electron system (eV)
  ---------------------------------------------------
  alpha Z        PSCENC =        94.24357992
  Ewald energy   TEWEN  =      -795.76658092
  -Hartree energ DENC   =      -271.33601302
  -exchange      EXHF   =         0.00000000
  -V(xc)+E(xc)   XCENC  =        97.50108136
  PAW double counting   =       608.99811708     -597.02363782
  entropy T*S    EENTRO =        -0.00501472
  eigenvalues    EBANDS =      -230.59025279
  atomic energy  EATOM  =       996.36613177
  Solvation  Ediel_sol  =         0.00000000
  ---------------------------------------------------
  free energy    TOTEN  =       -97.61258914 eV

  energy without entropy =      -97.60757442  energy(sigma->0) =      -97.61008178


--------------------------------------------------------------------------------------------------------




--------------------------------------- Iteration      1(   4)  ---------------------------------------


     EDDAV:  cpu time      1.1376: real time      1.1389
       DOS:  cpu time      0.0004: real time      0.0004
    --------------------------------------------
      LOOP:  cpu time      1.1380: real time      1.1393

 eigenvalue-minimisations  :  4296
 total energy-change (2. order) :-0.2708543E-01  (-0.2708409E-01)
 number of electron      42.0000000 magnetization 
 augmentation part       42.0000000 magnetization 

 Free energy of the ion-electron system (eV)
  ---------------------------------------------------
  alpha Z        PSCENC =        94.24357992
  Ewald energy   TEWEN  =      -795.76658092
  -Hartree energ DENC   =      -271.33601302
  -exchange      EXHF   =         0.00000000
  -V(xc)+E(xc)   XCENC  =        97.50108136
  PAW double counting   =       608.99811708     -597.02363782
  entropy T*S    EENTRO =        -0.00500901
  eigenvalues    EBANDS =      -230.61734392
  atomic energy  EATOM  =       996.36613177
  Solvation  Ediel_sol  =         0.00000000
  ---------------------------------------------------
  free energy    TOTEN  =       -97.63967457 eV

  energy without entropy =      -97.63466555  energy(sigma->0) =      -97.63717006


--------------------------------------------------------------------------------------------------------




--------------------------------------- Iteration      1(   5)  ---------------------------------------


     EDDAV:  cpu time      1.3171: real time      1.3183
       DOS:  cpu time      0.0004: real time      0.0004
    CHARGE:  cpu time      0.0278: real time      0.0286
    MIXING:  cpu time      0.0012: real time      0.0012
    --------------------------------------------
      LOOP:  cpu time      1.3466: real time      1.3485

 eigenvalue-minimisations  :  4992
 total energy-change (2. order) :-0.3096777E-03  (-0.3096719E-03)
 number of electron      41.9999999 magnetization 
 augmentation part       -0.1236660 magnetization 

 Broyden mixing:
  rms(total) = 0.12365E+01    rms(broyden)= 0.12364E+01
  rms(prec ) = 0.22736E+01
  weight for this iteration     100.00

 Free energy of the ion-electron system (eV)
  ---------------------------------------------------
  alpha Z        PSCENC =        94.24357992
  Ewald energy   TEWEN  =      -795.76658092
  -Hartree energ DENC   =      -271.33601302
  -exchange      EXHF   =         0.00000000
  -V(xc)+E(xc)   XCENC  =        97.50108136
  PAW double counting   =       608.99811708     -597.02363782
  entropy T*S    EENTRO =        -0.00500895
  eigenvalues    EBANDS =      -230.61765367
  atomic energy  EATOM  =       996.36613177
  Solvation  Ediel_sol  =         0.00000000
  ---------------------------------------------------
  free energy    TOTEN  =       -97.63998424 eV

  energy without entropy =      -97.63497530  energy(sigma->0) =      -97.63747977


--------------------------------------------------------------------------------------------------------




--------------------------------------- Iteration      1(   6)  ---------------------------------------


    POTLOK:  cpu time      0.0152: real time      0.0160
    SETDIJ:  cpu time      0.0015: real time      0.0015
     EDDAV:  cpu time      1.3248: real time      1.3254
       DOS:  cpu time      0.0004: real time      0.0004
    CHARGE:  cpu time      0.0269: real time      0.0295
    MIXING:  cpu time      0.0008: real time      0.0008
    --------------------------------------------
      LOOP:  cpu time      1.3696: real time      1.3736

 eigenvalue-minimisations  :  4992
 total energy-change (2. order) : 0.5427113E+01  (-0.3936161E+00)
 number of electron      41.9999999 magnetization 
 augmentation part       -0.1500035 magnetization 

 Broyden mixing:
  rms(total) = 0.67375E+00    rms(broyden)= 0.67375E+00
  rms(prec ) = 0.11574E+01
  weight for this iteration     100.00

 eigenvalues of (default mixing * dielectric matrix)
  average eigenvalue GAMMA=   2.0299
  2.0299

 Free energy of the ion-electron system (eV)
  ---------------------------------------------------
  alpha Z        PSCENC =        94.24357992
  Ewald energy   TEWEN  =      -795.76658092
  -Hartree energ DENC   =      -306.25623729
  -exchange      EXHF   =         0.00000000
  -V(xc)+E(xc)   XCENC  =        99.13944306
  PAW double counting   =      1503.08467991    -1491.73520339
  entropy T*S    EENTRO =        -0.00516553
  eigenvalues    EBANDS =      -191.28351852
  atomic energy  EATOM  =       996.36613177
  Solvation  Ediel_sol  =         0.00000000
  ---------------------------------------------------
  free energy    TOTEN  =       -92.21287098 eV

  energy without entropy =      -92.20770545  energy(sigma->0) =      -92.21028821


--------------------------------------------------------------------------------------------------------




--------------------------------------- Iteration      1(   7)  ---------------------------------------


    POTLOK:  cpu time      0.0095: real time      0.0102
    SETDIJ:  cpu time      0.0012: real time      0.0012
     EDDAV:  cpu time      1.3597: real time      1.3602
       DOS:  cpu time      0.0004: real time      0.0004
    CHARGE:  cpu time      0.0242: real time      0.0244
    MIXING:  cpu time      0.0008: real time      0.0008
    --------------------------------------------
      LOOP:  cpu time      1.3958: real time      1.3972

 eigenvalue-minimisations  :  5136
 total energy-change (2. order) : 0.1624736E+01  (-0.3140702E+00)
 number of electron      41.9999999 magnetization 
 augmentation part       -0.1693269 magnetization 

 Broyden mixing:
  rms(total) = 0.17579E+00    rms(broyden)= 0.17578E+00
  rms(prec ) = 0.25571E+00
  weight for this iteration     100.00

 eigenvalues of (default mixing * dielectric matrix)
  average eigenvalue GAMMA=   1.8585
  1.4408  2.2763

 Free energy of the ion-electron system (eV)
  ---------------------------------------------------
  alpha Z        PSCENC =        94.24357992
  Ewald energy   TEWEN  =      -795.76658092
  -Hartree energ DENC   =      -342.11375519
  -exchange      EXHF   =         0.00000000
  -V(xc)+E(xc)   XCENC  =       101.03740741
  PAW double counting   =      3040.97995433    -3030.17695219
  entropy T*S    EENTRO =        -0.00297776
  eigenvalues    EBANDS =      -155.15494193
  atomic energy  EATOM  =       996.36613177
  Solvation  Ediel_sol  =         0.00000000
  ---------------------------------------------------
  free energy    TOTEN  =       -90.58813456 eV

  energy without entropy =      -90.58515680  energy(sigma->0) =      -90.58664568


--------------------------------------------------------------------------------------------------------




--------------------------------------- Iteration      1(   8)  ---------------------------------------


    POTLOK:  cpu time      0.0151: real time      0.0159
    SETDIJ:  cpu time      0.0012: real time      0.0012
     EDDAV:  cpu time      1.0241: real time      1.0244
       DOS:  cpu time      0.0005: real time      0.0005
    CHARGE:  cpu time      0.0235: real time      0.0242
    MIXING:  cpu time      0.0006: real time      0.0006
    --------------------------------------------
      LOOP:  cpu time      1.0650: real time      1.0668

 eigenvalue-minimisations  :  3792
 total energy-change (2. order) :-0.8839501E-02  (-0.2297272E-01)
 number of electron      41.9999999 magnetization 
 augmentation part       -0.1753636 magnetization 

 Broyden mixing:
  rms(total) = 0.73775E-01    rms(broyden)= 0.73775E-01
  rms(prec ) = 0.11009E+00
  weight for this iteration     100.00

 eigenvalues of (default mixing * dielectric matrix)
  average eigenvalue GAMMA=   1.7521
  1.0121  1.8325  2.4116

 Free energy of the ion-electron system (eV)
  ---------------------------------------------------
  alpha Z        PSCENC =        94.24357992
  Ewald energy   TEWEN  =      -795.76658092
  -Hartree energ DENC   =      -346.15558679
  -exchange      EXHF   =         0.00000000
  -V(xc)+E(xc)   XCENC  =       101.35345845
  PAW double counting   =      3486.75294802    -3475.97745427
  entropy T*S    EENTRO =        -0.00286011
  eigenvalues    EBANDS =      -151.41061014
  atomic energy  EATOM  =       996.36613177
  Solvation  Ediel_sol  =         0.00000000
  ---------------------------------------------------
  free energy    TOTEN  =       -90.59697406 eV

  energy without entropy =      -90.59411395  energy(sigma->0) =      -90.59554401


--------------------------------------------------------------------------------------------------------




--------------------------------------- Iteration      1(   9)  ---------------------------------------


    POTLOK:  cpu time      0.0089: real time      0.0098
    SETDIJ:  cpu time      0.0011: real time      0.0011
     EDDAV:  cpu time      1.2722: real time      1.2725
       DOS:  cpu time      0.0004: real time      0.0004
    CHARGE:  cpu time      0.0227: real time      0.0227
    MIXING:  cpu time      0.0007: real time      0.0007
    --------------------------------------------
      LOOP:  cpu time      1.3060: real time      1.3072

 eigenvalue-minimisations  :  4824
 total energy-change (2. order) :-0.1438229E-01  (-0.1672628E-02)
 number of electron      41.9999999 magnetization 
 augmentation part       -0.1750416 magnetization 

 Broyden mixing:
  rms(total) = 0.20133E-01    rms(broyden)= 0.20133E-01
  rms(prec ) = 0.35799E-01
  weight for this iteration     100.00

 eigenvalues of (default mixing * dielectric matrix)
  average eigenvalue GAMMA=   1.6813
  2.4021  2.0401  1.0790  1.2039

 Free energy of the ion-electron system (eV)
  ---------------------------------------------------
  alpha Z        PSCENC =        94.24357992
  Ewald energy   TEWEN  =      -795.76658092
  -Hartree energ DENC   =      -348.07317496
  -exchange      EXHF   =         0.00000000
  -V(xc)+E(xc)   XCENC  =       101.51711156
  PAW double counting   =      3716.40087389    -3705.61236499
  entropy T*S    EENTRO =        -0.00288147
  eigenvalues    EBANDS =      -149.68405115
  atomic energy  EATOM  =       996.36613177
  Solvation  Ediel_sol  =         0.00000000
  ---------------------------------------------------
  free energy    TOTEN  =       -90.61135635 eV

  energy without entropy =      -90.60847487  energy(sigma->0) =      -90.60991561


--------------------------------------------------------------------------------------------------------




--------------------------------------- Iteration      1(  10)  ---------------------------------------


    POTLOK:  cpu time      0.0092: real time      0.0102
    SETDIJ:  cpu time      0.0012: real time      0.0012
     EDDAV:  cpu time      1.0412: real time      1.0413
       DOS:  cpu time      0.0004: real time      0.0004
    CHARGE:  cpu time      0.0228: real time      0.0228
    MIXING:  cpu time      0.0007: real time      0.0007
    --------------------------------------------
      LOOP:  cpu time      1.0755: real time      1.0764

 eigenvalue-minimisations  :  3888
 total energy-change (2. order) :-0.4249269E-02  (-0.2399846E-03)
 number of electron      41.9999999 magnetization 
 augmentation part       -0.1744981 magnetization 

 Broyden mixing:
  rms(total) = 0.64149E-02    rms(broyden)= 0.64149E-02
  rms(prec ) = 0.12957E-01
  weight for this iteration     100.00

 eigenvalues of (default mixing * dielectric matrix)
  average eigenvalue GAMMA=   1.7330
  2.5632  2.4063  1.0360  1.1235  1.5363

 Free energy of the ion-electron system (eV)
  ---------------------------------------------------
  alpha Z        PSCENC =        94.24357992
  Ewald energy   TEWEN  =      -795.76658092
  -Hartree energ DENC   =      -348.53282190
  -exchange      EXHF   =         0.00000000
  -V(xc)+E(xc)   XCENC  =       101.54853861
  PAW double counting   =      3730.28089909    -3719.47685826
  entropy T*S    EENTRO =        -0.00289401
  eigenvalues    EBANDS =      -149.27559992
  atomic energy  EATOM  =       996.36613177
  Solvation  Ediel_sol  =         0.00000000
  ---------------------------------------------------
  free energy    TOTEN  =       -90.61560562 eV

  energy without entropy =      -90.61271161  energy(sigma->0) =      -90.61415861


--------------------------------------------------------------------------------------------------------




--------------------------------------- Iteration      1(  11)  ---------------------------------------


    POTLOK:  cpu time      0.0091: real time      0.0100
    SETDIJ:  cpu time      0.0011: real time      0.0011
     EDDAV:  cpu time      1.1558: real time      1.1561
       DOS:  cpu time      0.0004: real time      0.0004
    CHARGE:  cpu time      0.0226: real time      0.0226
    MIXING:  cpu time      0.0007: real time      0.0007
    --------------------------------------------
      LOOP:  cpu time      1.1898: real time      1.1909

 eigenvalue-minimisations  :  4368
 total energy-change (2. order) :-0.1148852E-02  (-0.7121329E-04)
 number of electron      41.9999999 magnetization 
 augmentation part       -0.1744002 magnetization 

 Broyden mixing:
  rms(total) = 0.32105E-02    rms(broyden)= 0.32105E-02
  rms(prec ) = 0.44164E-02
  weight for this iteration     100.00

 eigenvalues of (default mixing * dielectric matrix)
  average eigenvalue GAMMA=   1.8472
  3.0232  2.4979  1.9635  1.5344  1.0211  1.0430

 Free energy of the ion-electron system (eV)
  ---------------------------------------------------
  alpha Z        PSCENC =        94.24357992
  Ewald energy   TEWEN  =      -795.76658092
  -Hartree energ DENC   =      -348.88149271
  -exchange      EXHF   =         0.00000000
  -V(xc)+E(xc)   XCENC  =       101.57292303
  PAW double counting   =      3732.86527625    -3722.05544882
  entropy T*S    EENTRO =        -0.00289163
  eigenvalues    EBANDS =      -148.95825136
  atomic energy  EATOM  =       996.36613177
  Solvation  Ediel_sol  =         0.00000000
  ---------------------------------------------------
  free energy    TOTEN  =       -90.61675447 eV

  energy without entropy =      -90.61386284  energy(sigma->0) =      -90.61530865


--------------------------------------------------------------------------------------------------------




--------------------------------------- Iteration      1(  12)  ---------------------------------------


    POTLOK:  cpu time      0.0147: real time      0.0156
    SETDIJ:  cpu time      0.0012: real time      0.0012
     EDDAV:  cpu time      1.1754: real time      1.1754
       DOS:  cpu time      0.0004: real time      0.0004
    CHARGE:  cpu time      0.0231: real time      0.0231
    MIXING:  cpu time      0.0006: real time      0.0006
    --------------------------------------------
      LOOP:  cpu time      1.2155: real time      1.2164

 eigenvalue-minimisations  :  4440
 total energy-change (2. order) :-0.8852557E-04  (-0.7704939E-05)
 number of electron      41.9999999 magnetization 
 augmentation part       -0.1744483 magnetization 

 Broyden mixing:
  rms(total) = 0.38793E-03    rms(broyden)= 0.38792E-03
  rms(prec ) = 0.65736E-03
  weight for this iteration     100.00

 eigenvalues of (default mixing * dielectric matrix)
  average eigenvalue GAMMA=   1.8059
  3.2328  2.5065  1.9429  1.0000  1.0725  1.5474  1.3395

 Free energy of the ion-electron system (eV)
  ---------------------------------------------------
  alpha Z        PSCENC =        94.24357992
  Ewald energy   TEWEN  =      -795.76658092
  -Hartree energ DENC   =      -348.94877411
  -exchange      EXHF   =         0.00000000
  -V(xc)+E(xc)   XCENC  =       101.57714862
  PAW double counting   =      3721.91354508    -3711.10413141
  entropy T*S    EENTRO =        -0.00288604
  eigenvalues    EBANDS =      -148.89487591
  atomic energy  EATOM  =       996.36613177
  Solvation  Ediel_sol  =         0.00000000
  ---------------------------------------------------
  free energy    TOTEN  =       -90.61684300 eV

  energy without entropy =      -90.61395695  energy(sigma->0) =      -90.61539997


--------------------------------------------------------------------------------------------------------




--------------------------------------- Iteration      1(  13)  ---------------------------------------


    POTLOK:  cpu time      0.0090: real time      0.0099
    SETDIJ:  cpu time      0.0011: real time      0.0011
     EDDAV:  cpu time      1.2025: real time      1.2027
       DOS:  cpu time      0.0004: real time      0.0004
    CHARGE:  cpu time      0.0230: real time      0.0230
    MIXING:  cpu time      0.0007: real time      0.0007
    --------------------------------------------
      LOOP:  cpu time      1.2369: real time      1.2379

 eigenvalue-minimisations  :  4560
 total energy-change (2. order) :-0.3900236E-05  (-0.3228675E-06)
 number of electron      41.9999999 magnetization 
 augmentation part       -0.1744476 magnetization 

 Broyden mixing:
  rms(total) = 0.16808E-03    rms(broyden)= 0.16808E-03
  rms(prec ) = 0.25342E-03
  weight for this iteration     100.00

 eigenvalues of (default mixing * dielectric matrix)
  average eigenvalue GAMMA=   1.8162
  3.3122  2.4964  2.1406  1.9731  1.5277  0.9801  1.0499  1.0499

 Free energy of the ion-electron system (eV)
  ---------------------------------------------------
  alpha Z        PSCENC =        94.24357992
  Ewald energy   TEWEN  =      -795.76658092
  -Hartree energ DENC   =      -348.95984605
  -exchange      EXHF   =         0.00000000
  -V(xc)+E(xc)   XCENC  =       101.57779532
  PAW double counting   =      3721.49162700    -3710.68224103
  entropy T*S    EENTRO =        -0.00288710
  eigenvalues    EBANDS =      -148.88442580
  atomic energy  EATOM  =       996.36613177
  Solvation  Ediel_sol  =         0.00000000
  ---------------------------------------------------
  free energy    TOTEN  =       -90.61684690 eV

  energy without entropy =      -90.61395980  energy(sigma->0) =      -90.61540335


--------------------------------------------------------------------------------------------------------




--------------------------------------- Iteration      1(  14)  ---------------------------------------


    POTLOK:  cpu time      0.0092: real time      0.0101
    SETDIJ:  cpu time      0.0012: real time      0.0012
     EDDAV:  cpu time      1.1669: real time      1.1670
       DOS:  cpu time      0.0004: real time      0.0003
    --------------------------------------------
      LOOP:  cpu time      1.1776: real time      1.1785

 eigenvalue-minimisations  :  4392
 total energy-change (2. order) :-0.7192234E-06  (-0.3468846E-07)
 number of electron      41.9999999 magnetization 
 augmentation part       -0.1744476 magnetization 

 Free energy of the ion-electron system (eV)
  ---------------------------------------------------
  alpha Z        PSCENC =        94.24357992
  Ewald energy   TEWEN  =      -795.76658092
  -Hartree energ DENC   =      -348.95945937
  -exchange      EXHF   =         0.00000000
  -V(xc)+E(xc)   XCENC  =       101.57774162
  PAW double counting   =      3721.42104588    -3710.61176665
  entropy T*S    EENTRO =        -0.00288742
  eigenvalues    EBANDS =      -148.88465244
  atomic energy  EATOM  =       996.36613177
  Solvation  Ediel_sol  =         0.00000000
  ---------------------------------------------------
  free energy    TOTEN  =       -90.61684761 eV

  energy without entropy =      -90.61396020  energy(sigma->0) =      -90.61540391


--------------------------------------------------------------------------------------------------------




 average (electrostatic) potential at core
  the test charge radii are     0.7672
  (the norm of the test charge is              1.0000)
       1 -29.9741       2 -29.9741       3 -29.9741       4 -29.9741       5 -28.9358
       6 -28.9358       7 -28.9358       8 -28.9358       9 -29.3701      10 -29.3701
      11 -29.3701      12 -29.3701      13 -29.9236      14 -29.9236
 
 
 
 E-fermi :   1.8988     XC(G=0):  -9.4411     alpha+bet :-10.8605

 val. band max:        1.8767757772   @ k =   0.4000   0.4286   0.2000
 cond. band min:       1.9118577405   @ k =   0.2000   0.0000   0.0000
 fundamental gap:      0.0350819633
 Fermi energy:         1.8987839601

 k-point     1 :       0.0000    0.0000    0.0000
  band No.  band energies     occupation 
      1     -12.7349      2.00000
      2     -11.5788      2.00000
      3      -8.6610      2.00000
      4      -8.4253      2.00000
      5      -6.0792      2.00000
      6      -5.0580      2.00000
      7      -4.6367      2.00000
      8      -4.3513      2.00000
      9      -3.9723      2.00000
     10      -3.5994      2.00000
     11      -2.4474      2.00000
     12      -2.2700      2.00000
     13      -2.1830      2.00000
     14      -1.0535      2.00000
     15      -0.0363      2.00000
     16       0.0001      2.00000
     17       0.1490      2.00000
     18       0.1736      2.00000
     19       0.5647      2.00000
     20       2.0785      0.00000
     21       2.1284      0.00000
     22       2.2133      0.00000
     23       5.4073      0.00000
     24       5.7999      0.00000
     25       5.8219      0.00000
     26       5.9126      0.00000
     27       6.7809      0.00000
     28       7.6644      0.00000
     29       7.7010      0.00000
     30       8.6333      0.00000
     31       8.7516      0.00000
     32       8.8516      0.00000
     33       9.0422      0.00000
     34      10.0261      0.00000
     35      11.1458      0.00000
     36      11.4021      0.00000
     37      11.7744      0.00000
     38      11.8022      0.00000
     39      11.9000      0.00000
     40      12.3567      0.00000
     41      12.8041      0.00000
     42      13.3912      0.00000
     43      13.5713      0.00000
     44      15.5551      0.00000
     45      15.5669      0.00000
     46      15.9383      0.00000
     47      16.3574      0.00000
     48      16.5907      0.00000

 k-point     2 :       0.2000    0.0000    0.0000
  band No.  band energies     occupation 
      1     -12.6479      2.00000
      2     -11.7224      2.00000
      3      -8.6187      2.00000
      4      -8.4043      2.00000
      5      -5.9745      2.00000
      6      -5.6459      2.00000
      7      -4.8004      2.00000
      8      -3.8500      2.00000
      9      -3.5586      2.00000
     10      -2.9808      2.00000
     11      -2.4414      2.00000
     12      -2.4072      2.00000
     13      -2.2933      2.00000
     14      -1.6394      2.00000
     15      -0.0841      2.00000
     16       0.0480      2.00000
     17       0.1242      2.00000
     18       0.1828      2.00000
     19       0.4167      2.00000
     20       1.9119      0.71154
     21       1.9763      0.02828
     22       1.9783      0.02459
     23       5.5668      0.00000
     24       5.7148      0.00000
     25       6.0144      0.00000
     26       6.5719      0.00000
     27       6.6216      0.00000
     28       6.9764      0.00000
     29       8.1294      0.00000
     30       8.8697      0.00000
     31       9.0061      0.00000
     32       9.3443      0.00000
     33       9.3580      0.00000
     34      10.3226      0.00000
     35      10.6557      0.00000
     36      10.8383      0.00000
     37      11.2928      0.00000
     38      11.7056      0.00000
     39      12.2809      0.00000
     40      12.5683      0.00000
     41      12.8982      0.00000
     42      13.1075      0.00000
     43      14.4098      0.00000
     44      14.7453      0.00000
     45      15.4992      0.00000
     46      15.9458      0.00000
     47      16.2511      0.00000
     48      16.5437      0.00000

 k-point     3 :       0.4000    0.0000    0.0000
  band No.  band energies     occupation 
      1     -12.4026      2.00000
      2     -12.0548      2.00000
      3      -8.4993      2.00000
      4      -8.4014      2.00000
      5      -6.1065      2.00000
      6      -6.1057      2.00000
      7      -4.1738      2.00000
      8      -3.4994      2.00000
      9      -3.0258      2.00000
     10      -2.9807      2.00000
     11      -2.5435      2.00000
     12      -2.3837      2.00000
     13      -2.1197      2.00000
     14      -2.0403      2.00000
     15      -0.6592      2.00000
     16      -0.4287      2.00000
     17       0.2383      2.00000
     18       0.3003      2.00000
     19       0.7368      2.00000
     20       1.3629      2.00000
     21       1.6430      2.00000
     22       1.6936      2.00000
     23       5.6786      0.00000
     24       5.7289      0.00000
     25       6.4317      0.00000
     26       6.5553      0.00000
     27       7.0481      0.00000
     28       7.7579      0.00000
     29       8.3898      0.00000
     30       8.4677      0.00000
     31       8.6858      0.00000
     32       9.1836      0.00000
     33      10.2975      0.00000
     34      10.3325      0.00000
     35      10.5511      0.00000
     36      11.3559      0.00000
     37      11.5234      0.00000
     38      11.6539      0.00000
     39      11.9142      0.00000
     40      12.4011      0.00000
     41      12.5221      0.00000
     42      13.3314      0.00000
     43      14.5448      0.00000
     44      14.9178      0.00000
     45      14.9987      0.00000
     46      15.1444      0.00000
     47      15.8016      0.00000
     48      16.4547      0.00000

 k-point     4 :       0.0000    0.1429    0.0000
  band No.  band energies     occupation 
      1     -12.6877      2.00000
      2     -11.5364      2.00000
      3      -8.6242      2.00000
      4      -8.3798      2.00000
      5      -6.0270      2.00000
      6      -4.9843      2.00000
      7      -4.8609      2.00000
      8      -4.5927      2.00000
      9      -4.2571      2.00000
     10      -3.6261      2.00000
     11      -3.5393      2.00000
     12      -1.4998      2.00000
     13      -1.0445      2.00000
     14      -0.6201      2.00000
     15      -0.4527      2.00000
     16      -0.4504      2.00000
     17       0.1742      2.00000
     18       0.2949      2.00000
     19       0.7008      2.00000
     20       1.5763      2.00000
     21       1.6524      2.00000
     22       2.3074      0.00000
     23       5.4976      0.00000
     24       5.5005      0.00000
     25       5.8828      0.00000
     26       6.1096      0.00000
     27       7.3193      0.00000
     28       7.8196      0.00000
     29       8.1394      0.00000
     30       8.3982      0.00000
     31       8.7470      0.00000
     32       9.1716      0.00000
     33       9.1992      0.00000
     34      10.8314      0.00000
     35      11.3126      0.00000
     36      11.5444      0.00000
     37      11.6480      0.00000
     38      12.0016      0.00000
     39      12.1225      0.00000
     40      12.7531      0.00000
     41      12.8795      0.00000
     42      12.9672      0.00000
     43      13.0644      0.00000
     44      15.0446      0.00000
     45      15.4327      0.00000
     46      15.5807      0.00000
     47      15.6254      0.00000
     48      16.0914      0.00000

 k-point     5 :       0.2000    0.1429    0.0000
  band No.  band energies     occupation 
      1     -12.6011      2.00000
      2     -11.6794      2.00000
      3      -8.5814      2.00000
      4      -8.3602      2.00000
      5      -5.9154      2.00000
      6      -5.5874      2.00000
      7      -4.7642      2.00000
      8      -4.7272      2.00000
      9      -3.7497      2.00000
     10      -3.4684      2.00000
     11      -2.9243      2.00000
     12      -1.6268      2.00000
     13      -1.4567      2.00000
     14      -0.9499      2.00000
     15      -0.3777      2.00000
     16      -0.1938      2.00000
     17       0.0681      2.00000
     18       0.2590      2.00000
     19       0.5067      2.00000
     20       1.4242      2.00000
     21       1.5098      2.00000
     22       2.0431      0.00004
     23       5.6537      0.00000
     24       6.0110      0.00000
     25       6.0727      0.00000
     26       6.1875      0.00000
     27       7.1687      0.00000
     28       7.6332      0.00000
     29       8.1026      0.00000
     30       8.6359      0.00000
     31       9.1909      0.00000
     32       9.4237      0.00000
     33       9.7504      0.00000
     34      10.3276      0.00000
     35      10.5447      0.00000
     36      10.9768      0.00000
     37      11.6086      0.00000
     38      12.1369      0.00000
     39      12.3918      0.00000
     40      12.5355      0.00000
     41      13.0820      0.00000
     42      13.1752      0.00000
     43      13.8483      0.00000
     44      14.9202      0.00000
     45      15.0183      0.00000
     46      15.4649      0.00000
     47      15.6404      0.00000
     48      16.2980      0.00000

 k-point     6 :       0.4000    0.1429    0.0000
  band No.  band energies     occupation 
      1     -12.3569      2.00000
      2     -12.0105      2.00000
      3      -8.4610      2.00000
      4      -8.3608      2.00000
      5      -6.0434      2.00000
      6      -6.0423      2.00000
      7      -4.4492      2.00000
      8      -4.1482      2.00000
      9      -4.0742      2.00000
     10      -2.9891      2.00000
     11      -2.2510      2.00000
     12      -2.0016      2.00000
     13      -1.3410      2.00000
     14      -1.2859      2.00000
     15      -0.5665      2.00000
     16      -0.4816      2.00000
     17       0.0292      2.00000
     18       0.0658      2.00000
     19       0.7555      2.00000
     20       1.1736      2.00000
     21       1.2385      2.00000
     22       1.3963      2.00000
     23       6.0201      0.00000
     24       6.1807      0.00000
     25       6.6987      0.00000
     26       7.0188      0.00000
     27       7.0253      0.00000
     28       7.6375      0.00000
     29       8.0547      0.00000
     30       8.8354      0.00000
     31       8.8717      0.00000
     32       9.0015      0.00000
     33      10.0167      0.00000
     34      10.3923      0.00000
     35      10.7524      0.00000
     36      10.9678      0.00000
     37      11.6270      0.00000
     38      11.7553      0.00000
     39      12.0075      0.00000
     40      12.8991      0.00000
     41      12.9886      0.00000
     42      13.7155      0.00000
     43      14.4805      0.00000
     44      14.6671      0.00000
     45      14.9326      0.00000
     46      15.1436      0.00000
     47      15.8721      0.00000
     48      16.4196      0.00000

 k-point     7 :       0.0000    0.2857    0.0000
  band No.  band energies     occupation 
      1     -12.5750      2.00000
      2     -11.4358      2.00000
      3      -8.5384      2.00000
      4      -8.2714      2.00000
      5      -5.9022      2.00000
      6      -5.8420      2.00000
      7      -4.8022      2.00000
      8      -4.6573      2.00000
      9      -4.4799      2.00000
     10      -4.1974      2.00000
     11      -3.4238      2.00000
     12      -1.3727      2.00000
     13      -1.1763      2.00000
     14      -1.0242      2.00000
     15       0.0804      2.00000
     16       0.2369      2.00000
     17       0.3855      2.00000
     18       0.7047      2.00000
     19       0.7936      2.00000
     20       0.8322      2.00000
     21       1.0536      2.00000
     22       2.3767      0.00000
     23       4.7801      0.00000
     24       4.9732      0.00000
     25       6.4300      0.00000
     26       6.7772      0.00000
     27       7.1213      0.00000
     28       8.1473      0.00000
     29       8.6905      0.00000
     30       9.4003      0.00000
     31       9.6248      0.00000
     32       9.7367      0.00000
     33       9.9324      0.00000
     34      10.7218      0.00000
     35      11.3586      0.00000
     36      11.9417      0.00000
     37      12.2122      0.00000
     38      12.3596      0.00000
     39      12.3801      0.00000
     40      12.4193      0.00000
     41      12.6007      0.00000
     42      12.9069      0.00000
     43      13.3760      0.00000
     44      14.1999      0.00000
     45      14.2295      0.00000
     46      14.9977      0.00000
     47      15.5184      0.00000
     48      15.9850      0.00000

 k-point     8 :       0.2000    0.2857    0.0000
  band No.  band energies     occupation 
      1     -12.4894      2.00000
      2     -11.5775      2.00000
      3      -8.4941      2.00000
      4      -8.2556      2.00000
      5      -5.7729      2.00000
      6      -5.7590      2.00000
      7      -5.4058      2.00000
      8      -4.7874      2.00000
      9      -4.6727      2.00000
     10      -3.3546      2.00000
     11      -2.8040      2.00000
     12      -1.6009      2.00000
     13      -1.2789      2.00000
     14      -1.1795      2.00000
     15       0.0046      2.00000
     16       0.1045      2.00000
     17       0.3352      2.00000
     18       0.5457      2.00000
     19       0.5788      2.00000
     20       0.8155      2.00000
     21       1.0215      2.00000
     22       2.1037      0.00000
     23       5.0214      0.00000
     24       5.5727      0.00000
     25       6.3481      0.00000
     26       7.0061      0.00000
     27       7.3696      0.00000
     28       8.1131      0.00000
     29       8.8366      0.00000
     30       9.4393      0.00000
     31       9.4726      0.00000
     32       9.8081      0.00000
     33      10.2051      0.00000
     34      10.2235      0.00000
     35      10.6315      0.00000
     36      11.6225      0.00000
     37      11.7601      0.00000
     38      12.3528      0.00000
     39      12.5776      0.00000
     40      12.7562      0.00000
     41      13.0461      0.00000
     42      13.4054      0.00000
     43      13.4268      0.00000
     44      14.1306      0.00000
     45      14.2188      0.00000
     46      15.0242      0.00000
     47      15.4687      0.00000
     48      15.8169      0.00000

 k-point     9 :       0.4000    0.2857    0.0000
  band No.  band energies     occupation 
      1     -12.2478      2.00000
      2     -11.9052      2.00000
      3      -8.3711      2.00000
      4      -8.2649      2.00000
      5      -5.8974      2.00000
      6      -5.8861      2.00000
      7      -5.4563      2.00000
      8      -5.1041      2.00000
      9      -4.0803      2.00000
     10      -2.9269      2.00000
     11      -2.1334      2.00000
     12      -1.9021      2.00000
     13      -1.1102      2.00000
     14      -1.0997      2.00000
     15      -0.5543      2.00000
     16      -0.4015      2.00000
     17       0.0985      2.00000
     18       0.2171      2.00000
     19       0.7948      2.00000
     20       0.8579      2.00000
     21       0.9420      2.00000
     22       1.4397      2.00000
     23       6.0588      0.00000
     24       6.4482      0.00000
     25       6.7219      0.00000
     26       6.8473      0.00000
     27       7.3155      0.00000
     28       7.9499      0.00000
     29       8.8397      0.00000
     30       8.8957      0.00000
     31       9.2822      0.00000
     32       9.8686      0.00000
     33      10.0039      0.00000
     34      10.2465      0.00000
     35      10.8208      0.00000
     36      11.4378      0.00000
     37      11.8223      0.00000
     38      12.1715      0.00000
     39      12.1918      0.00000
     40      13.0185      0.00000
     41      13.1799      0.00000
     42      13.4898      0.00000
     43      13.8836      0.00000
     44      13.9495      0.00000
     45      14.9146      0.00000
     46      15.0658      0.00000
     47      15.4025      0.00000
     48      15.9710      0.00000

 k-point    10 :       0.0000    0.4286    0.0000
  band No.  band energies     occupation 
      1     -12.4771      2.00000
      2     -11.3489      2.00000
      3      -8.4661      2.00000
      4      -8.1770      2.00000
      5      -6.4137      2.00000
      6      -5.7914      2.00000
      7      -5.2266      2.00000
      8      -4.6343      2.00000
      9      -4.3690      2.00000
     10      -4.1303      2.00000
     11      -3.3104      2.00000
     12      -1.8457      2.00000
     13      -1.6876      2.00000
     14      -1.0075      2.00000
     15       0.1854      2.00000
     16       0.2044      2.00000
     17       0.2574      2.00000
     18       0.4423      2.00000
     19       0.8356      2.00000
     20       1.0963      2.00000
     21       2.1924      0.00000
     22       2.4253      0.00000
     23       4.3034      0.00000
     24       4.6114      0.00000
     25       6.5774      0.00000
     26       6.9533      0.00000
     27       7.3656      0.00000
     28       8.5208      0.00000
     29       8.5617      0.00000
     30       9.8266      0.00000
     31      10.1823      0.00000
     32      10.3525      0.00000
     33      10.6977      0.00000
     34      11.0581      0.00000
     35      11.0756      0.00000
     36      11.1920      0.00000
     37      11.9342      0.00000
     38      12.3220      0.00000
     39      12.3304      0.00000
     40      12.9868      0.00000
     41      13.1778      0.00000
     42      13.5319      0.00000
     43      13.6656      0.00000
     44      14.2959      0.00000
     45      15.1169      0.00000
     46      15.3016      0.00000
     47      15.3352      0.00000
     48      15.6015      0.00000

 k-point    11 :       0.2000    0.4286    0.0000
  band No.  band energies     occupation 
      1     -12.3923      2.00000
      2     -11.4893      2.00000
      3      -8.4204      2.00000
      4      -8.1649      2.00000
      5      -6.3178      2.00000
      6      -5.6435      2.00000
      7      -5.3578      2.00000
      8      -5.2848      2.00000
      9      -4.5890      2.00000
     10      -3.2409      2.00000
     11      -2.6804      2.00000
     12      -1.7675      2.00000
     13      -1.6625      2.00000
     14      -1.5573      2.00000
     15      -0.0606      2.00000
     16       0.0102      2.00000
     17       0.1573      2.00000
     18       0.3510      2.00000
     19       0.5988      2.00000
     20       1.3149      2.00000
     21       2.1214      0.00000
     22       2.1527      0.00000
     23       4.5844      0.00000
     24       5.1736      0.00000
     25       6.5036      0.00000
     26       7.1484      0.00000
     27       7.6094      0.00000
     28       8.6215      0.00000
     29       8.9991      0.00000
     30       9.1121      0.00000
     31       9.6921      0.00000
     32      10.2464      0.00000
     33      10.4243      0.00000
     34      11.1918      0.00000
     35      11.1990      0.00000
     36      11.7149      0.00000
     37      12.0123      0.00000
     38      12.2541      0.00000
     39      12.4570      0.00000
     40      12.8779      0.00000
     41      13.1711      0.00000
     42      13.3656      0.00000
     43      13.6772      0.00000
     44      14.0600      0.00000
     45      14.6316      0.00000
     46      14.8902      0.00000
     47      15.0482      0.00000
     48      15.4375      0.00000

 k-point    12 :       0.4000    0.4286    0.0000
  band No.  band energies     occupation 
      1     -12.1532      2.00000
      2     -11.8139      2.00000
      3      -8.2948      2.00000
      4      -8.1827      2.00000
      5      -6.0541      2.00000
      6      -5.7514      2.00000
      7      -5.7340      2.00000
      8      -5.6677      2.00000
      9      -4.0205      2.00000
     10      -2.8629      2.00000
     11      -1.9998      2.00000
     12      -1.7670      2.00000
     13      -1.5836      2.00000
     14      -1.5271      2.00000
     15      -0.5332      2.00000
     16      -0.3995      2.00000
     17      -0.3066      2.00000
     18      -0.2271      2.00000
     19       0.8331      2.00000
     20       1.4793      2.00000
     21       1.6555      2.00000
     22       1.9355      0.29863
     23       5.6300      0.00000
     24       6.3008      0.00000
     25       6.7129      0.00000
     26       6.9329      0.00000
     27       7.2245      0.00000
     28       7.6878      0.00000
     29       9.0801      0.00000
     30       9.7720      0.00000
     31       9.8023      0.00000
     32       9.8485      0.00000
     33      10.5265      0.00000
     34      10.9176      0.00000
     35      11.8460      0.00000
     36      11.8983      0.00000
     37      11.9634      0.00000
     38      12.0577      0.00000
     39      12.2741      0.00000
     40      12.6512      0.00000
     41      12.9141      0.00000
     42      13.2552      0.00000
     43      13.8508      0.00000
     44      13.9396      0.00000
     45      14.4376      0.00000
     46      14.6104      0.00000
     47      15.0640      0.00000
     48      15.6749      0.00000

 k-point    13 :       0.0000    0.0000    0.2000
  band No.  band energies     occupation 
      1     -12.7019      2.00000
      2     -11.6406      2.00000
      3      -8.6432      2.00000
      4      -8.3262      2.00000
      5      -6.4186      2.00000
      6      -5.4511      2.00000
      7      -4.1375      2.00000
      8      -3.9565      2.00000
      9      -3.9077      2.00000
     10      -3.2519      2.00000
     11      -2.4172      2.00000
     12      -2.3806      2.00000
     13      -2.2912      2.00000
     14      -1.2045      2.00000
     15      -0.5256      2.00000
     16       0.0320      2.00000
     17       0.0843      2.00000
     18       0.2167      2.00000
     19       0.2349      2.00000
     20       1.8739      1.51921
     21       1.9162      0.62143
     22       2.9494      0.00000
     23       5.3676      0.00000
     24       5.3920      0.00000
     25       5.9059      0.00000
     26       6.3241      0.00000
     27       7.0108      0.00000
     28       7.3637      0.00000
     29       7.7566      0.00000
     30       8.7889      0.00000
     31       8.9713      0.00000
     32       9.2293      0.00000
     33       9.4431      0.00000
     34      10.3558      0.00000
     35      10.7071      0.00000
     36      11.0777      0.00000
     37      11.2685      0.00000
     38      11.8847      0.00000
     39      11.9494      0.00000
     40      12.5708      0.00000
     41      12.8188      0.00000
     42      13.2318      0.00000
     43      14.4170      0.00000
     44      14.8736      0.00000
     45      15.0594      0.00000
     46      15.4945      0.00000
     47      15.6192      0.00000
     48      16.4324      0.00000

[...]
     43      13.9732      0.00000
     44      14.2093      0.00000
     45      14.4898      0.00000
     46      15.1120      0.00000
     47      15.3990      0.00000
     48      15.6800      0.00000

 k-point    31 :       0.0000    0.2857    0.4000
  band No.  band energies     occupation 
      1     -12.4856      2.00000
      2     -11.5939      2.00000
      3      -8.4966      2.00000
      4      -7.9846      2.00000
      5      -6.7039      2.00000
      6      -5.6544      2.00000
      7      -5.5250      2.00000
      8      -4.9560      2.00000
      9      -3.4336      2.00000
     10      -3.0338      2.00000
     11      -2.2476      2.00000
     12      -1.5492      2.00000
     13      -1.4276      2.00000
     14      -1.0761      2.00000
     15      -0.8589      2.00000
     16      -0.7119      2.00000
     17      -0.1387      2.00000
     18       0.1494      2.00000
     19       0.4304      2.00000
     20       0.7792      2.00000
     21       1.0166      2.00000
     22       3.8882      0.00000
     23       5.0256      0.00000
     24       5.4863      0.00000
     25       6.6208      0.00000
     26       6.6749      0.00000
     27       8.0330      0.00000
     28       8.1170      0.00000
     29       9.4426      0.00000
     30       9.4572      0.00000
     31       9.5673      0.00000
     32       9.6104      0.00000
     33       9.8440      0.00000
     34       9.9712      0.00000
     35       9.9882      0.00000
     36      10.9727      0.00000
     37      11.3785      0.00000
     38      12.5946      0.00000
     39      12.6294      0.00000
     40      12.7962      0.00000
     41      13.0392      0.00000
     42      13.7122      0.00000
     43      13.7346      0.00000
     44      14.0478      0.00000
     45      14.3336      0.00000
     46      15.1403      0.00000
     47      15.2996      0.00000
     48      15.5194      0.00000

 k-point    32 :       0.2000    0.2857    0.4000
  band No.  band energies     occupation 
      1     -12.4080      2.00000
      2     -11.6814      2.00000
      3      -8.6302      2.00000
      4      -8.1237      2.00000
      5      -6.2686      2.00000
      6      -5.5765      2.00000
      7      -5.3308      2.00000
      8      -4.9974      2.00000
      9      -3.8588      2.00000
     10      -2.8492      2.00000
     11      -2.5386      2.00000
     12      -1.4992      2.00000
     13      -1.3712      2.00000
     14      -1.2561      2.00000
     15      -1.0115      2.00000
     16      -0.6347      2.00000
     17       0.1161      2.00000
     18       0.2877      2.00000
     19       0.4900      2.00000
     20       0.8785      2.00000
     21       1.0691      2.00000
     22       2.7513      0.00000
     23       5.3356      0.00000
     24       6.2527      0.00000
     25       6.4884      0.00000
     26       7.0942      0.00000
     27       7.5799      0.00000
     28       8.5799      0.00000
     29       8.6832      0.00000
     30       8.9739      0.00000
     31       9.2008      0.00000
     32       9.6659      0.00000
     33       9.9176      0.00000
     34      10.5288      0.00000
     35      10.8084      0.00000
     36      11.0292      0.00000
     37      11.3512      0.00000
     38      12.3445      0.00000
     39      12.5572      0.00000
     40      12.8366      0.00000
     41      13.1624      0.00000
     42      13.6391      0.00000
     43      13.9161      0.00000
     44      14.1456      0.00000
     45      14.5121      0.00000
     46      15.0909      0.00000
     47      15.3101      0.00000
     48      15.6130      0.00000

 k-point    33 :       0.4000    0.2857    0.4000
  band No.  band energies     occupation 
      1     -12.1953      2.00000
      2     -11.9150      2.00000
      3      -8.6661      2.00000
      4      -8.4443      2.00000
      5      -5.4153      2.00000
      6      -5.3654      2.00000
      7      -5.1319      2.00000
      8      -4.7941      2.00000
      9      -4.5105      2.00000
     10      -3.6483      2.00000
     11      -2.3033      2.00000
     12      -1.7493      2.00000
     13      -1.6013      2.00000
     14      -1.4323      2.00000
     15      -0.4671      2.00000
     16      -0.2407      2.00000
     17       0.3363      2.00000
     18       0.4566      2.00000
     19       0.5892      2.00000
     20       1.0628      2.00000
     21       1.1015      2.00000
     22       1.2070      2.00000
     23       6.0560      0.00000
     24       6.3255      0.00000
     25       7.0505      0.00000
     26       7.1298      0.00000
     27       7.5960      0.00000
     28       8.0962      0.00000
     29       8.1624      0.00000
     30       8.3464      0.00000
     31       9.4040      0.00000
     32       9.6765      0.00000
     33       9.9519      0.00000
     34      10.7695      0.00000
     35      11.1278      0.00000
     36      11.2174      0.00000
     37      12.1678      0.00000
     38      12.4573      0.00000
     39      12.6042      0.00000
     40      13.3224      0.00000
     41      13.4878      0.00000
     42      13.8144      0.00000
     43      13.8899      0.00000
     44      14.1495      0.00000
     45      14.4173      0.00000
     46      14.5329      0.00000
     47      14.9109      0.00000
     48      15.3485      0.00000

 k-point    34 :       0.0000    0.4286    0.4000
  band No.  band energies     occupation 
      1     -12.3911      2.00000
      2     -11.5003      2.00000
      3      -8.4281      2.00000
      4      -7.9045      2.00000
      5      -6.5830      2.00000
      6      -6.2236      2.00000
      7      -5.5388      2.00000
      8      -5.3693      2.00000
      9      -3.2986      2.00000
     10      -2.9546      2.00000
     11      -2.1097      2.00000
     12      -1.4990      2.00000
     13      -1.4206      2.00000
     14      -1.3624      2.00000
     15      -1.3360      2.00000
     16      -0.7128      2.00000
     17      -0.5599      2.00000
     18      -0.3877      2.00000
     19       0.4393      2.00000
     20       1.5835      2.00000
     21       2.0314      0.00018
     22       3.9260      0.00000
     23       4.6211      0.00000
     24       5.6829      0.00000
     25       6.2189      0.00000
     26       7.2253      0.00000
     27       7.6932      0.00000
     28       7.7816      0.00000
     29       9.1488      0.00000
     30       9.5991      0.00000
     31       9.6305      0.00000
     32       9.8235      0.00000
     33      11.1313      0.00000
     34      11.1444      0.00000
     35      11.4328      0.00000
     36      11.6429      0.00000
     37      11.7116      0.00000
     38      11.8296      0.00000
     39      12.0156      0.00000
     40      12.7701      0.00000
     41      12.8375      0.00000
     42      12.9896      0.00000
     43      13.3383      0.00000
     44      13.8097      0.00000
     45      14.1685      0.00000
     46      15.2521      0.00000
     47      15.4202      0.00000
     48      15.5796      0.00000

 k-point    35 :       0.2000    0.4286    0.4000
  band No.  band energies     occupation 
      1     -12.3141      2.00000
      2     -11.5887      2.00000
      3      -8.5495      2.00000
      4      -8.0410      2.00000
      5      -6.1595      2.00000
      6      -6.1379      2.00000
      7      -5.5795      2.00000
      8      -5.1862      2.00000
      9      -3.7350      2.00000
     10      -2.7623      2.00000
     11      -2.4288      2.00000
     12      -1.8650      2.00000
     13      -1.5446      2.00000
     14      -1.3688      2.00000
     15      -1.1937      2.00000
     16      -0.5588      2.00000
     17      -0.3166      2.00000
     18       0.1348      2.00000
     19       0.4511      2.00000
     20       1.5251      2.00000
     21       1.9481      0.16334
     22       2.8105      0.00000
     23       4.9435      0.00000
     24       6.0909      0.00000
     25       6.5270      0.00000
     26       7.2053      0.00000
     27       7.8011      0.00000
     28       8.2875      0.00000
     29       8.6772      0.00000
     30       9.1542      0.00000
     31       9.6793      0.00000
     32      10.1020      0.00000
     33      10.7409      0.00000
     34      11.1450      0.00000
     35      11.3639      0.00000
     36      11.4889      0.00000
     37      11.5247      0.00000
     38      12.0525      0.00000
     39      12.4814      0.00000
     40      12.6071      0.00000
     41      12.7577      0.00000
     42      13.3270      0.00000
     43      13.7461      0.00000
     44      14.0898      0.00000
     45      14.3966      0.00000
     46      14.8848      0.00000
     47      15.2980      0.00000
     48      15.6801      0.00000

 k-point    36 :       0.4000    0.4286    0.4000
  band No.  band energies     occupation 
      1     -12.1028      2.00000
      2     -11.8233      2.00000
      3      -8.5757      2.00000
      4      -8.3544      2.00000
      5      -5.9483      2.00000
      6      -5.7266      2.00000
      7      -5.2574      2.00000
      8      -4.6512      2.00000
      9      -4.4219      2.00000
     10      -3.5552      2.00000
     11      -2.2299      2.00000
     12      -2.1089      2.00000
     13      -1.9839      2.00000
     14      -1.6205      2.00000
     15      -0.4120      2.00000
     16      -0.1440      2.00000
     17       0.2449      2.00000
     18       0.5073      2.00000
     19       0.5175      2.00000
     20       1.2267      2.00000
     21       1.4820      2.00000
     22       1.7109      2.00000
     23       5.7411      0.00000
     24       6.0823      0.00000
     25       6.8018      0.00000
     26       7.2520      0.00000
     27       7.7436      0.00000
     28       7.8479      0.00000
     29       9.0751      0.00000
     30       9.2632      0.00000
     31       9.7253      0.00000
     32       9.9636      0.00000
     33      10.3958      0.00000
     34      10.8939      0.00000
     35      11.2232      0.00000
     36      11.5789      0.00000
     37      11.6453      0.00000
     38      11.8999      0.00000
     39      12.9719      0.00000
     40      13.1523      0.00000
     41      13.2490      0.00000
     42      13.6965      0.00000
     43      13.9450      0.00000
     44      14.3174      0.00000
     45      14.4485      0.00000
     46      14.8732      0.00000
     47      14.9789      0.00000
     48      15.2134      0.00000


--------------------------------------------------------------------------------------------------------


 soft charge-density along one line, spin component           1
         0         1         2         3         4         5         6         7         8         9
 total charge-density along one line
 
 pseudopotential strength for first ion, spin component:           1
  6.445   9.814   0.000  -0.009   0.005   0.000  -0.014   0.008
  9.814  14.938   0.000  -0.014   0.007   0.000  -0.021   0.011
  0.000   0.000  -2.174   0.000   0.000  -3.695   0.000   0.000
 -0.009  -0.014   0.000  -2.178  -0.001   0.000  -3.705  -0.002
  0.005   0.007   0.000  -0.001  -2.177   0.000  -0.002  -3.703
  0.000   0.000  -3.695   0.000   0.000  -6.080   0.000   0.000
 -0.014  -0.021   0.000  -3.705  -0.002   0.000  -6.102  -0.004
  0.008   0.011   0.000  -0.002  -3.703   0.000  -0.004  -6.098
 total augmentation occupancy for first ion, spin component:           1
  3.643  -0.978   0.000  -0.244   0.416   0.000   0.124  -0.176
 -0.978   0.286  -0.000   0.161  -0.197   0.000  -0.056   0.073
  0.000   0.000   2.281   0.000  -0.000  -0.544   0.000   0.000
 -0.244   0.161   0.000   3.776   0.325   0.000  -1.054  -0.120
  0.416  -0.197  -0.000   0.325   3.604   0.000  -0.120  -0.980
  0.000  -0.000  -0.544   0.000   0.000   0.134   0.000   0.000
  0.124  -0.056   0.000  -1.054  -0.120   0.000   0.303   0.043
 -0.176   0.073   0.000  -0.120  -0.980   0.000   0.043   0.276


------------------------ aborting loop because EDIFF is reached ----------------------------------------


    CHARGE:  cpu time      0.0220: real time      0.0220
    FORLOC:  cpu time      0.0010: real time      0.0010
    FORNL :  cpu time      0.1210: real time      0.1210
    STRESS:  cpu time      0.5765: real time      0.5766
    FORCOR:  cpu time      0.0088: real time      0.0088
    FORHAR:  cpu time      0.0028: real time      0.0028
    MIXING:  cpu time      0.0006: real time      0.0006
    OFIELD:  cpu time      0.0000: real time      0.0000

  FORCE on cell =-STRESS in cart. coord.  units (eV):
  Direction    XX          YY          ZZ          XY          YZ          ZX
  --------------------------------------------------------------------------------------
  Alpha Z    94.24358    94.24358    94.24358
  Ewald     -90.05465  -558.27634  -147.43815    -0.00000    -0.00000     0.00000
  Hartree   187.04139     5.71096   156.20662    -0.00000    -0.00000    -0.00000
  E(xc)    -134.89929  -135.85994  -134.85928    -0.00000    -0.00000    -0.00000
  Local    -494.10395   126.61975  -406.07380    -0.00000     0.00000     0.00000
  n-local    -8.98941   -10.72210    -9.30308     0.00089    -0.00298     0.00765
  augment     1.31825     1.37063     1.34781    -0.00000     0.00000     0.00000
  Kinetic   446.90358   476.64079   445.28507     0.18163     0.00397    -0.75458
  Fock        0.00000     0.00000     0.00000     0.00000     0.00000     0.00000
  -------------------------------------------------------------------------------------
  Total       1.45952    -0.27268    -0.59123     0.00000     0.00000    -0.00000
  in kB      16.34401    -3.05354    -6.62074     0.00000     0.00000    -0.00000
  external pressure =        2.22 kB  Pullay stress =        0.00 kB


 VOLUME and BASIS-vectors are now :
 -----------------------------------------------------------------------------
  energy-cutoff  :      480.00
  volume of cell :      143.07
      direct lattice vectors                 reciprocal lattice vectors
     5.697000000  0.000000000  0.000000000     0.175530981  0.000000000  0.000000000
     0.000000000  4.047900000  0.000000000     0.000000000  0.247041676  0.000000000
     0.000000000  0.000000000  6.204200000     0.000000000  0.000000000  0.161181135

  length of vectors
     5.697000000  4.047900000  6.204200000     0.175530981  0.247041676  0.161181135


 FORCES acting on ions
    electron-ion (+dipol)            ewald-force                    non-local-force                 convergence-correction
 -----------------------------------------------------------------------------------------------
   0.497E+02 -.312E-12 -.250E+02   -.515E+02 0.211E-14 0.284E+02   0.182E+01 -.633E-19 -.334E+01   -.157E-04 0.284E-14 0.115E-03
   -.497E+02 -.322E-12 0.250E+02   0.515E+02 0.448E-16 -.284E+02   -.182E+01 0.685E-19 0.334E+01   0.157E-04 0.538E-14 -.115E-03
   -.497E+02 -.274E-12 -.250E+02   0.515E+02 0.587E-14 0.284E+02   -.182E+01 0.666E-19 -.334E+01   0.157E-04 0.306E-14 0.115E-03
   0.497E+02 -.675E-14 0.250E+02   -.515E+02 0.181E-14 -.284E+02   0.182E+01 -.660E-19 0.334E+01   -.157E-04 0.555E-14 -.115E-03
   0.313E+02 0.811E-12 -.527E+02   -.341E+02 0.342E-14 0.571E+02   0.192E+01 -.347E-19 -.411E+01   -.662E-04 0.325E-14 -.123E-04
   -.313E+02 0.247E-12 0.527E+02   0.341E+02 0.354E-14 -.571E+02   -.192E+01 -.924E-19 0.411E+01   0.662E-04 0.458E-14 0.123E-04
   -.313E+02 0.845E-12 -.527E+02   0.341E+02 0.299E-14 0.571E+02   -.192E+01 0.393E-19 -.411E+01   0.662E-04 0.296E-14 -.123E-04
   0.313E+02 0.169E-14 0.527E+02   -.341E+02 0.353E-14 -.571E+02   0.192E+01 0.893E-19 0.411E+01   -.662E-04 0.396E-14 0.123E-04
   -.172E-13 -.560E+02 -.155E+02   -.720E-14 0.613E+02 0.166E+02   0.374E-18 -.540E+01 -.112E+01   0.131E-13 -.127E-03 0.562E-04
   -.370E-13 0.560E+02 0.155E+02   0.108E-13 -.613E+02 -.166E+02   -.133E-17 0.540E+01 0.112E+01   0.775E-14 0.127E-03 -.562E-04
   -.183E-13 0.560E+02 -.155E+02   0.393E-14 -.613E+02 0.166E+02   0.117E-17 0.540E+01 -.112E+01   0.129E-13 0.127E-03 0.562E-04
   -.371E-13 -.560E+02 0.155E+02   0.643E-14 0.613E+02 -.166E+02   0.970E-18 -.540E+01 0.112E+01   0.775E-14 -.127E-03 -.562E-04
   -.151E-13 0.192E-13 -.623E+02   0.123E-13 0.532E-14 0.649E+02   0.140E-19 0.168E-18 -.252E+01   -.960E-14 0.356E-14 0.472E-05
   -.156E-13 0.644E-12 0.623E+02   0.173E-13 0.235E-14 -.649E+02   -.143E-19 -.164E-18 0.252E+01   0.735E-14 0.499E-14 -.472E-05
 -----------------------------------------------------------------------------------------------
   -.638E-13 0.119E-11 -.153E-11   0.152E-13 0.767E-14 -.284E-13   -.221E-15 0.350E-20 -.888E-15   0.543E-13 0.354E-13 -.473E-13
 
 
 POSITION                                       TOTAL-FORCE (eV/Angst)
 -----------------------------------------------------------------------------------
      2.96945      2.02395      3.95803        -0.005099     -0.000000      0.044657
      2.72755      2.02395      2.24617         0.005099      0.000000     -0.044657
      5.57605      2.02395      3.95803         0.005099      0.000000      0.044657
      0.12095      2.02395      2.24617        -0.005099      0.000000     -0.044657
      3.42333      2.02395      5.58322        -0.847210      0.000000      0.264424
      2.27367      2.02395      0.62098         0.847210     -0.000000     -0.264424
      5.12217      2.02395      5.58322         0.847210      0.000000      0.264424
      0.57483      2.02395      0.62098        -0.847210      0.000000     -0.264424
      4.27275      3.20476      4.52739        -0.000000     -0.132050     -0.076863
      1.42425      0.84314      1.67681        -0.000000      0.132050      0.076863
      4.27275      0.84314      4.52739        -0.000000      0.132050     -0.076863
      1.42425      3.20476      1.67681        -0.000000     -0.132050      0.076863
      1.42425      2.02395      3.24895        -0.000000      0.000000      0.090042
      4.27275      2.02395      2.95525        -0.000000      0.000000     -0.090042
 -----------------------------------------------------------------------------------
    total drift:                                0.000000      0.000000     -0.000000


--------------------------------------------------------------------------------------------------------



  FREE ENERGIE OF THE ION-ELECTRON SYSTEM (eV)
  ---------------------------------------------------
  free  energy   TOTEN  =       -90.61684761 eV

  energy  without entropy=      -90.61396020  energy(sigma->0) =      -90.61540391
 


--------------------------------------------------------------------------------------------------------


    POTLOK:  cpu time      0.0106: real time      0.0106


--------------------------------------------------------------------------------------------------------


     LOOP+:  cpu time     17.9456: real time     18.0226
    4ORBIT:  cpu time      0.0000: real time      0.0000

 total amount of memory used by VASP MPI-rank0    47477. kBytes
=======================================================================

   base      :      30000. kBytes
   nonl-proj :       8736. kBytes
   fftplans  :       1019. kBytes
   grid      :       3560. kBytes
   one-center:         43. kBytes
   wavefun   :       4119. kBytes
 
  
  
 General timing and accounting informations for this job:
 ========================================================
  
                  Total CPU time used (sec):       19.276
                            User time (sec):       18.502
                          System time (sec):        0.774
                         Elapsed time (sec):       20.224
  
                   Maximum memory used (kb):      362164.
                   Average memory used (kb):          N/A
  
                          Minor page faults:       122391
                          Major page faults:          994
                 Voluntary context switches:         4887
