<?xml version="1.0" encoding="ISO-8859-1"?>
<modeling>
 <generator>
  <i name="program" type="string">vasp </i>
  <i name="version" type="string">6.4.3  </i>
  <i name="subversion" type="string">19Mar24 (build May 31 2024 16:31:43) complex                          parallel </i>
  <i name="platform" type="string">LinuxIFC </i>
  <i name="date" type="string">2024 11 11 </i>
  <i name="time" type="string">18:23:07 </i>
 </generator>
 <incar>
  <i type="string" name="SYSTEM">Convergence</i>
  <i type="int" name="ISTART">     0</i>
  <i type="string" name="PREC">Accurate</i>
  <i type="string" name="ALGO">Normal</i>
  <i type="int" name="ISPIN">     1</i>
  <i type="int" name="ICHARG">     2</i>
  <i type="int" name="NELM">   100</i>
  <i type="int" name="IBRION">    -1</i>
  <i name="EDIFF">      0.00000100</i>
  <i name="EDIFFG">     -0.00100000</i>
  <i type="int" name="NSW">     0</i>
  <i type="int" name="ISIF">     2</i>
  <i name="ENCUT">    600.00000000</i>
  <i name="POTIM">      0.50000000</i>
  <i type="int" name="ISMEAR">     0</i>
  <i name="SIGMA">      0.05000000</i>
  <i type="logical" name="LWAVE"> F  </i>
  <i type="logical" name="LCHARG"> F  </i>
  <i type="string" name="GGA">PE</i>
 </incar>
 <primitive_cell>
  <structure name="primitive_cell" >
   <crystal>
    <varray name="basis" >
     <v>      15.04500000       0.00000000       0.00000000 </v>
     <v>       0.00000000      12.53750000       0.00000000 </v>
     <v>       0.00000000       0.00000000      18.05400000 </v>
    </varray>
    <i name="volume">   3405.46621612 </i>
    <varray name="rec_basis" >
     <v>       0.06646726       0.00000000       0.00000000 </v>
     <v>       0.00000000       0.07976072       0.00000000 </v>
     <v>       0.00000000       0.00000000       0.05538939 </v>
    </varray>
   </crystal>
   <varray name="positions" >
    <v>       0.52123000       0.54500000       0.63796000 </v>
   </varray>
  </structure>
  <varray name="primitive_index" >
   <v type="int" >        1 </v>
  </varray>
 </primitive_cell>
 <kpoints>
  <generation param="Monkhorst-Pack">
   <v type="int" name="divisions">      10       14        9 </v>
   <v name="usershift">      0.00000000       0.00000000       0.00000000 </v>
   <v name="genvec1">      0.10000000       0.00000000       0.00000000 </v>
   <v name="genvec2">      0.00000000       0.07142857       0.00000000 </v>
   <v name="genvec3">      0.00000000       0.00000000       0.11111111 </v>
   <v name="shift">      0.50000000       0.50000000       0.00000000 </v>
  </generation>
  <varray name="kpointlist" >
   <v>       0.05000000       0.03571429       0.00000000 </v>
   <v>       0.15000000       0.03571429       0.00000000 </v>
   <v>       0.25000000       0.03571429       0.00000000 </v>
   <v>       0.35000000       0.03571429       0.00000000 </v>
   <v>       0.45000000       0.03571429       0.00000000 </v>
   <v>       0.05000000       0.10714286       0.00000000 </v>
   <v>       0.15000000       0.10714286       0.00000000 </v>
   <v>       0.25000000       0.10714286       0.00000000 </v>
   <v>       0.35000000       0.10714286       0.00000000 </v>
   <v>       0.45000000       0.10714286       0.00000000 </v>
   <v>       0.05000000       0.17857143       0.00000000 </v>
   <v>       0.15000000       0.17857143       0.00000000 </v>
   <v>       0.25000000       0.17857143       0.00000000 </v>
   <v>       0.35000000       0.17857143       0.00000000 </v>
   <v>       0.45000000       0.17857143       0.00000000 </v>
   <v>       0.05000000       0.25000000       0.00000000 </v>
   <v>       0.15000000       0.25000000       0.00000000 </v>
   <v>       0.25000000       0.25000000       0.00000000 </v>
   <v>       0.35000000       0.25000000       0.00000000 </v>
   <v>       0.45000000       0.25000000       0.00000000 </v>
   <v>       0.05000000       0.32142857       0.00000000 </v>
   <v>       0.15000000       0.32142857       0.00000000 </v>
   <v>       0.25000000       0.32142857       0.00000000 </v>
   <v>       0.35000000       0.32142857       0.00000000 </v>
   <v>       0.45000000       0.32142857       0.00000000 </v>
   <v>       0.05000000       0.39285714       0.00000000 </v>
   <v>       0.15000000       0.39285714       0.00000000 </v>
   <v>       0.25000000       0.39285714       0.00000000 </v>
   <v>       0.35000000       0.39285714       0.00000000 </v>
   <v>       0.45000000       0.39285714       0.00000000 </v>
   <v>       0.05000000       0.46428571       0.00000000 </v>
   <v>       0.15000000       0.46428571       0.00000000 </v>
   <v>       0.25000000       0.46428571       0.00000000 </v>
   <v>       0.35000000       0.46428571       0.00000000 </v>
   <v>       0.45000000       0.46428571       0.00000000 </v>
   <v>       0.05000000       0.03571429       0.11111111 </v>
   <v>       0.15000000       0.03571429       0.11111111 </v>
   <v>       0.25000000       0.03571429       0.11111111 </v>
   <v>       0.35000000       0.03571429       0.11111111 </v>
   <v>       0.45000000       0.03571429       0.11111111 </v>
   <v>       0.05000000       0.10714286       0.11111111 </v>
   <v>       0.15000000       0.10714286       0.11111111 </v>
   <v>       0.25000000       0.10714286       0.11111111 </v>
   <v>       0.35000000       0.10714286       0.11111111 </v>
   <v>       0.45000000       0.10714286       0.11111111 </v>
   <v>       0.05000000       0.17857143       0.11111111 </v>
   <v>       0.15000000       0.17857143       0.11111111 </v>
   <v>       0.25000000       0.17857143       0.11111111 </v>
   <v>       0.35000000       0.17857143       0.11111111 </v>
   <v>       0.45000000       0.17857143       0.11111111 </v>
   <v>       0.05000000       0.25000000       0.11111111 </v>
   <v>       0.15000000       0.25000000       0.11111111 </v>
   <v>       0.25000000       0.25000000       0.11111111 </v>
   <v>       0.35000000       0.25000000       0.11111111 </v>
   <v>       0.45000000       0.25000000       0.11111111 </v>
   <v>       0.05000000       0.32142857       0.11111111 </v>
   <v>       0.15000000       0.32142857       0.11111111 </v>
   <v>       0.25000000       0.32142857       0.11111111 </v>
   <v>       0.35000000       0.32142857       0.11111111 </v>
   <v>       0.45000000       0.32142857       0.11111111 </v>
   <v>       0.05000000       0.39285714       0.11111111 </v>
   <v>       0.15000000       0.39285714       0.11111111 </v>
   <v>       0.25000000       0.39285714       0.11111111 </v>
   <v>       0.35000000       0.39285714       0.11111111 </v>
   <v>       0.45000000       0.39285714       0.11111111 </v>
   <v>       0.05000000       0.46428571       0.11111111 </v>
   <v>       0.15000000       0.46428571       0.11111111 </v>
   <v>       0.25000000       0.46428571       0.11111111 </v>
   <v>       0.35000000       0.46428571       0.11111111 </v>
   <v>       0.45000000       0.46428571       0.11111111 </v>
   <v>       0.05000000       0.03571429       0.22222222 </v>
   <v>       0.15000000       0.03571429       0.22222222 </v>
   <v>       0.25000000       0.03571429       0.22222222 </v>
   <v>       0.35000000       0.03571429       0.22222222 </v>
   <v>       0.45000000       0.03571429       0.22222222 </v>
   <v>       0.05000000       0.10714286       0.22222222 </v>
   <v>       0.15000000       0.10714286       0.22222222 </v>
   <v>       0.25000000       0.10714286       0.22222222 </v>
   <v>       0.35000000       0.10714286       0.22222222 </v>
   <v>       0.45000000       0.10714286       0.22222222 </v>
   <v>       0.05000000       0.17857143       0.22222222 </v>
   <v>       0.15000000       0.17857143       0.22222222 </v>
   <v>       0.25000000       0.17857143       0.22222222 </v>
   <v>       0.35000000       0.17857143       0.22222222 </v>
   <v>       0.45000000       0.17857143       0.22222222 </v>
   <v>       0.05000000       0.25000000       0.22222222 </v>
   <v>       0.15000000       0.25000000       0.22222222 </v>
   <v>       0.25000000       0.25000000       0.22222222 </v>
   <v>       0.35000000       0.25000000       0.22222222 </v>
   <v>       0.45000000       0.25000000       0.22222222 </v>
   <v>       0.05000000       0.32142857       0.22222222 </v>
   <v>       0.15000000       0.32142857       0.22222222 </v>
   <v>       0.25000000       0.32142857       0.22222222 </v>
   <v>       0.35000000       0.32142857       0.22222222 </v>
   <v>       0.45000000       0.32142857       0.22222222 </v>
   <v>       0.05000000       0.39285714       0.22222222 </v>
   <v>       0.15000000       0.39285714       0.22222222 </v>
   <v>       0.25000000       0.39285714       0.22222222 </v>
   <v>       0.35000000       0.39285714       0.22222222 </v>
   <v>       0.45000000       0.39285714       0.22222222 </v>
   <v>       0.05000000       0.46428571       0.22222222 </v>
   <v>       0.15000000       0.46428571       0.22222222 </v>
   <v>       0.25000000       0.46428571       0.22222222 </v>
   <v>       0.35000000       0.46428571       0.22222222 </v>
   <v>       0.45000000       0.46428571       0.22222222 </v>
   <v>       0.05000000       0.03571429       0.33333333 </v>
   <v>       0.15000000       0.03571429       0.33333333 </v>
   <v>       0.25000000       0.03571429       0.33333333 </v>
   <v>       0.35000000       0.03571429       0.33333333 </v>
   <v>       0.45000000       0.03571429       0.33333333 </v>
   <v>       0.05000000       0.10714286       0.33333333 </v>
   <v>       0.15000000       0.10714286       0.33333333 </v>
   <v>       0.25000000       0.10714286       0.33333333 </v>
   <v>       0.35000000       0.10714286       0.33333333 </v>
   <v>       0.45000000       0.10714286       0.33333333 </v>
   <v>       0.05000000       0.17857143       0.33333333 </v>
   <v>       0.15000000       0.17857143       0.33333333 </v>
   <v>       0.25000000       0.17857143       0.33333333 </v>
   <v>       0.35000000       0.17857143       0.33333333 </v>
   <v>       0.45000000       0.17857143       0.33333333 </v>
   <v>       0.05000000       0.25000000       0.33333333 </v>
   <v>       0.15000000       0.25000000       0.33333333 </v>
   <v>       0.25000000       0.25000000       0.33333333 </v>
   <v>       0.35000000       0.25000000       0.33333333 </v>
   <v>       0.45000000       0.25000000       0.33333333 </v>
   <v>       0.05000000       0.32142857       0.33333333 </v>
   <v>       0.15000000       0.32142857       0.33333333 </v>
   <v>       0.25000000       0.32142857       0.33333333 </v>
   <v>       0.35000000       0.32142857       0.33333333 </v>
   <v>       0.45000000       0.32142857       0.33333333 </v>
   <v>       0.05000000       0.39285714       0.33333333 </v>
   <v>       0.15000000       0.39285714       0.33333333 </v>
   <v>       0.25000000       0.39285714       0.33333333 </v>
   <v>       0.35000000       0.39285714       0.33333333 </v>
   <v>       0.45000000       0.39285714       0.33333333 </v>
   <v>       0.05000000       0.46428571       0.33333333 </v>
   <v>       0.15000000       0.46428571       0.33333333 </v>
   <v>       0.25000000       0.46428571       0.33333333 </v>
   <v>       0.35000000       0.46428571       0.33333333 </v>
   <v>       0.45000000       0.46428571       0.33333333 </v>
   <v>       0.05000000       0.03571429       0.44444444 </v>
   <v>       0.15000000       0.03571429       0.44444444 </v>
   <v>       0.25000000       0.03571429       0.44444444 </v>
   <v>       0.35000000       0.03571429       0.44444444 </v>
   <v>       0.45000000       0.03571429       0.44444444 </v>
   <v>       0.05000000       0.10714286       0.44444444 </v>
   <v>       0.15000000       0.10714286       0.44444444 </v>
   <v>       0.25000000       0.10714286       0.44444444 </v>
   <v>       0.35000000       0.10714286       0.44444444 </v>
   <v>       0.45000000       0.10714286       0.44444444 </v>
   <v>       0.05000000       0.17857143       0.44444444 </v>
   <v>       0.15000000       0.17857143       0.44444444 </v>
   <v>       0.25000000       0.17857143       0.44444444 </v>
   <v>       0.35000000       0.17857143       0.44444444 </v>
   <v>       0.45000000       0.17857143       0.44444444 </v>
   <v>       0.05000000       0.25000000       0.44444444 </v>
   <v>       0.15000000       0.25000000       0.44444444 </v>
   <v>       0.25000000       0.25000000       0.44444444 </v>
   <v>       0.35000000       0.25000000       0.44444444 </v>
   <v>       0.45000000       0.25000000       0.44444444 </v>
   <v>       0.05000000       0.32142857       0.44444444 </v>
   <v>       0.15000000       0.32142857       0.44444444 </v>
   <v>       0.25000000       0.32142857       0.44444444 </v>
   <v>       0.35000000       0.32142857       0.44444444 </v>
   <v>       0.45000000       0.32142857       0.44444444 </v>
   <v>       0.05000000       0.39285714       0.44444444 </v>
   <v>       0.15000000       0.39285714       0.44444444 </v>
   <v>       0.25000000       0.39285714       0.44444444 </v>
   <v>       0.35000000       0.39285714       0.44444444 </v>
   <v>       0.45000000       0.39285714       0.44444444 </v>
   <v>       0.05000000       0.46428571       0.44444444 </v>
   <v>       0.15000000       0.46428571       0.44444444 </v>
   <v>       0.25000000       0.46428571       0.44444444 </v>
   <v>       0.35000000       0.46428571       0.44444444 </v>
   <v>       0.45000000       0.46428571       0.44444444 </v>
  </varray>
  <varray name="weights" >
   <v>       0.00317460 </v>
   <v>       0.00317460 </v>
   <v>       0.00317460 </v>
   <v>       0.00317460 </v>
   <v>       0.00317460 </v>
   <v>       0.00317460 </v>
   <v>       0.00317460 </v>
   <v>       0.00317460 </v>
   <v>       0.00317460 </v>
   <v>       0.00317460 </v>
   <v>       0.00317460 </v>
   <v>       0.00317460 </v>
   <v>       0.00317460 </v>
   <v>       0.00317460 </v>
   <v>       0.00317460 </v>
   <v>       0.00317460 </v>
   <v>       0.00317460 </v>
   <v>       0.00317460 </v>
   <v>       0.00317460 </v>
   <v>       0.00317460 </v>
   <v>       0.00317460 </v>
   <v>       0.00317460 </v>
   <v>       0.00317460 </v>
   <v>       0.00317460 </v>
   <v>       0.00317460 </v>
   <v>       0.00317460 </v>
   <v>       0.00317460 </v>
   <v>       0.00317460 </v>
   <v>       0.00317460 </v>
   <v>       0.00317460 </v>
   <v>       0.00317460 </v>
   <v>       0.00317460 </v>
   <v>       0.00317460 </v>
   <v>       0.00317460 </v>
   <v>       0.00317460 </v>
   <v>       0.00634921 </v>
   <v>       0.00634921 </v>
   <v>       0.00634921 </v>
   <v>       0.00634921 </v>
   <v>       0.00634921 </v>
   <v>       0.00634921 </v>
   <v>       0.00634921 </v>
   <v>       0.00634921 </v>
   <v>       0.00634921 </v>
   <v>       0.00634921 </v>
   <v>       0.00634921 </v>
   <v>       0.00634921 </v>
   <v>       0.00634921 </v>
   <v>       0.00634921 </v>
   <v>       0.00634921 </v>
   <v>       0.00634921 </v>
   <v>       0.00634921 </v>
   <v>       0.00634921 </v>
   <v>       0.00634921 </v>
   <v>       0.00634921 </v>
   <v>       0.00634921 </v>
   <v>       0.00634921 </v>
   <v>       0.00634921 </v>
   <v>       0.00634921 </v>
   <v>       0.00634921 </v>
   <v>       0.00634921 </v>
   <v>       0.00634921 </v>
   <v>       0.00634921 </v>
   <v>       0.00634921 </v>
   <v>       0.00634921 </v>
   <v>       0.00634921 </v>
   <v>       0.00634921 </v>
   <v>       0.00634921 </v>
   <v>       0.00634921 </v>
   <v>       0.00634921 </v>
   <v>       0.00634921 </v>
   <v>       0.00634921 </v>
   <v>       0.00634921 </v>
   <v>       0.00634921 </v>
   <v>       0.00634921 </v>
   <v>       0.00634921 </v>
   <v>       0.00634921 </v>
   <v>       0.00634921 </v>
   <v>       0.00634921 </v>
   <v>       0.00634921 </v>
   <v>       0.00634921 </v>
   <v>       0.00634921 </v>
   <v>       0.00634921 </v>
   <v>       0.00634921 </v>
   <v>       0.00634921 </v>
   <v>       0.00634921 </v>
   <v>       0.00634921 </v>
   <v>       0.00634921 </v>
   <v>       0.00634921 </v>
   <v>       0.00634921 </v>
   <v>       0.00634921 </v>
   <v>       0.00634921 </v>
   <v>       0.00634921 </v>
   <v>       0.00634921 </v>
   <v>       0.00634921 </v>
   <v>       0.00634921 </v>
   <v>       0.00634921 </v>
   <v>       0.00634921 </v>
   <v>       0.00634921 </v>
   <v>       0.00634921 </v>
   <v>       0.00634921 </v>
   <v>       0.00634921 </v>
   <v>       0.00634921 </v>
   <v>       0.00634921 </v>
   <v>       0.00634921 </v>
   <v>       0.00634921 </v>
   <v>       0.00634921 </v>
   <v>       0.00634921 </v>
   <v>       0.00634921 </v>
   <v>       0.00634921 </v>
   <v>       0.00634921 </v>
   <v>       0.00634921 </v>
   <v>       0.00634921 </v>
   <v>       0.00634921 </v>
   <v>       0.00634921 </v>
   <v>       0.00634921 </v>
   <v>       0.00634921 </v>
   <v>       0.00634921 </v>
   <v>       0.00634921 </v>
   <v>       0.00634921 </v>
   <v>       0.00634921 </v>
   <v>       0.00634921 </v>
   <v>       0.00634921 </v>
   <v>       0.00634921 </v>
   <v>       0.00634921 </v>
   <v>       0.00634921 </v>
   <v>       0.00634921 </v>
   <v>       0.00634921 </v>
   <v>       0.00634921 </v>
   <v>       0.00634921 </v>
   <v>       0.00634921 </v>
   <v>       0.00634921 </v>
   <v>       0.00634921 </v>
   <v>       0.00634921 </v>
   <v>       0.00634921 </v>
   <v>       0.00634921 </v>
   <v>       0.00634921 </v>
   <v>       0.00634921 </v>
   <v>       0.00634921 </v>
   <v>       0.00634921 </v>
   <v>       0.00634921 </v>
   <v>       0.00634921 </v>
   <v>       0.00634921 </v>
   <v>       0.00634921 </v>
   <v>       0.00634921 </v>
   <v>       0.00634921 </v>
   <v>       0.00634921 </v>
   <v>       0.00634921 </v>
   <v>       0.00634921 </v>
   <v>       0.00634921 </v>
   <v>       0.00634921 </v>
   <v>       0.00634921 </v>
   <v>       0.00634921 </v>
   <v>       0.00634921 </v>
   <v>       0.00634921 </v>
   <v>       0.00634921 </v>
   <v>       0.00634921 </v>
   <v>       0.00634921 </v>
   <v>       0.00634921 </v>
   <v>       0.00634921 </v>
   <v>       0.00634921 </v>
   <v>       0.00634921 </v>
   <v>       0.00634921 </v>
   <v>       0.00634921 </v>
   <v>       0.00634921 </v>
   <v>       0.00634921 </v>
   <v>       0.00634921 </v>
   <v>       0.00634921 </v>
   <v>       0.00634921 </v>
   <v>       0.00634921 </v>
   <v>       0.00634921 </v>
   <v>       0.00634921 </v>
   <v>       0.00634921 </v>
   <v>       0.00634921 </v>
   <v>       0.00634921 </v>
  </varray>
 </kpoints>
 <parameters>
  <separator name="general" >
   <i type="string" name="SYSTEM">Convergence</i>
   <i type="logical" name="LCOMPAT"> F  </i>
  </separator>
  <separator name="electronic" >
   <i type="string" name="PREC">accura</i>
   <i name="ENMAX">    600.00000000</i>
   <i name="ENAUG">    535.51400000</i>
   <i name="EDIFF">      0.00000100</i>
   <i type="int" name="IALGO">    38</i>
   <i type="int" name="IWAVPR">    10</i>
   <i type="int" name="NBANDS">    24</i>
   <i type="int" name="NBANDSLOW">    -1</i>
   <i type="int" name="NBANDSHIGH">    -1</i>
   <i name="NELECT">      3.00000000</i>
   <i type="int" name="TURBO">     0</i>
   <i type="int" name="IRESTART">     0</i>
   <i type="int" name="NREBOOT">     0</i>
   <i type="int" name="NMIN">     0</i>
   <i name="EREF">      0.00000000</i>
   <separator name="electronic smearing" >
    <i type="int" name="ISMEAR">     0</i>
    <i name="SIGMA">      0.05000000</i>
    <i name="KSPACING">      0.50000000</i>
    <i type="logical" name="KGAMMA"> T  </i>
    <i type="logical" name="KBLOWUP"> T  </i>
   </separator>
   <separator name="electronic projectors" >
    <i type="logical" name="LREAL"> F  </i>
    <v name="ROPT">      0.00000000</v>
    <i type="int" name="LMAXPAW">  -100</i>
    <i type="int" name="LMAXMIX">     2</i>
    <i type="logical" name="NLSPLINE"> F  </i>
   </separator>
   <separator name="electronic startup" >
    <i type="int" name="ISTART">     0</i>
    <i type="int" name="ICHARG">     2</i>
    <i type="int" name="INIWAV">     1</i>
   </separator>
   <separator name="electronic spin" >
    <i type="int" name="ISPIN">     1</i>
    <i type="logical" name="LNONCOLLINEAR"> F  </i>
    <v name="MAGMOM">      1.00000000</v>
    <i name="NUPDOWN">     -1.00000000</i>
    <i type="logical" name="LSORBIT"> F  </i>
    <v name="SAXIS">      0.00000000      0.00000000      1.00000000</v>
    <i type="logical" name="LSPIRAL"> F  </i>
    <v name="QSPIRAL">      0.00000000      0.00000000      0.00000000</v>
    <i type="logical" name="LZEROZ"> F  </i>
   </separator>
   <separator name="electronic exchange-correlation" >
    <i type="logical" name="LASPH"> F  </i>
   </separator>
   <separator name="electronic convergence" >
    <i type="int" name="NELM">   100</i>
    <i type="int" name="NELMDL">    -5</i>
    <i type="int" name="NELMIN">     2</i>
    <i name="ENINI">    600.00000000</i>
    <separator name="electronic convergence detail" >
     <i type="logical" name="LDIAG"> T  </i>
     <i type="logical" name="LSUBROT"> F  </i>
     <i name="WEIMIN">      0.00000000</i>
     <i name="EBREAK">      0.00000001</i>
     <i name="DEPER">      0.30000000</i>
     <i type="int" name="NRMM">     4</i>
     <i name="TIME">      0.40000000</i>
    </separator>
   </separator>
   <separator name="electronic mixer" >
    <i name="AMIX">      0.40000000</i>
    <i name="BMIX">      1.00000000</i>
    <i name="AMIN">      0.10000000</i>
    <i name="AMIX_MAG">      1.60000000</i>
    <i name="BMIX_MAG">      1.00000000</i>
    <separator name="electronic mixer details" >
     <i type="int" name="IMIX">     4</i>
     <i type="logical" name="MIXFIRST"> F  </i>
     <i type="int" name="MAXMIX">   -45</i>
     <i name="WC">    100.00000000</i>
     <i type="int" name="INIMIX">     1</i>
     <i type="int" name="MIXPRE">     1</i>
     <i type="int" name="MREMOVE">     5</i>
    </separator>
   </separator>
   <separator name="electronic dipolcorrection" >
    <i type="logical" name="LDIPOL"> F  </i>
    <i type="logical" name="LMONO"> F  </i>
    <i type="int" name="IDIPOL">     0</i>
    <i name="EPSILON">      1.00000000</i>
    <v name="DIPOL">   -100.00000000   -100.00000000   -100.00000000</v>
    <i name="EFIELD">      0.00000000</i>
    <i type="logical" name="LVACPOTAV"> F  </i>
   </separator>
  </separator>
  <separator name="grids" >
   <i type="int" name="NGX">   120</i>
   <i type="int" name="NGY">   100</i>
   <i type="int" name="NGZ">   144</i>
   <i type="int" name="NGXF">   240</i>
   <i type="int" name="NGYF">   200</i>
   <i type="int" name="NGZF">   288</i>
   <i type="logical" name="ADDGRID"> F  </i>
  </separator>
  <separator name="ionic" >
   <i type="int" name="NSW">     0</i>
   <i type="int" name="IBRION">    -1</i>
   <i type="int" name="MDALGO">     0</i>
   <i type="int" name="ISIF">     2</i>
   <i name="PSTRESS">      0.00000000</i>
   <i name="EDIFFG">     -0.00100000</i>
   <i type="int" name="NFREE">     0</i>
   <i name="POTIM">      0.50000000</i>
   <i name="SMASS">     -3.00000000</i>
   <i name="SCALEE">      1.00000000</i>
  </separator>
  <separator name="ionic md" >
   <i name="TEBEG">      0.00010000</i>
   <i name="TEEND">      0.00010000</i>
   <i type="int" name="NBLOCK">     1</i>
   <i type="int" name="KBLOCK">     1</i>
   <i type="int" name="NPACO">   256</i>
   <i name="APACO">     10.00000000</i>
  </separator>
  <separator name="symmetry" >
   <i type="int" name="ISYM">     2</i>
   <i name="SYMPREC">      0.00001000</i>
  </separator>
  <separator name="dos" >
   <i type="int" name="LORBIT">     0</i>
   <v name="RWIGS">     -1.00000000</v>
   <i type="int" name="NEDOS">   301</i>
   <i name="EMIN">     10.00000000</i>
   <i name="EMAX">    -10.00000000</i>
   <i name="EFERMI">      0.00000000</i>
  </separator>
  <separator name="writing" >
   <i type="int" name="NWRITE">     2</i>
   <i type="logical" name="LWAVE"> F  </i>
   <i type="logical" name="LDOWNSAMPLE"> F  </i>
   <i type="logical" name="LCHARG"> F  </i>
   <i type="logical" name="LPARD"> F  </i>
   <i type="logical" name="LVTOT"> F  </i>
   <i type="logical" name="LVHAR"> F  </i>
   <i type="logical" name="LELF"> F  </i>
   <i type="logical" name="LOPTICS"> F  </i>
   <v name="STM">      0.00000000      0.00000000      0.00000000      0.00000000      0.00000000      0.00000000      0.00000000</v>
  </separator>
  <separator name="performance" >
   <i type="int" name="NPAR">    24</i>
   <i type="int" name="NSIM">     4</i>
   <i type="int" name="NBLK">    -1</i>
   <i type="logical" name="LPLANE"> T  </i>
   <i type="logical" name="LSCALAPACK"> T  </i>
   <i type="logical" name="LSCAAWARE"> F  </i>
   <i type="logical" name="LSCALU"> F  </i>
   <i type="logical" name="LASYNC"> F  </i>
   <i type="logical" name="LORBITALREAL"> F  </i>
  </separator>
  <separator name="miscellaneous" >
   <i type="int" name="IDIOT">     3</i>
   <i type="int" name="PHON_NSTRUCT">    -1</i>
   <i type="logical" name="LMUSIC"> F  </i>
   <v name="POMASS">     10.81100000</v>
   <v name="DARWINR">      0.00000000</v>
   <v name="DARWINV">      1.00000000</v>
   <i type="logical" name="LCORR"> T  </i>
  </separator>
  <i type="logical" name="GGA_COMPAT"> T  </i>
  <i type="logical" name="LBERRY"> F  </i>
  <i type="int" name="ICORELEVEL">     0</i>
  <i type="logical" name="LDAU"> F  </i>
  <i type="int" name="I_CONSTRAINED_M">     0</i>
  <separator name="electronic exchange-correlation" >
   <i type="string" name="GGA    ">PE</i>
   <i type="string" name="XC_C">1</i>
   <i type="int" name="VOSKOWN">     0</i>
   <i type="logical" name="LHFCALC"> F  </i>
   <i type="string" name="PRECFOCK"></i>
   <i type="logical" name="LSYMGRAD"> F  </i>
   <i type="logical" name="LHFONE"> F  </i>
   <i type="logical" name="LRHFCALC"> F  </i>
   <i type="logical" name="LTHOMAS"> F  </i>
   <i type="logical" name="LMODELHF"> F  </i>
   <i type="logical" name="LFOCKACE"> F  </i>
   <i name="ENCUT4O">     -1.00000000</i>
   <i type="int" name="EXXOEP">     0</i>
   <i type="int" name="FOURORBIT">     0</i>
   <i name="AEXX">      0.00000000</i>
   <i name="HFALPHA">      0.00000000</i>
   <i name="MCALPHA">      0.00000000</i>
   <i name="ALDAX">      1.00000000</i>
   <i name="AGGAX">      1.00000000</i>
   <i name="AMGGAX">      1.00000000</i>
   <i name="ALDAC">      1.00000000</i>
   <i name="AGGAC">      1.00000000</i>
   <i name="AMGGAC">      1.00000000</i>
   <i type="int" name="NKREDX">     1</i>
   <i type="int" name="NKREDY">     1</i>
   <i type="int" name="NKREDZ">     1</i>
   <i type="logical" name="SHIFTRED"> F  </i>
   <i type="logical" name="ODDONLY"> F  </i>
   <i type="logical" name="EVENONLY"> F  </i>
   <i type="int" name="LMAXFOCK">     0</i>
   <i type="int" name="NMAXFOCKAE">     0</i>
   <i type="logical" name="LFOCKAEDFT"> F  </i>
   <i name="HFSCREEN">      0.00000000</i>
   <i name="HFSCREENC">      0.00000000</i>
   <i type="int" name="NBANDSGWLOW">     0</i>
  </separator>
  <separator name="vdW DFT" >
   <i type="logical" name="LUSE_VDW"> F  </i>
   <i type="int" name="IVDW_NL">    -1</i>
   <i type="logical" name="LSPIN_VDW"> F  </i>
   <i name="ZAB_VDW">     -0.84910000</i>
   <i name="GAMMA_VDW">      1.39626340</i>
   <i name="ALPHA_VDW">      0.00000000</i>
   <i name="PARAM1">      0.12340000</i>
   <i name="PARAM2">      1.00000000</i>
   <i name="BPARAM">      6.30000000</i>
   <i name="CPARAM">      0.00930000</i>
  </separator>
  <separator name="model GW" >
   <i type="int" name="MODEL_GW">     0</i>
   <i name="MODEL_EPS0">   2043.27972967</i>
   <i name="MODEL_ALPHA">      1.00000000</i>
  </separator>
  <separator name="linear response parameters" >
   <i type="logical" name="LEPSILON"> F  </i>
   <i type="logical" name="LRPA"> F  </i>
   <i type="logical" name="LNABLA"> F  </i>
   <i type="logical" name="LVEL"> F  </i>
   <i name="CSHIFT">      0.10000000</i>
   <i name="OMEGAMAX">     -1.00000000</i>
   <i name="DEG_THRESHOLD">      0.00200000</i>
   <i name="RTIME">     -0.10000000</i>
   <i name="WPLASMAI">      0.00000000</i>
   <v name="DFIELD">      0.00000000      0.00000000      0.00000000</v>
   <v name="WPLASMA">      0.00000000      0.00000000      0.00000000      0.00000000      0.00000000      0.00000000      0.00000000      0.00000000      0.00000000</v>
  </separator>
  <separator name="orbital magnetization" >
   <i type="logical" name="NUCIND"> F  </i>
   <v name="MAGPOS">      0.00000000      0.00000000      0.00000000</v>
   <i type="logical" name="LNICSALL"> T  </i>
   <i type="logical" name="ORBITALMAG"> F  </i>
   <i type="logical" name="LMAGBLOCH"> F  </i>
   <i type="logical" name="LCHIMAG"> F  </i>
   <i type="logical" name="LGAUGE"> T  </i>
   <i type="int" name="MAGATOM">     0</i>
   <v name="MAGDIPOL">      0.00000000      0.00000000      0.00000000</v>
   <v name="AVECCONST">      0.00000000      0.00000000      0.00000000</v>
  </separator>
  <separator name="response functions" >
   <i type="logical" name="LALL_IN_ONE"> F  </i>
   <i type="int" name="IALL_IN_ONE">    -1</i>
   <i type="int" name="NBANDS_WAVE">    -1</i>
   <i type="logical" name="LFINITE_TEMPERATURE"> F  </i>
   <i type="logical" name="LADDER"> F  </i>
   <i type="logical" name="LRPAFORCE"> F  </i>
   <i type="logical" name="LFXC"> F  </i>
   <i type="logical" name="LHARTREE"> T  </i>
   <i type="int" name="IBSE">     0</i>
   <v type="int" name="KPOINT">    -1     0     0     0</v>
   <i type="logical" name="LTCTC"> F  </i>
   <i type="logical" name="LTCTE"> F  </i>
   <i type="logical" name="LTETE"> F  </i>
   <i type="logical" name="LTRIPLET"> F  </i>
   <i type="logical" name="LFXCEPS"> F  </i>
   <i type="logical" name="LFXHEG"> F  </i>
   <i type="int" name="NATURALO">     2</i>
   <i type="logical" name="LHOLEGF"> F  </i>
   <i type="logical" name="L2ORDER"> F  </i>
   <i type="logical" name="LDMP1"> F  </i>
   <i type="logical" name="LMP2LT"> F  </i>
   <i type="logical" name="LSMP2LT"> F  </i>
   <i type="logical" name="LGWLF"> F  </i>
   <i name="ENCUTGW">     -1.60000002</i>
   <i name="ENCUTGWSOFT">     -1.60000002</i>
   <i name="ENCUTLF">     -1.00000000</i>
   <i type="logical" name="ESF_SPLINES"> F  </i>
   <i name="ESF_CONV">      0.01000000</i>
   <i type="int" name="ESF_NINTER">    15</i>
   <i type="int" name="LMAXMP2">    -1</i>
   <i name="SCISSOR">      0.00000000</i>
   <i type="int" name="NOMEGA">     0</i>
   <i type="int" name="NOMEGAR">     0</i>
   <i type="int" name="NBANDSGW">    -1</i>
   <i type="int" name="NBANDSO">    -1</i>
   <i type="int" name="NBANDSV">    -1</i>
   <i type="int" name="NELMGW">     1</i>
   <i type="int" name="NELMHF">     1</i>
   <i type="int" name="DIM">     3</i>
   <i type="int" name="IESPILON">     4</i>
   <i type="int" name="ANTIRES">     0</i>
   <i name="OMEGAMAX">    -30.00000000</i>
   <i name="OMEGAMIN">    -30.00000000</i>
   <i name="OMEGATL">   -200.00000000</i>
   <i type="int" name="OMEGAGRID">     0</i>
   <i name="CSHIFT">     -0.10000000</i>
   <i type="logical" name="LSELFENERGY"> F  </i>
   <i type="logical" name="LSPECTRAL"> F  </i>
   <i type="logical" name="LSPECTRALGW"> F  </i>
   <i type="logical" name="LSINGLES"> F  </i>
   <i type="logical" name="LFERMIGW"> F  </i>
   <i type="logical" name="ODDONLYGW"> F  </i>
   <i type="logical" name="EVENONLYGW"> F  </i>
   <i type="int" name="NKREDLFX">     1</i>
   <i type="int" name="NKREDLFY">     1</i>
   <i type="int" name="NKREDLFZ">     1</i>
   <i type="int" name="MAXMEM">  2800</i>
   <i type="int" name="TELESCOPE">     0</i>
   <i type="int" name="NTAUPAR">    -1</i>
   <i type="int" name="NOMEGAPAR">    -1</i>
   <i name="DAMP_NEWTON">      0.80000001</i>
   <i name="LAMBDA">      1.00000000</i>
  </separator>
  <separator name="External order field" >
   <i name="OFIELD_KAPPA">      0.00000000</i>
   <v name="OFIELD_K">      0.00000000      0.00000000      0.00000000</v>
   <i name="OFIELD_Q6_NEAR">      0.00000000</i>
   <i name="OFIELD_Q6_FAR">      0.00000000</i>
   <i name="OFIELD_A">      0.00000000</i>
  </separator>
  <separator name="optional k-points parameters" >
   <i type="int" name="KPOINTS_OPT_MODE">     1</i>
   <i type="logical" name="LKPOINTS_OPT"> F  </i>
  </separator>
 </parameters>
 <atominfo>
  <atoms>       1 </atoms>
  <types>       1 </types>
  <array name="atoms" >
   <dimension dim="1">ion</dimension>
   <field type="string">element</field>
   <field type="int">atomtype</field>
   <set>
    <rc><c>B </c><c>   1</c></rc>
   </set>
  </array>
  <array name="atomtypes" >
   <dimension dim="1">type</dimension>
   <field type="int">atomspertype</field>
   <field type="string">element</field>
   <field>mass</field>
   <field>valence</field>
   <field type="string">pseudopotential</field>
   <set>
    <rc><c>   1</c><c>B </c><c>     10.81100000</c><c>      3.00000000</c><c>  PAW_PBE B 06Sep2000                   </c></rc>
   </set>
  </array>
 </atominfo>
 <structure name="initialpos" >
  <crystal>
   <varray name="basis" >
    <v>      15.04500000       0.00000000       0.00000000 </v>
    <v>       0.00000000      12.53750000       0.00000000 </v>
    <v>       0.00000000       0.00000000      18.05400000 </v>
   </varray>
   <i name="volume">   3405.46621612 </i>
   <varray name="rec_basis" >
    <v>       0.06646726       0.00000000       0.00000000 </v>
    <v>       0.00000000       0.07976072       0.00000000 </v>
    <v>       0.00000000       0.00000000       0.05538939 </v>
   </varray>
  </crystal>
  <varray name="positions" >
   <v>       0.52123000       0.54500000       0.63796000 </v>
  </varray>
 </structure>
 <calculation>
  <scstep>
   <time name="dav">   62.67   69.93</time>
   <time name="total">   63.18   70.48</time>
   <energy>
    <i name="alphaZ">      0.02020137 </i>
    <i name="ewald">    -11.79363573 </i>
    <i name="hartreedc">    -42.61826426 </i>
    <i name="XCdc">      4.75549673 </i>
    <i name="pawpsdc">     43.49986551 </i>
    <i name="pawaedc">    -42.64454556 </i>
    <i name="eentropy">     -0.01108432 </i>
    <i name="bandstr">    -14.40668904 </i>
    <i name="atom">     71.16960075 </i>
    <i name="e_fr_energy">      7.97094544 </i>
    <i name="e_wo_entrp">      7.98202976 </i>
    <i name="e_0_energy">      7.97648760 </i>
   </energy>
  </scstep>
  <scstep>
   <time name="dav">  103.54  111.80</time>
   <time name="total">  103.54  111.80</time>
   <energy>
    <i name="e_fr_energy">      0.11132893 </i>
    <i name="e_wo_entrp">      0.14021036 </i>
    <i name="e_0_energy">      0.12576964 </i>
   </energy>
  </scstep>
  <scstep>
   <time name="dav">   64.32   70.61</time>
   <time name="total">   64.32   70.61</time>
   <energy>
    <i name="e_fr_energy">     -0.05476947 </i>
    <i name="e_wo_entrp">     -0.00194221 </i>
    <i name="e_0_energy">     -0.02835584 </i>
   </energy>
  </scstep>
  <scstep>
   <time name="dav">   68.27   74.01</time>
   <time name="total">   68.28   74.01</time>
   <energy>
    <i name="e_fr_energy">     -0.05821208 </i>
    <i name="e_wo_entrp">     -0.00521077 </i>
    <i name="e_0_energy">     -0.03171143 </i>
   </energy>
  </scstep>
  <scstep>
   <time name="dav">   88.24   95.85</time>
   <time name="total">   92.24  100.74</time>
   <energy>
    <i name="e_fr_energy">     -0.05825219 </i>
    <i name="e_wo_entrp">     -0.00525085 </i>
    <i name="e_0_energy">     -0.03175152 </i>
   </energy>
  </scstep>
  <scstep>
   <time name="dav">   79.38   84.32</time>
   <time name="total">   79.87   84.83</time>
   <energy>
    <i name="alphaZ">      0.02020137 </i>
    <i name="ewald">    -11.79363573 </i>
    <i name="hartreedc">    -42.61847940 </i>
    <i name="XCdc">      4.75548396 </i>
    <i name="pawpsdc">     43.56783596 </i>
    <i name="pawaedc">    -42.71254880 </i>
    <i name="eentropy">     -0.05300134 </i>
    <i name="bandstr">    -22.39370978 </i>
    <i name="atom">     71.16960075 </i>
    <i name="e_fr_energy">     -0.05825301 </i>
    <i name="e_wo_entrp">     -0.00525167 </i>
    <i name="e_0_energy">     -0.03175234 </i>
   </energy>
  </scstep>
  <structure>
   <crystal>
    <varray name="basis" >
     <v>      15.04500000       0.00000000       0.00000000 </v>
     <v>       0.00000000      12.53750000       0.00000000 </v>
     <v>       0.00000000       0.00000000      18.05400000 </v>
    </varray>
    <i name="volume">   3405.46621612 </i>
    <varray name="rec_basis" >
     <v>       0.06646726       0.00000000       0.00000000 </v>
     <v>       0.00000000       0.07976072       0.00000000 </v>
     <v>       0.00000000       0.00000000       0.05538939 </v>
    </varray>
   </crystal>
   <varray name="positions" >
    <v>       0.52123000       0.54500000       0.63796000 </v>
   </varray>
  </structure>
  <varray name="forces" >
   <v>      -0.00000000       0.00000000       0.00000000 </v>
  </varray>
  <varray name="stress" >
   <v>      -0.00045672       0.00000000       0.00000000 </v>
   <v>       0.00000000      -0.00046248       0.00000000 </v>
   <v>       0.00000000       0.00000000      -0.00046148 </v>
  </varray>
  <energy>
   <i name="e_fr_energy">     -0.05825301 </i>
   <i name="e_wo_entrp">     -0.00525167 </i>
   <i name="e_0_energy">     -0.03175234 </i>
  </energy>
  <time name="totalsc">  534.87  578.99</time>
  <eigenvalues>
   <array>
    <dimension dim="1">band</dimension>
    <dimension dim="2">kpoint</dimension>
    <dimension dim="3">spin</dimension>
    <field>eigene</field>
    <field>occ</field>
    <set>
     <set comment="spin 1">
      <set comment="kpoint 1">
       <r>   -9.4102    1.0000 </r>
       <r>   -3.5733    0.1667 </r>
       <r>   -3.5733    0.1667 </r>
       <r>   -3.5732    0.1659 </r>
       <r>   -0.2612    0.0000 </r>
       <r>    0.2919    0.0000 </r>
       <r>    0.3078    0.0000 </r>
       <r>    0.4366    0.0000 </r>
       <r>    0.5701    0.0000 </r>
       <r>    0.6823    0.0000 </r>
       <r>    0.8239    0.0000 </r>
       <r>    0.9056    0.0000 </r>
       <r>    0.9380    0.0000 </r>
       <r>    1.0298    0.0000 </r>
       <r>    1.0719    0.0000 </r>
       <r>    1.1676    0.0000 </r>
       <r>    1.2007    0.0000 </r>
       <r>    1.2826    0.0000 </r>
       <r>    1.3267    0.0000 </r>
       <r>    1.3441    0.0000 </r>
       <r>    1.4199    0.0000 </r>
       <r>    1.4897    0.0000 </r>
       <r>    1.5672    0.0000 </r>
       <r>    1.6973    0.0000 </r>
      </set>
      <set comment="kpoint 2">
       <r>   -9.4102    1.0000 </r>
       <r>   -3.5733    0.1667 </r>
       <r>   -3.5733    0.1667 </r>
       <r>   -3.5732    0.1659 </r>
       <r>   -0.2515    0.0000 </r>
       <r>    0.2668    0.0000 </r>
       <r>    0.3190    0.0000 </r>
       <r>    0.3713    0.0000 </r>
       <r>    0.6849    0.0000 </r>
       <r>    0.7037    0.0000 </r>
       <r>    0.7964    0.0000 </r>
       <r>    0.8254    0.0000 </r>
       <r>    0.8360    0.0000 </r>
       <r>    1.1452    0.0000 </r>
       <r>    1.1579    0.0000 </r>
       <r>    1.1913    0.0000 </r>
       <r>    1.2117    0.0000 </r>
       <r>    1.2496    0.0000 </r>
       <r>    1.3239    0.0000 </r>
       <r>    1.3433    0.0000 </r>
       <r>    1.3797    0.0000 </r>
       <r>    1.5675    0.0000 </r>
       <r>    1.6285    0.0000 </r>
       <r>    1.6777    0.0000 </r>
      </set>
      <set comment="kpoint 3">
       <r>   -9.4102    1.0000 </r>
       <r>   -3.5733    0.1667 </r>
       <r>   -3.5733    0.1667 </r>
       <r>   -3.5732    0.1659 </r>
       <r>   -0.2335    0.0000 </r>
       <r>    0.1977    0.0000 </r>
       <r>    0.3405    0.0000 </r>
       <r>    0.3730    0.0000 </r>
       <r>    0.7000    0.0000 </r>
       <r>    0.7072    0.0000 </r>
       <r>    0.7110    0.0000 </r>
       <r>    0.8487    0.0000 </r>
       <r>    0.8675    0.0000 </r>
       <r>    1.0833    0.0000 </r>
       <r>    1.1871    0.0000 </r>
       <r>    1.2267    0.0000 </r>
       <r>    1.2651    0.0000 </r>
       <r>    1.2880    0.0000 </r>
       <r>    1.3790    0.0000 </r>
       <r>    1.3906    0.0000 </r>
       <r>    1.3975    0.0000 </r>
       <r>    1.5864    0.0000 </r>
       <r>    1.5874    0.0000 </r>
       <r>    1.6404    0.0000 </r>
      </set>
      <set comment="kpoint 4">
       <r>   -9.4102    1.0000 </r>
       <r>   -3.5733    0.1668 </r>
       <r>   -3.5733    0.1667 </r>
       <r>   -3.5732    0.1659 </r>
       <r>   -0.2115    0.0000 </r>
       <r>    0.1305    0.0000 </r>
       <r>    0.3694    0.0000 </r>
       <r>    0.4039    0.0000 </r>
       <r>    0.6209    0.0000 </r>
       <r>    0.6229    0.0000 </r>
       <r>    0.7345    0.0000 </r>
       <r>    0.8818    0.0000 </r>
       <r>    0.9954    0.0000 </r>
       <r>    1.0343    0.0000 </r>
       <r>    1.1601    0.0000 </r>
       <r>    1.2130    0.0000 </r>
       <r>    1.2989    0.0000 </r>
       <r>    1.3547    0.0000 </r>
       <r>    1.4275    0.0000 </r>
       <r>    1.4769    0.0000 </r>
       <r>    1.4963    0.0000 </r>
       <r>    1.5362    0.0000 </r>
       <r>    1.5493    0.0000 </r>
       <r>    1.5961    0.0000 </r>
      </set>
      <set comment="kpoint 5">
       <r>   -9.4102    1.0000 </r>
       <r>   -3.5733    0.1668 </r>
       <r>   -3.5733    0.1667 </r>
       <r>   -3.5732    0.1659 </r>
       <r>   -0.1947    0.0000 </r>
       <r>    0.0897    0.0000 </r>
       <r>    0.3957    0.0000 </r>
       <r>    0.4417    0.0000 </r>
       <r>    0.5578    0.0000 </r>
       <r>    0.5695    0.0000 </r>
       <r>    0.7547    0.0000 </r>
       <r>    0.9067    0.0000 </r>
       <r>    0.9652    0.0000 </r>
       <r>    1.0948    0.0000 </r>
       <r>    1.2050    0.0000 </r>
       <r>    1.2328    0.0000 </r>
       <r>    1.3333    0.0000 </r>
       <r>    1.3946    0.0000 </r>
       <r>    1.3953    0.0000 </r>
       <r>    1.4396    0.0000 </r>
       <r>    1.4451    0.0000 </r>
       <r>    1.5063    0.0000 </r>
       <r>    1.5720    0.0000 </r>
       <r>    1.5742    0.0000 </r>
      </set>
      <set comment="kpoint 6">
       <r>   -9.4102    1.0000 </r>
       <r>   -3.5733    0.1667 </r>
       <r>   -3.5733    0.1666 </r>
       <r>   -3.5732    0.1660 </r>
       <r>   -0.2522    0.0000 </r>
       <r>    0.2999    0.0000 </r>
       <r>    0.3167    0.0000 </r>
       <r>    0.4454    0.0000 </r>
       <r>    0.5583    0.0000 </r>
       <r>    0.5887    0.0000 </r>
       <r>    0.9130    0.0000 </r>
       <r>    0.9409    0.0000 </r>
       <r>    0.9576    0.0000 </r>
       <r>    1.0191    0.0000 </r>
       <r>    1.0779    0.0000 </r>
       <r>    1.0814    0.0000 </r>
       <r>    1.0882    0.0000 </r>
       <r>    1.1826    0.0000 </r>
       <r>    1.3264    0.0000 </r>
       <r>    1.4475    0.0000 </r>
       <r>    1.4840    0.0000 </r>
       <r>    1.5754    0.0000 </r>
       <r>    1.6287    0.0000 </r>
       <r>    1.6693    0.0000 </r>
      </set>
      <set comment="kpoint 7">
       <r>   -9.4102    1.0000 </r>
       <r>   -3.5733    0.1667 </r>
       <r>   -3.5733    0.1667 </r>
       <r>   -3.5732    0.1660 </r>
       <r>   -0.2424    0.0000 </r>
       <r>    0.2752    0.0000 </r>
       <r>    0.3279    0.0000 </r>
       <r>    0.3802    0.0000 </r>
       <r>    0.5751    0.0000 </r>
       <r>    0.7078    0.0000 </r>
       <r>    0.8050    0.0000 </r>
       <r>    0.8350    0.0000 </r>
       <r>    0.9617    0.0000 </r>
       <r>    1.0526    0.0000 </r>
       <r>    1.0558    0.0000 </r>
       <r>    1.1287    0.0000 </r>
       <r>    1.1863    0.0000 </r>
       <r>    1.2264    0.0000 </r>
       <r>    1.4127    0.0000 </r>
       <r>    1.4576    0.0000 </r>
       <r>    1.4613    0.0000 </r>
       <r>    1.5492    0.0000 </r>
       <r>    1.5653    0.0000 </r>
       <r>    1.5952    0.0000 </r>
      </set>
      <set comment="kpoint 8">
       <r>   -9.4102    1.0000 </r>
       <r>   -3.5733    0.1667 </r>
       <r>   -3.5733    0.1667 </r>
       <r>   -3.5732    0.1660 </r>
       <r>   -0.2245    0.0000 </r>
       <r>    0.2067    0.0000 </r>
       <r>    0.3493    0.0000 </r>
       <r>    0.3815    0.0000 </r>
       <r>    0.5956    0.0000 </r>
       <r>    0.7091    0.0000 </r>
       <r>    0.7166    0.0000 </r>
       <r>    0.8688    0.0000 </r>
       <r>    0.9591    0.0000 </r>
       <r>    0.9971    0.0000 </r>
       <r>    1.0788    0.0000 </r>
       <r>    1.1449    0.0000 </r>
       <r>    1.3177    0.0000 </r>
       <r>    1.3424    0.0000 </r>
       <r>    1.3882    0.0000 </r>
       <r>    1.4602    0.0000 </r>
       <r>    1.4882    0.0000 </r>
       <r>    1.5004    0.0000 </r>
       <r>    1.5226    0.0000 </r>
       <r>    1.6228    0.0000 </r>
      </set>
      <set comment="kpoint 9">
       <r>   -9.4102    1.0000 </r>
       <r>   -3.5733    0.1667 </r>
       <r>   -3.5733    0.1667 </r>
       <r>   -3.5732    0.1660 </r>
       <r>   -0.2026    0.0000 </r>
       <r>    0.1397    0.0000 </r>
       <r>    0.3781    0.0000 </r>
       <r>    0.4123    0.0000 </r>
       <r>    0.6211    0.0000 </r>
       <r>    0.6302    0.0000 </r>
       <r>    0.6321    0.0000 </r>
       <r>    0.8887    0.0000 </r>
       <r>    1.0124    0.0000 </r>
       <r>    1.0332    0.0000 </r>
       <r>    1.1061    0.0000 </r>
       <r>    1.1801    0.0000 </r>
       <r>    1.2847    0.0000 </r>
       <r>    1.3612    0.0000 </r>
       <r>    1.3903    0.0000 </r>
       <r>    1.4759    0.0000 </r>
       <r>    1.5363    0.0000 </r>
       <r>    1.5427    0.0000 </r>
       <r>    1.5609    0.0000 </r>
       <r>    1.6312    0.0000 </r>
      </set>
      <set comment="kpoint 10">
       <r>   -9.4102    1.0000 </r>
       <r>   -3.5733    0.1668 </r>
       <r>   -3.5733    0.1667 </r>
       <r>   -3.5732    0.1660 </r>
       <r>   -0.1858    0.0000 </r>
       <r>    0.0991    0.0000 </r>
       <r>    0.4043    0.0000 </r>
       <r>    0.4499    0.0000 </r>
       <r>    0.5663    0.0000 </r>
       <r>    0.5790    0.0000 </r>
       <r>    0.6441    0.0000 </r>
       <r>    0.8453    0.0000 </r>
       <r>    1.0320    0.0000 </r>
       <r>    1.1293    0.0000 </r>
       <r>    1.1841    0.0000 </r>
       <r>    1.2225    0.0000 </r>
       <r>    1.2519    0.0000 </r>
       <r>    1.3240    0.0000 </r>
       <r>    1.3273    0.0000 </r>
       <r>    1.4114    0.0000 </r>
       <r>    1.5160    0.0000 </r>
       <r>    1.6321    0.0000 </r>
       <r>    1.6391    0.0000 </r>
       <r>    1.6962    0.0000 </r>
      </set>
      <set comment="kpoint 11">
       <r>   -9.4102    1.0000 </r>
       <r>   -3.5733    0.1667 </r>
       <r>   -3.5733    0.1666 </r>
       <r>   -3.5732    0.1663 </r>
       <r>   -0.2344    0.0000 </r>
       <r>    0.3126    0.0000 </r>
       <r>    0.3345    0.0000 </r>
       <r>    0.4584    0.0000 </r>
       <r>    0.4650    0.0000 </r>
       <r>    0.6010    0.0000 </r>
       <r>    0.9127    0.0000 </r>
       <r>    0.9485    0.0000 </r>
       <r>    0.9556    0.0000 </r>
       <r>    0.9683    0.0000 </r>
       <r>    1.0663    0.0000 </r>
       <r>    1.0734    0.0000 </r>
       <r>    1.0970    0.0000 </r>
       <r>    1.1274    0.0000 </r>
       <r>    1.2225    0.0000 </r>
       <r>    1.5378    0.0000 </r>
       <r>    1.5658    0.0000 </r>
       <r>    1.5992    0.0000 </r>
       <r>    1.6340    0.0000 </r>
       <r>    1.6507    0.0000 </r>
      </set>
      <set comment="kpoint 12">
       <r>   -9.4102    1.0000 </r>
       <r>   -3.5733    0.1667 </r>
       <r>   -3.5733    0.1667 </r>
       <r>   -3.5732    0.1663 </r>
       <r>   -0.2247    0.0000 </r>
       <r>    0.2901    0.0000 </r>
       <r>    0.3456    0.0000 </r>
       <r>    0.3966    0.0000 </r>
       <r>    0.4708    0.0000 </r>
       <r>    0.7247    0.0000 </r>
       <r>    0.8213    0.0000 </r>
       <r>    0.8513    0.0000 </r>
       <r>    0.9337    0.0000 </r>
       <r>    0.9527    0.0000 </r>
       <r>    1.0121    0.0000 </r>
       <r>    1.1207    0.0000 </r>
       <r>    1.2015    0.0000 </r>
       <r>    1.2449    0.0000 </r>
       <r>    1.3351    0.0000 </r>
       <r>    1.4434    0.0000 </r>
       <r>    1.4710    0.0000 </r>
       <r>    1.6008    0.0000 </r>
       <r>    1.6042    0.0000 </r>
       <r>    1.6640    0.0000 </r>
      </set>
      <set comment="kpoint 13">
       <r>   -9.4102    1.0000 </r>
       <r>   -3.5733    0.1667 </r>
       <r>   -3.5733    0.1667 </r>
       <r>   -3.5732    0.1663 </r>
       <r>   -0.2068    0.0000 </r>
       <r>    0.2242    0.0000 </r>
       <r>    0.3669    0.0000 </r>
       <r>    0.3954    0.0000 </r>
       <r>    0.4914    0.0000 </r>
       <r>    0.7270    0.0000 </r>
       <r>    0.7311    0.0000 </r>
       <r>    0.8523    0.0000 </r>
       <r>    0.8966    0.0000 </r>
       <r>    0.9726    0.0000 </r>
       <r>    1.0201    0.0000 </r>
       <r>    1.1411    0.0000 </r>
       <r>    1.3116    0.0000 </r>
       <r>    1.3382    0.0000 </r>
       <r>    1.3839    0.0000 </r>
       <r>    1.3989    0.0000 </r>
       <r>    1.4922    0.0000 </r>
       <r>    1.5457    0.0000 </r>
       <r>    1.6207    0.0000 </r>
       <r>    1.6802    0.0000 </r>
      </set>
      <set comment="kpoint 14">
       <r>   -9.4102    1.0000 </r>
       <r>   -3.5733    0.1667 </r>
       <r>   -3.5733    0.1667 </r>
       <r>   -3.5732    0.1663 </r>
       <r>   -0.1850    0.0000 </r>
       <r>    0.1580    0.0000 </r>
       <r>    0.3955    0.0000 </r>
       <r>    0.4250    0.0000 </r>
       <r>    0.5185    0.0000 </r>
       <r>    0.6472    0.0000 </r>
       <r>    0.6487    0.0000 </r>
       <r>    0.7827    0.0000 </r>
       <r>    1.0001    0.0000 </r>
       <r>    1.0445    0.0000 </r>
       <r>    1.0570    0.0000 </r>
       <r>    1.1662    0.0000 </r>
       <r>    1.2600    0.0000 </r>
       <r>    1.2659    0.0000 </r>
       <r>    1.4394    0.0000 </r>
       <r>    1.5071    0.0000 </r>
       <r>    1.5702    0.0000 </r>
       <r>    1.5939    0.0000 </r>
       <r>    1.6491    0.0000 </r>
       <r>    1.6716    0.0000 </r>
      </set>
      <set comment="kpoint 15">
       <r>   -9.4102    1.0000 </r>
       <r>   -3.5733    0.1667 </r>
       <r>   -3.5733    0.1667 </r>
       <r>   -3.5732    0.1663 </r>
       <r>   -0.1684    0.0000 </r>
       <r>    0.1177    0.0000 </r>
       <r>    0.4213    0.0000 </r>
       <r>    0.4608    0.0000 </r>
       <r>    0.5430    0.0000 </r>
       <r>    0.5828    0.0000 </r>
       <r>    0.5979    0.0000 </r>
       <r>    0.7357    0.0000 </r>
       <r>    1.0245    0.0000 </r>
       <r>    1.0869    0.0000 </r>
       <r>    1.1822    0.0000 </r>
       <r>    1.1882    0.0000 </r>
       <r>    1.2124    0.0000 </r>
       <r>    1.2419    0.0000 </r>
       <r>    1.3790    0.0000 </r>
       <r>    1.4508    0.0000 </r>
       <r>    1.6253    0.0000 </r>
       <r>    1.6835    0.0000 </r>
       <r>    1.7296    0.0000 </r>
       <r>    1.7545    0.0000 </r>
      </set>
      <set comment="kpoint 16">
       <r>   -9.4102    1.0000 </r>
       <r>   -3.5733    0.1667 </r>
       <r>   -3.5733    0.1667 </r>
       <r>   -3.5733    0.1666 </r>
       <r>   -0.2087    0.0000 </r>
       <r>    0.3046    0.0000 </r>
       <r>    0.3607    0.0000 </r>
       <r>    0.3970    0.0000 </r>
       <r>    0.4890    0.0000 </r>
       <r>    0.6280    0.0000 </r>
       <r>    0.8336    0.0000 </r>
       <r>    0.8524    0.0000 </r>
       <r>    0.9527    0.0000 </r>
       <r>    0.9650    0.0000 </r>
       <r>    1.0146    0.0000 </r>
       <r>    1.0965    0.0000 </r>
       <r>    1.1016    0.0000 </r>
       <r>    1.1441    0.0000 </r>
       <r>    1.2678    0.0000 </r>
       <r>    1.4531    0.0000 </r>
       <r>    1.4746    0.0000 </r>
       <r>    1.5749    0.0000 </r>
       <r>    1.6118    0.0000 </r>
       <r>    1.6848    0.0000 </r>
      </set>
      <set comment="kpoint 17">
       <r>   -9.4102    1.0000 </r>
       <r>   -3.5733    0.1667 </r>
       <r>   -3.5733    0.1667 </r>
       <r>   -3.5733    0.1666 </r>
       <r>   -0.1990    0.0000 </r>
       <r>    0.2978    0.0000 </r>
       <r>    0.3717    0.0000 </r>
       <r>    0.3821    0.0000 </r>
       <r>    0.4327    0.0000 </r>
       <r>    0.7473    0.0000 </r>
       <r>    0.8247    0.0000 </r>
       <r>    0.8283    0.0000 </r>
       <r>    0.8742    0.0000 </r>
       <r>    0.8872    0.0000 </r>
       <r>    0.9156    0.0000 </r>
       <r>    1.2147    0.0000 </r>
       <r>    1.2234    0.0000 </r>
       <r>    1.2720    0.0000 </r>
       <r>    1.2886    0.0000 </r>
       <r>    1.3479    0.0000 </r>
       <r>    1.3787    0.0000 </r>
       <r>    1.6839    0.0000 </r>
       <r>    1.6897    0.0000 </r>
       <r>    1.7349    0.0000 </r>
      </set>
      <set comment="kpoint 18">
       <r>   -9.4102    1.0000 </r>
       <r>   -3.5733    0.1667 </r>
       <r>   -3.5733    0.1667 </r>
       <r>   -3.5733    0.1667 </r>
       <r>   -0.1813    0.0000 </r>
       <r>    0.2480    0.0000 </r>
       <r>    0.3718    0.0000 </r>
       <r>    0.3928    0.0000 </r>
       <r>    0.4468    0.0000 </r>
       <r>    0.7231    0.0000 </r>
       <r>    0.7525    0.0000 </r>
       <r>    0.7912    0.0000 </r>
       <r>    0.8757    0.0000 </r>
       <r>    0.9174    0.0000 </r>
       <r>    0.9203    0.0000 </r>
       <r>    1.2340    0.0000 </r>
       <r>    1.2386    0.0000 </r>
       <r>    1.2836    0.0000 </r>
       <r>    1.3863    0.0000 </r>
       <r>    1.4104    0.0000 </r>
       <r>    1.4358    0.0000 </r>
       <r>    1.6656    0.0000 </r>
       <r>    1.7302    0.0000 </r>
       <r>    1.7306    0.0000 </r>
      </set>
      <set comment="kpoint 19">
       <r>   -9.4102    1.0000 </r>
       <r>   -3.5733    0.1667 </r>
       <r>   -3.5733    0.1667 </r>
       <r>   -3.5733    0.1667 </r>
       <r>   -0.1598    0.0000 </r>
       <r>    0.1849    0.0000 </r>
       <r>    0.3939    0.0000 </r>
       <r>    0.4211    0.0000 </r>
       <r>    0.4791    0.0000 </r>
       <r>    0.6463    0.0000 </r>
       <r>    0.6761    0.0000 </r>
       <r>    0.7098    0.0000 </r>
       <r>    0.9025    0.0000 </r>
       <r>    0.9514    0.0000 </r>
       <r>    1.0739    0.0000 </r>
       <r>    1.1588    0.0000 </r>
       <r>    1.1627    0.0000 </r>
       <r>    1.3124    0.0000 </r>
       <r>    1.5318    0.0000 </r>
       <r>    1.5347    0.0000 </r>
       <r>    1.5728    0.0000 </r>
       <r>    1.6392    0.0000 </r>
       <r>    1.6587    0.0000 </r>
       <r>    1.7573    0.0000 </r>
      </set>
      <set comment="kpoint 20">
       <r>   -9.4102    1.0000 </r>
       <r>   -3.5733    0.1667 </r>
       <r>   -3.5733    0.1667 </r>
       <r>   -3.5733    0.1667 </r>
       <r>   -0.1434    0.0000 </r>
       <r>    0.1454    0.0000 </r>
       <r>    0.4182    0.0000 </r>
       <r>    0.4463    0.0000 </r>
       <r>    0.5155    0.0000 </r>
       <r>    0.5897    0.0000 </r>
       <r>    0.6261    0.0000 </r>
       <r>    0.6536    0.0000 </r>
       <r>    0.9277    0.0000 </r>
       <r>    0.9914    0.0000 </r>
       <r>    1.0899    0.0000 </r>
       <r>    1.1085    0.0000 </r>
       <r>    1.2491    0.0000 </r>
       <r>    1.3337    0.0000 </r>
       <r>    1.4367    0.0000 </r>
       <r>    1.5706    0.0000 </r>
       <r>    1.6774    0.0000 </r>
       <r>    1.7117    0.0000 </r>
       <r>    1.7619    0.0000 </r>
       <r>    1.7903    0.0000 </r>
      </set>
      <set comment="kpoint 21">
       <r>   -9.4102    1.0000 </r>
       <r>   -3.5733    0.1670 </r>
       <r>   -3.5733    0.1666 </r>
       <r>   -3.5733    0.1666 </r>
       <r>   -0.1768    0.0000 </r>
       <r>    0.2411    0.0000 </r>
       <r>    0.3947    0.0000 </r>
       <r>    0.4108    0.0000 </r>
       <r>    0.5223    0.0000 </r>
       <r>    0.6636    0.0000 </r>
       <r>    0.7470    0.0000 </r>
       <r>    0.7571    0.0000 </r>
       <r>    0.8770    0.0000 </r>
       <r>    0.9971    0.0000 </r>
       <r>    1.0172    0.0000 </r>
       <r>    1.0436    0.0000 </r>
       <r>    1.1296    0.0000 </r>
       <r>    1.1735    0.0000 </r>
       <r>    1.3644    0.0000 </r>
       <r>    1.3669    0.0000 </r>
       <r>    1.4282    0.0000 </r>
       <r>    1.4889    0.0000 </r>
       <r>    1.5310    0.0000 </r>
       <r>    1.7213    0.0000 </r>
      </set>
      <set comment="kpoint 22">
       <r>   -9.4102    1.0000 </r>
       <r>   -3.5733    0.1670 </r>
       <r>   -3.5733    0.1666 </r>
       <r>   -3.5733    0.1666 </r>
       <r>   -0.1673    0.0000 </r>
       <r>    0.2499    0.0000 </r>
       <r>    0.3817    0.0000 </r>
       <r>    0.4055    0.0000 </r>
       <r>    0.4659    0.0000 </r>
       <r>    0.7235    0.0000 </r>
       <r>    0.7572    0.0000 </r>
       <r>    0.7903    0.0000 </r>
       <r>    0.8194    0.0000 </r>
       <r>    0.8915    0.0000 </r>
       <r>    0.9288    0.0000 </r>
       <r>    1.1414    0.0000 </r>
       <r>    1.2255    0.0000 </r>
       <r>    1.2664    0.0000 </r>
       <r>    1.2885    0.0000 </r>
       <r>    1.3136    0.0000 </r>
       <r>    1.4421    0.0000 </r>
       <r>    1.6246    0.0000 </r>
       <r>    1.6578    0.0000 </r>
       <r>    1.7286    0.0000 </r>
      </set>
      <set comment="kpoint 23">
       <r>   -9.4102    1.0000 </r>
       <r>   -3.5733    0.1670 </r>
       <r>   -3.5733    0.1666 </r>
       <r>   -3.5733    0.1666 </r>
       <r>   -0.1499    0.0000 </r>
       <r>    0.2563    0.0000 </r>
       <r>    0.3195    0.0000 </r>
       <r>    0.4263    0.0000 </r>
       <r>    0.4764    0.0000 </r>
       <r>    0.6477    0.0000 </r>
       <r>    0.7666    0.0000 </r>
       <r>    0.8088    0.0000 </r>
       <r>    0.8116    0.0000 </r>
       <r>    0.8241    0.0000 </r>
       <r>    0.9535    0.0000 </r>
       <r>    1.1456    0.0000 </r>
       <r>    1.1505    0.0000 </r>
       <r>    1.3019    0.0000 </r>
       <r>    1.4160    0.0000 </r>
       <r>    1.4422    0.0000 </r>
       <r>    1.4874    0.0000 </r>
       <r>    1.7229    0.0000 </r>
       <r>    1.7620    0.0000 </r>
       <r>    1.8067    0.0000 </r>
      </set>
      <set comment="kpoint 24">
       <r>   -9.4102    1.0000 </r>
       <r>   -3.5733    0.1670 </r>
       <r>   -3.5733    0.1667 </r>
       <r>   -3.5733    0.1666 </r>
       <r>   -0.1288    0.0000 </r>
       <r>    0.2183    0.0000 </r>
       <r>    0.3171    0.0000 </r>
       <r>    0.4539    0.0000 </r>
       <r>    0.5089    0.0000 </r>
       <r>    0.5736    0.0000 </r>
       <r>    0.7110    0.0000 </r>
       <r>    0.7279    0.0000 </r>
       <r>    0.8162    0.0000 </r>
       <r>    0.8567    0.0000 </r>
       <r>    1.0572    0.0000 </r>
       <r>    1.0663    0.0000 </r>
       <r>    1.1211    0.0000 </r>
       <r>    1.4304    0.0000 </r>
       <r>    1.4982    0.0000 </r>
       <r>    1.5674    0.0000 </r>
       <r>    1.6267    0.0000 </r>
       <r>    1.6598    0.0000 </r>
       <r>    1.7911    0.0000 </r>
       <r>    1.8219    0.0000 </r>
      </set>
      <set comment="kpoint 25">
       <r>   -9.4102    1.0000 </r>
       <r>   -3.5733    0.1670 </r>
       <r>   -3.5733    0.1667 </r>
       <r>   -3.5733    0.1666 </r>
       <r>   -0.1129    0.0000 </r>
       <r>    0.1818    0.0000 </r>
       <r>    0.3379    0.0000 </r>
       <r>    0.4782    0.0000 </r>
       <r>    0.5226    0.0000 </r>
       <r>    0.5491    0.0000 </r>
       <r>    0.6633    0.0000 </r>
       <r>    0.6635    0.0000 </r>
       <r>    0.8415    0.0000 </r>
       <r>    0.8971    0.0000 </r>
       <r>    0.9969    0.0000 </r>
       <r>    1.0141    0.0000 </r>
       <r>    1.2843    0.0000 </r>
       <r>    1.4465    0.0000 </r>
       <r>    1.5028    0.0000 </r>
       <r>    1.6340    0.0000 </r>
       <r>    1.7116    0.0000 </r>
       <r>    1.7278    0.0000 </r>
       <r>    1.8033    0.0000 </r>
       <r>    1.8230    0.0000 </r>
      </set>
      <set comment="kpoint 26">
       <r>   -9.4102    1.0000 </r>
       <r>   -3.5734    0.1673 </r>
       <r>   -3.5733    0.1666 </r>
       <r>   -3.5733    0.1666 </r>
       <r>   -0.1431    0.0000 </r>
       <r>    0.1747    0.0000 </r>
       <r>    0.4339    0.0000 </r>
       <r>    0.4527    0.0000 </r>
       <r>    0.5603    0.0000 </r>
       <r>    0.6716    0.0000 </r>
       <r>    0.6717    0.0000 </r>
       <r>    0.7059    0.0000 </r>
       <r>    0.8046    0.0000 </r>
       <r>    0.9403    0.0000 </r>
       <r>    1.0349    0.0000 </r>
       <r>    1.0869    0.0000 </r>
       <r>    1.1686    0.0000 </r>
       <r>    1.2197    0.0000 </r>
       <r>    1.2885    0.0000 </r>
       <r>    1.2923    0.0000 </r>
       <r>    1.4135    0.0000 </r>
       <r>    1.4216    0.0000 </r>
       <r>    1.5984    0.0000 </r>
       <r>    1.7659    0.0000 </r>
      </set>
      <set comment="kpoint 27">
       <r>   -9.4102    1.0000 </r>
       <r>   -3.5734    0.1673 </r>
       <r>   -3.5733    0.1666 </r>
       <r>   -3.5733    0.1666 </r>
       <r>   -0.1339    0.0000 </r>
       <r>    0.1857    0.0000 </r>
       <r>    0.4188    0.0000 </r>
       <r>    0.4445    0.0000 </r>
       <r>    0.5087    0.0000 </r>
       <r>    0.6470    0.0000 </r>
       <r>    0.6831    0.0000 </r>
       <r>    0.7331    0.0000 </r>
       <r>    0.8312    0.0000 </r>
       <r>    0.9303    0.0000 </r>
       <r>    0.9754    0.0000 </r>
       <r>    1.0673    0.0000 </r>
       <r>    1.1639    0.0000 </r>
       <r>    1.1834    0.0000 </r>
       <r>    1.3104    0.0000 </r>
       <r>    1.3604    0.0000 </r>
       <r>    1.5448    0.0000 </r>
       <r>    1.5516    0.0000 </r>
       <r>    1.6224    0.0000 </r>
       <r>    1.7713    0.0000 </r>
      </set>
      <set comment="kpoint 28">
       <r>   -9.4102    1.0000 </r>
       <r>   -3.5734    0.1673 </r>
       <r>   -3.5733    0.1666 </r>
       <r>   -3.5733    0.1666 </r>
       <r>   -0.1170    0.0000 </r>
       <r>    0.2064    0.0000 </r>
       <r>    0.3424    0.0000 </r>
       <r>    0.4647    0.0000 </r>
       <r>    0.5200    0.0000 </r>
       <r>    0.5714    0.0000 </r>
       <r>    0.7049    0.0000 </r>
       <r>    0.7394    0.0000 </r>
       <r>    0.8370    0.0000 </r>
       <r>    0.8543    0.0000 </r>
       <r>    0.9923    0.0000 </r>
       <r>    1.0672    0.0000 </r>
       <r>    1.0716    0.0000 </r>
       <r>    1.2298    0.0000 </r>
       <r>    1.4522    0.0000 </r>
       <r>    1.5089    0.0000 </r>
       <r>    1.6063    0.0000 </r>
       <r>    1.6995    0.0000 </r>
       <r>    1.7262    0.0000 </r>
       <r>    1.7711    0.0000 </r>
      </set>
      <set comment="kpoint 29">
       <r>   -9.4102    1.0000 </r>
       <r>   -3.5734    0.1673 </r>
       <r>   -3.5733    0.1666 </r>
       <r>   -3.5733    0.1666 </r>
       <r>   -0.0967    0.0000 </r>
       <r>    0.2303    0.0000 </r>
       <r>    0.2797    0.0000 </r>
       <r>    0.4912    0.0000 </r>
       <r>    0.4945    0.0000 </r>
       <r>    0.5552    0.0000 </r>
       <r>    0.7301    0.0000 </r>
       <r>    0.7664    0.0000 </r>
       <r>    0.7701    0.0000 </r>
       <r>    0.7732    0.0000 </r>
       <r>    0.9787    0.0000 </r>
       <r>    0.9855    0.0000 </r>
       <r>    1.1554    0.0000 </r>
       <r>    1.3868    0.0000 </r>
       <r>    1.6030    0.0000 </r>
       <r>    1.6051    0.0000 </r>
       <r>    1.6730    0.0000 </r>
       <r>    1.6994    0.0000 </r>
       <r>    1.8389    0.0000 </r>
       <r>    1.8723    0.0000 </r>
      </set>
      <set comment="kpoint 30">
       <r>   -9.4102    1.0000 </r>
       <r>   -3.5734    0.1673 </r>
       <r>   -3.5733    0.1667 </r>
       <r>   -3.5733    0.1666 </r>
       <r>   -0.0817    0.0000 </r>
       <r>    0.2248    0.0000 </r>
       <r>    0.2713    0.0000 </r>
       <r>    0.4450    0.0000 </r>
       <r>    0.5140    0.0000 </r>
       <r>    0.5937    0.0000 </r>
       <r>    0.7061    0.0000 </r>
       <r>    0.7077    0.0000 </r>
       <r>    0.7697    0.0000 </r>
       <r>    0.8124    0.0000 </r>
       <r>    0.9132    0.0000 </r>
       <r>    0.9311    0.0000 </r>
       <r>    1.3220    0.0000 </r>
       <r>    1.4924    0.0000 </r>
       <r>    1.5710    0.0000 </r>
       <r>    1.6300    0.0000 </r>
       <r>    1.7412    0.0000 </r>
       <r>    1.7440    0.0000 </r>
       <r>    1.8634    0.0000 </r>
       <r>    1.8687    0.0000 </r>
      </set>
      <set comment="kpoint 31">
       <r>   -9.4102    1.0000 </r>
       <r>   -3.5734    0.1674 </r>
       <r>   -3.5733    0.1666 </r>
       <r>   -3.5733    0.1665 </r>
       <r>   -0.1182    0.0000 </r>
       <r>    0.1323    0.0000 </r>
       <r>    0.4687    0.0000 </r>
       <r>    0.5000    0.0000 </r>
       <r>    0.5924    0.0000 </r>
       <r>    0.6044    0.0000 </r>
       <r>    0.6187    0.0000 </r>
       <r>    0.7421    0.0000 </r>
       <r>    0.7566    0.0000 </r>
       <r>    0.8828    0.0000 </r>
       <r>    1.0672    0.0000 </r>
       <r>    1.1385    0.0000 </r>
       <r>    1.2050    0.0000 </r>
       <r>    1.2208    0.0000 </r>
       <r>    1.2347    0.0000 </r>
       <r>    1.2745    0.0000 </r>
       <r>    1.3531    0.0000 </r>
       <r>    1.3613    0.0000 </r>
       <r>    1.7034    0.0000 </r>
       <r>    1.8427    0.0000 </r>
      </set>
      <set comment="kpoint 32">
       <r>   -9.4102    1.0000 </r>
       <r>   -3.5734    0.1674 </r>
       <r>   -3.5733    0.1666 </r>
       <r>   -3.5733    0.1666 </r>
       <r>   -0.1092    0.0000 </r>
       <r>    0.1439    0.0000 </r>
       <r>    0.4582    0.0000 </r>
       <r>    0.4789    0.0000 </r>
       <r>    0.5517    0.0000 </r>
       <r>    0.5863    0.0000 </r>
       <r>    0.6308    0.0000 </r>
       <r>    0.6731    0.0000 </r>
       <r>    0.8648    0.0000 </r>
       <r>    0.9663    0.0000 </r>
       <r>    1.0143    0.0000 </r>
       <r>    1.0298    0.0000 </r>
       <r>    1.1105    0.0000 </r>
       <r>    1.1108    0.0000 </r>
       <r>    1.3411    0.0000 </r>
       <r>    1.4128    0.0000 </r>
       <r>    1.4922    0.0000 </r>
       <r>    1.5008    0.0000 </r>
       <r>    1.7112    0.0000 </r>
       <r>    1.8431    0.0000 </r>
      </set>
      <set comment="kpoint 33">
       <r>   -9.4102    1.0000 </r>
       <r>   -3.5734    0.1674 </r>
       <r>   -3.5733    0.1666 </r>
       <r>   -3.5733    0.1666 </r>
       <r>   -0.0929    0.0000 </r>
       <r>    0.1665    0.0000 </r>
       <r>    0.3789    0.0000 </r>
       <r>    0.4981    0.0000 </r>
       <r>    0.5121    0.0000 </r>
       <r>    0.5694    0.0000 </r>
       <r>    0.6544    0.0000 </r>
       <r>    0.6725    0.0000 </r>
       <r>    0.8745    0.0000 </r>
       <r>    0.9000    0.0000 </r>
       <r>    0.9933    0.0000 </r>
       <r>    1.0099    0.0000 </r>
       <r>    1.0439    0.0000 </r>
       <r>    1.1742    0.0000 </r>
       <r>    1.4831    0.0000 </r>
       <r>    1.5616    0.0000 </r>
       <r>    1.6401    0.0000 </r>
       <r>    1.6521    0.0000 </r>
       <r>    1.7288    0.0000 </r>
       <r>    1.8180    0.0000 </r>
      </set>
      <set comment="kpoint 34">
       <r>   -9.4102    1.0000 </r>
       <r>   -3.5734    0.1674 </r>
       <r>   -3.5733    0.1666 </r>
       <r>   -3.5733    0.1666 </r>
       <r>   -0.0737    0.0000 </r>
       <r>    0.1975    0.0000 </r>
       <r>    0.3116    0.0000 </r>
       <r>    0.4361    0.0000 </r>
       <r>    0.5228    0.0000 </r>
       <r>    0.6032    0.0000 </r>
       <r>    0.6873    0.0000 </r>
       <r>    0.7040    0.0000 </r>
       <r>    0.8005    0.0000 </r>
       <r>    0.8204    0.0000 </r>
       <r>    0.9108    0.0000 </r>
       <r>    0.9252    0.0000 </r>
       <r>    1.1896    0.0000 </r>
       <r>    1.3370    0.0000 </r>
       <r>    1.6316    0.0000 </r>
       <r>    1.6874    0.0000 </r>
       <r>    1.6999    0.0000 </r>
       <r>    1.7616    0.0000 </r>
       <r>    1.8064    0.0000 </r>
       <r>    1.8159    0.0000 </r>
      </set>
      <set comment="kpoint 35">
       <r>   -9.4102    1.0000 </r>
       <r>   -3.5734    0.1674 </r>
       <r>   -3.5733    0.1667 </r>
       <r>   -3.5733    0.1666 </r>
       <r>   -0.0595    0.0000 </r>
       <r>    0.2279    0.0000 </r>
       <r>    0.2715    0.0000 </r>
       <r>    0.3830    0.0000 </r>
       <r>    0.5435    0.0000 </r>
       <r>    0.6423    0.0000 </r>
       <r>    0.7202    0.0000 </r>
       <r>    0.7440    0.0000 </r>
       <r>    0.7544    0.0000 </r>
       <r>    0.7558    0.0000 </r>
       <r>    0.8440    0.0000 </r>
       <r>    0.8670    0.0000 </r>
       <r>    1.3533    0.0000 </r>
       <r>    1.5050    0.0000 </r>
       <r>    1.5435    0.0000 </r>
       <r>    1.7070    0.0000 </r>
       <r>    1.7223    0.0000 </r>
       <r>    1.7672    0.0000 </r>
       <r>    1.9088    0.0000 </r>
       <r>    1.9153    0.0000 </r>
      </set>
      <set comment="kpoint 36">
       <r>   -9.4102    1.0000 </r>
       <r>   -3.5733    0.1667 </r>
       <r>   -3.5733    0.1667 </r>
       <r>   -3.5732    0.1659 </r>
       <r>   -0.2582    0.0000 </r>
       <r>    0.2158    0.0000 </r>
       <r>    0.3853    0.0000 </r>
       <r>    0.4497    0.0000 </r>
       <r>    0.5769    0.0000 </r>
       <r>    0.6857    0.0000 </r>
       <r>    0.8267    0.0000 </r>
       <r>    0.8321    0.0000 </r>
       <r>    0.9591    0.0000 </r>
       <r>    1.0232    0.0000 </r>
       <r>    1.0977    0.0000 </r>
       <r>    1.1562    0.0000 </r>
       <r>    1.2465    0.0000 </r>
       <r>    1.2625    0.0000 </r>
       <r>    1.3045    0.0000 </r>
       <r>    1.4063    0.0000 </r>
       <r>    1.4302    0.0000 </r>
       <r>    1.4885    0.0000 </r>
       <r>    1.5101    0.0000 </r>
       <r>    1.6166    0.0000 </r>
      </set>
      <set comment="kpoint 37">
       <r>   -9.4102    1.0000 </r>
       <r>   -3.5733    0.1667 </r>
       <r>   -3.5733    0.1667 </r>
       <r>   -3.5732    0.1659 </r>
       <r>   -0.2485    0.0000 </r>
       <r>    0.2211    0.0000 </r>
       <r>    0.3169    0.0000 </r>
       <r>    0.4356    0.0000 </r>
       <r>    0.6877    0.0000 </r>
       <r>    0.7014    0.0000 </r>
       <r>    0.7286    0.0000 </r>
       <r>    0.8389    0.0000 </r>
       <r>    0.9136    0.0000 </r>
       <r>    1.0862    0.0000 </r>
       <r>    1.1139    0.0000 </r>
       <r>    1.1857    0.0000 </r>
       <r>    1.2407    0.0000 </r>
       <r>    1.2907    0.0000 </r>
       <r>    1.3276    0.0000 </r>
       <r>    1.3398    0.0000 </r>
       <r>    1.4532    0.0000 </r>
       <r>    1.4912    0.0000 </r>
       <r>    1.5776    0.0000 </r>
       <r>    1.6222    0.0000 </r>
      </set>
      <set comment="kpoint 38">
       <r>   -9.4102    1.0000 </r>
       <r>   -3.5733    0.1667 </r>
       <r>   -3.5733    0.1667 </r>
       <r>   -3.5732    0.1659 </r>
       <r>   -0.2306    0.0000 </r>
       <r>    0.1956    0.0000 </r>
       <r>    0.2769    0.0000 </r>
       <r>    0.4552    0.0000 </r>
       <r>    0.6161    0.0000 </r>
       <r>    0.7132    0.0000 </r>
       <r>    0.7986    0.0000 </r>
       <r>    0.8563    0.0000 </r>
       <r>    0.8741    0.0000 </r>
       <r>    1.0836    0.0000 </r>
       <r>    1.1382    0.0000 </r>
       <r>    1.2263    0.0000 </r>
       <r>    1.2369    0.0000 </r>
       <r>    1.2959    0.0000 </r>
       <r>    1.3381    0.0000 </r>
       <r>    1.4461    0.0000 </r>
       <r>    1.4838    0.0000 </r>
       <r>    1.5059    0.0000 </r>
       <r>    1.5162    0.0000 </r>
       <r>    1.6311    0.0000 </r>
      </set>
      <set comment="kpoint 39">
       <r>   -9.4102    1.0000 </r>
       <r>   -3.5733    0.1668 </r>
       <r>   -3.5733    0.1667 </r>
       <r>   -3.5732    0.1659 </r>
       <r>   -0.2088    0.0000 </r>
       <r>    0.1345    0.0000 </r>
       <r>    0.2991    0.0000 </r>
       <r>    0.4840    0.0000 </r>
       <r>    0.5354    0.0000 </r>
       <r>    0.7238    0.0000 </r>
       <r>    0.7377    0.0000 </r>
       <r>    0.8855    0.0000 </r>
       <r>    0.9995    0.0000 </r>
       <r>    1.0384    0.0000 </r>
       <r>    1.1612    0.0000 </r>
       <r>    1.1677    0.0000 </r>
       <r>    1.2945    0.0000 </r>
       <r>    1.3563    0.0000 </r>
       <r>    1.3976    0.0000 </r>
       <r>    1.4551    0.0000 </r>
       <r>    1.4901    0.0000 </r>
       <r>    1.5276    0.0000 </r>
       <r>    1.5605    0.0000 </r>
       <r>    1.5982    0.0000 </r>
      </set>
      <set comment="kpoint 40">
       <r>   -9.4102    1.0000 </r>
       <r>   -3.5733    0.1668 </r>
       <r>   -3.5733    0.1667 </r>
       <r>   -3.5732    0.1659 </r>
       <r>   -0.1922    0.0000 </r>
       <r>    0.0946    0.0000 </r>
       <r>    0.3293    0.0000 </r>
       <r>    0.4693    0.0000 </r>
       <r>    0.5239    0.0000 </r>
       <r>    0.6672    0.0000 </r>
       <r>    0.7575    0.0000 </r>
       <r>    0.9100    0.0000 </r>
       <r>    0.9700    0.0000 </r>
       <r>    1.0993    0.0000 </r>
       <r>    1.1871    0.0000 </r>
       <r>    1.2119    0.0000 </r>
       <r>    1.3196    0.0000 </r>
       <r>    1.3590    0.0000 </r>
       <r>    1.3949    0.0000 </r>
       <r>    1.4178    0.0000 </r>
       <r>    1.4715    0.0000 </r>
       <r>    1.5313    0.0000 </r>
       <r>    1.5569    0.0000 </r>
       <r>    1.6010    0.0000 </r>
      </set>
      <set comment="kpoint 41">
       <r>   -9.4102    1.0000 </r>
       <r>   -3.5733    0.1667 </r>
       <r>   -3.5733    0.1666 </r>
       <r>   -3.5732    0.1660 </r>
       <r>   -0.2492    0.0000 </r>
       <r>    0.2247    0.0000 </r>
       <r>    0.3927    0.0000 </r>
       <r>    0.4584    0.0000 </r>
       <r>    0.5643    0.0000 </r>
       <r>    0.5937    0.0000 </r>
       <r>    0.8394    0.0000 </r>
       <r>    0.9444    0.0000 </r>
       <r>    0.9673    0.0000 </r>
       <r>    0.9945    0.0000 </r>
       <r>    1.0351    0.0000 </r>
       <r>    1.1555    0.0000 </r>
       <r>    1.1609    0.0000 </r>
       <r>    1.2022    0.0000 </r>
       <r>    1.3266    0.0000 </r>
       <r>    1.3873    0.0000 </r>
       <r>    1.4834    0.0000 </r>
       <r>    1.5605    0.0000 </r>
       <r>    1.5792    0.0000 </r>
       <r>    1.6184    0.0000 </r>
      </set>
      <set comment="kpoint 42">
       <r>   -9.4102    1.0000 </r>
       <r>   -3.5733    0.1667 </r>
       <r>   -3.5733    0.1667 </r>
       <r>   -3.5732    0.1660 </r>
       <r>   -0.2395    0.0000 </r>
       <r>    0.2300    0.0000 </r>
       <r>    0.3257    0.0000 </r>
       <r>    0.4435    0.0000 </r>
       <r>    0.5795    0.0000 </r>
       <r>    0.7049    0.0000 </r>
       <r>    0.7378    0.0000 </r>
       <r>    0.9205    0.0000 </r>
       <r>    0.9586    0.0000 </r>
       <r>    0.9988    0.0000 </r>
       <r>    1.0673    0.0000 </r>
       <r>    1.1188    0.0000 </r>
       <r>    1.1914    0.0000 </r>
       <r>    1.3008    0.0000 </r>
       <r>    1.3942    0.0000 </r>
       <r>    1.4046    0.0000 </r>
       <r>    1.4870    0.0000 </r>
       <r>    1.5046    0.0000 </r>
       <r>    1.5240    0.0000 </r>
       <r>    1.5973    0.0000 </r>
      </set>
      <set comment="kpoint 43">
       <r>   -9.4102    1.0000 </r>
       <r>   -3.5733    0.1667 </r>
       <r>   -3.5733    0.1667 </r>
       <r>   -3.5732    0.1660 </r>
       <r>   -0.2216    0.0000 </r>
       <r>    0.2046    0.0000 </r>
       <r>    0.2860    0.0000 </r>
       <r>    0.4629    0.0000 </r>
       <r>    0.5993    0.0000 </r>
       <r>    0.6256    0.0000 </r>
       <r>    0.8065    0.0000 </r>
       <r>    0.8791    0.0000 </r>
       <r>    0.9585    0.0000 </r>
       <r>    1.0009    0.0000 </r>
       <r>    1.0265    0.0000 </r>
       <r>    1.2101    0.0000 </r>
       <r>    1.2569    0.0000 </r>
       <r>    1.3398    0.0000 </r>
       <r>    1.4032    0.0000 </r>
       <r>    1.4083    0.0000 </r>
       <r>    1.4724    0.0000 </r>
       <r>    1.5255    0.0000 </r>
       <r>    1.5698    0.0000 </r>
       <r>    1.5907    0.0000 </r>
      </set>
      <set comment="kpoint 44">
       <r>   -9.4102    1.0000 </r>
       <r>   -3.5733    0.1667 </r>
       <r>   -3.5733    0.1667 </r>
       <r>   -3.5732    0.1660 </r>
       <r>   -0.1999    0.0000 </r>
       <r>    0.1437    0.0000 </r>
       <r>    0.3081    0.0000 </r>
       <r>    0.4917    0.0000 </r>
       <r>    0.5443    0.0000 </r>
       <r>    0.6259    0.0000 </r>
       <r>    0.7321    0.0000 </r>
       <r>    0.8935    0.0000 </r>
       <r>    1.0130    0.0000 </r>
       <r>    1.0368    0.0000 </r>
       <r>    1.0553    0.0000 </r>
       <r>    1.2349    0.0000 </r>
       <r>    1.2769    0.0000 </r>
       <r>    1.3120    0.0000 </r>
       <r>    1.4074    0.0000 </r>
       <r>    1.4654    0.0000 </r>
       <r>    1.4824    0.0000 </r>
       <r>    1.5458    0.0000 </r>
       <r>    1.5927    0.0000 </r>
       <r>    1.6423    0.0000 </r>
      </set>
      <set comment="kpoint 45">
       <r>   -9.4102    1.0000 </r>
       <r>   -3.5733    0.1668 </r>
       <r>   -3.5733    0.1667 </r>
       <r>   -3.5732    0.1660 </r>
       <r>   -0.1833    0.0000 </r>
       <r>    0.1039    0.0000 </r>
       <r>    0.3381    0.0000 </r>
       <r>    0.4785    0.0000 </r>
       <r>    0.5312    0.0000 </r>
       <r>    0.6478    0.0000 </r>
       <r>    0.6756    0.0000 </r>
       <r>    0.8507    0.0000 </r>
       <r>    1.0325    0.0000 </r>
       <r>    1.0829    0.0000 </r>
       <r>    1.1927    0.0000 </r>
       <r>    1.2162    0.0000 </r>
       <r>    1.2551    0.0000 </r>
       <r>    1.3027    0.0000 </r>
       <r>    1.4061    0.0000 </r>
       <r>    1.4222    0.0000 </r>
       <r>    1.4768    0.0000 </r>
       <r>    1.5734    0.0000 </r>
       <r>    1.5914    0.0000 </r>
       <r>    1.6497    0.0000 </r>
      </set>
      <set comment="kpoint 46">
       <r>   -9.4102    1.0000 </r>
       <r>   -3.5733    0.1667 </r>
       <r>   -3.5733    0.1666 </r>
       <r>   -3.5732    0.1663 </r>
       <r>   -0.2314    0.0000 </r>
       <r>    0.2420    0.0000 </r>
       <r>    0.3992    0.0000 </r>
       <r>    0.4683    0.0000 </r>
       <r>    0.4796    0.0000 </r>
       <r>    0.6073    0.0000 </r>
       <r>    0.8447    0.0000 </r>
       <r>    0.8758    0.0000 </r>
       <r>    0.9882    0.0000 </r>
       <r>    1.0189    0.0000 </r>
       <r>    1.0583    0.0000 </r>
       <r>    1.0892    0.0000 </r>
       <r>    1.1204    0.0000 </r>
       <r>    1.1934    0.0000 </r>
       <r>    1.2283    0.0000 </r>
       <r>    1.4682    0.0000 </r>
       <r>    1.4963    0.0000 </r>
       <r>    1.5425    0.0000 </r>
       <r>    1.6124    0.0000 </r>
       <r>    1.6549    0.0000 </r>
      </set>
      <set comment="kpoint 47">
       <r>   -9.4102    1.0000 </r>
       <r>   -3.5733    0.1667 </r>
       <r>   -3.5733    0.1667 </r>
       <r>   -3.5732    0.1663 </r>
       <r>   -0.2217    0.0000 </r>
       <r>    0.2471    0.0000 </r>
       <r>    0.3425    0.0000 </r>
       <r>    0.4462    0.0000 </r>
[...]
       <r>    1.0268    0.0000 </r>
       <r>    1.0646    0.0000 </r>
       <r>    1.1297    0.0000 </r>
       <r>    1.1518    0.0000 </r>
       <r>    1.2744    0.0000 </r>
       <r>    1.5578    0.0000 </r>
       <r>    1.6740    0.0000 </r>
       <r>    1.7063    0.0000 </r>
       <r>    1.7523    0.0000 </r>
      </set>
      <set comment="kpoint 172">
       <r>   -9.4102    1.0000 </r>
       <r>   -3.5734    0.1674 </r>
       <r>   -3.5733    0.1666 </r>
       <r>   -3.5733    0.1666 </r>
       <r>   -0.0862    0.0000 </r>
       <r>    0.1961    0.0000 </r>
       <r>    0.2636    0.0000 </r>
       <r>    0.3615    0.0000 </r>
       <r>    0.5209    0.0000 </r>
       <r>    0.6822    0.0000 </r>
       <r>    0.7274    0.0000 </r>
       <r>    0.8258    0.0000 </r>
       <r>    0.9097    0.0000 </r>
       <r>    0.9798    0.0000 </r>
       <r>    1.0494    0.0000 </r>
       <r>    1.1020    0.0000 </r>
       <r>    1.1248    0.0000 </r>
       <r>    1.1821    0.0000 </r>
       <r>    1.2247    0.0000 </r>
       <r>    1.2970    0.0000 </r>
       <r>    1.4644    0.0000 </r>
       <r>    1.5929    0.0000 </r>
       <r>    1.6200    0.0000 </r>
       <r>    1.7385    0.0000 </r>
      </set>
      <set comment="kpoint 173">
       <r>   -9.4102    1.0000 </r>
       <r>   -3.5734    0.1674 </r>
       <r>   -3.5733    0.1666 </r>
       <r>   -3.5733    0.1666 </r>
       <r>   -0.0708    0.0000 </r>
       <r>    0.2172    0.0000 </r>
       <r>    0.2873    0.0000 </r>
       <r>    0.3870    0.0000 </r>
       <r>    0.4320    0.0000 </r>
       <r>    0.5862    0.0000 </r>
       <r>    0.6293    0.0000 </r>
       <r>    0.7230    0.0000 </r>
       <r>    1.0058    0.0000 </r>
       <r>    1.0530    0.0000 </r>
       <r>    1.1296    0.0000 </r>
       <r>    1.1503    0.0000 </r>
       <r>    1.2152    0.0000 </r>
       <r>    1.2886    0.0000 </r>
       <r>    1.3023    0.0000 </r>
       <r>    1.3774    0.0000 </r>
       <r>    1.4084    0.0000 </r>
       <r>    1.4956    0.0000 </r>
       <r>    1.5343    0.0000 </r>
       <r>    1.6448    0.0000 </r>
      </set>
      <set comment="kpoint 174">
       <r>   -9.4102    1.0000 </r>
       <r>   -3.5734    0.1674 </r>
       <r>   -3.5733    0.1666 </r>
       <r>   -3.5733    0.1666 </r>
       <r>   -0.0530    0.0000 </r>
       <r>    0.2452    0.0000 </r>
       <r>    0.3206    0.0000 </r>
       <r>    0.3641    0.0000 </r>
       <r>    0.4239    0.0000 </r>
       <r>    0.5083    0.0000 </r>
       <r>    0.5455    0.0000 </r>
       <r>    0.6336    0.0000 </r>
       <r>    1.0368    0.0000 </r>
       <r>    1.1665    0.0000 </r>
       <r>    1.1748    0.0000 </r>
       <r>    1.2090    0.0000 </r>
       <r>    1.2899    0.0000 </r>
       <r>    1.3102    0.0000 </r>
       <r>    1.3887    0.0000 </r>
       <r>    1.4143    0.0000 </r>
       <r>    1.4432    0.0000 </r>
       <r>    1.4961    0.0000 </r>
       <r>    1.5587    0.0000 </r>
       <r>    1.5753    0.0000 </r>
      </set>
      <set comment="kpoint 175">
       <r>   -9.4102    1.0000 </r>
       <r>   -3.5734    0.1674 </r>
       <r>   -3.5733    0.1667 </r>
       <r>   -3.5733    0.1666 </r>
       <r>   -0.0402    0.0000 </r>
       <r>    0.2704    0.0000 </r>
       <r>    0.3237    0.0000 </r>
       <r>    0.3568    0.0000 </r>
       <r>    0.4528    0.0000 </r>
       <r>    0.4722    0.0000 </r>
       <r>    0.4870    0.0000 </r>
       <r>    0.5634    0.0000 </r>
       <r>    1.0640    0.0000 </r>
       <r>    1.1999    0.0000 </r>
       <r>    1.2071    0.0000 </r>
       <r>    1.2232    0.0000 </r>
       <r>    1.3336    0.0000 </r>
       <r>    1.3542    0.0000 </r>
       <r>    1.3669    0.0000 </r>
       <r>    1.4333    0.0000 </r>
       <r>    1.4867    0.0000 </r>
       <r>    1.5686    0.0000 </r>
       <r>    1.5967    0.0000 </r>
       <r>    1.6569    0.0000 </r>
      </set>
     </set>
    </set>
   </array>
  </eigenvalues>
  <separator name="orbital magnetization" >
   <v name="MAGDIPOLOUT">      0.00000000      0.00000000      0.00000000</v>
  </separator>
  <dos>
   <i name="efermi">     -3.60750087 </i>
   <total>
    <array>
     <dimension dim="1">gridpoints</dimension>
     <dimension dim="2">spin</dimension>
     <field>energy</field>
     <field>total</field>
     <field>integrated</field>
     <set>
      <set comment="spin 1">
       <r>    -9.9765     0.0000     0.0000 </r>
       <r>    -9.9350     0.0000     0.0000 </r>
       <r>    -9.8934     0.0000     0.0000 </r>
       <r>    -9.8519     0.0000     0.0000 </r>
       <r>    -9.8104     0.0000     0.0000 </r>
       <r>    -9.7688     0.0000     0.0000 </r>
       <r>    -9.7273     0.0000     0.0000 </r>
       <r>    -9.6858     0.0000     0.0000 </r>
       <r>    -9.6443     0.0000     0.0000 </r>
       <r>    -9.6027     0.0000     0.0000 </r>
       <r>    -9.5612     0.0005     0.0000 </r>
       <r>    -9.5197     0.0467     0.0020 </r>
       <r>    -9.4782     1.2678     0.0546 </r>
       <r>    -9.4366     9.6367     0.4548 </r>
       <r>    -9.3951    21.0925     1.3307 </r>
       <r>    -9.3536    13.4871     1.8908 </r>
       <r>    -9.3121     2.4980     1.9945 </r>
       <r>    -9.2705     0.1306     1.9999 </r>
       <r>    -9.2290     0.0019     2.0000 </r>
       <r>    -9.1875     0.0000     2.0000 </r>
       <r>    -9.1459     0.0000     2.0000 </r>
       <r>    -9.1044     0.0000     2.0000 </r>
       <r>    -9.0629     0.0000     2.0000 </r>
       <r>    -9.0214     0.0000     2.0000 </r>
       <r>    -8.9798     0.0000     2.0000 </r>
       <r>    -8.9383     0.0000     2.0000 </r>
       <r>    -8.8968     0.0000     2.0000 </r>
       <r>    -8.8553     0.0000     2.0000 </r>
       <r>    -8.8137     0.0000     2.0000 </r>
       <r>    -8.7722     0.0000     2.0000 </r>
       <r>    -8.7307     0.0000     2.0000 </r>
       <r>    -8.6892     0.0000     2.0000 </r>
       <r>    -8.6476     0.0000     2.0000 </r>
       <r>    -8.6061     0.0000     2.0000 </r>
       <r>    -8.5646     0.0000     2.0000 </r>
       <r>    -8.5230     0.0000     2.0000 </r>
       <r>    -8.4815     0.0000     2.0000 </r>
       <r>    -8.4400     0.0000     2.0000 </r>
       <r>    -8.3985     0.0000     2.0000 </r>
       <r>    -8.3569     0.0000     2.0000 </r>
       <r>    -8.3154     0.0000     2.0000 </r>
       <r>    -8.2739     0.0000     2.0000 </r>
       <r>    -8.2324     0.0000     2.0000 </r>
       <r>    -8.1908     0.0000     2.0000 </r>
       <r>    -8.1493     0.0000     2.0000 </r>
       <r>    -8.1078     0.0000     2.0000 </r>
       <r>    -8.0662     0.0000     2.0000 </r>
       <r>    -8.0247     0.0000     2.0000 </r>
       <r>    -7.9832     0.0000     2.0000 </r>
       <r>    -7.9417     0.0000     2.0000 </r>
       <r>    -7.9001     0.0000     2.0000 </r>
       <r>    -7.8586     0.0000     2.0000 </r>
       <r>    -7.8171     0.0000     2.0000 </r>
       <r>    -7.7756     0.0000     2.0000 </r>
       <r>    -7.7340     0.0000     2.0000 </r>
       <r>    -7.6925     0.0000     2.0000 </r>
       <r>    -7.6510     0.0000     2.0000 </r>
       <r>    -7.6095     0.0000     2.0000 </r>
       <r>    -7.5679     0.0000     2.0000 </r>
       <r>    -7.5264     0.0000     2.0000 </r>
       <r>    -7.4849     0.0000     2.0000 </r>
       <r>    -7.4433     0.0000     2.0000 </r>
       <r>    -7.4018     0.0000     2.0000 </r>
       <r>    -7.3603     0.0000     2.0000 </r>
       <r>    -7.3188     0.0000     2.0000 </r>
       <r>    -7.2772     0.0000     2.0000 </r>
       <r>    -7.2357     0.0000     2.0000 </r>
       <r>    -7.1942     0.0000     2.0000 </r>
       <r>    -7.1527     0.0000     2.0000 </r>
       <r>    -7.1111     0.0000     2.0000 </r>
       <r>    -7.0696     0.0000     2.0000 </r>
       <r>    -7.0281     0.0000     2.0000 </r>
       <r>    -6.9866     0.0000     2.0000 </r>
       <r>    -6.9450     0.0000     2.0000 </r>
       <r>    -6.9035     0.0000     2.0000 </r>
       <r>    -6.8620     0.0000     2.0000 </r>
       <r>    -6.8204     0.0000     2.0000 </r>
       <r>    -6.7789     0.0000     2.0000 </r>
       <r>    -6.7374     0.0000     2.0000 </r>
       <r>    -6.6959     0.0000     2.0000 </r>
       <r>    -6.6543     0.0000     2.0000 </r>
       <r>    -6.6128     0.0000     2.0000 </r>
       <r>    -6.5713     0.0000     2.0000 </r>
       <r>    -6.5298     0.0000     2.0000 </r>
       <r>    -6.4882     0.0000     2.0000 </r>
       <r>    -6.4467     0.0000     2.0000 </r>
       <r>    -6.4052     0.0000     2.0000 </r>
       <r>    -6.3636     0.0000     2.0000 </r>
       <r>    -6.3221     0.0000     2.0000 </r>
       <r>    -6.2806     0.0000     2.0000 </r>
       <r>    -6.2391     0.0000     2.0000 </r>
       <r>    -6.1975     0.0000     2.0000 </r>
       <r>    -6.1560     0.0000     2.0000 </r>
       <r>    -6.1145     0.0000     2.0000 </r>
       <r>    -6.0730     0.0000     2.0000 </r>
       <r>    -6.0314     0.0000     2.0000 </r>
       <r>    -5.9899     0.0000     2.0000 </r>
       <r>    -5.9484     0.0000     2.0000 </r>
       <r>    -5.9069     0.0000     2.0000 </r>
       <r>    -5.8653     0.0000     2.0000 </r>
       <r>    -5.8238     0.0000     2.0000 </r>
       <r>    -5.7823     0.0000     2.0000 </r>
       <r>    -5.7407     0.0000     2.0000 </r>
       <r>    -5.6992     0.0000     2.0000 </r>
       <r>    -5.6577     0.0000     2.0000 </r>
       <r>    -5.6162     0.0000     2.0000 </r>
       <r>    -5.5746     0.0000     2.0000 </r>
       <r>    -5.5331     0.0000     2.0000 </r>
       <r>    -5.4916     0.0000     2.0000 </r>
       <r>    -5.4501     0.0000     2.0000 </r>
       <r>    -5.4085     0.0000     2.0000 </r>
       <r>    -5.3670     0.0000     2.0000 </r>
       <r>    -5.3255     0.0000     2.0000 </r>
       <r>    -5.2840     0.0000     2.0000 </r>
       <r>    -5.2424     0.0000     2.0000 </r>
       <r>    -5.2009     0.0000     2.0000 </r>
       <r>    -5.1594     0.0000     2.0000 </r>
       <r>    -5.1178     0.0000     2.0000 </r>
       <r>    -5.0763     0.0000     2.0000 </r>
       <r>    -5.0348     0.0000     2.0000 </r>
       <r>    -4.9933     0.0000     2.0000 </r>
       <r>    -4.9517     0.0000     2.0000 </r>
       <r>    -4.9102     0.0000     2.0000 </r>
       <r>    -4.8687     0.0000     2.0000 </r>
       <r>    -4.8272     0.0000     2.0000 </r>
       <r>    -4.7856     0.0000     2.0000 </r>
       <r>    -4.7441     0.0000     2.0000 </r>
       <r>    -4.7026     0.0000     2.0000 </r>
       <r>    -4.6611     0.0000     2.0000 </r>
       <r>    -4.6195     0.0000     2.0000 </r>
       <r>    -4.5780     0.0000     2.0000 </r>
       <r>    -4.5365     0.0000     2.0000 </r>
       <r>    -4.4949     0.0000     2.0000 </r>
       <r>    -4.4534     0.0000     2.0000 </r>
       <r>    -4.4119     0.0000     2.0000 </r>
       <r>    -4.3704     0.0000     2.0000 </r>
       <r>    -4.3288     0.0000     2.0000 </r>
       <r>    -4.2873     0.0000     2.0000 </r>
       <r>    -4.2458     0.0000     2.0000 </r>
       <r>    -4.2043     0.0000     2.0000 </r>
       <r>    -4.1627     0.0000     2.0000 </r>
       <r>    -4.1212     0.0000     2.0000 </r>
       <r>    -4.0797     0.0000     2.0000 </r>
       <r>    -4.0381     0.0000     2.0000 </r>
       <r>    -3.9966     0.0000     2.0000 </r>
       <r>    -3.9551     0.0000     2.0000 </r>
       <r>    -3.9136     0.0000     2.0000 </r>
       <r>    -3.8720     0.0000     2.0000 </r>
       <r>    -3.8305     0.0000     2.0000 </r>
       <r>    -3.7890     0.0000     2.0000 </r>
       <r>    -3.7475     0.0001     2.0000 </r>
       <r>    -3.7059     0.0126     2.0005 </r>
       <r>    -3.6644     0.7073     2.0299 </r>
       <r>    -3.6229    10.8959     2.4824 </r>
       <r>    -3.5814    47.6052     4.4593 </r>
       <r>    -3.5398    60.4273     6.9686 </r>
       <r>    -3.4983    22.3875     7.8983 </r>
       <r>    -3.4568     2.3782     7.9971 </r>
       <r>    -3.4152     0.0703     8.0000 </r>
       <r>    -3.3737     0.0006     8.0000 </r>
       <r>    -3.3322     0.0000     8.0000 </r>
       <r>    -3.2907     0.0000     8.0000 </r>
       <r>    -3.2491     0.0000     8.0000 </r>
       <r>    -3.2076     0.0000     8.0000 </r>
       <r>    -3.1661     0.0000     8.0000 </r>
       <r>    -3.1246     0.0000     8.0000 </r>
       <r>    -3.0830     0.0000     8.0000 </r>
       <r>    -3.0415     0.0000     8.0000 </r>
       <r>    -3.0000     0.0000     8.0000 </r>
       <r>    -2.9585     0.0000     8.0000 </r>
       <r>    -2.9169     0.0000     8.0000 </r>
       <r>    -2.8754     0.0000     8.0000 </r>
       <r>    -2.8339     0.0000     8.0000 </r>
       <r>    -2.7923     0.0000     8.0000 </r>
       <r>    -2.7508     0.0000     8.0000 </r>
       <r>    -2.7093     0.0000     8.0000 </r>
       <r>    -2.6678     0.0000     8.0000 </r>
       <r>    -2.6262     0.0000     8.0000 </r>
       <r>    -2.5847     0.0000     8.0000 </r>
       <r>    -2.5432     0.0000     8.0000 </r>
       <r>    -2.5017     0.0000     8.0000 </r>
       <r>    -2.4601     0.0000     8.0000 </r>
       <r>    -2.4186     0.0000     8.0000 </r>
       <r>    -2.3771     0.0000     8.0000 </r>
       <r>    -2.3355     0.0000     8.0000 </r>
       <r>    -2.2940     0.0000     8.0000 </r>
       <r>    -2.2525     0.0000     8.0000 </r>
       <r>    -2.2110     0.0000     8.0000 </r>
       <r>    -2.1694     0.0000     8.0000 </r>
       <r>    -2.1279     0.0000     8.0000 </r>
       <r>    -2.0864     0.0000     8.0000 </r>
       <r>    -2.0449     0.0000     8.0000 </r>
       <r>    -2.0033     0.0000     8.0000 </r>
       <r>    -1.9618     0.0000     8.0000 </r>
       <r>    -1.9203     0.0000     8.0000 </r>
       <r>    -1.8788     0.0000     8.0000 </r>
       <r>    -1.8372     0.0000     8.0000 </r>
       <r>    -1.7957     0.0000     8.0000 </r>
       <r>    -1.7542     0.0000     8.0000 </r>
       <r>    -1.7126     0.0000     8.0000 </r>
       <r>    -1.6711     0.0000     8.0000 </r>
       <r>    -1.6296     0.0000     8.0000 </r>
       <r>    -1.5881     0.0000     8.0000 </r>
       <r>    -1.5465     0.0000     8.0000 </r>
       <r>    -1.5050     0.0000     8.0000 </r>
       <r>    -1.4635     0.0000     8.0000 </r>
       <r>    -1.4220     0.0000     8.0000 </r>
       <r>    -1.3804     0.0000     8.0000 </r>
       <r>    -1.3389     0.0000     8.0000 </r>
       <r>    -1.2974     0.0000     8.0000 </r>
       <r>    -1.2559     0.0000     8.0000 </r>
       <r>    -1.2143     0.0000     8.0000 </r>
       <r>    -1.1728     0.0000     8.0000 </r>
       <r>    -1.1313     0.0000     8.0000 </r>
       <r>    -1.0897     0.0000     8.0000 </r>
       <r>    -1.0482     0.0000     8.0000 </r>
       <r>    -1.0067     0.0000     8.0000 </r>
       <r>    -0.9652     0.0000     8.0000 </r>
       <r>    -0.9236     0.0000     8.0000 </r>
       <r>    -0.8821     0.0000     8.0000 </r>
       <r>    -0.8406     0.0000     8.0000 </r>
       <r>    -0.7991     0.0000     8.0000 </r>
       <r>    -0.7575     0.0000     8.0000 </r>
       <r>    -0.7160     0.0000     8.0000 </r>
       <r>    -0.6745     0.0000     8.0000 </r>
       <r>    -0.6330     0.0000     8.0000 </r>
       <r>    -0.5914     0.0000     8.0000 </r>
       <r>    -0.5499     0.0000     8.0000 </r>
       <r>    -0.5084     0.0000     8.0000 </r>
       <r>    -0.4668     0.0000     8.0000 </r>
       <r>    -0.4253     0.0000     8.0000 </r>
       <r>    -0.3838     0.0003     8.0000 </r>
       <r>    -0.3423     0.0155     8.0007 </r>
       <r>    -0.3007     0.3075     8.0134 </r>
       <r>    -0.2592     2.1955     8.1046 </r>
       <r>    -0.2177     6.6303     8.3799 </r>
       <r>    -0.1762    10.4169     8.8125 </r>
       <r>    -0.1346    10.7728     9.2599 </r>
       <r>    -0.0931     9.1032     9.6379 </r>
       <r>    -0.0516     5.9717     9.8859 </r>
       <r>    -0.0100     2.3251     9.9824 </r>
       <r>     0.0315     0.6576    10.0097 </r>
       <r>     0.0730     1.5614    10.0746 </r>
       <r>     0.1145     4.8031    10.2740 </r>
       <r>     0.1561     9.4256    10.6655 </r>
       <r>     0.1976    13.4531    11.2241 </r>
       <r>     0.2391    15.5416    11.8695 </r>
       <r>     0.2806    15.8833    12.5291 </r>
       <r>     0.3222    15.9623    13.1920 </r>
       <r>     0.3637    16.2540    13.8669 </r>
       <r>     0.4052    16.5222    14.5530 </r>
       <r>     0.4467    17.4274    15.2768 </r>
       <r>     0.4883    18.5143    16.0456 </r>
       <r>     0.5298    18.5990    16.8180 </r>
       <r>     0.5713    18.9464    17.6047 </r>
       <r>     0.6129    19.8824    18.4304 </r>
       <r>     0.6544    20.4170    19.2782 </r>
       <r>     0.6959    20.9783    20.1494 </r>
       <r>     0.7374    22.3440    21.0773 </r>
       <r>     0.7790    22.6552    22.0181 </r>
       <r>     0.8205    21.9547    22.9298 </r>
       <r>     0.8620    23.2092    23.8936 </r>
       <r>     0.9035    24.6146    24.9158 </r>
       <r>     0.9451    24.4107    25.9295 </r>
       <r>     0.9866    24.8521    26.9615 </r>
       <r>     1.0281    25.9865    28.0406 </r>
       <r>     1.0696    26.1665    29.1272 </r>
       <r>     1.1112    26.1938    30.2150 </r>
       <r>     1.1527    26.8720    31.3309 </r>
       <r>     1.1942    27.8240    32.4863 </r>
       <r>     1.2358    27.5536    33.6305 </r>
       <r>     1.2773    27.5889    34.7762 </r>
       <r>     1.3188    28.6756    35.9670 </r>
       <r>     1.3603    28.8331    37.1644 </r>
       <r>     1.4019    28.4874    38.3474 </r>
       <r>     1.4434    29.3985    39.5682 </r>
       <r>     1.4849    31.0287    40.8567 </r>
       <r>     1.5264    30.3005    42.1150 </r>
       <r>     1.5680    29.7242    43.3493 </r>
       <r>     1.6095    30.2627    44.6060 </r>
       <r>     1.6510    28.0603    45.7713 </r>
       <r>     1.6926    21.6448    46.6701 </r>
       <r>     1.7341    14.3897    47.2677 </r>
       <r>     1.7756     8.5458    47.6226 </r>
       <r>     1.8171     4.9089    47.8264 </r>
       <r>     1.8587     2.6286    47.9356 </r>
       <r>     1.9002     1.1153    47.9819 </r>
       <r>     1.9417     0.3539    47.9966 </r>
       <r>     1.9832     0.0744    47.9997 </r>
       <r>     2.0248     0.0072    48.0000 </r>
       <r>     2.0663     0.0002    48.0000 </r>
       <r>     2.1078     0.0000    48.0000 </r>
       <r>     2.1493     0.0000    48.0000 </r>
       <r>     2.1909     0.0000    48.0000 </r>
       <r>     2.2324     0.0000    48.0000 </r>
       <r>     2.2739     0.0000    48.0000 </r>
       <r>     2.3155     0.0000    48.0000 </r>
       <r>     2.3570     0.0000    48.0000 </r>
       <r>     2.3985     0.0000    48.0000 </r>
       <r>     2.4400     0.0000    48.0000 </r>
       <r>     2.4816     0.0000    48.0000 </r>
      </set>
     </set>
    </array>
   </total>
  </dos>
 </calculation>
 <structure name="finalpos" >
  <crystal>
   <varray name="basis" >
    <v>      15.04500000       0.00000000       0.00000000 </v>
    <v>       0.00000000      12.53750000       0.00000000 </v>
    <v>       0.00000000       0.00000000      18.05400000 </v>
   </varray>
   <i name="volume">   3405.46621612 </i>
   <varray name="rec_basis" >
    <v>       0.06646726       0.00000000       0.00000000 </v>
    <v>       0.00000000       0.07976072       0.00000000 </v>
    <v>       0.00000000       0.00000000       0.05538939 </v>
   </varray>
  </crystal>
  <varray name="positions" >
   <v>       0.52123000       0.54500000       0.63796000 </v>
  </varray>
 </structure>
</modeling>
