 running   24 mpi-ranks, with    1 threads/rank, on    1 nodes
 distrk:  each k-point on   24 cores,    1 groups
 distr:  one band on    1 cores,   24 groups
 vasp.6.4.3 19Mar24 (build May 31 2024 16:31:43) complex                        
  
 POSCAR found type information on POSCAR B 
 POSCAR found :  1 types and      14 ions
 Reading from existing POTCAR
 scaLAPACK will be used
 Reading from existing POTCAR
 LDA part: xc-table for (Slater+PW92), standard interpolation
 POSCAR, INCAR and KPOINTS ok, starting setup
 FFT: planning ... GRIDC
 FFT: planning ... GRID_SOFT
 FFT: planning ... GRID
 WAVECAR not read
 entering main loop
       N       E                     dE             d eps       ncg     rms          rms(c)
DAV:   1     0.145998324008E+03    0.14600E+03   -0.26285E+04 16800   0.127E+03
DAV:   2    -0.884865100813E+02   -0.23448E+03   -0.21696E+03 22152   0.207E+02
DAV:   3    -0.975999305293E+02   -0.91134E+01   -0.90276E+01 25080   0.359E+01
DAV:   4    -0.976570809842E+02   -0.57150E-01   -0.57146E-01 18504   0.326E+00
DAV:   5    -0.976576588126E+02   -0.57783E-03   -0.57781E-03 25128   0.312E-01    0.123E+01
DAV:   6    -0.922414090445E+02    0.54162E+01   -0.39489E+00 24264   0.659E+00    0.680E+00
DAV:   7    -0.905897262211E+02    0.16517E+01   -0.32186E+00 25200   0.587E+00    0.171E+00
DAV:   8    -0.906022167376E+02   -0.12491E-01   -0.23590E-01 18600   0.169E+00    0.704E-01
DAV:   9    -0.906163868690E+02   -0.14170E-01   -0.16941E-02 23280   0.442E-01    0.198E-01
DAV:  10    -0.906204344219E+02   -0.40476E-02   -0.20986E-03 19176   0.163E-01    0.611E-02
DAV:  11    -0.906215061251E+02   -0.10717E-02   -0.63123E-04 21744   0.888E-02    0.321E-02
DAV:  12    -0.906216220156E+02   -0.11589E-03   -0.93318E-05 20784   0.386E-02    0.429E-03
DAV:  13    -0.906216269312E+02   -0.49156E-05   -0.41914E-06 23472   0.939E-03    0.181E-03
DAV:  14    -0.906216276222E+02   -0.69091E-06   -0.29236E-07 20496   0.250E-03
   1 F= -.90621628E+02 E0= -.90620021E+02  d E =-.321362E-02
