   14   14    1    1
  0.1021318E+02  0.5700971E-09  0.4044058E-09  0.6201871E-09  0.5000000E-15
  1.000000000000000E-004
  CAR 
 BS                                      
     42    336     48
 
  0.0000000E+00  0.0000000E+00  0.0000000E+00  0.2976190E-02
      1        -12.700132   1.000000
      2        -11.518569   1.000000
      3         -8.660224   1.000000
      4         -8.367308   1.000000
      5         -6.054695   1.000000
      6         -5.092663   1.000000
      7         -4.680620   1.000000
      8         -4.377612   1.000000
      9         -3.934919   1.000000
     10         -3.527776   1.000000
     11         -2.404777   1.000000
     12         -2.222321   1.000000
     13         -2.104512   1.000000
     14         -1.066455   1.000000
     15         -0.020396   1.000000
     16          0.013852   1.000000
     17          0.041246   1.000000
     18          0.089724   1.000000
     19          0.673147   1.000000
     20          2.119451   0.900170
     21          2.153388   0.788892
     22          2.242311   0.324559
     23          5.505198   0.000000
     24          5.726964   0.000000
     25          5.734963   0.000000
     26          5.971496   0.000000
     27          6.724521   0.000000
     28          7.698056   0.000000
     29          7.718987   0.000000
     30          8.621830   0.000000
     31          8.850169   0.000000
     32          8.854940   0.000000
     33          9.051209   0.000000
     34         10.026568   0.000000
     35         11.192009   0.000000
     36         11.406357   0.000000
     37         11.517945   0.000000
     38         11.781985   0.000000
     39         11.958530   0.000000
     40         12.294846   0.000000
     41         12.921522   0.000000
     42         13.342170   0.000000
     43         13.527650   0.000000
     44         15.523637   0.000000
     45         15.581735   0.000000
     46         15.920717   0.000000
     47         16.310151   0.000000
     48         16.538281   0.000000
 
  0.0000000E+00  0.0000000E+00  0.1063830E-01  0.2976190E-02
      1        -12.700031   1.000000
      2        -11.518769   1.000000
      3         -8.660166   1.000000
      4         -8.366998   1.000000
      5         -6.055980   1.000000
      6         -5.095387   1.000000
      7         -4.677572   1.000000
      8         -4.376218   1.000000
      9         -3.934723   1.000000
     10         -3.526710   1.000000
     11         -2.404691   1.000000
     12         -2.222385   1.000000
     13         -2.105196   1.000000
     14         -1.066982   1.000000
     15         -0.020135   1.000000
     16          0.014057   1.000000
     17          0.042148   1.000000
     18          0.087681   1.000000
     19          0.670419   1.000000
     20          2.118561   0.902359
     21          2.152917   0.790812
     22          2.245744   0.307293
     23          5.505073   0.000000
     24          5.728560   0.000000
     25          5.733146   0.000000
     26          5.971405   0.000000
     27          6.725808   0.000000
     28          7.696830   0.000000
     29          7.719204   0.000000
     30          8.622911   0.000000
     31          8.834380   0.000000
     32          8.872992   0.000000
     33          9.051722   0.000000
     34         10.027494   0.000000
     35         11.192155   0.000000
     36         11.405948   0.000000
     37         11.518463   0.000000
     38         11.777091   0.000000
     39         11.957675   0.000000
     40         12.295424   0.000000
     41         12.923345   0.000000
     42         13.340232   0.000000
     43         13.531964   0.000000
     44         15.524516   0.000000
     45         15.579018   0.000000
     46         15.915920   0.000000
     47         16.310197   0.000000
     48         16.543265   0.000000
 
  0.0000000E+00  0.0000000E+00  0.2127660E-01  0.2976190E-02
      1        -12.699726   1.000000
      2        -11.519366   1.000000
      3         -8.659993   1.000000
      4         -8.366067   1.000000
      5         -6.059819   1.000000
      6         -5.103327   1.000000
      7         -4.668670   1.000000
      8         -4.372051   1.000000
      9         -3.934141   1.000000
     10         -3.523514   1.000000
     11         -2.404442   1.000000
     12         -2.222585   1.000000
     13         -2.107254   1.000000
     14         -1.068564   1.000000
     15         -0.019360   1.000000
     16          0.014671   1.000000
     17          0.044846   1.000000
     18          0.081509   1.000000
     19          0.662310   1.000000
     20          2.115882   0.908733
     21          2.151504   0.796509
     22          2.255945   0.258558
     23          5.504677   0.000000
     24          5.727735   0.000000
     25          5.733315   0.000000
     26          5.971132   0.000000
     27          6.729628   0.000000
     28          7.693161   0.000000
     29          7.719847   0.000000
     30          8.626136   0.000000
     31          8.818688   0.000000
     32          8.895428   0.000000
     33          9.053258   0.000000
     34         10.030273   0.000000
     35         11.192580   0.000000
     36         11.404649   0.000000
     37         11.520009   0.000000
     38         11.762559   0.000000
     39         11.955105   0.000000
     40         12.297152   0.000000
     41         12.928745   0.000000
     42         13.334377   0.000000
     43         13.544753   0.000000
     44         15.527084   0.000000
     45         15.570948   0.000000
     46         15.901643   0.000000
     47         16.315446   0.000000
     48         16.547946   0.000000
 
  0.0000000E+00  0.0000000E+00  0.3191489E-01  0.2976190E-02
      1        -12.699218   1.000000
      2        -11.520360   1.000000
      3         -8.659704   1.000000
      4         -8.364516   1.000000
      5         -6.066163   1.000000
      6         -5.115850   1.000000
      7         -4.654539   1.000000
      8         -4.365153   1.000000
      9         -3.933170   1.000000
     10         -3.518193   1.000000
     11         -2.404028   1.000000
     12         -2.222916   1.000000
     13         -2.110666   1.000000
     14         -1.071192   1.000000
     15         -0.018064   1.000000
     16          0.015689   1.000000
     17          0.049340   1.000000
     18          0.071229   1.000000
     19          0.649098   1.000000
     20          2.111440   0.918615
     21          2.149152   0.805789
     22          2.272668   0.188268
     23          5.504032   0.000000
     24          5.718859   0.000000
     25          5.741223   0.000000
     26          5.970685   0.000000
     27          6.735878   0.000000
     28          7.687126   0.000000
     29          7.720916   0.000000
     30          8.631502   0.000000
     31          8.805189   0.000000
     32          8.920093   0.000000
     33          9.055817   0.000000
     34         10.034911   0.000000
     35         11.193251   0.000000
     36         11.402494   0.000000
     37         11.522594   0.000000
     38         11.738829   0.000000
     39         11.950986   0.000000
     40         12.300030   0.000000
     41         12.937621   0.000000
     42         13.324692   0.000000
     43         13.565590   0.000000
     44         15.531236   0.000000
     45         15.557786   0.000000
     46         15.878188   0.000000
     47         16.314310   0.000000
     48         16.491048   0.000000
 
  0.0000000E+00  0.0000000E+00  0.4255319E-01  0.2976190E-02
      1        -12.698510   1.000000
      2        -11.521745   1.000000
      3         -8.659302   1.000000
      4         -8.362352   1.000000
      5         -6.074943   1.000000
      6         -5.132144   1.000000
      7         -4.636001   1.000000
      8         -4.355598   1.000000
      9         -3.931812   1.000000
     10         -3.510752   1.000000
     11         -2.403446   1.000000
     12         -2.223380   1.000000
     13         -2.115410   1.000000
     14         -1.074854   1.000000
     15         -0.016257   1.000000
     16          0.017105   1.000000
     17          0.055586   1.000000
     18          0.056849   1.000000
     19          0.631181   1.000000
     20          2.105258   0.930994
     21          2.145861   0.818332
     22          2.295472   0.113756
     23          5.503110   0.000000
     24          5.706696   0.000000
     25          5.752252   0.000000
     26          5.970066   0.000000
     27          6.744361   0.000000
     28          7.678797   0.000000
     29          7.722390   0.000000
     30          8.638991   0.000000
     31          8.793873   0.000000
     32          8.946862   0.000000
     33          9.059394   0.000000
     34         10.041417   0.000000
     35         11.194113   0.000000
     36         11.399485   0.000000
     37         11.526194   0.000000
     38         11.706537   0.000000
     39         11.945514   0.000000
     40         12.304060   0.000000
     41         12.949762   0.000000
     42         13.311233   0.000000
     43         13.593804   0.000000
     44         15.536881   0.000000
     45         15.539945   0.000000
     46         15.846619   0.000000
     47         16.313691   0.000000
     48         16.451601   0.000000
 
  0.0000000E+00  0.0000000E+00  0.5319149E-01  0.2976190E-02
      1        -12.697602   1.000000
      2        -11.523519   1.000000
      3         -8.658789   1.000000
      4         -8.359578   1.000000
      5         -6.086060   1.000000
      6         -5.151377   1.000000
      7         -4.613901   1.000000
      8         -4.343477   1.000000
      9         -3.930076   1.000000
     10         -3.501218   1.000000
     11         -2.402699   1.000000
     12         -2.223977   1.000000
     13         -2.121456   1.000000
     14         -1.079545   1.000000
     15         -0.013942   1.000000
     16          0.018898   1.000000
     17          0.038389   1.000000
     18          0.063559   1.000000
     19          0.609054   1.000000
     20          2.097375   0.944613
     21          2.141634   0.833680
     22          2.323846   0.053911
     23          5.501910   0.000000
     24          5.691481   0.000000
     25          5.766364   0.000000
     26          5.969287   0.000000
     27          6.754852   0.000000
     28          7.668295   0.000000
     29          7.724252   0.000000
     30          8.648580   0.000000
     31          8.784674   0.000000
     32          8.975641   0.000000
     33          9.063978   0.000000
     34         10.049790   0.000000
     35         11.195087   0.000000
     36         11.395635   0.000000
     37         11.530805   0.000000
     38         11.666473   0.000000
     39         11.938977   0.000000
     40         12.309217   0.000000
     41         12.964930   0.000000
     42         13.294127   0.000000
     43         13.628598   0.000000
     44         15.517896   0.000000
     45         15.543795   0.000000
     46         15.807576   0.000000
     47         16.316681   0.000000
     48         16.377627   0.000000
 
  0.0000000E+00  0.0000000E+00  0.6382979E-01  0.2976190E-02
      1        -12.696492   1.000000
      2        -11.525671   1.000000
      3         -8.658165   1.000000
      4         -8.356198   1.000000
      5         -6.099383   1.000000
      6         -5.172809   1.000000
      7         -4.588969   1.000000
      8         -4.328894   1.000000
      9         -3.927943   1.000000
     10         -3.489593   1.000000
     11         -2.401777   1.000000
     12         -2.224697   1.000000
     13         -2.128752   1.000000
     14         -1.085220   1.000000
     15         -0.011115   1.000000
     16          0.015891   1.000000
     17          0.021073   1.000000
     18          0.073230   1.000000
     19          0.583292   1.000000
     20          2.087848   0.958136
     21          2.136505   0.851143
     22          2.357248   0.018743
     23          5.500444   0.000000
     24          5.673515   0.000000
     25          5.783531   0.000000
     26          5.968363   0.000000
     27          6.767099   0.000000
     28          7.655821   0.000000
     29          7.726485   0.000000
     30          8.660260   0.000000
     31          8.777511   0.000000
     32          9.006338   0.000000
     33          9.069569   0.000000
     34         10.060053   0.000000
     35         11.196078   0.000000
     36         11.390974   0.000000
     37         11.536424   0.000000
     38         11.619493   0.000000
     39         11.931721   0.000000
     40         12.315528   0.000000
     41         12.982845   0.000000
     42         13.273514   0.000000
     43         13.669110   0.000000
     44         15.492220   0.000000
     45         15.551781   0.000000
     46         15.762175   0.000000
     47         16.317993   0.000000
     48         16.352427   0.000000
 
  0.0000000E+00  0.0000000E+00  0.7446809E-01  0.2976190E-02
      1        -12.695193   1.000000
      2        -11.528191   1.000000
      3         -8.657427   1.000000
      4         -8.352214   1.000000
      5         -6.114776   1.000000
      6         -5.195834   1.000000
      7         -4.561813   1.000000
      8         -4.311989   1.000000
      9         -3.925453   1.000000
     10         -3.475898   1.000000
     11         -2.400692   1.000000
     12         -2.225552   1.000000
     13         -2.137266   1.000000
     14         -1.091888   1.000000
     15         -0.010581   1.000000
     16         -0.007788   1.000000
     17          0.023598   1.000000
     18          0.084544   1.000000
     19          0.554448   1.000000
     20          2.076728   0.970400
     21          2.130418   0.870218
     22          2.395081   0.004455
     23          5.498698   0.000000
     24          5.653074   0.000000
     25          5.803666   0.000000
     26          5.967309   0.000000
     27          6.780828   0.000000
     28          7.641505   0.000000
     29          7.729064   0.000000
     30          8.673956   0.000000
     31          8.772275   0.000000
     32          9.038841   0.000000
     33          9.076153   0.000000
     34         10.072209   0.000000
     35         11.196970   0.000000
     36         11.385509   0.000000
     37         11.543055   0.000000
     38         11.566425   0.000000
     39         11.924090   0.000000
     40         12.322963   0.000000
     41         13.003193   0.000000
     42         13.249555   0.000000
     43         13.714495   0.000000
     44         15.463389   0.000000
     45         15.560511   0.000000
     46         15.711183   0.000000
     47         16.258071   0.000000
     48         16.321834   0.000000
 
  0.0000000E+00  0.0000000E+00  0.8510638E-01  0.2976190E-02
      1        -12.693704   1.000000
      2        -11.531076   1.000000
      3         -8.656589   1.000000
      4         -8.347642   1.000000
      5         -6.132104   1.000000
      6         -5.219978   1.000000
      7         -4.532934   1.000000
      8         -4.292894   1.000000
      9         -3.922591   1.000000
     10         -3.460174   1.000000
     11         -2.399439   1.000000
     12         -2.226533   1.000000
     13         -2.146939   1.000000
     14         -1.099512   1.000000
     15         -0.040932   1.000000
     16         -0.003961   1.000000
     17          0.026455   1.000000
     18          0.097453   1.000000
     19          0.523021   1.000000
     20          2.064083   0.980564
     21          2.123414   0.889991
     22          2.436742   0.000676
     23          5.496676   0.000000
     24          5.630458   0.000000
     25          5.826720   0.000000
     26          5.966139   0.000000
     27          6.795760   0.000000
     28          7.625533   0.000000
     29          7.731953   0.000000
     30          8.689652   0.000000
     31          8.768833   0.000000
     32          9.073017   0.000000
     33          9.083708   0.000000
     34         10.086279   0.000000
     35         11.197632   0.000000
     36         11.379262   0.000000
     37         11.508111   0.000000
     38         11.550657   0.000000
     39         11.916473   0.000000
     40         12.331522   0.000000
     41         13.025651   0.000000
     42         13.222423   0.000000
     43         13.763916   0.000000
     44         15.431996   0.000000
     45         15.569712   0.000000
     46         15.655482   0.000000
     47         16.196516   0.000000
     48         16.324786   0.000000
 
  0.0000000E+00  0.0000000E+00  0.9574468E-01  0.2976190E-02
      1        -12.692032   1.000000
      2        -11.534311   1.000000
      3         -8.655653   1.000000
      4         -8.342490   1.000000
      5         -6.151201   1.000000
      6         -5.244883   1.000000
      7         -4.502696   1.000000
      8         -4.271748   1.000000
      9         -3.919364   1.000000
     10         -3.442449   1.000000
     11         -2.398014   1.000000
     12         -2.227639   1.000000
     13         -2.157712   1.000000
     14         -1.108061   1.000000
     15         -0.075032   1.000000
     16          0.000356   1.000000
     17          0.029622   1.000000
     18          0.111892   1.000000
     19          0.489462   1.000000
     20          2.049987   0.988240
     21          2.115490   0.909639
     22          2.481684   0.000061
     23          5.494367   0.000000
     24          5.605980   0.000000
     25          5.852616   0.000000
     26          5.964871   0.000000
     27          6.811634   0.000000
     28          7.608104   0.000000
     29          7.735107   0.000000
     30          8.707298   0.000000
     31          8.767057   0.000000
     32          9.092226   0.000000
     33          9.108754   0.000000
     34         10.102269   0.000000
     35         11.197918   0.000000
     36         11.372262   0.000000
     37         11.445238   0.000000
     38         11.559214   0.000000
     39         11.909251   0.000000
     40         12.341204   0.000000
     41         13.049896   0.000000
     42         13.192298   0.000000
     43         13.816600   0.000000
     44         15.398509   0.000000
     45         15.579020   0.000000
     46         15.595765   0.000000
     47         16.133100   0.000000
     48         16.327769   0.000000
 
  0.0000000E+00  0.0000000E+00  0.1063830E+00  0.2976190E-02
      1        -12.690176   1.000000
      2        -11.537883   1.000000
      3         -8.654616   1.000000
      4         -8.336761   1.000000
      5         -6.171907   1.000000
      6         -5.270252   1.000000
      7         -4.471394   1.000000
      8         -4.248682   1.000000
      9         -3.915779   1.000000
     10         -3.422756   1.000000
     11         -2.396417   1.000000
     12         -2.228865   1.000000
     13         -2.169518   1.000000
     14         -1.117498   1.000000
     15         -0.112712   1.000000
     16          0.005161   1.000000
     17          0.033080   1.000000
     18          0.127808   1.000000
     19          0.454171   1.000000
     20          2.034520   0.993497
     21          2.106658   0.928327
     22          2.529409   0.000003
     23          5.491769   0.000000
     24          5.579917   0.000000
     25          5.881281   0.000000
     26          5.963529   0.000000
     27          6.828213   0.000000
     28          7.589404   0.000000
     29          7.738516   0.000000
     30          8.726845   0.000000
     31          8.766809   0.000000
     32          9.101690   0.000000
     33          9.145947   0.000000
     34         10.120193   0.000000
     35         11.197682   0.000000
     36         11.364545   0.000000
     37         11.378464   0.000000
     38         11.568700   0.000000
     39         11.902796   0.000000
     40         12.352011   0.000000
     41         13.075615   0.000000
     42         13.159388   0.000000
     43         13.871900   0.000000
     44         15.363376   0.000000
     45         15.532652   0.000000
     46         15.588076   0.000000
     47         16.068562   0.000000
     48         16.332313   0.000000
 
  0.0000000E+00  0.0000000E+00  0.1170213E+00  0.2976190E-02
      1        -12.688145   1.000000
      2        -11.541776   1.000000
      3         -8.653482   1.000000
      4         -8.330474   1.000000
      5         -6.194061   1.000000
      6         -5.295873   1.000000
      7         -4.439257   1.000000
      8         -4.223847   1.000000
      9         -3.911841   1.000000
     10         -3.401140   1.000000
     11         -2.394645   1.000000
     12         -2.230203   1.000000
     13         -2.182287   1.000000
     14         -1.127791   1.000000
     15         -0.153779   1.000000
     16          0.010458   1.000000
     17          0.036806   1.000000
     18          0.145132   1.000000
     19          0.417439   1.000000
     20          2.017771   0.996741
     21          2.096927   0.945318
     22          2.579446   0.000000
     23          5.488876   0.000000
     24          5.552539   0.000000
     25          5.912636   0.000000
     26          5.962142   0.000000
     27          6.845267   0.000000
     28          7.569621   0.000000
     29          7.742138   0.000000
     30          8.748247   0.000000
     31          8.767947   0.000000
     32          9.112071   0.000000
     33          9.184483   0.000000
     34         10.140060   0.000000
     35         11.196773   0.000000
     36         11.308346   0.000000
     37         11.356141   0.000000
     38         11.579085   0.000000
     39         11.897452   0.000000
     40         12.363944   0.000000
     41         13.102490   0.000000
     42         13.123855   0.000000
     43         13.929224   0.000000
     44         15.326993   0.000000
     45         15.466671   0.000000
     46         15.596492   0.000000
     47         16.002976   0.000000
     48         16.337147   0.000000
 
  0.0000000E+00  0.0000000E+00  0.1276596E+00  0.2976190E-02
      1        -12.685946   1.000000
      2        -11.545979   1.000000
      3         -8.652261   1.000000
      4         -8.323640   1.000000
      5         -6.217508   1.000000
      6         -5.321574   1.000000
      7         -4.406471   1.000000
      8         -4.197370   1.000000
      9         -3.907563   1.000000
     10         -3.377654   1.000000
     11         -2.392696   1.000000
     12         -2.231661   1.000000
     13         -2.195951   1.000000
     14         -1.138901   1.000000
     15         -0.197996   1.000000
     16          0.016210   1.000000
     17          0.040773   1.000000
     18          0.163797   1.000000
     19          0.379491   1.000000
     20          1.999821   0.998532
     21          2.086303   0.960054
     22          2.631375   0.000000
     23          5.485683   0.000000
     24          5.524090   0.000000
     25          5.946594   0.000000
     26          5.960708   0.000000
     27          6.862602   0.000000
     28          7.548933   0.000000
     29          7.745906   0.000000
     30          8.770326   0.000000
     31          8.771423   0.000000
     32          9.123339   0.000000
     33          9.224235   0.000000
     34         10.161870   0.000000
     35         11.195050   0.000000
     36         11.235367   0.000000
     37         11.347091   0.000000
     38         11.590316   0.000000
     39         11.893536   0.000000
     40         12.377011   0.000000
     41         13.085902   0.000000
     42         13.130229   0.000000
     43         13.988058   0.000000
     44         15.289713   0.000000
     45         15.398262   0.000000
     46         15.603885   0.000000
     47         15.936439   0.000000
     48         16.352313   0.000000
 
  0.0000000E+00  0.0000000E+00  0.1382979E+00  0.2976190E-02
      1        -12.683585   1.000000
      2        -11.550474   1.000000
      3         -8.650954   1.000000
      4         -8.316268   1.000000
      5         -6.242091   1.000000
      6         -5.347216   1.000000
      7         -4.373182   1.000000
      8         -4.169373   1.000000
      9         -3.902951   1.000000
     10         -3.352345   1.000000
     11         -2.390565   1.000000
     12         -2.233227   1.000000
     13         -2.210435   1.000000
     14         -1.150783   1.000000
     15         -0.245102   1.000000
     16          0.022423   1.000000
     17          0.044961   1.000000
     18          0.183735   1.000000
     19          0.340489   1.000000
     20          1.980765   0.999410
     21          2.074800   0.972189
     22          2.684828   0.000000
     23          5.482183   0.000000
     24          5.494800   0.000000
     25          5.959258   0.000000
     26          5.983071   0.000000
     27          6.880054   0.000000
     28          7.527511   0.000000
     29          7.749813   0.000000
     30          8.773811   0.000000
     31          8.796321   0.000000
     32          9.135468   0.000000
     33          9.265115   0.000000
     34         10.185625   0.000000
     35         11.159941   0.000000
     36         11.192392   0.000000
     37         11.337439   0.000000
     38         11.602349   0.000000
     39         11.891334   0.000000
     40         12.391227   0.000000
     41         13.045718   0.000000
     42         13.158558   0.000000
     43         14.047954   0.000000
     44         15.251856   0.000000
     45         15.327809   0.000000
     46         15.609870   0.000000
     47         15.868930   0.000000
     48         16.347699   0.000000
 
  0.0000000E+00  0.0000000E+00  0.1489362E+00  0.2976190E-02
      1        -12.681069   1.000000
      2        -11.555242   1.000000
      3         -8.649569   1.000000
      4         -8.308381   1.000000
      5         -6.267667   1.000000
      6         -5.372696   1.000000
      7         -4.339527   1.000000
      8         -4.139970   1.000000
      9         -3.898017   1.000000
     10         -3.325292   1.000000
     11         -2.388254   1.000000
     12         -2.234895   1.000000
     13         -2.225664   1.000000
     14         -1.163405   1.000000
     15         -0.294835   1.000000
     16          0.029083   1.000000
     17          0.049337   1.000000
     18          0.204877   1.000000
     19          0.300536   1.000000
     20          1.960696   0.999790
     21          2.062423   0.981647
     22          2.739473   0.000000
     23          5.464873   0.000000
     24          5.478370   0.000000
     25          5.957813   0.000000
     26          6.021977   0.000000
     27          6.897461   0.000000
     28          7.505514   0.000000
     29          7.753763   0.000000
     30          8.778261   0.000000
     31          8.822872   0.000000
     32          9.148408   0.000000
     33          9.306999   0.000000
     34         10.211318   0.000000
     35         11.082421   0.000000
     36         11.188698   0.000000
     37         11.327230   0.000000
     38         11.615116   0.000000
     39         11.891049   0.000000
     40         12.406602   0.000000
     41         13.003482   0.000000
     42         13.187184   0.000000
     43         14.108521   0.000000
     44         15.213663   0.000000
     45         15.255645   0.000000
     46         15.614113   0.000000
     47         15.800833   0.000000
     48         16.353563   0.000000
 
  0.0000000E+00  0.0000000E+00  0.1595745E+00  0.2976190E-02
      1        -12.678407   1.000000
      2        -11.560272   1.000000
      3         -8.648110   1.000000
      4         -8.300000   1.000000
      5         -6.294095   1.000000
      6         -5.397925   1.000000
      7         -4.305611   1.000000
      8         -4.109268   1.000000
      9         -3.892772   1.000000
     10         -3.296562   1.000000
     11         -2.385758   1.000000
     12         -2.241564   1.000000
     13         -2.236663   1.000000
     14         -1.176721   1.000000
     15         -0.346924   1.000000
     16          0.036181   1.000000
     17          0.053861   1.000000
     18          0.227144   1.000000
     19          0.259691   1.000000
     20          1.939710   0.999934
     21          2.049180   0.988586
     22          2.795015   0.000000
     23          5.434482   0.000000
     24          5.474224   0.000000
     25          5.956384   0.000000
     26          6.063223   0.000000
     27          6.914709   0.000000
     28          7.483091   0.000000
     29          7.757735   0.000000
     30          8.783541   0.000000
     31          8.850999   0.000000
     32          9.162120   0.000000
     33          9.349785   0.000000
     34         10.238938   0.000000
     35         11.003088   0.000000
     36         11.183903   0.000000
     37         11.316508   0.000000
     38         11.628544   0.000000
     39         11.892858   0.000000
     40         12.423155   0.000000
     41         12.959361   0.000000
     42         13.215855   0.000000
     43         14.169412   0.000000
     44         15.175382   0.000000
     45         15.182055   0.000000
     46         15.616305   0.000000
     47         15.732214   0.000000
     48         16.358357   0.000000
 
  0.0000000E+00  0.0000000E+00  0.1702128E+00  0.2976190E-02
      1        -12.675606   1.000000
      2        -11.565528   1.000000
      3         -8.646582   1.000000
      4         -8.291127   1.000000
      5         -6.321235   1.000000
      6         -5.422818   1.000000
      7         -4.271521   1.000000
      8         -4.077352   1.000000