<?xml version="1.0" encoding="ISO-8859-1"?>
<modeling>
 <generator>
  <i name="program" type="string">vasp </i>
  <i name="version" type="string">6.4.3  </i>
  <i name="subversion" type="string">19Mar24 (build May 31 2024 16:31:43) complex                          parallel </i>
  <i name="platform" type="string">LinuxIFC </i>
  <i name="date" type="string">2024 10 31 </i>
  <i name="time" type="string">00:22:34 </i>
 </generator>
 <incar>
  <i type="string" name="SYSTEM">Kpoints</i>
  <i type="int" name="ISTART">     0</i>
  <i type="string" name="PREC">Accurate</i>
  <i type="string" name="ALGO">Normal</i>
  <i type="int" name="ISPIN">     1</i>
  <i type="int" name="ICHARG">     2</i>
  <i type="int" name="NELM">   100</i>
  <i type="int" name="IBRION">    -1</i>
  <i name="EDIFF">      0.00000100</i>
  <i name="EDIFFG">     -0.00100000</i>
  <i type="int" name="NSW">     0</i>
  <i type="int" name="ISIF">     2</i>
  <i name="ENCUT">    480.00000000</i>
  <i name="POTIM">      0.50000000</i>
  <i type="int" name="ISMEAR">     0</i>
  <i name="SIGMA">      0.05000000</i>
  <i type="logical" name="LWAVE"> F  </i>
  <i type="logical" name="LCHARG"> F  </i>
  <i type="string" name="GGA">PE</i>
 </incar>
 <primitive_cell>
  <structure name="primitive_cell" >
   <crystal>
    <varray name="basis" >
     <v>       5.69700000       0.00000000       0.00000000 </v>
     <v>       0.00000000       4.04790000       0.00000000 </v>
     <v>       0.00000000       0.00000000       6.20420000 </v>
    </varray>
    <i name="volume">    143.07435078 </i>
    <varray name="rec_basis" >
     <v>       0.17553098       0.00000000       0.00000000 </v>
     <v>       0.00000000       0.24704168       0.00000000 </v>
     <v>       0.00000000       0.00000000       0.16118114 </v>
    </varray>
   </crystal>
   <varray name="positions" >
    <v>       0.52123000       0.50000000       0.63796000 </v>
    <v>       0.47877000       0.50000000       0.36204000 </v>
    <v>       0.97877000       0.50000000       0.63796000 </v>
    <v>       0.02123000       0.50000000       0.36204000 </v>
    <v>       0.60090000       0.50000000       0.89991000 </v>
    <v>       0.39910000       0.50000000       0.10009000 </v>
    <v>       0.89910000       0.50000000       0.89991000 </v>
    <v>       0.10090000       0.50000000       0.10009000 </v>
    <v>       0.75000000       0.79171000       0.72973000 </v>
    <v>       0.25000000       0.20829000       0.27027000 </v>
    <v>       0.75000000       0.20829000       0.72973000 </v>
    <v>       0.25000000       0.79171000       0.27027000 </v>
    <v>       0.25000000       0.50000000       0.52367000 </v>
    <v>       0.75000000       0.50000000       0.47633000 </v>
   </varray>
  </structure>
  <varray name="primitive_index" >
   <v type="int" >        1 </v>
   <v type="int" >        2 </v>
   <v type="int" >        3 </v>
   <v type="int" >        4 </v>
   <v type="int" >        5 </v>
   <v type="int" >        6 </v>
   <v type="int" >        7 </v>
   <v type="int" >        8 </v>
   <v type="int" >        9 </v>
   <v type="int" >       10 </v>
   <v type="int" >       11 </v>
   <v type="int" >       12 </v>
   <v type="int" >       13 </v>
   <v type="int" >       14 </v>
  </varray>
 </primitive_cell>
 <kpoints>
  <generation param="Monkhorst-Pack">
   <v type="int" name="divisions">      15       21       14 </v>
   <v name="usershift">      0.00000000       0.00000000       0.00000000 </v>
   <v name="genvec1">      0.06666667       0.00000000       0.00000000 </v>
   <v name="genvec2">      0.00000000       0.04761905       0.00000000 </v>
   <v name="genvec3">      0.00000000       0.00000000       0.07142857 </v>
   <v name="shift">      0.00000000       0.00000000       0.50000000 </v>
  </generation>
  <varray name="kpointlist" >
   <v>       0.00000000       0.00000000       0.03571429 </v>
   <v>       0.06666667       0.00000000       0.03571429 </v>
   <v>       0.13333333       0.00000000       0.03571429 </v>
   <v>       0.20000000       0.00000000       0.03571429 </v>
   <v>       0.26666667       0.00000000       0.03571429 </v>
   <v>       0.33333333       0.00000000       0.03571429 </v>
   <v>       0.40000000       0.00000000       0.03571429 </v>
   <v>       0.46666667       0.00000000       0.03571429 </v>
   <v>       0.00000000       0.04761905       0.03571429 </v>
   <v>       0.06666667       0.04761905       0.03571429 </v>
   <v>       0.13333333       0.04761905       0.03571429 </v>
   <v>       0.20000000       0.04761905       0.03571429 </v>
   <v>       0.26666667       0.04761905       0.03571429 </v>
   <v>       0.33333333       0.04761905       0.03571429 </v>
   <v>       0.40000000       0.04761905       0.03571429 </v>
   <v>       0.46666667       0.04761905       0.03571429 </v>
   <v>       0.00000000       0.09523810       0.03571429 </v>
   <v>       0.06666667       0.09523810       0.03571429 </v>
   <v>       0.13333333       0.09523810       0.03571429 </v>
   <v>       0.20000000       0.09523810       0.03571429 </v>
   <v>       0.26666667       0.09523810       0.03571429 </v>
   <v>       0.33333333       0.09523810       0.03571429 </v>
   <v>       0.40000000       0.09523810       0.03571429 </v>
   <v>       0.46666667       0.09523810       0.03571429 </v>
   <v>       0.00000000       0.14285714       0.03571429 </v>
   <v>       0.06666667       0.14285714       0.03571429 </v>
   <v>       0.13333333       0.14285714       0.03571429 </v>
   <v>       0.20000000       0.14285714       0.03571429 </v>
   <v>       0.26666667       0.14285714       0.03571429 </v>
   <v>       0.33333333       0.14285714       0.03571429 </v>
   <v>       0.40000000       0.14285714       0.03571429 </v>
   <v>       0.46666667       0.14285714       0.03571429 </v>
   <v>       0.00000000       0.19047619       0.03571429 </v>
   <v>       0.06666667       0.19047619       0.03571429 </v>
   <v>       0.13333333       0.19047619       0.03571429 </v>
   <v>       0.20000000       0.19047619       0.03571429 </v>
   <v>       0.26666667       0.19047619       0.03571429 </v>
   <v>       0.33333333       0.19047619       0.03571429 </v>
   <v>       0.40000000       0.19047619       0.03571429 </v>
   <v>       0.46666667       0.19047619       0.03571429 </v>
   <v>       0.00000000       0.23809524       0.03571429 </v>
   <v>       0.06666667       0.23809524       0.03571429 </v>
   <v>       0.13333333       0.23809524       0.03571429 </v>
   <v>       0.20000000       0.23809524       0.03571429 </v>
   <v>       0.26666667       0.23809524       0.03571429 </v>
   <v>       0.33333333       0.23809524       0.03571429 </v>
   <v>       0.40000000       0.23809524       0.03571429 </v>
   <v>       0.46666667       0.23809524       0.03571429 </v>
   <v>       0.00000000       0.28571429       0.03571429 </v>
   <v>       0.06666667       0.28571429       0.03571429 </v>
   <v>       0.13333333       0.28571429       0.03571429 </v>
   <v>       0.20000000       0.28571429       0.03571429 </v>
   <v>       0.26666667       0.28571429       0.03571429 </v>
   <v>       0.33333333       0.28571429       0.03571429 </v>
   <v>       0.40000000       0.28571429       0.03571429 </v>
   <v>       0.46666667       0.28571429       0.03571429 </v>
   <v>       0.00000000       0.33333333       0.03571429 </v>
   <v>       0.06666667       0.33333333       0.03571429 </v>
   <v>       0.13333333       0.33333333       0.03571429 </v>
   <v>       0.20000000       0.33333333       0.03571429 </v>
   <v>       0.26666667       0.33333333       0.03571429 </v>
   <v>       0.33333333       0.33333333       0.03571429 </v>
   <v>       0.40000000       0.33333333       0.03571429 </v>
   <v>       0.46666667       0.33333333       0.03571429 </v>
   <v>       0.00000000       0.38095238       0.03571429 </v>
   <v>       0.06666667       0.38095238       0.03571429 </v>
   <v>       0.13333333       0.38095238       0.03571429 </v>
   <v>       0.20000000       0.38095238       0.03571429 </v>
   <v>       0.26666667       0.38095238       0.03571429 </v>
   <v>       0.33333333       0.38095238       0.03571429 </v>
   <v>       0.40000000       0.38095238       0.03571429 </v>
   <v>       0.46666667       0.38095238       0.03571429 </v>
   <v>       0.00000000       0.42857143       0.03571429 </v>
   <v>       0.06666667       0.42857143       0.03571429 </v>
   <v>       0.13333333       0.42857143       0.03571429 </v>
   <v>       0.20000000       0.42857143       0.03571429 </v>
   <v>       0.26666667       0.42857143       0.03571429 </v>
   <v>       0.33333333       0.42857143       0.03571429 </v>
   <v>       0.40000000       0.42857143       0.03571429 </v>
   <v>       0.46666667       0.42857143       0.03571429 </v>
   <v>       0.00000000       0.47619048       0.03571429 </v>
   <v>       0.06666667       0.47619048       0.03571429 </v>
   <v>       0.13333333       0.47619048       0.03571429 </v>
   <v>       0.20000000       0.47619048       0.03571429 </v>
   <v>       0.26666667       0.47619048       0.03571429 </v>
   <v>       0.33333333       0.47619048       0.03571429 </v>
   <v>       0.40000000       0.47619048       0.03571429 </v>
   <v>       0.46666667       0.47619048       0.03571429 </v>
   <v>       0.00000000       0.00000000       0.10714286 </v>
   <v>       0.06666667       0.00000000       0.10714286 </v>
   <v>       0.13333333       0.00000000       0.10714286 </v>
   <v>       0.20000000       0.00000000       0.10714286 </v>
   <v>       0.26666667       0.00000000       0.10714286 </v>
   <v>       0.33333333       0.00000000       0.10714286 </v>
   <v>       0.40000000       0.00000000       0.10714286 </v>
   <v>       0.46666667       0.00000000       0.10714286 </v>
   <v>       0.00000000       0.04761905       0.10714286 </v>
   <v>       0.06666667       0.04761905       0.10714286 </v>
   <v>       0.13333333       0.04761905       0.10714286 </v>
   <v>       0.20000000       0.04761905       0.10714286 </v>
   <v>       0.26666667       0.04761905       0.10714286 </v>
   <v>       0.33333333       0.04761905       0.10714286 </v>
   <v>       0.40000000       0.04761905       0.10714286 </v>
   <v>       0.46666667       0.04761905       0.10714286 </v>
   <v>       0.00000000       0.09523810       0.10714286 </v>
   <v>       0.06666667       0.09523810       0.10714286 </v>
   <v>       0.13333333       0.09523810       0.10714286 </v>
   <v>       0.20000000       0.09523810       0.10714286 </v>
   <v>       0.26666667       0.09523810       0.10714286 </v>
   <v>       0.33333333       0.09523810       0.10714286 </v>
   <v>       0.40000000       0.09523810       0.10714286 </v>
   <v>       0.46666667       0.09523810       0.10714286 </v>
   <v>       0.00000000       0.14285714       0.10714286 </v>
   <v>       0.06666667       0.14285714       0.10714286 </v>
   <v>       0.13333333       0.14285714       0.10714286 </v>
   <v>       0.20000000       0.14285714       0.10714286 </v>
   <v>       0.26666667       0.14285714       0.10714286 </v>
   <v>       0.33333333       0.14285714       0.10714286 </v>
   <v>       0.40000000       0.14285714       0.10714286 </v>
   <v>       0.46666667       0.14285714       0.10714286 </v>
   <v>       0.00000000       0.19047619       0.10714286 </v>
   <v>       0.06666667       0.19047619       0.10714286 </v>
   <v>       0.13333333       0.19047619       0.10714286 </v>
   <v>       0.20000000       0.19047619       0.10714286 </v>
   <v>       0.26666667       0.19047619       0.10714286 </v>
   <v>       0.33333333       0.19047619       0.10714286 </v>
   <v>       0.40000000       0.19047619       0.10714286 </v>
   <v>       0.46666667       0.19047619       0.10714286 </v>
   <v>       0.00000000       0.23809524       0.10714286 </v>
   <v>       0.06666667       0.23809524       0.10714286 </v>
   <v>       0.13333333       0.23809524       0.10714286 </v>
   <v>       0.20000000       0.23809524       0.10714286 </v>
   <v>       0.26666667       0.23809524       0.10714286 </v>
   <v>       0.33333333       0.23809524       0.10714286 </v>
   <v>       0.40000000       0.23809524       0.10714286 </v>
   <v>       0.46666667       0.23809524       0.10714286 </v>
   <v>       0.00000000       0.28571429       0.10714286 </v>
   <v>       0.06666667       0.28571429       0.10714286 </v>
   <v>       0.13333333       0.28571429       0.10714286 </v>
   <v>       0.20000000       0.28571429       0.10714286 </v>
   <v>       0.26666667       0.28571429       0.10714286 </v>
   <v>       0.33333333       0.28571429       0.10714286 </v>
   <v>       0.40000000       0.28571429       0.10714286 </v>
   <v>       0.46666667       0.28571429       0.10714286 </v>
   <v>       0.00000000       0.33333333       0.10714286 </v>
   <v>       0.06666667       0.33333333       0.10714286 </v>
   <v>       0.13333333       0.33333333       0.10714286 </v>
   <v>       0.20000000       0.33333333       0.10714286 </v>
   <v>       0.26666667       0.33333333       0.10714286 </v>
   <v>       0.33333333       0.33333333       0.10714286 </v>
   <v>       0.40000000       0.33333333       0.10714286 </v>
   <v>       0.46666667       0.33333333       0.10714286 </v>
   <v>       0.00000000       0.38095238       0.10714286 </v>
   <v>       0.06666667       0.38095238       0.10714286 </v>
   <v>       0.13333333       0.38095238       0.10714286 </v>
   <v>       0.20000000       0.38095238       0.10714286 </v>
   <v>       0.26666667       0.38095238       0.10714286 </v>
   <v>       0.33333333       0.38095238       0.10714286 </v>
   <v>       0.40000000       0.38095238       0.10714286 </v>
   <v>       0.46666667       0.38095238       0.10714286 </v>
   <v>       0.00000000       0.42857143       0.10714286 </v>
   <v>       0.06666667       0.42857143       0.10714286 </v>
   <v>       0.13333333       0.42857143       0.10714286 </v>
   <v>       0.20000000       0.42857143       0.10714286 </v>
   <v>       0.26666667       0.42857143       0.10714286 </v>
   <v>       0.33333333       0.42857143       0.10714286 </v>
   <v>       0.40000000       0.42857143       0.10714286 </v>
   <v>       0.46666667       0.42857143       0.10714286 </v>
   <v>       0.00000000       0.47619048       0.10714286 </v>
   <v>       0.06666667       0.47619048       0.10714286 </v>
   <v>       0.13333333       0.47619048       0.10714286 </v>
   <v>       0.20000000       0.47619048       0.10714286 </v>
   <v>       0.26666667       0.47619048       0.10714286 </v>
   <v>       0.33333333       0.47619048       0.10714286 </v>
   <v>       0.40000000       0.47619048       0.10714286 </v>
   <v>       0.46666667       0.47619048       0.10714286 </v>
   <v>       0.00000000       0.00000000       0.17857143 </v>
   <v>       0.06666667       0.00000000       0.17857143 </v>
   <v>       0.13333333       0.00000000       0.17857143 </v>
   <v>       0.20000000       0.00000000       0.17857143 </v>
   <v>       0.26666667       0.00000000       0.17857143 </v>
   <v>       0.33333333       0.00000000       0.17857143 </v>
   <v>       0.40000000       0.00000000       0.17857143 </v>
   <v>       0.46666667       0.00000000       0.17857143 </v>
   <v>       0.00000000       0.04761905       0.17857143 </v>
   <v>       0.06666667       0.04761905       0.17857143 </v>
   <v>       0.13333333       0.04761905       0.17857143 </v>
   <v>       0.20000000       0.04761905       0.17857143 </v>
   <v>       0.26666667       0.04761905       0.17857143 </v>
   <v>       0.33333333       0.04761905       0.17857143 </v>
   <v>       0.40000000       0.04761905       0.17857143 </v>
   <v>       0.46666667       0.04761905       0.17857143 </v>
   <v>       0.00000000       0.09523810       0.17857143 </v>
   <v>       0.06666667       0.09523810       0.17857143 </v>
   <v>       0.13333333       0.09523810       0.17857143 </v>
   <v>       0.20000000       0.09523810       0.17857143 </v>
   <v>       0.26666667       0.09523810       0.17857143 </v>
   <v>       0.33333333       0.09523810       0.17857143 </v>
   <v>       0.40000000       0.09523810       0.17857143 </v>
   <v>       0.46666667       0.09523810       0.17857143 </v>
   <v>       0.00000000       0.14285714       0.17857143 </v>
   <v>       0.06666667       0.14285714       0.17857143 </v>
   <v>       0.13333333       0.14285714       0.17857143 </v>
   <v>       0.20000000       0.14285714       0.17857143 </v>
   <v>       0.26666667       0.14285714       0.17857143 </v>
   <v>       0.33333333       0.14285714       0.17857143 </v>
   <v>       0.40000000       0.14285714       0.17857143 </v>
   <v>       0.46666667       0.14285714       0.17857143 </v>
   <v>       0.00000000       0.19047619       0.17857143 </v>
   <v>       0.06666667       0.19047619       0.17857143 </v>
   <v>       0.13333333       0.19047619       0.17857143 </v>
   <v>       0.20000000       0.19047619       0.17857143 </v>
   <v>       0.26666667       0.19047619       0.17857143 </v>
   <v>       0.33333333       0.19047619       0.17857143 </v>
   <v>       0.40000000       0.19047619       0.17857143 </v>
   <v>       0.46666667       0.19047619       0.17857143 </v>
   <v>       0.00000000       0.23809524       0.17857143 </v>
   <v>       0.06666667       0.23809524       0.17857143 </v>
   <v>       0.13333333       0.23809524       0.17857143 </v>
   <v>       0.20000000       0.23809524       0.17857143 </v>
   <v>       0.26666667       0.23809524       0.17857143 </v>
   <v>       0.33333333       0.23809524       0.17857143 </v>
   <v>       0.40000000       0.23809524       0.17857143 </v>
   <v>       0.46666667       0.23809524       0.17857143 </v>
   <v>       0.00000000       0.28571429       0.17857143 </v>
   <v>       0.06666667       0.28571429       0.17857143 </v>
   <v>       0.13333333       0.28571429       0.17857143 </v>
   <v>       0.20000000       0.28571429       0.17857143 </v>
   <v>       0.26666667       0.28571429       0.17857143 </v>
   <v>       0.33333333       0.28571429       0.17857143 </v>
   <v>       0.40000000       0.28571429       0.17857143 </v>
   <v>       0.46666667       0.28571429       0.17857143 </v>
   <v>       0.00000000       0.33333333       0.17857143 </v>
   <v>       0.06666667       0.33333333       0.17857143 </v>
   <v>       0.13333333       0.33333333       0.17857143 </v>
   <v>       0.20000000       0.33333333       0.17857143 </v>
   <v>       0.26666667       0.33333333       0.17857143 </v>
   <v>       0.33333333       0.33333333       0.17857143 </v>
   <v>       0.40000000       0.33333333       0.17857143 </v>
   <v>       0.46666667       0.33333333       0.17857143 </v>
   <v>       0.00000000       0.38095238       0.17857143 </v>
   <v>       0.06666667       0.38095238       0.17857143 </v>
   <v>       0.13333333       0.38095238       0.17857143 </v>
   <v>       0.20000000       0.38095238       0.17857143 </v>
   <v>       0.26666667       0.38095238       0.17857143 </v>
   <v>       0.33333333       0.38095238       0.17857143 </v>
   <v>       0.40000000       0.38095238       0.17857143 </v>
   <v>       0.46666667       0.38095238       0.17857143 </v>
   <v>       0.00000000       0.42857143       0.17857143 </v>
   <v>       0.06666667       0.42857143       0.17857143 </v>
   <v>       0.13333333       0.42857143       0.17857143 </v>
   <v>       0.20000000       0.42857143       0.17857143 </v>
   <v>       0.26666667       0.42857143       0.17857143 </v>
   <v>       0.33333333       0.42857143       0.17857143 </v>
   <v>       0.40000000       0.42857143       0.17857143 </v>
   <v>       0.46666667       0.42857143       0.17857143 </v>
   <v>       0.00000000       0.47619048       0.17857143 </v>
   <v>       0.06666667       0.47619048       0.17857143 </v>
   <v>       0.13333333       0.47619048       0.17857143 </v>
   <v>       0.20000000       0.47619048       0.17857143 </v>
   <v>       0.26666667       0.47619048       0.17857143 </v>
   <v>       0.33333333       0.47619048       0.17857143 </v>
   <v>       0.40000000       0.47619048       0.17857143 </v>
   <v>       0.46666667       0.47619048       0.17857143 </v>
   <v>       0.00000000       0.00000000       0.25000000 </v>
   <v>       0.06666667       0.00000000       0.25000000 </v>
   <v>       0.13333333       0.00000000       0.25000000 </v>
   <v>       0.20000000       0.00000000       0.25000000 </v>
   <v>       0.26666667       0.00000000       0.25000000 </v>
   <v>       0.33333333       0.00000000       0.25000000 </v>
   <v>       0.40000000       0.00000000       0.25000000 </v>
   <v>       0.46666667       0.00000000       0.25000000 </v>
   <v>       0.00000000       0.04761905       0.25000000 </v>
   <v>       0.06666667       0.04761905       0.25000000 </v>
   <v>       0.13333333       0.04761905       0.25000000 </v>
   <v>       0.20000000       0.04761905       0.25000000 </v>
   <v>       0.26666667       0.04761905       0.25000000 </v>
   <v>       0.33333333       0.04761905       0.25000000 </v>
   <v>       0.40000000       0.04761905       0.25000000 </v>
   <v>       0.46666667       0.04761905       0.25000000 </v>
   <v>       0.00000000       0.09523810       0.25000000 </v>
   <v>       0.06666667       0.09523810       0.25000000 </v>
   <v>       0.13333333       0.09523810       0.25000000 </v>
   <v>       0.20000000       0.09523810       0.25000000 </v>
   <v>       0.26666667       0.09523810       0.25000000 </v>
   <v>       0.33333333       0.09523810       0.25000000 </v>
   <v>       0.40000000       0.09523810       0.25000000 </v>
   <v>       0.46666667       0.09523810       0.25000000 </v>
   <v>       0.00000000       0.14285714       0.25000000 </v>
   <v>       0.06666667       0.14285714       0.25000000 </v>
   <v>       0.13333333       0.14285714       0.25000000 </v>
   <v>       0.20000000       0.14285714       0.25000000 </v>
   <v>       0.26666667       0.14285714       0.25000000 </v>
   <v>       0.33333333       0.14285714       0.25000000 </v>
   <v>       0.40000000       0.14285714       0.25000000 </v>
   <v>       0.46666667       0.14285714       0.25000000 </v>
   <v>       0.00000000       0.19047619       0.25000000 </v>
   <v>       0.06666667       0.19047619       0.25000000 </v>
   <v>       0.13333333       0.19047619       0.25000000 </v>
   <v>       0.20000000       0.19047619       0.25000000 </v>
   <v>       0.26666667       0.19047619       0.25000000 </v>
   <v>       0.33333333       0.19047619       0.25000000 </v>
   <v>       0.40000000       0.19047619       0.25000000 </v>
   <v>       0.46666667       0.19047619       0.25000000 </v>
   <v>       0.00000000       0.23809524       0.25000000 </v>
   <v>       0.06666667       0.23809524       0.25000000 </v>
   <v>       0.13333333       0.23809524       0.25000000 </v>
   <v>       0.20000000       0.23809524       0.25000000 </v>
   <v>       0.26666667       0.23809524       0.25000000 </v>
   <v>       0.33333333       0.23809524       0.25000000 </v>
   <v>       0.40000000       0.23809524       0.25000000 </v>
   <v>       0.46666667       0.23809524       0.25000000 </v>
   <v>       0.00000000       0.28571429       0.25000000 </v>
   <v>       0.06666667       0.28571429       0.25000000 </v>
   <v>       0.13333333       0.28571429       0.25000000 </v>
   <v>       0.20000000       0.28571429       0.25000000 </v>
   <v>       0.26666667       0.28571429       0.25000000 </v>
   <v>       0.33333333       0.28571429       0.25000000 </v>
   <v>       0.40000000       0.28571429       0.25000000 </v>
   <v>       0.46666667       0.28571429       0.25000000 </v>
   <v>       0.00000000       0.33333333       0.25000000 </v>
   <v>       0.06666667       0.33333333       0.25000000 </v>
   <v>       0.13333333       0.33333333       0.25000000 </v>
   <v>       0.20000000       0.33333333       0.25000000 </v>
   <v>       0.26666667       0.33333333       0.25000000 </v>
   <v>       0.33333333       0.33333333       0.25000000 </v>
   <v>       0.40000000       0.33333333       0.25000000 </v>
   <v>       0.46666667       0.33333333       0.25000000 </v>
   <v>       0.00000000       0.38095238       0.25000000 </v>
   <v>       0.06666667       0.38095238       0.25000000 </v>
   <v>       0.13333333       0.38095238       0.25000000 </v>
   <v>       0.20000000       0.38095238       0.25000000 </v>
   <v>       0.26666667       0.38095238       0.25000000 </v>
   <v>       0.33333333       0.38095238       0.25000000 </v>
   <v>       0.40000000       0.38095238       0.25000000 </v>
   <v>       0.46666667       0.38095238       0.25000000 </v>
   <v>       0.00000000       0.42857143       0.25000000 </v>
   <v>       0.06666667       0.42857143       0.25000000 </v>
   <v>       0.13333333       0.42857143       0.25000000 </v>
   <v>       0.20000000       0.42857143       0.25000000 </v>
   <v>       0.26666667       0.42857143       0.25000000 </v>
   <v>       0.33333333       0.42857143       0.25000000 </v>
   <v>       0.40000000       0.42857143       0.25000000 </v>
   <v>       0.46666667       0.42857143       0.25000000 </v>
   <v>       0.00000000       0.47619048       0.25000000 </v>
   <v>       0.06666667       0.47619048       0.25000000 </v>
   <v>       0.13333333       0.47619048       0.25000000 </v>
   <v>       0.20000000       0.47619048       0.25000000 </v>
   <v>       0.26666667       0.47619048       0.25000000 </v>
   <v>       0.33333333       0.47619048       0.25000000 </v>
   <v>       0.40000000       0.47619048       0.25000000 </v>
   <v>       0.46666667       0.47619048       0.25000000 </v>
   <v>       0.00000000       0.00000000       0.32142857 </v>
   <v>       0.06666667       0.00000000       0.32142857 </v>
   <v>       0.13333333       0.00000000       0.32142857 </v>
   <v>       0.20000000       0.00000000       0.32142857 </v>
   <v>       0.26666667       0.00000000       0.32142857 </v>
   <v>       0.33333333       0.00000000       0.32142857 </v>
   <v>       0.40000000       0.00000000       0.32142857 </v>
   <v>       0.46666667       0.00000000       0.32142857 </v>
   <v>       0.00000000       0.04761905       0.32142857 </v>
   <v>       0.06666667       0.04761905       0.32142857 </v>
   <v>       0.13333333       0.04761905       0.32142857 </v>
   <v>       0.20000000       0.04761905       0.32142857 </v>
   <v>       0.26666667       0.04761905       0.32142857 </v>
   <v>       0.33333333       0.04761905       0.32142857 </v>
   <v>       0.40000000       0.04761905       0.32142857 </v>
   <v>       0.46666667       0.04761905       0.32142857 </v>
   <v>       0.00000000       0.09523810       0.32142857 </v>
   <v>       0.06666667       0.09523810       0.32142857 </v>
   <v>       0.13333333       0.09523810       0.32142857 </v>
   <v>       0.20000000       0.09523810       0.32142857 </v>
   <v>       0.26666667       0.09523810       0.32142857 </v>
   <v>       0.33333333       0.09523810       0.32142857 </v>
   <v>       0.40000000       0.09523810       0.32142857 </v>
   <v>       0.46666667       0.09523810       0.32142857 </v>
   <v>       0.00000000       0.14285714       0.32142857 </v>
   <v>       0.06666667       0.14285714       0.32142857 </v>
   <v>       0.13333333       0.14285714       0.32142857 </v>
   <v>       0.20000000       0.14285714       0.32142857 </v>
   <v>       0.26666667       0.14285714       0.32142857 </v>
   <v>       0.33333333       0.14285714       0.32142857 </v>
   <v>       0.40000000       0.14285714       0.32142857 </v>
   <v>       0.46666667       0.14285714       0.32142857 </v>
   <v>       0.00000000       0.19047619       0.32142857 </v>
   <v>       0.06666667       0.19047619       0.32142857 </v>
   <v>       0.13333333       0.19047619       0.32142857 </v>
   <v>       0.20000000       0.19047619       0.32142857 </v>
   <v>       0.26666667       0.19047619       0.32142857 </v>
   <v>       0.33333333       0.19047619       0.32142857 </v>
   <v>       0.40000000       0.19047619       0.32142857 </v>
   <v>       0.46666667       0.19047619       0.32142857 </v>
   <v>       0.00000000       0.23809524       0.32142857 </v>
   <v>       0.06666667       0.23809524       0.32142857 </v>
   <v>       0.13333333       0.23809524       0.32142857 </v>
   <v>       0.20000000       0.23809524       0.32142857 </v>
   <v>       0.26666667       0.23809524       0.32142857 </v>
   <v>       0.33333333       0.23809524       0.32142857 </v>
   <v>       0.40000000       0.23809524       0.32142857 </v>
   <v>       0.46666667       0.23809524       0.32142857 </v>
   <v>       0.00000000       0.28571429       0.32142857 </v>
   <v>       0.06666667       0.28571429       0.32142857 </v>
   <v>       0.13333333       0.28571429       0.32142857 </v>
   <v>       0.20000000       0.28571429       0.32142857 </v>
   <v>       0.26666667       0.28571429       0.32142857 </v>
   <v>       0.33333333       0.28571429       0.32142857 </v>
   <v>       0.40000000       0.28571429       0.32142857 </v>
   <v>       0.46666667       0.28571429       0.32142857 </v>
   <v>       0.00000000       0.33333333       0.32142857 </v>
   <v>       0.06666667       0.33333333       0.32142857 </v>
   <v>       0.13333333       0.33333333       0.32142857 </v>
   <v>       0.20000000       0.33333333       0.32142857 </v>
   <v>       0.26666667       0.33333333       0.32142857 </v>
   <v>       0.33333333       0.33333333       0.32142857 </v>
   <v>       0.40000000       0.33333333       0.32142857 </v>
   <v>       0.46666667       0.33333333       0.32142857 </v>
   <v>       0.00000000       0.38095238       0.32142857 </v>
   <v>       0.06666667       0.38095238       0.32142857 </v>
   <v>       0.13333333       0.38095238       0.32142857 </v>
   <v>       0.20000000       0.38095238       0.32142857 </v>
   <v>       0.26666667       0.38095238       0.32142857 </v>
   <v>       0.33333333       0.38095238       0.32142857 </v>
   <v>       0.40000000       0.38095238       0.32142857 </v>
   <v>       0.46666667       0.38095238       0.32142857 </v>
   <v>       0.00000000       0.42857143       0.32142857 </v>
   <v>       0.06666667       0.42857143       0.32142857 </v>
   <v>       0.13333333       0.42857143       0.32142857 </v>
   <v>       0.20000000       0.42857143       0.32142857 </v>
   <v>       0.26666667       0.42857143       0.32142857 </v>
   <v>       0.33333333       0.42857143       0.32142857 </v>
   <v>       0.40000000       0.42857143       0.32142857 </v>
   <v>       0.46666667       0.42857143       0.32142857 </v>
   <v>       0.00000000       0.47619048       0.32142857 </v>
   <v>       0.06666667       0.47619048       0.32142857 </v>
   <v>       0.13333333       0.47619048       0.32142857 </v>
   <v>       0.20000000       0.47619048       0.32142857 </v>
   <v>       0.26666667       0.47619048       0.32142857 </v>
   <v>       0.33333333       0.47619048       0.32142857 </v>
   <v>       0.40000000       0.47619048       0.32142857 </v>
   <v>       0.46666667       0.47619048       0.32142857 </v>
   <v>       0.00000000       0.00000000       0.39285714 </v>
   <v>       0.06666667       0.00000000       0.39285714 </v>
   <v>       0.13333333       0.00000000       0.39285714 </v>
   <v>       0.20000000       0.00000000       0.39285714 </v>
   <v>       0.26666667       0.00000000       0.39285714 </v>
   <v>       0.33333333       0.00000000       0.39285714 </v>
   <v>       0.40000000       0.00000000       0.39285714 </v>
   <v>       0.46666667       0.00000000       0.39285714 </v>
   <v>       0.00000000       0.04761905       0.39285714 </v>
   <v>       0.06666667       0.04761905       0.39285714 </v>
   <v>       0.13333333       0.04761905       0.39285714 </v>
   <v>       0.20000000       0.04761905       0.39285714 </v>
   <v>       0.26666667       0.04761905       0.39285714 </v>
   <v>       0.33333333       0.04761905       0.39285714 </v>
   <v>       0.40000000       0.04761905       0.39285714 </v>
   <v>       0.46666667       0.04761905       0.39285714 </v>
   <v>       0.00000000       0.09523810       0.39285714 </v>
   <v>       0.06666667       0.09523810       0.39285714 </v>
   <v>       0.13333333       0.09523810       0.39285714 </v>
   <v>       0.20000000       0.09523810       0.39285714 </v>
   <v>       0.26666667       0.09523810       0.39285714 </v>
   <v>       0.33333333       0.09523810       0.39285714 </v>
   <v>       0.40000000       0.09523810       0.39285714 </v>
   <v>       0.46666667       0.09523810       0.39285714 </v>
   <v>       0.00000000       0.14285714       0.39285714 </v>
   <v>       0.06666667       0.14285714       0.39285714 </v>
   <v>       0.13333333       0.14285714       0.39285714 </v>
   <v>       0.20000000       0.14285714       0.39285714 </v>
   <v>       0.26666667       0.14285714       0.39285714 </v>
   <v>       0.33333333       0.14285714       0.39285714 </v>
   <v>       0.40000000       0.14285714       0.39285714 </v>
   <v>       0.46666667       0.14285714       0.39285714 </v>
   <v>       0.00000000       0.19047619       0.39285714 </v>
   <v>       0.06666667       0.19047619       0.39285714 </v>
   <v>       0.13333333       0.19047619       0.39285714 </v>
   <v>       0.20000000       0.19047619       0.39285714 </v>
   <v>       0.26666667       0.19047619       0.39285714 </v>
   <v>       0.33333333       0.19047619       0.39285714 </v>
   <v>       0.40000000       0.19047619       0.39285714 </v>
   <v>       0.46666667       0.19047619       0.39285714 </v>
   <v>       0.00000000       0.23809524       0.39285714 </v>
   <v>       0.06666667       0.23809524       0.39285714 </v>
   <v>       0.13333333       0.23809524       0.39285714 </v>
   <v>       0.20000000       0.23809524       0.39285714 </v>
   <v>       0.26666667       0.23809524       0.39285714 </v>
   <v>       0.33333333       0.23809524       0.39285714 </v>
   <v>       0.40000000       0.23809524       0.39285714 </v>
   <v>       0.46666667       0.23809524       0.39285714 </v>
   <v>       0.00000000       0.28571429       0.39285714 </v>
   <v>       0.06666667       0.28571429       0.39285714 </v>
   <v>       0.13333333       0.28571429       0.39285714 </v>
   <v>       0.20000000       0.28571429       0.39285714 </v>
   <v>       0.26666667       0.28571429       0.39285714 </v>
   <v>       0.33333333       0.28571429       0.39285714 </v>
   <v>       0.40000000       0.28571429       0.39285714 </v>
   <v>       0.46666667       0.28571429       0.39285714 </v>
   <v>       0.00000000       0.33333333       0.39285714 </v>
   <v>       0.06666667       0.33333333       0.39285714 </v>
   <v>       0.13333333       0.33333333       0.39285714 </v>
   <v>       0.20000000       0.33333333       0.39285714 </v>
   <v>       0.26666667       0.33333333       0.39285714 </v>
   <v>       0.33333333       0.33333333       0.39285714 </v>
   <v>       0.40000000       0.33333333       0.39285714 </v>
   <v>       0.46666667       0.33333333       0.39285714 </v>
   <v>       0.00000000       0.38095238       0.39285714 </v>
   <v>       0.06666667       0.38095238       0.39285714 </v>
   <v>       0.13333333       0.38095238       0.39285714 </v>
   <v>       0.20000000       0.38095238       0.39285714 </v>
   <v>       0.26666667       0.38095238       0.39285714 </v>
   <v>       0.33333333       0.38095238       0.39285714 </v>
   <v>       0.40000000       0.38095238       0.39285714 </v>
   <v>       0.46666667       0.38095238       0.39285714 </v>
   <v>       0.00000000       0.42857143       0.39285714 </v>
   <v>       0.06666667       0.42857143       0.39285714 </v>
   <v>       0.13333333       0.42857143       0.39285714 </v>
   <v>       0.20000000       0.42857143       0.39285714 </v>
   <v>       0.26666667       0.42857143       0.39285714 </v>
   <v>       0.33333333       0.42857143       0.39285714 </v>
   <v>       0.40000000       0.42857143       0.39285714 </v>
   <v>       0.46666667       0.42857143       0.39285714 </v>
   <v>       0.00000000       0.47619048       0.39285714 </v>
   <v>       0.06666667       0.47619048       0.39285714 </v>
   <v>       0.13333333       0.47619048       0.39285714 </v>
   <v>       0.20000000       0.47619048       0.39285714 </v>
   <v>       0.26666667       0.47619048       0.39285714 </v>
   <v>       0.33333333       0.47619048       0.39285714 </v>
   <v>       0.40000000       0.47619048       0.39285714 </v>
   <v>       0.46666667       0.47619048       0.39285714 </v>
   <v>       0.00000000       0.00000000       0.46428571 </v>
   <v>       0.06666667       0.00000000       0.46428571 </v>
   <v>       0.13333333       0.00000000       0.46428571 </v>
   <v>       0.20000000       0.00000000       0.46428571 </v>
   <v>       0.26666667       0.00000000       0.46428571 </v>
   <v>       0.33333333       0.00000000       0.46428571 </v>
   <v>       0.40000000       0.00000000       0.46428571 </v>
   <v>       0.46666667       0.00000000       0.46428571 </v>
   <v>       0.00000000       0.04761905       0.46428571 </v>
   <v>       0.06666667       0.04761905       0.46428571 </v>
   <v>       0.13333333       0.04761905       0.46428571 </v>
   <v>       0.20000000       0.04761905       0.46428571 </v>
   <v>       0.26666667       0.04761905       0.46428571 </v>
   <v>       0.33333333       0.04761905       0.46428571 </v>
   <v>       0.40000000       0.04761905       0.46428571 </v>
   <v>       0.46666667       0.04761905       0.46428571 </v>
   <v>       0.00000000       0.09523810       0.46428571 </v>
   <v>       0.06666667       0.09523810       0.46428571 </v>
   <v>       0.13333333       0.09523810       0.46428571 </v>
   <v>       0.20000000       0.09523810       0.46428571 </v>
   <v>       0.26666667       0.09523810       0.46428571 </v>
   <v>       0.33333333       0.09523810       0.46428571 </v>
   <v>       0.40000000       0.09523810       0.46428571 </v>
   <v>       0.46666667       0.09523810       0.46428571 </v>
   <v>       0.00000000       0.14285714       0.46428571 </v>
   <v>       0.06666667       0.14285714       0.46428571 </v>
   <v>       0.13333333       0.14285714       0.46428571 </v>
   <v>       0.20000000       0.14285714       0.46428571 </v>
   <v>       0.26666667       0.14285714       0.46428571 </v>
   <v>       0.33333333       0.14285714       0.46428571 </v>
   <v>       0.40000000       0.14285714       0.46428571 </v>
   <v>       0.46666667       0.14285714       0.46428571 </v>
   <v>       0.00000000       0.19047619       0.46428571 </v>
   <v>       0.06666667       0.19047619       0.46428571 </v>
   <v>       0.13333333       0.19047619       0.46428571 </v>
   <v>       0.20000000       0.19047619       0.46428571 </v>
   <v>       0.26666667       0.19047619       0.46428571 </v>
   <v>       0.33333333       0.19047619       0.46428571 </v>
   <v>       0.40000000       0.19047619       0.46428571 </v>
   <v>       0.46666667       0.19047619       0.46428571 </v>
   <v>       0.00000000       0.23809524       0.46428571 </v>
   <v>       0.06666667       0.23809524       0.46428571 </v>
   <v>       0.13333333       0.23809524       0.46428571 </v>
   <v>       0.20000000       0.23809524       0.46428571 </v>
   <v>       0.26666667       0.23809524       0.46428571 </v>
   <v>       0.33333333       0.23809524       0.46428571 </v>
   <v>       0.40000000       0.23809524       0.46428571 </v>
   <v>       0.46666667       0.23809524       0.46428571 </v>
   <v>       0.00000000       0.28571429       0.46428571 </v>
   <v>       0.06666667       0.28571429       0.46428571 </v>
   <v>       0.13333333       0.28571429       0.46428571 </v>
   <v>       0.20000000       0.28571429       0.46428571 </v>
   <v>       0.26666667       0.28571429       0.46428571 </v>
   <v>       0.33333333       0.28571429       0.46428571 </v>
   <v>       0.40000000       0.28571429       0.46428571 </v>
   <v>       0.46666667       0.28571429       0.46428571 </v>
   <v>       0.00000000       0.33333333       0.46428571 </v>
   <v>       0.06666667       0.33333333       0.46428571 </v>
   <v>       0.13333333       0.33333333       0.46428571 </v>
   <v>       0.20000000       0.33333333       0.46428571 </v>
   <v>       0.26666667       0.33333333       0.46428571 </v>
   <v>       0.33333333       0.33333333       0.46428571 </v>
   <v>       0.40000000       0.33333333       0.46428571 </v>
   <v>       0.46666667       0.33333333       0.46428571 </v>
   <v>       0.00000000       0.38095238       0.46428571 </v>
   <v>       0.06666667       0.38095238       0.46428571 </v>
   <v>       0.13333333       0.38095238       0.46428571 </v>
   <v>       0.20000000       0.38095238       0.46428571 </v>
   <v>       0.26666667       0.38095238       0.46428571 </v>
   <v>       0.33333333       0.38095238       0.46428571 </v>
   <v>       0.40000000       0.38095238       0.46428571 </v>
   <v>       0.46666667       0.38095238       0.46428571 </v>
   <v>       0.00000000       0.42857143       0.46428571 </v>
   <v>       0.06666667       0.42857143       0.46428571 </v>
   <v>       0.13333333       0.42857143       0.46428571 </v>
   <v>       0.20000000       0.42857143       0.46428571 </v>
   <v>       0.26666667       0.42857143       0.46428571 </v>
   <v>       0.33333333       0.42857143       0.46428571 </v>
   <v>       0.40000000       0.42857143       0.46428571 </v>
   <v>       0.46666667       0.42857143       0.46428571 </v>
   <v>       0.00000000       0.47619048       0.46428571 </v>
   <v>       0.06666667       0.47619048       0.46428571 </v>
   <v>       0.13333333       0.47619048       0.46428571 </v>
   <v>       0.20000000       0.47619048       0.46428571 </v>
   <v>       0.26666667       0.47619048       0.46428571 </v>
   <v>       0.33333333       0.47619048       0.46428571 </v>
   <v>       0.40000000       0.47619048       0.46428571 </v>
   <v>       0.46666667       0.47619048       0.46428571 </v>
  </varray>
  <varray name="weights" >
   <v>       0.00045351 </v>
   <v>       0.00090703 </v>
   <v>       0.00090703 </v>
   <v>       0.00090703 </v>
   <v>       0.00090703 </v>
   <v>       0.00090703 </v>
   <v>       0.00090703 </v>
   <v>       0.00090703 </v>
   <v>       0.00090703 </v>
   <v>       0.00181406 </v>
   <v>       0.00181406 </v>
   <v>       0.00181406 </v>
   <v>       0.00181406 </v>
   <v>       0.00181406 </v>
   <v>       0.00181406 </v>
   <v>       0.00181406 </v>
   <v>       0.00090703 </v>
   <v>       0.00181406 </v>
   <v>       0.00181406 </v>
   <v>       0.00181406 </v>
   <v>       0.00181406 </v>
   <v>       0.00181406 </v>
   <v>       0.00181406 </v>
   <v>       0.00181406 </v>
   <v>       0.00090703 </v>
   <v>       0.00181406 </v>
   <v>       0.00181406 </v>
   <v>       0.00181406 </v>
   <v>       0.00181406 </v>
   <v>       0.00181406 </v>
   <v>       0.00181406 </v>
   <v>       0.00181406 </v>
   <v>       0.00090703 </v>
   <v>       0.00181406 </v>
   <v>       0.00181406 </v>
   <v>       0.00181406 </v>
   <v>       0.00181406 </v>
   <v>       0.00181406 </v>
   <v>       0.00181406 </v>
   <v>       0.00181406 </v>
   <v>       0.00090703 </v>
   <v>       0.00181406 </v>
   <v>       0.00181406 </v>
   <v>       0.00181406 </v>
   <v>       0.00181406 </v>
   <v>       0.00181406 </v>
   <v>       0.00181406 </v>
   <v>       0.00181406 </v>
   <v>       0.00090703 </v>
   <v>       0.00181406 </v>
   <v>       0.00181406 </v>
   <v>       0.00181406 </v>
   <v>       0.00181406 </v>
   <v>       0.00181406 </v>
   <v>       0.00181406 </v>
   <v>       0.00181406 </v>
   <v>       0.00090703 </v>
   <v>       0.00181406 </v>
   <v>       0.00181406 </v>
   <v>       0.00181406 </v>
   <v>       0.00181406 </v>
   <v>       0.00181406 </v>
   <v>       0.00181406 </v>
   <v>       0.00181406 </v>
   <v>       0.00090703 </v>
   <v>       0.00181406 </v>
   <v>       0.00181406 </v>
   <v>       0.00181406 </v>
   <v>       0.00181406 </v>
   <v>       0.00181406 </v>
   <v>       0.00181406 </v>
   <v>       0.00181406 </v>
   <v>       0.00090703 </v>
   <v>       0.00181406 </v>
   <v>       0.00181406 </v>
   <v>       0.00181406 </v>
   <v>       0.00181406 </v>
   <v>       0.00181406 </v>
   <v>       0.00181406 </v>
   <v>       0.00181406 </v>
   <v>       0.00090703 </v>
   <v>       0.00181406 </v>
   <v>       0.00181406 </v>
   <v>       0.00181406 </v>
   <v>       0.00181406 </v>
   <v>       0.00181406 </v>
   <v>       0.00181406 </v>
   <v>       0.00181406 </v>
   <v>       0.00045351 </v>
   <v>       0.00090703 </v>
   <v>       0.00090703 </v>
   <v>       0.00090703 </v>
   <v>       0.00090703 </v>
   <v>       0.00090703 </v>
   <v>       0.00090703 </v>
   <v>       0.00090703 </v>
   <v>       0.00090703 </v>
   <v>       0.00181406 </v>
   <v>       0.00181406 </v>
   <v>       0.00181406 </v>
   <v>       0.00181406 </v>
   <v>       0.00181406 </v>
   <v>       0.00181406 </v>
   <v>       0.00181406 </v>
   <v>       0.00090703 </v>
   <v>       0.00181406 </v>
   <v>       0.00181406 </v>
   <v>       0.00181406 </v>
   <v>       0.00181406 </v>
   <v>       0.00181406 </v>
   <v>       0.00181406 </v>
   <v>       0.00181406 </v>
   <v>       0.00090703 </v>
   <v>       0.00181406 </v>
   <v>       0.00181406 </v>
   <v>       0.00181406 </v>
   <v>       0.00181406 </v>
   <v>       0.00181406 </v>
   <v>       0.00181406 </v>
   <v>       0.00181406 </v>
   <v>       0.00090703 </v>
   <v>       0.00181406 </v>
   <v>       0.00181406 </v>
   <v>       0.00181406 </v>
   <v>       0.00181406 </v>
   <v>       0.00181406 </v>
   <v>       0.00181406 </v>
   <v>       0.00181406 </v>
   <v>       0.00090703 </v>
   <v>       0.00181406 </v>
   <v>       0.00181406 </v>
   <v>       0.00181406 </v>
   <v>       0.00181406 </v>
   <v>       0.00181406 </v>
   <v>       0.00181406 </v>
   <v>       0.00181406 </v>
   <v>       0.00090703 </v>
   <v>       0.00181406 </v>
   <v>       0.00181406 </v>
   <v>       0.00181406 </v>
   <v>       0.00181406 </v>
   <v>       0.00181406 </v>
   <v>       0.00181406 </v>
   <v>       0.00181406 </v>
   <v>       0.00090703 </v>
   <v>       0.00181406 </v>
   <v>       0.00181406 </v>
   <v>       0.00181406 </v>
   <v>       0.00181406 </v>
   <v>       0.00181406 </v>
   <v>       0.00181406 </v>
   <v>       0.00181406 </v>
   <v>       0.00090703 </v>
   <v>       0.00181406 </v>
   <v>       0.00181406 </v>
   <v>       0.00181406 </v>
   <v>       0.00181406 </v>
   <v>       0.00181406 </v>
   <v>       0.00181406 </v>
   <v>       0.00181406 </v>
   <v>       0.00090703 </v>
   <v>       0.00181406 </v>
   <v>       0.00181406 </v>
   <v>       0.00181406 </v>
   <v>       0.00181406 </v>
   <v>       0.00181406 </v>
   <v>       0.00181406 </v>
   <v>       0.00181406 </v>
   <v>       0.00090703 </v>
   <v>       0.00181406 </v>
   <v>       0.00181406 </v>
   <v>       0.00181406 </v>
   <v>       0.00181406 </v>
   <v>       0.00181406 </v>
   <v>       0.00181406 </v>
   <v>       0.00181406 </v>
   <v>       0.00045351 </v>
   <v>       0.00090703 </v>
   <v>       0.00090703 </v>
   <v>       0.00090703 </v>
   <v>       0.00090703 </v>
   <v>       0.00090703 </v>
   <v>       0.00090703 </v>
   <v>       0.00090703 </v>
   <v>       0.00090703 </v>
   <v>       0.00181406 </v>
   <v>       0.00181406 </v>
   <v>       0.00181406 </v>
   <v>       0.00181406 </v>
   <v>       0.00181406 </v>
   <v>       0.00181406 </v>
   <v>       0.00181406 </v>
   <v>       0.00090703 </v>
   <v>       0.00181406 </v>
   <v>       0.00181406 </v>
   <v>       0.00181406 </v>
   <v>       0.00181406 </v>
   <v>       0.00181406 </v>
   <v>       0.00181406 </v>
   <v>       0.00181406 </v>
   <v>       0.00090703 </v>
   <v>       0.00181406 </v>
   <v>       0.00181406 </v>
   <v>       0.00181406 </v>
   <v>       0.00181406 </v>
   <v>       0.00181406 </v>
   <v>       0.00181406 </v>
   <v>       0.00181406 </v>
   <v>       0.00090703 </v>
   <v>       0.00181406 </v>
   <v>       0.00181406 </v>
   <v>       0.00181406 </v>
   <v>       0.00181406 </v>
   <v>       0.00181406 </v>
   <v>       0.00181406 </v>
   <v>       0.00181406 </v>
   <v>       0.00090703 </v>
   <v>       0.00181406 </v>
   <v>       0.00181406 </v>
   <v>       0.00181406 </v>
   <v>       0.00181406 </v>
   <v>       0.00181406 </v>
   <v>       0.00181406 </v>
   <v>       0.00181406 </v>
   <v>       0.00090703 </v>
   <v>       0.00181406 </v>
   <v>       0.00181406 </v>
   <v>       0.00181406 </v>
   <v>       0.00181406 </v>
   <v>       0.00181406 </v>
   <v>       0.00181406 </v>
   <v>       0.00181406 </v>
   <v>       0.00090703 </v>
   <v>       0.00181406 </v>
   <v>       0.00181406 </v>
   <v>       0.00181406 </v>
   <v>       0.00181406 </v>
   <v>       0.00181406 </v>
   <v>       0.00181406 </v>
   <v>       0.00181406 </v>
   <v>       0.00090703 </v>
   <v>       0.00181406 </v>
   <v>       0.00181406 </v>
   <v>       0.00181406 </v>
   <v>       0.00181406 </v>
   <v>       0.00181406 </v>
   <v>       0.00181406 </v>
   <v>       0.00181406 </v>
   <v>       0.00090703 </v>
   <v>       0.00181406 </v>
   <v>       0.00181406 </v>
   <v>       0.00181406 </v>
   <v>       0.00181406 </v>
   <v>       0.00181406 </v>
   <v>       0.00181406 </v>
   <v>       0.00181406 </v>
   <v>       0.00090703 </v>
   <v>       0.00181406 </v>
   <v>       0.00181406 </v>
   <v>       0.00181406 </v>
   <v>       0.00181406 </v>
   <v>       0.00181406 </v>
   <v>       0.00181406 </v>
   <v>       0.00181406 </v>
   <v>       0.00045351 </v>
   <v>       0.00090703 </v>
   <v>       0.00090703 </v>
   <v>       0.00090703 </v>
   <v>       0.00090703 </v>
   <v>       0.00090703 </v>
   <v>       0.00090703 </v>
   <v>       0.00090703 </v>
   <v>       0.00090703 </v>
   <v>       0.00181406 </v>
   <v>       0.00181406 </v>
   <v>       0.00181406 </v>
   <v>       0.00181406 </v>
   <v>       0.00181406 </v>
   <v>       0.00181406 </v>
   <v>       0.00181406 </v>
   <v>       0.00090703 </v>
   <v>       0.00181406 </v>
   <v>       0.00181406 </v>
   <v>       0.00181406 </v>
   <v>       0.00181406 </v>
   <v>       0.00181406 </v>
   <v>       0.00181406 </v>
   <v>       0.00181406 </v>
   <v>       0.00090703 </v>
   <v>       0.00181406 </v>
   <v>       0.00181406 </v>
   <v>       0.00181406 </v>
   <v>       0.00181406 </v>
   <v>       0.00181406 </v>
   <v>       0.00181406 </v>
   <v>       0.00181406 </v>
   <v>       0.00090703 </v>
   <v>       0.00181406 </v>
   <v>       0.00181406 </v>
   <v>       0.00181406 </v>
   <v>       0.00181406 </v>
   <v>       0.00181406 </v>
   <v>       0.00181406 </v>
   <v>       0.00181406 </v>
   <v>       0.00090703 </v>
   <v>       0.00181406 </v>
   <v>       0.00181406 </v>
   <v>       0.00181406 </v>
   <v>       0.00181406 </v>
   <v>       0.00181406 </v>
   <v>       0.00181406 </v>
   <v>       0.00181406 </v>
   <v>       0.00090703 </v>
   <v>       0.00181406 </v>
   <v>       0.00181406 </v>
   <v>       0.00181406 </v>
   <v>       0.00181406 </v>
   <v>       0.00181406 </v>
   <v>       0.00181406 </v>
   <v>       0.00181406 </v>
   <v>       0.00090703 </v>
   <v>       0.00181406 </v>
   <v>       0.00181406 </v>
   <v>       0.00181406 </v>
   <v>       0.00181406 </v>
   <v>       0.00181406 </v>
   <v>       0.00181406 </v>
   <v>       0.00181406 </v>
   <v>       0.00090703 </v>
   <v>       0.00181406 </v>
   <v>       0.00181406 </v>
   <v>       0.00181406 </v>
   <v>       0.00181406 </v>
   <v>       0.00181406 </v>
   <v>       0.00181406 </v>
   <v>       0.00181406 </v>
   <v>       0.00090703 </v>
   <v>       0.00181406 </v>
   <v>       0.00181406 </v>
   <v>       0.00181406 </v>
   <v>       0.00181406 </v>
   <v>       0.00181406 </v>
   <v>       0.00181406 </v>
   <v>       0.00181406 </v>
   <v>       0.00090703 </v>
   <v>       0.00181406 </v>
   <v>       0.00181406 </v>
   <v>       0.00181406 </v>
   <v>       0.00181406 </v>
   <v>       0.00181406 </v>
   <v>       0.00181406 </v>
   <v>       0.00181406 </v>
   <v>       0.00045351 </v>
   <v>       0.00090703 </v>
   <v>       0.00090703 </v>
   <v>       0.00090703 </v>
   <v>       0.00090703 </v>
   <v>       0.00090703 </v>
   <v>       0.00090703 </v>
   <v>       0.00090703 </v>
   <v>       0.00090703 </v>
   <v>       0.00181406 </v>
   <v>       0.00181406 </v>
   <v>       0.00181406 </v>
   <v>       0.00181406 </v>
   <v>       0.00181406 </v>
   <v>       0.00181406 </v>
   <v>       0.00181406 </v>
   <v>       0.00090703 </v>
   <v>       0.00181406 </v>
   <v>       0.00181406 </v>
   <v>       0.00181406 </v>
   <v>       0.00181406 </v>
   <v>       0.00181406 </v>
   <v>       0.00181406 </v>
   <v>       0.00181406 </v>
   <v>       0.00090703 </v>
   <v>       0.00181406 </v>
   <v>       0.00181406 </v>
   <v>       0.00181406 </v>
   <v>       0.00181406 </v>
   <v>       0.00181406 </v>
   <v>       0.00181406 </v>
   <v>       0.00181406 </v>
   <v>       0.00090703 </v>
   <v>       0.00181406 </v>
   <v>       0.00181406 </v>
   <v>       0.00181406 </v>
   <v>       0.00181406 </v>
   <v>       0.00181406 </v>
   <v>       0.00181406 </v>
   <v>       0.00181406 </v>
   <v>       0.00090703 </v>
   <v>       0.00181406 </v>
   <v>       0.00181406 </v>
   <v>       0.00181406 </v>
   <v>       0.00181406 </v>
   <v>       0.00181406 </v>
   <v>       0.00181406 </v>
   <v>       0.00181406 </v>
   <v>       0.00090703 </v>
   <v>       0.00181406 </v>
   <v>       0.00181406 </v>
   <v>       0.00181406 </v>
   <v>       0.00181406 </v>
   <v>       0.00181406 </v>
   <v>       0.00181406 </v>
   <v>       0.00181406 </v>
   <v>       0.00090703 </v>
   <v>       0.00181406 </v>
   <v>       0.00181406 </v>
   <v>       0.00181406 </v>
   <v>       0.00181406 </v>
   <v>       0.00181406 </v>
   <v>       0.00181406 </v>
   <v>       0.00181406 </v>
   <v>       0.00090703 </v>
   <v>       0.00181406 </v>
   <v>       0.00181406 </v>
   <v>       0.00181406 </v>
   <v>       0.00181406 </v>
   <v>       0.00181406 </v>
   <v>       0.00181406 </v>
   <v>       0.00181406 </v>
   <v>       0.00090703 </v>
   <v>       0.00181406 </v>
   <v>       0.00181406 </v>
   <v>       0.00181406 </v>
   <v>       0.00181406 </v>
   <v>       0.00181406 </v>
   <v>       0.00181406 </v>
   <v>       0.00181406 </v>
   <v>       0.00090703 </v>
   <v>       0.00181406 </v>
   <v>       0.00181406 </v>
   <v>       0.00181406 </v>
   <v>       0.00181406 </v>
   <v>       0.00181406 </v>
   <v>       0.00181406 </v>
   <v>       0.00181406 </v>
   <v>       0.00045351 </v>
   <v>       0.00090703 </v>
   <v>       0.00090703 </v>
   <v>       0.00090703 </v>
   <v>       0.00090703 </v>
   <v>       0.00090703 </v>
   <v>       0.00090703 </v>
   <v>       0.00090703 </v>
   <v>       0.00090703 </v>
   <v>       0.00181406 </v>
   <v>       0.00181406 </v>
   <v>       0.00181406 </v>
   <v>       0.00181406 </v>
   <v>       0.00181406 </v>
   <v>       0.00181406 </v>
   <v>       0.00181406 </v>
   <v>       0.00090703 </v>
   <v>       0.00181406 </v>
   <v>       0.00181406 </v>
   <v>       0.00181406 </v>
   <v>       0.00181406 </v>
   <v>       0.00181406 </v>
   <v>       0.00181406 </v>
   <v>       0.00181406 </v>
   <v>       0.00090703 </v>
   <v>       0.00181406 </v>
   <v>       0.00181406 </v>
   <v>       0.00181406 </v>
   <v>       0.00181406 </v>
   <v>       0.00181406 </v>
   <v>       0.00181406 </v>
   <v>       0.00181406 </v>
   <v>       0.00090703 </v>
   <v>       0.00181406 </v>
   <v>       0.00181406 </v>
   <v>       0.00181406 </v>
   <v>       0.00181406 </v>
   <v>       0.00181406 </v>
   <v>       0.00181406 </v>
   <v>       0.00181406 </v>
   <v>       0.00090703 </v>
   <v>       0.00181406 </v>
   <v>       0.00181406 </v>
   <v>       0.00181406 </v>
   <v>       0.00181406 </v>
   <v>       0.00181406 </v>
   <v>       0.00181406 </v>
   <v>       0.00181406 </v>
   <v>       0.00090703 </v>
   <v>       0.00181406 </v>
   <v>       0.00181406 </v>
   <v>       0.00181406 </v>
   <v>       0.00181406 </v>
   <v>       0.00181406 </v>
   <v>       0.00181406 </v>
   <v>       0.00181406 </v>
   <v>       0.00090703 </v>
   <v>       0.00181406 </v>
   <v>       0.00181406 </v>
   <v>       0.00181406 </v>
   <v>       0.00181406 </v>
   <v>       0.00181406 </v>
   <v>       0.00181406 </v>
   <v>       0.00181406 </v>
   <v>       0.00090703 </v>
   <v>       0.00181406 </v>
   <v>       0.00181406 </v>
   <v>       0.00181406 </v>
   <v>       0.00181406 </v>
   <v>       0.00181406 </v>
   <v>       0.00181406 </v>
   <v>       0.00181406 </v>
   <v>       0.00090703 </v>
   <v>       0.00181406 </v>
   <v>       0.00181406 </v>
   <v>       0.00181406 </v>
   <v>       0.00181406 </v>
   <v>       0.00181406 </v>
   <v>       0.00181406 </v>
   <v>       0.00181406 </v>
   <v>       0.00090703 </v>
   <v>       0.00181406 </v>
   <v>       0.00181406 </v>
   <v>       0.00181406 </v>
   <v>       0.00181406 </v>
   <v>       0.00181406 </v>
   <v>       0.00181406 </v>
   <v>       0.00181406 </v>
   <v>       0.00045351 </v>
   <v>       0.00090703 </v>
   <v>       0.00090703 </v>
   <v>       0.00090703 </v>
   <v>       0.00090703 </v>
   <v>       0.00090703 </v>
   <v>       0.00090703 </v>
   <v>       0.00090703 </v>
   <v>       0.00090703 </v>
   <v>       0.00181406 </v>
   <v>       0.00181406 </v>
   <v>       0.00181406 </v>
   <v>       0.00181406 </v>
   <v>       0.00181406 </v>
   <v>       0.00181406 </v>
   <v>       0.00181406 </v>
   <v>       0.00090703 </v>
   <v>       0.00181406 </v>
   <v>       0.00181406 </v>
   <v>       0.00181406 </v>
   <v>       0.00181406 </v>
   <v>       0.00181406 </v>
   <v>       0.00181406 </v>
   <v>       0.00181406 </v>
   <v>       0.00090703 </v>
   <v>       0.00181406 </v>
   <v>       0.00181406 </v>
   <v>       0.00181406 </v>
   <v>       0.00181406 </v>
   <v>       0.00181406 </v>
   <v>       0.00181406 </v>
   <v>       0.00181406 </v>
   <v>       0.00090703 </v>
   <v>       0.00181406 </v>
   <v>       0.00181406 </v>
   <v>       0.00181406 </v>
   <v>       0.00181406 </v>
   <v>       0.00181406 </v>
   <v>       0.00181406 </v>
   <v>       0.00181406 </v>
   <v>       0.00090703 </v>
   <v>       0.00181406 </v>
   <v>       0.00181406 </v>
   <v>       0.00181406 </v>
   <v>       0.00181406 </v>
   <v>       0.00181406 </v>
   <v>       0.00181406 </v>
   <v>       0.00181406 </v>
   <v>       0.00090703 </v>
   <v>       0.00181406 </v>
   <v>       0.00181406 </v>
   <v>       0.00181406 </v>
   <v>       0.00181406 </v>
   <v>       0.00181406 </v>
   <v>       0.00181406 </v>
   <v>       0.00181406 </v>
   <v>       0.00090703 </v>
   <v>       0.00181406 </v>
   <v>       0.00181406 </v>
   <v>       0.00181406 </v>
   <v>       0.00181406 </v>
   <v>       0.00181406 </v>
   <v>       0.00181406 </v>
   <v>       0.00181406 </v>
   <v>       0.00090703 </v>
   <v>       0.00181406 </v>
   <v>       0.00181406 </v>
   <v>       0.00181406 </v>
   <v>       0.00181406 </v>
   <v>       0.00181406 </v>
   <v>       0.00181406 </v>
   <v>       0.00181406 </v>
   <v>       0.00090703 </v>
   <v>       0.00181406 </v>
   <v>       0.00181406 </v>
   <v>       0.00181406 </v>
   <v>       0.00181406 </v>
   <v>       0.00181406 </v>
   <v>       0.00181406 </v>
   <v>       0.00181406 </v>
   <v>       0.00090703 </v>
   <v>       0.00181406 </v>
   <v>       0.00181406 </v>
   <v>       0.00181406 </v>
   <v>       0.00181406 </v>
   <v>       0.00181406 </v>
   <v>       0.00181406 </v>
   <v>       0.00181406 </v>
  </varray>
 </kpoints>
 <parameters>
  <separator name="general" >
   <i type="string" name="SYSTEM">Kpoints</i>
   <i type="logical" name="LCOMPAT"> F  </i>
  </separator>
  <separator name="electronic" >
   <i type="string" name="PREC">accura</i>
   <i name="ENMAX">    480.00000000</i>
   <i name="ENAUG">    535.51400000</i>
   <i name="EDIFF">      0.00000100</i>
   <i type="int" name="IALGO">    38</i>
   <i type="int" name="IWAVPR">    10</i>
   <i type="int" name="NBANDS">    48</i>
   <i type="int" name="NBANDSLOW">    -1</i>
   <i type="int" name="NBANDSHIGH">    -1</i>
   <i name="NELECT">     42.00000000</i>
   <i type="int" name="TURBO">     0</i>
   <i type="int" name="IRESTART">     0</i>
   <i type="int" name="NREBOOT">     0</i>
   <i type="int" name="NMIN">     0</i>
   <i name="EREF">      0.00000000</i>
   <separator name="electronic smearing" >
    <i type="int" name="ISMEAR">     0</i>
    <i name="SIGMA">      0.05000000</i>
    <i name="KSPACING">      0.50000000</i>
    <i type="logical" name="KGAMMA"> T  </i>
    <i type="logical" name="KBLOWUP"> T  </i>
   </separator>
   <separator name="electronic projectors" >
    <i type="logical" name="LREAL"> F  </i>
    <v name="ROPT">      0.00000000</v>
    <i type="int" name="LMAXPAW">  -100</i>
    <i type="int" name="LMAXMIX">     2</i>
    <i type="logical" name="NLSPLINE"> F  </i>
   </separator>
   <separator name="electronic startup" >
    <i type="int" name="ISTART">     0</i>
    <i type="int" name="ICHARG">     2</i>
    <i type="int" name="INIWAV">     1</i>
   </separator>
   <separator name="electronic spin" >
    <i type="int" name="ISPIN">     1</i>
    <i type="logical" name="LNONCOLLINEAR"> F  </i>
    <v name="MAGMOM">      1.00000000      1.00000000      1.00000000      1.00000000      1.00000000      1.00000000      1.00000000      1.00000000      1.00000000      1.00000000      1.00000000      1.00000000      1.00000000      1.00000000</v>
    <i name="NUPDOWN">     -1.00000000</i>
    <i type="logical" name="LSORBIT"> F  </i>
    <v name="SAXIS">      0.00000000      0.00000000      1.00000000</v>
    <i type="logical" name="LSPIRAL"> F  </i>
    <v name="QSPIRAL">      0.00000000      0.00000000      0.00000000</v>
    <i type="logical" name="LZEROZ"> F  </i>
   </separator>
   <separator name="electronic exchange-correlation" >
    <i type="logical" name="LASPH"> F  </i>
   </separator>
   <separator name="electronic convergence" >
    <i type="int" name="NELM">   100</i>
    <i type="int" name="NELMDL">    -5</i>
    <i type="int" name="NELMIN">     2</i>
    <i name="ENINI">    480.00000000</i>
    <separator name="electronic convergence detail" >
     <i type="logical" name="LDIAG"> T  </i>
     <i type="logical" name="LSUBROT"> F  </i>
     <i name="WEIMIN">      0.00000000</i>
     <i name="EBREAK">      0.00000001</i>
     <i name="DEPER">      0.30000000</i>
     <i type="int" name="NRMM">     4</i>
     <i name="TIME">      0.40000000</i>
    </separator>
   </separator>
   <separator name="electronic mixer" >
    <i name="AMIX">      0.40000000</i>
    <i name="BMIX">      1.00000000</i>
    <i name="AMIN">      0.10000000</i>
    <i name="AMIX_MAG">      1.60000000</i>
    <i name="BMIX_MAG">      1.00000000</i>
    <separator name="electronic mixer details" >
     <i type="int" name="IMIX">     4</i>
     <i type="logical" name="MIXFIRST"> F  </i>
     <i type="int" name="MAXMIX">   -45</i>
     <i name="WC">    100.00000000</i>
     <i type="int" name="INIMIX">     1</i>
     <i type="int" name="MIXPRE">     1</i>
     <i type="int" name="MREMOVE">     5</i>
    </separator>
   </separator>
   <separator name="electronic dipolcorrection" >
    <i type="logical" name="LDIPOL"> F  </i>
    <i type="logical" name="LMONO"> F  </i>
    <i type="int" name="IDIPOL">     0</i>
    <i name="EPSILON">      1.00000000</i>
    <v name="DIPOL">   -100.00000000   -100.00000000   -100.00000000</v>
    <i name="EFIELD">      0.00000000</i>
    <i type="logical" name="LVACPOTAV"> F  </i>
   </separator>
  </separator>
  <separator name="grids" >
   <i type="int" name="NGX">    42</i>
   <i type="int" name="NGY">    30</i>
   <i type="int" name="NGZ">    48</i>
   <i type="int" name="NGXF">    84</i>
   <i type="int" name="NGYF">    60</i>
   <i type="int" name="NGZF">    96</i>
   <i type="logical" name="ADDGRID"> F  </i>
  </separator>
  <separator name="ionic" >
   <i type="int" name="NSW">     0</i>
   <i type="int" name="IBRION">    -1</i>
   <i type="int" name="MDALGO">     0</i>
   <i type="int" name="ISIF">     2</i>
   <i name="PSTRESS">      0.00000000</i>
   <i name="EDIFFG">     -0.00100000</i>
   <i type="int" name="NFREE">     0</i>
   <i name="POTIM">      0.50000000</i>
   <i name="SMASS">     -3.00000000</i>
   <i name="SCALEE">      1.00000000</i>
  </separator>
  <separator name="ionic md" >
   <i name="TEBEG">      0.00010000</i>
   <i name="TEEND">      0.00010000</i>
   <i type="int" name="NBLOCK">     1</i>
   <i type="int" name="KBLOCK">     1</i>
   <i type="int" name="NPACO">   256</i>
   <i name="APACO">     10.00000000</i>
  </separator>
  <separator name="symmetry" >
   <i type="int" name="ISYM">     2</i>
   <i name="SYMPREC">      0.00001000</i>
  </separator>
  <separator name="dos" >
   <i type="int" name="LORBIT">     0</i>
   <v name="RWIGS">     -1.00000000</v>
   <i type="int" name="NEDOS">   301</i>
   <i name="EMIN">     10.00000000</i>
   <i name="EMAX">    -10.00000000</i>
   <i name="EFERMI">      0.00000000</i>
  </separator>
  <separator name="writing" >
   <i type="int" name="NWRITE">     2</i>
   <i type="logical" name="LWAVE"> F  </i>
   <i type="logical" name="LDOWNSAMPLE"> F  </i>
   <i type="logical" name="LCHARG"> F  </i>
   <i type="logical" name="LPARD"> F  </i>
   <i type="logical" name="LVTOT"> F  </i>
   <i type="logical" name="LVHAR"> F  </i>
   <i type="logical" name="LELF"> F  </i>
   <i type="logical" name="LOPTICS"> F  </i>
   <v name="STM">      0.00000000      0.00000000      0.00000000      0.00000000      0.00000000      0.00000000      0.00000000</v>
  </separator>
  <separator name="performance" >
   <i type="int" name="NPAR">    24</i>
   <i type="int" name="NSIM">     4</i>
   <i type="int" name="NBLK">    -1</i>
   <i type="logical" name="LPLANE"> T  </i>
   <i type="logical" name="LSCALAPACK"> T  </i>
   <i type="logical" name="LSCAAWARE"> F  </i>
   <i type="logical" name="LSCALU"> F  </i>
   <i type="logical" name="LASYNC"> F  </i>
   <i type="logical" name="LORBITALREAL"> F  </i>
  </separator>
  <separator name="miscellaneous" >
   <i type="int" name="IDIOT">     3</i>
   <i type="int" name="PHON_NSTRUCT">    -1</i>
   <i type="logical" name="LMUSIC"> F  </i>
   <v name="POMASS">     10.81100000</v>
   <v name="DARWINR">      0.00000000</v>
   <v name="DARWINV">      1.00000000</v>
   <i type="logical" name="LCORR"> T  </i>
  </separator>
  <i type="logical" name="GGA_COMPAT"> T  </i>
  <i type="logical" name="LBERRY"> F  </i>
  <i type="int" name="ICORELEVEL">     0</i>
  <i type="logical" name="LDAU"> F  </i>
  <i type="int" name="I_CONSTRAINED_M">     0</i>
  <separator name="electronic exchange-correlation" >
   <i type="string" name="GGA    ">PE</i>
   <i type="string" name="XC_C">1</i>
   <i type="int" name="VOSKOWN">     0</i>
   <i type="logical" name="LHFCALC"> F  </i>
   <i type="string" name="PRECFOCK"></i>
   <i type="logical" name="LSYMGRAD"> F  </i>
   <i type="logical" name="LHFONE"> F  </i>
   <i type="logical" name="LRHFCALC"> F  </i>
   <i type="logical" name="LTHOMAS"> F  </i>
   <i type="logical" name="LMODELHF"> F  </i>
   <i type="logical" name="LFOCKACE"> F  </i>
   <i name="ENCUT4O">     -1.00000000</i>
   <i type="int" name="EXXOEP">     0</i>
   <i type="int" name="FOURORBIT">     0</i>
   <i name="AEXX">      0.00000000</i>
   <i name="HFALPHA">      0.00000000</i>
   <i name="MCALPHA">      0.00000000</i>
   <i name="ALDAX">      1.00000000</i>
   <i name="AGGAX">      1.00000000</i>
   <i name="AMGGAX">      1.00000000</i>
   <i name="ALDAC">      1.00000000</i>
   <i name="AGGAC">      1.00000000</i>
   <i name="AMGGAC">      1.00000000</i>
   <i type="int" name="NKREDX">     1</i>
   <i type="int" name="NKREDY">     1</i>
   <i type="int" name="NKREDZ">     1</i>
   <i type="logical" name="SHIFTRED"> F  </i>
   <i type="logical" name="ODDONLY"> F  </i>
   <i type="logical" name="EVENONLY"> F  </i>
   <i type="int" name="LMAXFOCK">     0</i>
   <i type="int" name="NMAXFOCKAE">     0</i>
   <i type="logical" name="LFOCKAEDFT"> F  </i>
   <i name="HFSCREEN">      0.00000000</i>
   <i name="HFSCREENC">      0.00000000</i>
   <i type="int" name="NBANDSGWLOW">     0</i>
  </separator>
  <separator name="vdW DFT" >
   <i type="logical" name="LUSE_VDW"> F  </i>
   <i type="int" name="IVDW_NL">    -1</i>
   <i type="logical" name="LSPIN_VDW"> F  </i>
   <i name="ZAB_VDW">     -0.84910000</i>
   <i name="GAMMA_VDW">      1.39626340</i>
   <i name="ALPHA_VDW">      0.00000000</i>
   <i name="PARAM1">      0.12340000</i>
   <i name="PARAM2">      1.00000000</i>
   <i name="BPARAM">      6.30000000</i>
   <i name="CPARAM">      0.00930000</i>
  </separator>
  <separator name="model GW" >
   <i type="int" name="MODEL_GW">     0</i>
   <i name="MODEL_EPS0">      6.13175789</i>
   <i name="MODEL_ALPHA">      1.00000000</i>
  </separator>
  <separator name="linear response parameters" >
   <i type="logical" name="LEPSILON"> F  </i>
   <i type="logical" name="LRPA"> F  </i>
   <i type="logical" name="LNABLA"> F  </i>
   <i type="logical" name="LVEL"> F  </i>
   <i name="CSHIFT">      0.10000000</i>
   <i name="OMEGAMAX">     -1.00000000</i>
   <i name="DEG_THRESHOLD">      0.00200000</i>
   <i name="RTIME">     -0.10000000</i>
   <i name="WPLASMAI">      0.00000000</i>
   <v name="DFIELD">      0.00000000      0.00000000      0.00000000</v>
   <v name="WPLASMA">      0.00000000      0.00000000      0.00000000      0.00000000      0.00000000      0.00000000      0.00000000      0.00000000      0.00000000</v>
  </separator>
  <separator name="orbital magnetization" >
   <i type="logical" name="NUCIND"> F  </i>
   <v name="MAGPOS">      0.00000000      0.00000000      0.00000000</v>
   <i type="logical" name="LNICSALL"> T  </i>
   <i type="logical" name="ORBITALMAG"> F  </i>
   <i type="logical" name="LMAGBLOCH"> F  </i>
   <i type="logical" name="LCHIMAG"> F  </i>
   <i type="logical" name="LGAUGE"> T  </i>
   <i type="int" name="MAGATOM">     0</i>
   <v name="MAGDIPOL">      0.00000000      0.00000000      0.00000000</v>
   <v name="AVECCONST">      0.00000000      0.00000000      0.00000000</v>
  </separator>
  <separator name="response functions" >
   <i type="logical" name="LALL_IN_ONE"> F  </i>
   <i type="int" name="IALL_IN_ONE">    -1</i>
   <i type="int" name="NBANDS_WAVE">    -1</i>
   <i type="logical" name="LFINITE_TEMPERATURE"> F  </i>
   <i type="logical" name="LADDER"> F  </i>
   <i type="logical" name="LRPAFORCE"> F  </i>
   <i type="logical" name="LFXC"> F  </i>
   <i type="logical" name="LHARTREE"> T  </i>
   <i type="int" name="IBSE">     0</i>
   <v type="int" name="KPOINT">    -1     0     0     0</v>
   <i type="logical" name="LTCTC"> F  </i>
   <i type="logical" name="LTCTE"> F  </i>
   <i type="logical" name="LTETE"> F  </i>
   <i type="logical" name="LTRIPLET"> F  </i>
   <i type="logical" name="LFXCEPS"> F  </i>
   <i type="logical" name="LFXHEG"> F  </i>
   <i type="int" name="NATURALO">     2</i>
   <i type="logical" name="LHOLEGF"> F  </i>
   <i type="logical" name="L2ORDER"> F  </i>
   <i type="logical" name="LDMP1"> F  </i>
   <i type="logical" name="LMP2LT"> F  </i>
   <i type="logical" name="LSMP2LT"> F  </i>
   <i type="logical" name="LGWLF"> F  </i>
   <i name="ENCUTGW">     -1.60000002</i>
   <i name="ENCUTGWSOFT">     -1.60000002</i>
   <i name="ENCUTLF">     -1.00000000</i>
   <i type="logical" name="ESF_SPLINES"> F  </i>
   <i name="ESF_CONV">      0.01000000</i>
   <i type="int" name="ESF_NINTER">    15</i>
   <i type="int" name="LMAXMP2">    -1</i>
   <i name="SCISSOR">      0.00000000</i>
   <i type="int" name="NOMEGA">     0</i>
   <i type="int" name="NOMEGAR">     0</i>
   <i type="int" name="NBANDSGW">    -1</i>
   <i type="int" name="NBANDSO">    -1</i>
   <i type="int" name="NBANDSV">    -1</i>
   <i type="int" name="NELMGW">     1</i>
   <i type="int" name="NELMHF">     1</i>
   <i type="int" name="DIM">     3</i>
   <i type="int" name="IESPILON">     4</i>
   <i type="int" name="ANTIRES">     0</i>
   <i name="OMEGAMAX">    -30.00000000</i>
   <i name="OMEGAMIN">    -30.00000000</i>
   <i name="OMEGATL">   -200.00000000</i>
   <i type="int" name="OMEGAGRID">     0</i>
   <i name="CSHIFT">     -0.10000000</i>
   <i type="logical" name="LSELFENERGY"> F  </i>
   <i type="logical" name="LSPECTRAL"> F  </i>
   <i type="logical" name="LSPECTRALGW"> F  </i>
   <i type="logical" name="LSINGLES"> F  </i>
   <i type="logical" name="LFERMIGW"> F  </i>
   <i type="logical" name="ODDONLYGW"> F  </i>
   <i type="logical" name="EVENONLYGW"> F  </i>
   <i type="int" name="NKREDLFX">     1</i>
   <i type="int" name="NKREDLFY">     1</i>
   <i type="int" name="NKREDLFZ">     1</i>
   <i type="int" name="MAXMEM">  2800</i>
   <i type="int" name="TELESCOPE">     0</i>
   <i type="int" name="NTAUPAR">    -1</i>
   <i type="int" name="NOMEGAPAR">    -1</i>
   <i name="DAMP_NEWTON">      0.80000001</i>
   <i name="LAMBDA">      1.00000000</i>
  </separator>
  <separator name="External order field" >
   <i name="OFIELD_KAPPA">      0.00000000</i>
   <v name="OFIELD_K">      0.00000000      0.00000000      0.00000000</v>
   <i name="OFIELD_Q6_NEAR">      0.00000000</i>
   <i name="OFIELD_Q6_FAR">      0.00000000</i>
   <i name="OFIELD_A">      0.00000000</i>
  </separator>
  <separator name="optional k-points parameters" >
   <i type="int" name="KPOINTS_OPT_MODE">     1</i>
   <i type="logical" name="LKPOINTS_OPT"> F  </i>
  </separator>
 </parameters>
 <atominfo>
  <atoms>      14 </atoms>
  <types>       1 </types>
  <array name="atoms" >
   <dimension dim="1">ion</dimension>
   <field type="string">element</field>
   <field type="int">atomtype</field>
   <set>
    <rc><c>B </c><c>   1</c></rc>
    <rc><c>B </c><c>   1</c></rc>
    <rc><c>B </c><c>   1</c></rc>
    <rc><c>B </c><c>   1</c></rc>
    <rc><c>B </c><c>   1</c></rc>
    <rc><c>B </c><c>   1</c></rc>
    <rc><c>B </c><c>   1</c></rc>
    <rc><c>B </c><c>   1</c></rc>
    <rc><c>B </c><c>   1</c></rc>
    <rc><c>B </c><c>   1</c></rc>
    <rc><c>B </c><c>   1</c></rc>
    <rc><c>B </c><c>   1</c></rc>
    <rc><c>B </c><c>   1</c></rc>
    <rc><c>B </c><c>   1</c></rc>
   </set>
  </array>
  <array name="atomtypes" >
   <dimension dim="1">type</dimension>
   <field type="int">atomspertype</field>
   <field type="string">element</field>
   <field>mass</field>
   <field>valence</field>
   <field type="string">pseudopotential</field>
   <set>
    <rc><c>  14</c><c>B </c><c>     10.81100000</c><c>      3.00000000</c><c>  PAW_PBE B 06Sep2000                   </c></rc>
   </set>
  </array>
 </atominfo>
 <structure name="initialpos" >
  <crystal>
   <varray name="basis" >
    <v>       5.69700000       0.00000000       0.00000000 </v>
    <v>       0.00000000       4.04790000       0.00000000 </v>
    <v>       0.00000000       0.00000000       6.20420000 </v>
   </varray>
   <i name="volume">    143.07435078 </i>
   <varray name="rec_basis" >
    <v>       0.17553098       0.00000000       0.00000000 </v>
    <v>       0.00000000       0.24704168       0.00000000 </v>
    <v>       0.00000000       0.00000000       0.16118114 </v>
   </varray>
  </crystal>
  <varray name="positions" >
   <v>       0.52123000       0.50000000       0.63796000 </v>
   <v>       0.47877000       0.50000000       0.36204000 </v>
   <v>       0.97877000       0.50000000       0.63796000 </v>
   <v>       0.02123000       0.50000000       0.36204000 </v>
   <v>       0.60090000       0.50000000       0.89991000 </v>
   <v>       0.39910000       0.50000000       0.10009000 </v>
   <v>       0.89910000       0.50000000       0.89991000 </v>
   <v>       0.10090000       0.50000000       0.10009000 </v>
   <v>       0.75000000       0.79171000       0.72973000 </v>
   <v>       0.25000000       0.20829000       0.27027000 </v>
   <v>       0.75000000       0.20829000       0.72973000 </v>
   <v>       0.25000000       0.79171000       0.27027000 </v>
   <v>       0.25000000       0.50000000       0.52367000 </v>
   <v>       0.75000000       0.50000000       0.47633000 </v>
  </varray>
 </structure>
 <calculation>
  <scstep>
   <time name="dav">   27.50   27.52</time>
   <time name="total">   27.53   27.57</time>
   <energy>
    <i name="alphaZ">     94.24357992 </i>
    <i name="ewald">   -795.76658092 </i>
    <i name="hartreedc">   -271.33601302 </i>
    <i name="XCdc">     97.50108136 </i>
    <i name="pawpsdc">    608.99811708 </i>
    <i name="pawaedc">   -597.02363782 </i>
    <i name="eentropy">     -0.00237525 </i>
    <i name="bandstr">    -79.00223142 </i>
    <i name="atom">    996.36613177 </i>
    <i name="e_fr_energy">     53.97807170 </i>
    <i name="e_wo_entrp">     53.98044695 </i>
    <i name="e_0_energy">     53.97925933 </i>
   </energy>
  </scstep>
  <scstep>
   <time name="dav">   34.44   34.45</time>
   <time name="total">   34.46   34.47</time>
   <energy>
    <i name="e_fr_energy">    -92.88800886 </i>
    <i name="e_wo_entrp">    -92.88396148 </i>
    <i name="e_0_energy">    -92.88598517 </i>
   </energy>
  </scstep>
  <scstep>
   <time name="dav">   35.18   35.18</time>
   <time name="total">   35.19   35.20</time>
   <energy>
    <i name="e_fr_energy">    -97.59093719 </i>
    <i name="e_wo_entrp">    -97.58754745 </i>
    <i name="e_0_energy">    -97.58924232 </i>
   </energy>
  </scstep>
  <scstep>
   <time name="dav">   31.87   31.87</time>
   <time name="total">   31.87   31.88</time>
   <energy>
    <i name="e_fr_energy">    -97.61813709 </i>
    <i name="e_wo_entrp">    -97.61474200 </i>
    <i name="e_0_energy">    -97.61643955 </i>
   </energy>
  </scstep>
  <scstep>
   <time name="dav">   34.93   34.93</time>
   <time name="total">   35.27   35.27</time>
   <energy>
    <i name="e_fr_energy">    -97.61844809 </i>
    <i name="e_wo_entrp">    -97.61505291 </i>
    <i name="e_0_energy">    -97.61675050 </i>
   </energy>
  </scstep>
  <scstep>
   <time name="dav">   34.93   34.93</time>
   <time name="total">   35.28   35.28</time>
   <energy>
    <i name="e_fr_energy">    -92.20424794 </i>
    <i name="e_wo_entrp">    -92.20087016 </i>
    <i name="e_0_energy">    -92.20255905 </i>
   </energy>
  </scstep>
  <scstep>
   <time name="dav">   35.86   35.86</time>
   <time name="total">   36.18   36.19</time>
   <energy>
    <i name="e_fr_energy">    -90.55434584 </i>
    <i name="e_wo_entrp">    -90.55118007 </i>
    <i name="e_0_energy">    -90.55276296 </i>
   </energy>
  </scstep>
  <scstep>
   <time name="dav">   29.14   29.14</time>
   <time name="total">   29.43   29.44</time>
   <energy>
    <i name="e_fr_energy">    -90.56497811 </i>
    <i name="e_wo_entrp">    -90.56180675 </i>
    <i name="e_0_energy">    -90.56339243 </i>
   </energy>
  </scstep>
  <scstep>
   <time name="dav">   34.49   34.50</time>
   <time name="total">   34.79   34.80</time>
   <energy>
[...]
       <r>   -2.2054    1.0000 </r>
       <r>   -2.1772    1.0000 </r>
       <r>   -2.0926    1.0000 </r>
       <r>   -1.6274    1.0000 </r>
       <r>   -0.4911    1.0000 </r>
       <r>   -0.0598    1.0000 </r>
       <r>    0.3141    1.0000 </r>
       <r>    0.4306    1.0000 </r>
       <r>    0.5296    1.0000 </r>
       <r>    1.2040    1.0000 </r>
       <r>    1.6346    1.0000 </r>
       <r>    1.8060    0.9792 </r>
       <r>    5.7010    0.0000 </r>
       <r>    6.1131    0.0000 </r>
       <r>    6.6858    0.0000 </r>
       <r>    7.3536    0.0000 </r>
       <r>    7.6396    0.0000 </r>
       <r>    7.8539    0.0000 </r>
       <r>    9.2292    0.0000 </r>
       <r>    9.4854    0.0000 </r>
       <r>    9.7372    0.0000 </r>
       <r>    9.9378    0.0000 </r>
       <r>   10.5286    0.0000 </r>
       <r>   11.0180    0.0000 </r>
       <r>   11.1101    0.0000 </r>
       <r>   11.4642    0.0000 </r>
       <r>   11.5423    0.0000 </r>
       <r>   11.7270    0.0000 </r>
       <r>   12.9707    0.0000 </r>
       <r>   13.2497    0.0000 </r>
       <r>   13.4685    0.0000 </r>
       <r>   14.0146    0.0000 </r>
       <r>   14.1539    0.0000 </r>
       <r>   14.3319    0.0000 </r>
       <r>   14.4364    0.0000 </r>
       <r>   14.8564    0.0000 </r>
       <r>   15.0630    0.0000 </r>
       <r>   15.2274    0.0000 </r>
      </set>
      <set comment="kpoint 616">
       <r>  -11.9947    1.0000 </r>
       <r>  -11.9022    1.0000 </r>
       <r>   -8.5335    1.0000 </r>
       <r>   -8.4585    1.0000 </r>
       <r>   -5.9179    1.0000 </r>
       <r>   -5.8484    1.0000 </r>
       <r>   -4.7484    1.0000 </r>
       <r>   -4.5530    1.0000 </r>
       <r>   -4.4051    1.0000 </r>
       <r>   -4.1274    1.0000 </r>
       <r>   -2.2100    1.0000 </r>
       <r>   -2.1731    1.0000 </r>
       <r>   -2.0105    1.0000 </r>
       <r>   -1.8220    1.0000 </r>
       <r>   -0.1506    1.0000 </r>
       <r>    0.0102    1.0000 </r>
       <r>    0.4266    1.0000 </r>
       <r>    0.4693    1.0000 </r>
       <r>    0.5703    1.0000 </r>
       <r>    0.7791    1.0000 </r>
       <r>    1.6561    1.0000 </r>
       <r>    1.7175    1.0000 </r>
       <r>    5.8911    0.0000 </r>
       <r>    6.0153    0.0000 </r>
       <r>    6.9434    0.0000 </r>
       <r>    7.3565    0.0000 </r>
       <r>    7.4452    0.0000 </r>
       <r>    7.5306    0.0000 </r>
       <r>    9.4757    0.0000 </r>
       <r>    9.6394    0.0000 </r>
       <r>    9.8466    0.0000 </r>
       <r>    9.9698    0.0000 </r>
       <r>   10.4840    0.0000 </r>
       <r>   10.7196    0.0000 </r>
       <r>   11.2668    0.0000 </r>
       <r>   11.4703    0.0000 </r>
       <r>   11.4921    0.0000 </r>
       <r>   11.5351    0.0000 </r>
       <r>   13.1166    0.0000 </r>
       <r>   13.1829    0.0000 </r>
       <r>   13.8581    0.0000 </r>
       <r>   14.1580    0.0000 </r>
       <r>   14.2385    0.0000 </r>
       <r>   14.2726    0.0000 </r>
       <r>   14.6607    0.0000 </r>
       <r>   14.7560    0.0000 </r>
       <r>   14.8453    0.0000 </r>
       <r>   14.9846    0.0000 </r>
      </set>
     </set>
    </set>
   </array>
  </eigenvalues>
  <separator name="orbital magnetization" >
   <v name="MAGDIPOLOUT">      0.00000000      0.00000000      0.00000000</v>
  </separator>
  <dos>
   <i name="efermi">      1.87805598 </i>
   <total>
    <array>
     <dimension dim="1">gridpoints</dimension>
     <dimension dim="2">spin</dimension>
     <field>energy</field>
     <field>total</field>
     <field>integrated</field>
     <set>
      <set comment="spin 1">
       <r>   -14.1952     0.0000     0.0000 </r>
       <r>   -14.0879     0.0000     0.0000 </r>
       <r>   -13.9806     0.0000     0.0000 </r>
       <r>   -13.8733     0.0000     0.0000 </r>
       <r>   -13.7659     0.0000     0.0000 </r>
       <r>   -13.6586     0.0000     0.0000 </r>
       <r>   -13.5513     0.0000     0.0000 </r>
       <r>   -13.4440     0.0000     0.0000 </r>
       <r>   -13.3367     0.0000     0.0000 </r>
       <r>   -13.2294     0.0000     0.0000 </r>
       <r>   -13.1221     0.0000     0.0000 </r>
       <r>   -13.0148     0.0000     0.0000 </r>
       <r>   -12.9074     0.0000     0.0000 </r>
       <r>   -12.8001     0.0022     0.0002 </r>
       <r>   -12.6928     0.4192     0.0452 </r>
       <r>   -12.5855     2.2653     0.2883 </r>
       <r>   -12.4782     3.5155     0.6656 </r>
       <r>   -12.3709     4.3428     1.1316 </r>
       <r>   -12.2636     3.5708     1.5148 </r>
       <r>   -12.1562     2.8665     1.8224 </r>
       <r>   -12.0489     2.6286     2.1045 </r>
       <r>   -11.9416     2.5851     2.3819 </r>
       <r>   -11.8343     2.7384     2.6758 </r>
       <r>   -11.7270     3.3207     3.0322 </r>
       <r>   -11.6197     3.6290     3.4216 </r>
       <r>   -11.5124     3.1440     3.7590 </r>
       <r>   -11.4051     1.7553     3.9474 </r>
       <r>   -11.2977     0.4801     3.9989 </r>
       <r>   -11.1904     0.0105     4.0000 </r>
       <r>   -11.0831     0.0000     4.0000 </r>
       <r>   -10.9758     0.0000     4.0000 </r>
       <r>   -10.8685     0.0000     4.0000 </r>
       <r>   -10.7612     0.0000     4.0000 </r>
       <r>   -10.6539     0.0000     4.0000 </r>
       <r>   -10.5466     0.0000     4.0000 </r>
       <r>   -10.4392     0.0000     4.0000 </r>
       <r>   -10.3319     0.0000     4.0000 </r>
       <r>   -10.2246     0.0000     4.0000 </r>
       <r>   -10.1173     0.0000     4.0000 </r>
       <r>   -10.0100     0.0000     4.0000 </r>
       <r>    -9.9027     0.0000     4.0000 </r>
       <r>    -9.7954     0.0000     4.0000 </r>
       <r>    -9.6880     0.0000     4.0000 </r>
       <r>    -9.5807     0.0000     4.0000 </r>
       <r>    -9.4734     0.0000     4.0000 </r>
       <r>    -9.3661     0.0000     4.0000 </r>
       <r>    -9.2588     0.0000     4.0000 </r>
       <r>    -9.1515     0.0000     4.0000 </r>
       <r>    -9.0442     0.0000     4.0000 </r>
       <r>    -8.9369     0.0004     4.0000 </r>
       <r>    -8.8295     0.2428     4.0261 </r>
       <r>    -8.7222     2.0105     4.2419 </r>
       <r>    -8.6149     5.1789     4.7976 </r>
       <r>    -8.5076     7.0067     5.5495 </r>
       <r>    -8.4003     6.3230     6.2281 </r>
       <r>    -8.2930     5.3295     6.8000 </r>
       <r>    -8.1857     4.8939     7.3252 </r>
       <r>    -8.0783     3.8913     7.7428 </r>
       <r>    -7.9710     1.7371     7.9292 </r>
       <r>    -7.8637     0.6039     7.9940 </r>
       <r>    -7.7564     0.0558     8.0000 </r>
       <r>    -7.6491     0.0001     8.0000 </r>
       <r>    -7.5418     0.0000     8.0000 </r>
       <r>    -7.4345     0.0000     8.0000 </r>
       <r>    -7.3272     0.0000     8.0000 </r>
       <r>    -7.2198     0.0000     8.0000 </r>
       <r>    -7.1125     0.0000     8.0000 </r>
       <r>    -7.0052     0.0027     8.0003 </r>
       <r>    -6.8979     0.0889     8.0098 </r>
       <r>    -6.7906     0.2830     8.0402 </r>
       <r>    -6.6833     0.4431     8.0877 </r>
       <r>    -6.5760     0.7001     8.1629 </r>
       <r>    -6.4686     0.8289     8.2518 </r>
       <r>    -6.3613     1.5135     8.4143 </r>
       <r>    -6.2540     1.9757     8.6263 </r>
       <r>    -6.1467     2.9381     8.9416 </r>
       <r>    -6.0394     3.9050     9.3606 </r>
       <r>    -5.9321     3.9969     9.7896 </r>
       <r>    -5.8248     3.9744    10.2161 </r>
       <r>    -5.7175     4.1876    10.6654 </r>
       <r>    -5.6101     3.9733    11.0918 </r>
       <r>    -5.5028     4.0889    11.5306 </r>
       <r>    -5.3955     4.4259    12.0056 </r>
       <r>    -5.2882     4.8291    12.5238 </r>
       <r>    -5.1809     4.3744    12.9933 </r>
       <r>    -5.0736     3.9377    13.4158 </r>
       <r>    -4.9663     3.5576    13.7976 </r>
       <r>    -4.8589     2.3764    14.0526 </r>
       <r>    -4.7516     2.3728    14.3072 </r>
       <r>    -4.6443     3.0884    14.6387 </r>
       <r>    -4.5370     3.4623    15.0102 </r>
       <r>    -4.4297     3.5211    15.3881 </r>
       <r>    -4.3224     3.0466    15.7150 </r>
       <r>    -4.2151     3.1238    16.0502 </r>
       <r>    -4.1078     2.7136    16.3414 </r>
       <r>    -4.0004     3.1221    16.6765 </r>
       <r>    -3.8931     2.8459    16.9819 </r>
       <r>    -3.7858     3.0932    17.3138 </r>
       <r>    -3.6785     3.0129    17.6372 </r>
       <r>    -3.5712     2.5636    17.9123 </r>
       <r>    -3.4639     2.9448    18.2283 </r>
       <r>    -3.3566     2.8110    18.5299 </r>
       <r>    -3.2493     2.7786    18.8281 </r>
       <r>    -3.1419     2.6799    19.1157 </r>
       <r>    -3.0346     2.7886    19.4150 </r>
       <r>    -2.9273     3.2825    19.7672 </r>
       <r>    -2.8200     2.8286    20.0708 </r>
       <r>    -2.7127     2.3321    20.3210 </r>
       <r>    -2.6054     2.6094    20.6010 </r>
       <r>    -2.4981     2.8817    20.9103 </r>
       <r>    -2.3907     3.2936    21.2637 </r>
       <r>    -2.2834     3.5856    21.6485 </r>
       <r>    -2.1761     3.6367    22.0388 </r>
       <r>    -2.0688     3.1619    22.3781 </r>
       <r>    -1.9615     3.9103    22.7977 </r>
       <r>    -1.8542     5.0651    23.3413 </r>
       <r>    -1.7469     5.3811    23.9187 </r>
       <r>    -1.6396     5.7652    24.5374 </r>
       <r>    -1.5322     6.0860    25.1905 </r>
       <r>    -1.4249     5.9497    25.8290 </r>
       <r>    -1.3176     6.2312    26.4977 </r>
       <r>    -1.2103     4.6508    26.9968 </r>
       <r>    -1.1030     5.4851    27.5854 </r>
       <r>    -0.9957     4.2277    28.0391 </r>
       <r>    -0.8884     2.7497    28.3342 </r>
       <r>    -0.7810     2.2008    28.5704 </r>
       <r>    -0.6737     3.3581    28.9307 </r>
       <r>    -0.5664     4.9911    29.4664 </r>
       <r>    -0.4591     5.8700    30.0963 </r>
       <r>    -0.3518     6.0379    30.7442 </r>
       <r>    -0.2445     6.7082    31.4641 </r>
       <r>    -0.1372     6.5515    32.1672 </r>
       <r>    -0.0299     6.5962    32.8750 </r>
       <r>     0.0775     6.7786    33.6024 </r>
       <r>     0.1848     6.6816    34.3195 </r>
       <r>     0.2921     8.0886    35.1875 </r>
       <r>     0.3994     8.3396    36.0824 </r>
       <r>     0.5067     8.8603    37.0333 </r>
       <r>     0.6140     5.1459    37.5855 </r>
       <r>     0.7213     2.8549    37.8919 </r>
       <r>     0.8287     3.0390    38.2180 </r>
       <r>     0.9360     3.1039    38.5511 </r>
       <r>     1.0433     3.5905    38.9364 </r>
       <r>     1.1506     3.9732    39.3628 </r>
       <r>     1.2579     3.4068    39.7284 </r>
       <r>     1.3652     3.6127    40.1160 </r>
       <r>     1.4725     4.1885    40.5655 </r>
       <r>     1.5798     3.6081    40.9527 </r>
       <r>     1.6872     3.9177    41.3731 </r>
       <r>     1.7945     3.6950    41.7697 </r>
       <r>     1.9018     2.6947    42.0589 </r>
       <r>     2.0091     2.3570    42.3118 </r>
       <r>     2.1164     2.6961    42.6011 </r>
       <r>     2.2237     2.7594    42.8972 </r>
       <r>     2.3310     2.0364    43.1158 </r>
       <r>     2.4384     1.2154    43.2462 </r>
       <r>     2.5457     0.8739    43.3400 </r>
       <r>     2.6530     0.8236    43.4284 </r>
       <r>     2.7603     0.8166    43.5160 </r>
       <r>     2.8676     0.6155    43.5820 </r>
       <r>     2.9749     0.4142    43.6265 </r>
       <r>     3.0822     0.3918    43.6685 </r>
       <r>     3.1895     0.4565    43.7175 </r>
       <r>     3.2969     0.6253    43.7846 </r>
       <r>     3.4042     0.4349    43.8313 </r>
       <r>     3.5115     0.2087    43.8537 </r>
       <r>     3.6188     0.3042    43.8863 </r>
       <r>     3.7261     0.3976    43.9290 </r>
       <r>     3.8334     0.3297    43.9644 </r>
       <r>     3.9407     0.1906    43.9849 </r>
       <r>     4.0480     0.1239    43.9982 </r>
       <r>     4.1554     0.0173    44.0000 </r>
       <r>     4.2627     0.0385    44.0041 </r>
       <r>     4.3700     0.2201    44.0278 </r>
       <r>     4.4773     0.3569    44.0661 </r>
       <r>     4.5846     0.4948    44.1192 </r>
       <r>     4.6919     0.7283    44.1973 </r>
       <r>     4.7992     0.7759    44.2806 </r>
       <r>     4.9066     0.9097    44.3782 </r>
       <r>     5.0139     0.9610    44.4813 </r>
       <r>     5.1212     1.0896    44.5983 </r>
       <r>     5.2285     1.3304    44.7410 </r>
       <r>     5.3358     1.7364    44.9274 </r>
       <r>     5.4431     1.9952    45.1415 </r>
       <r>     5.5504     2.6140    45.4220 </r>
       <r>     5.6577     2.7893    45.7213 </r>
       <r>     5.7651     3.4234    46.0887 </r>
       <r>     5.8724     3.5642    46.4712 </r>
       <r>     5.9797     4.0107    46.9016 </r>
       <r>     6.0870     4.5421    47.3890 </r>
       <r>     6.1943     4.7041    47.8938 </r>
       <r>     6.3016     4.2059    48.3452 </r>
       <r>     6.4089     3.9970    48.7741 </r>
       <r>     6.5163     4.4539    49.2521 </r>
       <r>     6.6236     4.0122    49.6826 </r>
       <r>     6.7309     3.6545    50.0748 </r>
       <r>     6.8382     3.7364    50.4758 </r>
       <r>     6.9455     4.3590    50.9436 </r>
       <r>     7.0528     4.9650    51.4764 </r>
       <r>     7.1601     4.9029    52.0025 </r>
       <r>     7.2674     5.0981    52.5496 </r>
       <r>     7.3748     4.6679    53.0505 </r>
       <r>     7.4821     4.4943    53.5328 </r>
       <r>     7.5894     4.1338    53.9764 </r>
       <r>     7.6967     3.4946    54.3515 </r>
       <r>     7.8040     3.0874    54.6828 </r>
       <r>     7.9113     3.4079    55.0485 </r>
       <r>     8.0186     3.1250    55.3838 </r>
       <r>     8.1260     3.5133    55.7609 </r>
       <r>     8.2333     3.9185    56.1814 </r>
       <r>     8.3406     4.0198    56.6128 </r>
       <r>     8.4479     4.2572    57.0696 </r>
       <r>     8.5552     3.9473    57.4932 </r>
       <r>     8.6625     4.1576    57.9394 </r>
       <r>     8.7698     4.7210    58.4460 </r>
       <r>     8.8771     5.1093    58.9943 </r>
       <r>     8.9845     5.3866    59.5723 </r>
       <r>     9.0918     5.0087    60.1098 </r>
       <r>     9.1991     4.8591    60.6313 </r>
       <r>     9.3064     4.9774    61.1654 </r>
       <r>     9.4137     4.8397    61.6848 </r>
       <r>     9.5210     5.0612    62.2279 </r>
       <r>     9.6283     4.2558    62.6846 </r>
       <r>     9.7357     4.9507    63.2159 </r>
       <r>     9.8430     5.3929    63.7946 </r>
       <r>     9.9503     4.9918    64.3303 </r>
       <r>    10.0576     4.1171    64.7721 </r>
       <r>    10.1649     4.0078    65.2022 </r>
       <r>    10.2722     4.4286    65.6775 </r>
       <r>    10.3795     4.8437    66.1973 </r>
       <r>    10.4868     5.6768    66.8065 </r>
       <r>    10.5942     5.2089    67.3655 </r>
       <r>    10.7015     4.2314    67.8195 </r>
       <r>    10.8088     3.9824    68.2469 </r>
       <r>    10.9161     3.4745    68.6198 </r>
       <r>    11.0234     4.7599    69.1306 </r>
       <r>    11.1307     5.1864    69.6871 </r>
       <r>    11.2380     6.2446    70.3573 </r>
       <r>    11.3454     5.7920    70.9788 </r>
       <r>    11.4527     4.9400    71.5089 </r>
       <r>    11.5600     4.9282    72.0378 </r>
       <r>    11.6673     4.6081    72.5323 </r>
       <r>    11.7746     4.7996    73.0474 </r>
       <r>    11.8819     4.9432    73.5779 </r>
       <r>    11.9892     5.9783    74.2194 </r>
       <r>    12.0965     6.0142    74.8648 </r>
       <r>    12.2039     5.8385    75.4914 </r>
       <r>    12.3112     5.0844    76.0370 </r>
       <r>    12.4185     5.3806    76.6144 </r>
       <r>    12.5258     6.1360    77.2729 </r>
       <r>    12.6331     5.9128    77.9074 </r>
       <r>    12.7404     5.7917    78.5289 </r>
       <r>    12.8477     5.5899    79.1288 </r>
       <r>    12.9550     6.2498    79.7995 </r>
       <r>    13.0624     6.0947    80.4535 </r>
       <r>    13.1697     5.9765    81.0949 </r>
       <r>    13.2770     6.0561    81.7448 </r>
       <r>    13.3843     5.7140    82.3580 </r>
       <r>    13.4916     5.6738    82.9668 </r>
       <r>    13.5989     4.9708    83.5003 </r>
       <r>    13.7062     5.5969    84.1009 </r>
       <r>    13.8136     5.5323    84.6946 </r>
       <r>    13.9209     5.6497    85.3008 </r>
       <r>    14.0282     5.9108    85.9352 </r>
       <r>    14.1355     4.8739    86.4582 </r>
       <r>    14.2428     4.8169    86.9751 </r>
       <r>    14.3501     4.9848    87.5100 </r>
       <r>    14.4574     4.9879    88.0453 </r>
       <r>    14.5647     5.0667    88.5890 </r>
       <r>    14.6721     5.4518    89.1741 </r>
       <r>    14.7794     4.4654    89.6533 </r>
       <r>    14.8867     4.1701    90.1008 </r>
       <r>    14.9940     5.4125    90.6816 </r>
       <r>    15.1013     6.2180    91.3489 </r>
       <r>    15.2086     5.6181    91.9518 </r>
       <r>    15.3159     5.9859    92.5942 </r>
       <r>    15.4233     5.7854    93.2150 </r>
       <r>    15.5306     5.9744    93.8561 </r>
       <r>    15.6379     5.4896    94.4452 </r>
       <r>    15.7452     4.1932    94.8952 </r>
       <r>    15.8525     2.7624    95.1917 </r>
       <r>    15.9598     2.1675    95.4243 </r>
       <r>    16.0671     1.6295    95.5991 </r>
       <r>    16.1744     1.2293    95.7311 </r>
       <r>    16.2818     0.9757    95.8358 </r>
       <r>    16.3891     0.8574    95.9278 </r>
       <r>    16.4964     0.5510    95.9869 </r>
       <r>    16.6037     0.1213    95.9999 </r>
       <r>    16.7110     0.0009    96.0000 </r>
       <r>    16.8183     0.0000    96.0000 </r>
       <r>    16.9256     0.0000    96.0000 </r>
       <r>    17.0330     0.0000    96.0000 </r>
       <r>    17.1403     0.0000    96.0000 </r>
       <r>    17.2476     0.0000    96.0000 </r>
       <r>    17.3549     0.0000    96.0000 </r>
       <r>    17.4622     0.0000    96.0000 </r>
       <r>    17.5695     0.0000    96.0000 </r>
       <r>    17.6768     0.0000    96.0000 </r>
       <r>    17.7841     0.0000    96.0000 </r>
       <r>    17.8915     0.0000    96.0000 </r>
       <r>    17.9988     0.0000    96.0000 </r>
      </set>
     </set>
    </array>
   </total>
  </dos>
 </calculation>
 <structure name="finalpos" >
  <crystal>
   <varray name="basis" >
    <v>       5.69700000       0.00000000       0.00000000 </v>
    <v>       0.00000000       4.04790000       0.00000000 </v>
    <v>       0.00000000       0.00000000       6.20420000 </v>
   </varray>
   <i name="volume">    143.07435078 </i>
   <varray name="rec_basis" >
    <v>       0.17553098       0.00000000       0.00000000 </v>
    <v>       0.00000000       0.24704168       0.00000000 </v>
    <v>       0.00000000       0.00000000       0.16118114 </v>
   </varray>
  </crystal>
  <varray name="positions" >
   <v>       0.52123000       0.50000000       0.63796000 </v>
   <v>       0.47877000       0.50000000       0.36204000 </v>
   <v>       0.97877000       0.50000000       0.63796000 </v>
   <v>       0.02123000       0.50000000       0.36204000 </v>
   <v>       0.60090000       0.50000000       0.89991000 </v>
   <v>       0.39910000       0.50000000       0.10009000 </v>
   <v>       0.89910000       0.50000000       0.89991000 </v>
   <v>       0.10090000       0.50000000       0.10009000 </v>
   <v>       0.75000000       0.79171000       0.72973000 </v>
   <v>       0.25000000       0.20829000       0.27027000 </v>
   <v>       0.75000000       0.20829000       0.72973000 </v>
   <v>       0.25000000       0.79171000       0.27027000 </v>
   <v>       0.25000000       0.50000000       0.52367000 </v>
   <v>       0.75000000       0.50000000       0.47633000 </v>
  </varray>
 </structure>
</modeling>
