<?xml version="1.0" encoding="ISO-8859-1"?>
<modeling>
 <generator>
  <i name="program" type="string">vasp </i>
  <i name="version" type="string">6.4.3  </i>
  <i name="subversion" type="string">19Mar24 (build May 31 2024 16:31:43) complex                          parallel </i>
  <i name="platform" type="string">LinuxIFC </i>
  <i name="date" type="string">2024 10 31 </i>
  <i name="time" type="string">00:21:47 </i>
 </generator>
 <incar>
  <i type="string" name="SYSTEM">Kpoints</i>
  <i type="int" name="ISTART">     0</i>
  <i type="string" name="PREC">Accurate</i>
  <i type="string" name="ALGO">Normal</i>
  <i type="int" name="ISPIN">     1</i>
  <i type="int" name="ICHARG">     2</i>
  <i type="int" name="NELM">   100</i>
  <i type="int" name="IBRION">    -1</i>
  <i name="EDIFF">      0.00000100</i>
  <i name="EDIFFG">     -0.00100000</i>
  <i type="int" name="NSW">     0</i>
  <i type="int" name="ISIF">     2</i>
  <i name="ENCUT">    480.00000000</i>
  <i name="POTIM">      0.50000000</i>
  <i type="int" name="ISMEAR">     0</i>
  <i name="SIGMA">      0.05000000</i>
  <i type="logical" name="LWAVE"> F  </i>
  <i type="logical" name="LCHARG"> F  </i>
  <i type="string" name="GGA">PE</i>
 </incar>
 <primitive_cell>
  <structure name="primitive_cell" >
   <crystal>
    <varray name="basis" >
     <v>       5.69700000       0.00000000       0.00000000 </v>
     <v>       0.00000000       4.04790000       0.00000000 </v>
     <v>       0.00000000       0.00000000       6.20420000 </v>
    </varray>
    <i name="volume">    143.07435078 </i>
    <varray name="rec_basis" >
     <v>       0.17553098       0.00000000       0.00000000 </v>
     <v>       0.00000000       0.24704168       0.00000000 </v>
     <v>       0.00000000       0.00000000       0.16118114 </v>
    </varray>
   </crystal>
   <varray name="positions" >
    <v>       0.52123000       0.50000000       0.63796000 </v>
    <v>       0.47877000       0.50000000       0.36204000 </v>
    <v>       0.97877000       0.50000000       0.63796000 </v>
    <v>       0.02123000       0.50000000       0.36204000 </v>
    <v>       0.60090000       0.50000000       0.89991000 </v>
    <v>       0.39910000       0.50000000       0.10009000 </v>
    <v>       0.89910000       0.50000000       0.89991000 </v>
    <v>       0.10090000       0.50000000       0.10009000 </v>
    <v>       0.75000000       0.79171000       0.72973000 </v>
    <v>       0.25000000       0.20829000       0.27027000 </v>
    <v>       0.75000000       0.20829000       0.72973000 </v>
    <v>       0.25000000       0.79171000       0.27027000 </v>
    <v>       0.25000000       0.50000000       0.52367000 </v>
    <v>       0.75000000       0.50000000       0.47633000 </v>
   </varray>
  </structure>
  <varray name="primitive_index" >
   <v type="int" >        1 </v>
   <v type="int" >        2 </v>
   <v type="int" >        3 </v>
   <v type="int" >        4 </v>
   <v type="int" >        5 </v>
   <v type="int" >        6 </v>
   <v type="int" >        7 </v>
   <v type="int" >        8 </v>
   <v type="int" >        9 </v>
   <v type="int" >       10 </v>
   <v type="int" >       11 </v>
   <v type="int" >       12 </v>
   <v type="int" >       13 </v>
   <v type="int" >       14 </v>
  </varray>
 </primitive_cell>
 <kpoints>
  <generation param="Monkhorst-Pack">
   <v type="int" name="divisions">       6        8        6 </v>
   <v name="usershift">      0.00000000       0.00000000       0.00000000 </v>
   <v name="genvec1">      0.16666667       0.00000000       0.00000000 </v>
   <v name="genvec2">      0.00000000       0.12500000       0.00000000 </v>
   <v name="genvec3">      0.00000000       0.00000000       0.16666667 </v>
   <v name="shift">      0.50000000       0.50000000       0.50000000 </v>
  </generation>
  <varray name="kpointlist" >
   <v>       0.08333333       0.06250000       0.08333333 </v>
   <v>       0.25000000       0.06250000       0.08333333 </v>
   <v>       0.41666667       0.06250000       0.08333333 </v>
   <v>       0.08333333       0.18750000       0.08333333 </v>
   <v>       0.25000000       0.18750000       0.08333333 </v>
   <v>       0.41666667       0.18750000       0.08333333 </v>
   <v>       0.08333333       0.31250000       0.08333333 </v>
   <v>       0.25000000       0.31250000       0.08333333 </v>
   <v>       0.41666667       0.31250000       0.08333333 </v>
   <v>       0.08333333       0.43750000       0.08333333 </v>
   <v>       0.25000000       0.43750000       0.08333333 </v>
   <v>       0.41666667       0.43750000       0.08333333 </v>
   <v>       0.08333333       0.06250000       0.25000000 </v>
   <v>       0.25000000       0.06250000       0.25000000 </v>
   <v>       0.41666667       0.06250000       0.25000000 </v>
   <v>       0.08333333       0.18750000       0.25000000 </v>
   <v>       0.25000000       0.18750000       0.25000000 </v>
   <v>       0.41666667       0.18750000       0.25000000 </v>
   <v>       0.08333333       0.31250000       0.25000000 </v>
   <v>       0.25000000       0.31250000       0.25000000 </v>
   <v>       0.41666667       0.31250000       0.25000000 </v>
   <v>       0.08333333       0.43750000       0.25000000 </v>
   <v>       0.25000000       0.43750000       0.25000000 </v>
   <v>       0.41666667       0.43750000       0.25000000 </v>
   <v>       0.08333333       0.06250000       0.41666667 </v>
   <v>       0.25000000       0.06250000       0.41666667 </v>
   <v>       0.41666667       0.06250000       0.41666667 </v>
   <v>       0.08333333       0.18750000       0.41666667 </v>
   <v>       0.25000000       0.18750000       0.41666667 </v>
   <v>       0.41666667       0.18750000       0.41666667 </v>
   <v>       0.08333333       0.31250000       0.41666667 </v>
   <v>       0.25000000       0.31250000       0.41666667 </v>
   <v>       0.41666667       0.31250000       0.41666667 </v>
   <v>       0.08333333       0.43750000       0.41666667 </v>
   <v>       0.25000000       0.43750000       0.41666667 </v>
   <v>       0.41666667       0.43750000       0.41666667 </v>
  </varray>
  <varray name="weights" >
   <v>       0.02777778 </v>
   <v>       0.02777778 </v>
   <v>       0.02777778 </v>
   <v>       0.02777778 </v>
   <v>       0.02777778 </v>
   <v>       0.02777778 </v>
   <v>       0.02777778 </v>
   <v>       0.02777778 </v>
   <v>       0.02777778 </v>
   <v>       0.02777778 </v>
   <v>       0.02777778 </v>
   <v>       0.02777778 </v>
   <v>       0.02777778 </v>
   <v>       0.02777778 </v>
   <v>       0.02777778 </v>
   <v>       0.02777778 </v>
   <v>       0.02777778 </v>
   <v>       0.02777778 </v>
   <v>       0.02777778 </v>
   <v>       0.02777778 </v>
   <v>       0.02777778 </v>
   <v>       0.02777778 </v>
   <v>       0.02777778 </v>
   <v>       0.02777778 </v>
   <v>       0.02777778 </v>
   <v>       0.02777778 </v>
   <v>       0.02777778 </v>
   <v>       0.02777778 </v>
   <v>       0.02777778 </v>
   <v>       0.02777778 </v>
   <v>       0.02777778 </v>
   <v>       0.02777778 </v>
   <v>       0.02777778 </v>
   <v>       0.02777778 </v>
   <v>       0.02777778 </v>
   <v>       0.02777778 </v>
  </varray>
 </kpoints>
 <parameters>
  <separator name="general" >
   <i type="string" name="SYSTEM">Kpoints</i>
   <i type="logical" name="LCOMPAT"> F  </i>
  </separator>
  <separator name="electronic" >
   <i type="string" name="PREC">accura</i>
   <i name="ENMAX">    480.00000000</i>
   <i name="ENAUG">    535.51400000</i>
   <i name="EDIFF">      0.00000100</i>
   <i type="int" name="IALGO">    38</i>
   <i type="int" name="IWAVPR">    10</i>
   <i type="int" name="NBANDS">    48</i>
   <i type="int" name="NBANDSLOW">    -1</i>
   <i type="int" name="NBANDSHIGH">    -1</i>
   <i name="NELECT">     42.00000000</i>
   <i type="int" name="TURBO">     0</i>
   <i type="int" name="IRESTART">     0</i>
   <i type="int" name="NREBOOT">     0</i>
   <i type="int" name="NMIN">     0</i>
   <i name="EREF">      0.00000000</i>
   <separator name="electronic smearing" >
    <i type="int" name="ISMEAR">     0</i>
    <i name="SIGMA">      0.05000000</i>
    <i name="KSPACING">      0.50000000</i>
    <i type="logical" name="KGAMMA"> T  </i>
    <i type="logical" name="KBLOWUP"> T  </i>
   </separator>
   <separator name="electronic projectors" >
    <i type="logical" name="LREAL"> F  </i>
    <v name="ROPT">      0.00000000</v>
    <i type="int" name="LMAXPAW">  -100</i>
    <i type="int" name="LMAXMIX">     2</i>
    <i type="logical" name="NLSPLINE"> F  </i>
   </separator>
   <separator name="electronic startup" >
    <i type="int" name="ISTART">     0</i>
    <i type="int" name="ICHARG">     2</i>
    <i type="int" name="INIWAV">     1</i>
   </separator>
   <separator name="electronic spin" >
    <i type="int" name="ISPIN">     1</i>
    <i type="logical" name="LNONCOLLINEAR"> F  </i>
    <v name="MAGMOM">      1.00000000      1.00000000      1.00000000      1.00000000      1.00000000      1.00000000      1.00000000      1.00000000      1.00000000      1.00000000      1.00000000      1.00000000      1.00000000      1.00000000</v>
    <i name="NUPDOWN">     -1.00000000</i>
    <i type="logical" name="LSORBIT"> F  </i>
    <v name="SAXIS">      0.00000000      0.00000000      1.00000000</v>
    <i type="logical" name="LSPIRAL"> F  </i>
    <v name="QSPIRAL">      0.00000000      0.00000000      0.00000000</v>
    <i type="logical" name="LZEROZ"> F  </i>
   </separator>
   <separator name="electronic exchange-correlation" >
    <i type="logical" name="LASPH"> F  </i>
   </separator>
   <separator name="electronic convergence" >
    <i type="int" name="NELM">   100</i>
    <i type="int" name="NELMDL">    -5</i>
    <i type="int" name="NELMIN">     2</i>
    <i name="ENINI">    480.00000000</i>
    <separator name="electronic convergence detail" >
     <i type="logical" name="LDIAG"> T  </i>
     <i type="logical" name="LSUBROT"> F  </i>
     <i name="WEIMIN">      0.00000000</i>
     <i name="EBREAK">      0.00000001</i>
     <i name="DEPER">      0.30000000</i>
     <i type="int" name="NRMM">     4</i>
     <i name="TIME">      0.40000000</i>
    </separator>
   </separator>
   <separator name="electronic mixer" >
    <i name="AMIX">      0.40000000</i>
    <i name="BMIX">      1.00000000</i>
    <i name="AMIN">      0.10000000</i>
    <i name="AMIX_MAG">      1.60000000</i>
    <i name="BMIX_MAG">      1.00000000</i>
    <separator name="electronic mixer details" >
     <i type="int" name="IMIX">     4</i>
     <i type="logical" name="MIXFIRST"> F  </i>
     <i type="int" name="MAXMIX">   -45</i>
     <i name="WC">    100.00000000</i>
     <i type="int" name="INIMIX">     1</i>
     <i type="int" name="MIXPRE">     1</i>
     <i type="int" name="MREMOVE">     5</i>
    </separator>
   </separator>
   <separator name="electronic dipolcorrection" >
    <i type="logical" name="LDIPOL"> F  </i>
    <i type="logical" name="LMONO"> F  </i>
    <i type="int" name="IDIPOL">     0</i>
    <i name="EPSILON">      1.00000000</i>
    <v name="DIPOL">   -100.00000000   -100.00000000   -100.00000000</v>
    <i name="EFIELD">      0.00000000</i>
    <i type="logical" name="LVACPOTAV"> F  </i>
   </separator>
  </separator>
  <separator name="grids" >
   <i type="int" name="NGX">    42</i>
   <i type="int" name="NGY">    30</i>
   <i type="int" name="NGZ">    48</i>
   <i type="int" name="NGXF">    84</i>
   <i type="int" name="NGYF">    60</i>
   <i type="int" name="NGZF">    96</i>
   <i type="logical" name="ADDGRID"> F  </i>
  </separator>
  <separator name="ionic" >
   <i type="int" name="NSW">     0</i>
   <i type="int" name="IBRION">    -1</i>
   <i type="int" name="MDALGO">     0</i>
   <i type="int" name="ISIF">     2</i>
   <i name="PSTRESS">      0.00000000</i>
   <i name="EDIFFG">     -0.00100000</i>
   <i type="int" name="NFREE">     0</i>
   <i name="POTIM">      0.50000000</i>
   <i name="SMASS">     -3.00000000</i>
   <i name="SCALEE">      1.00000000</i>
  </separator>
  <separator name="ionic md" >
   <i name="TEBEG">      0.00010000</i>
   <i name="TEEND">      0.00010000</i>
   <i type="int" name="NBLOCK">     1</i>
   <i type="int" name="KBLOCK">     1</i>
   <i type="int" name="NPACO">   256</i>
   <i name="APACO">     10.00000000</i>
  </separator>
  <separator name="symmetry" >
   <i type="int" name="ISYM">     2</i>
   <i name="SYMPREC">      0.00001000</i>
  </separator>
  <separator name="dos" >
   <i type="int" name="LORBIT">     0</i>
   <v name="RWIGS">     -1.00000000</v>
   <i type="int" name="NEDOS">   301</i>
   <i name="EMIN">     10.00000000</i>
   <i name="EMAX">    -10.00000000</i>
   <i name="EFERMI">      0.00000000</i>
  </separator>
  <separator name="writing" >
   <i type="int" name="NWRITE">     2</i>
   <i type="logical" name="LWAVE"> F  </i>
   <i type="logical" name="LDOWNSAMPLE"> F  </i>
   <i type="logical" name="LCHARG"> F  </i>
   <i type="logical" name="LPARD"> F  </i>
   <i type="logical" name="LVTOT"> F  </i>
   <i type="logical" name="LVHAR"> F  </i>
   <i type="logical" name="LELF"> F  </i>
   <i type="logical" name="LOPTICS"> F  </i>
   <v name="STM">      0.00000000      0.00000000      0.00000000      0.00000000      0.00000000      0.00000000      0.00000000</v>
  </separator>
  <separator name="performance" >
   <i type="int" name="NPAR">    24</i>
   <i type="int" name="NSIM">     4</i>
   <i type="int" name="NBLK">    -1</i>
   <i type="logical" name="LPLANE"> T  </i>
   <i type="logical" name="LSCALAPACK"> T  </i>
   <i type="logical" name="LSCAAWARE"> F  </i>
   <i type="logical" name="LSCALU"> F  </i>
   <i type="logical" name="LASYNC"> F  </i>
   <i type="logical" name="LORBITALREAL"> F  </i>
  </separator>
  <separator name="miscellaneous" >
   <i type="int" name="IDIOT">     3</i>
   <i type="int" name="PHON_NSTRUCT">    -1</i>
   <i type="logical" name="LMUSIC"> F  </i>
   <v name="POMASS">     10.81100000</v>
   <v name="DARWINR">      0.00000000</v>
   <v name="DARWINV">      1.00000000</v>
   <i type="logical" name="LCORR"> T  </i>
  </separator>
  <i type="logical" name="GGA_COMPAT"> T  </i>
  <i type="logical" name="LBERRY"> F  </i>
  <i type="int" name="ICORELEVEL">     0</i>
  <i type="logical" name="LDAU"> F  </i>
  <i type="int" name="I_CONSTRAINED_M">     0</i>
  <separator name="electronic exchange-correlation" >
   <i type="string" name="GGA    ">PE</i>
   <i type="string" name="XC_C">1</i>
   <i type="int" name="VOSKOWN">     0</i>
   <i type="logical" name="LHFCALC"> F  </i>
   <i type="string" name="PRECFOCK"></i>
   <i type="logical" name="LSYMGRAD"> F  </i>
   <i type="logical" name="LHFONE"> F  </i>
   <i type="logical" name="LRHFCALC"> F  </i>
   <i type="logical" name="LTHOMAS"> F  </i>
   <i type="logical" name="LMODELHF"> F  </i>
   <i type="logical" name="LFOCKACE"> F  </i>
   <i name="ENCUT4O">     -1.00000000</i>
   <i type="int" name="EXXOEP">     0</i>
   <i type="int" name="FOURORBIT">     0</i>
   <i name="AEXX">      0.00000000</i>
   <i name="HFALPHA">      0.00000000</i>
   <i name="MCALPHA">      0.00000000</i>
   <i name="ALDAX">      1.00000000</i>
   <i name="AGGAX">      1.00000000</i>
   <i name="AMGGAX">      1.00000000</i>
   <i name="ALDAC">      1.00000000</i>
   <i name="AGGAC">      1.00000000</i>
   <i name="AMGGAC">      1.00000000</i>
   <i type="int" name="NKREDX">     1</i>
   <i type="int" name="NKREDY">     1</i>
   <i type="int" name="NKREDZ">     1</i>
   <i type="logical" name="SHIFTRED"> F  </i>
   <i type="logical" name="ODDONLY"> F  </i>
   <i type="logical" name="EVENONLY"> F  </i>
   <i type="int" name="LMAXFOCK">     0</i>
   <i type="int" name="NMAXFOCKAE">     0</i>
   <i type="logical" name="LFOCKAEDFT"> F  </i>
   <i name="HFSCREEN">      0.00000000</i>
   <i name="HFSCREENC">      0.00000000</i>
   <i type="int" name="NBANDSGWLOW">     0</i>
  </separator>
  <separator name="vdW DFT" >
   <i type="logical" name="LUSE_VDW"> F  </i>
   <i type="int" name="IVDW_NL">    -1</i>
   <i type="logical" name="LSPIN_VDW"> F  </i>
   <i name="ZAB_VDW">     -0.84910000</i>
   <i name="GAMMA_VDW">      1.39626340</i>
   <i name="ALPHA_VDW">      0.00000000</i>
   <i name="PARAM1">      0.12340000</i>
   <i name="PARAM2">      1.00000000</i>
   <i name="BPARAM">      6.30000000</i>
   <i name="CPARAM">      0.00930000</i>
  </separator>
  <separator name="model GW" >
   <i type="int" name="MODEL_GW">     0</i>
   <i name="MODEL_EPS0">      6.13175789</i>
   <i name="MODEL_ALPHA">      1.00000000</i>
  </separator>
  <separator name="linear response parameters" >
   <i type="logical" name="LEPSILON"> F  </i>
   <i type="logical" name="LRPA"> F  </i>
   <i type="logical" name="LNABLA"> F  </i>
   <i type="logical" name="LVEL"> F  </i>
   <i name="CSHIFT">      0.10000000</i>
   <i name="OMEGAMAX">     -1.00000000</i>
   <i name="DEG_THRESHOLD">      0.00200000</i>
   <i name="RTIME">     -0.10000000</i>
   <i name="WPLASMAI">      0.00000000</i>
   <v name="DFIELD">      0.00000000      0.00000000      0.00000000</v>
   <v name="WPLASMA">      0.00000000      0.00000000      0.00000000      0.00000000      0.00000000      0.00000000      0.00000000      0.00000000      0.00000000</v>
  </separator>
  <separator name="orbital magnetization" >
   <i type="logical" name="NUCIND"> F  </i>
   <v name="MAGPOS">      0.00000000      0.00000000      0.00000000</v>
   <i type="logical" name="LNICSALL"> T  </i>
   <i type="logical" name="ORBITALMAG"> F  </i>
   <i type="logical" name="LMAGBLOCH"> F  </i>
   <i type="logical" name="LCHIMAG"> F  </i>
   <i type="logical" name="LGAUGE"> T  </i>
   <i type="int" name="MAGATOM">     0</i>
   <v name="MAGDIPOL">      0.00000000      0.00000000      0.00000000</v>
   <v name="AVECCONST">      0.00000000      0.00000000      0.00000000</v>
  </separator>
  <separator name="response functions" >
   <i type="logical" name="LALL_IN_ONE"> F  </i>
   <i type="int" name="IALL_IN_ONE">    -1</i>
   <i type="int" name="NBANDS_WAVE">    -1</i>
   <i type="logical" name="LFINITE_TEMPERATURE"> F  </i>
   <i type="logical" name="LADDER"> F  </i>
   <i type="logical" name="LRPAFORCE"> F  </i>
   <i type="logical" name="LFXC"> F  </i>
   <i type="logical" name="LHARTREE"> T  </i>
   <i type="int" name="IBSE">     0</i>
   <v type="int" name="KPOINT">    -1     0     0     0</v>
   <i type="logical" name="LTCTC"> F  </i>
   <i type="logical" name="LTCTE"> F  </i>
   <i type="logical" name="LTETE"> F  </i>
   <i type="logical" name="LTRIPLET"> F  </i>
   <i type="logical" name="LFXCEPS"> F  </i>
   <i type="logical" name="LFXHEG"> F  </i>
   <i type="int" name="NATURALO">     2</i>
   <i type="logical" name="LHOLEGF"> F  </i>
   <i type="logical" name="L2ORDER"> F  </i>
   <i type="logical" name="LDMP1"> F  </i>
   <i type="logical" name="LMP2LT"> F  </i>
   <i type="logical" name="LSMP2LT"> F  </i>
   <i type="logical" name="LGWLF"> F  </i>
   <i name="ENCUTGW">     -1.60000002</i>
   <i name="ENCUTGWSOFT">     -1.60000002</i>
   <i name="ENCUTLF">     -1.00000000</i>
   <i type="logical" name="ESF_SPLINES"> F  </i>
   <i name="ESF_CONV">      0.01000000</i>
   <i type="int" name="ESF_NINTER">    15</i>
   <i type="int" name="LMAXMP2">    -1</i>
   <i name="SCISSOR">      0.00000000</i>
   <i type="int" name="NOMEGA">     0</i>
   <i type="int" name="NOMEGAR">     0</i>
   <i type="int" name="NBANDSGW">    -1</i>
   <i type="int" name="NBANDSO">    -1</i>
   <i type="int" name="NBANDSV">    -1</i>
   <i type="int" name="NELMGW">     1</i>
   <i type="int" name="NELMHF">     1</i>
   <i type="int" name="DIM">     3</i>
   <i type="int" name="IESPILON">     4</i>
   <i type="int" name="ANTIRES">     0</i>
   <i name="OMEGAMAX">    -30.00000000</i>
   <i name="OMEGAMIN">    -30.00000000</i>
   <i name="OMEGATL">   -200.00000000</i>
   <i type="int" name="OMEGAGRID">     0</i>
   <i name="CSHIFT">     -0.10000000</i>
   <i type="logical" name="LSELFENERGY"> F  </i>
   <i type="logical" name="LSPECTRAL"> F  </i>
   <i type="logical" name="LSPECTRALGW"> F  </i>
   <i type="logical" name="LSINGLES"> F  </i>
   <i type="logical" name="LFERMIGW"> F  </i>
   <i type="logical" name="ODDONLYGW"> F  </i>
   <i type="logical" name="EVENONLYGW"> F  </i>
   <i type="int" name="NKREDLFX">     1</i>
   <i type="int" name="NKREDLFY">     1</i>
   <i type="int" name="NKREDLFZ">     1</i>
   <i type="int" name="MAXMEM">  2800</i>
   <i type="int" name="TELESCOPE">     0</i>
   <i type="int" name="NTAUPAR">    -1</i>
   <i type="int" name="NOMEGAPAR">    -1</i>
   <i name="DAMP_NEWTON">      0.80000001</i>
   <i name="LAMBDA">      1.00000000</i>
  </separator>
  <separator name="External order field" >
   <i name="OFIELD_KAPPA">      0.00000000</i>
   <v name="OFIELD_K">      0.00000000      0.00000000      0.00000000</v>
   <i name="OFIELD_Q6_NEAR">      0.00000000</i>
   <i name="OFIELD_Q6_FAR">      0.00000000</i>
   <i name="OFIELD_A">      0.00000000</i>
  </separator>
  <separator name="optional k-points parameters" >
   <i type="int" name="KPOINTS_OPT_MODE">     1</i>
   <i type="logical" name="LKPOINTS_OPT"> F  </i>
  </separator>
 </parameters>
 <atominfo>
  <atoms>      14 </atoms>
  <types>       1 </types>
  <array name="atoms" >
   <dimension dim="1">ion</dimension>
   <field type="string">element</field>
   <field type="int">atomtype</field>
   <set>
    <rc><c>B </c><c>   1</c></rc>
    <rc><c>B </c><c>   1</c></rc>
    <rc><c>B </c><c>   1</c></rc>
    <rc><c>B </c><c>   1</c></rc>
    <rc><c>B </c><c>   1</c></rc>
    <rc><c>B </c><c>   1</c></rc>
    <rc><c>B </c><c>   1</c></rc>
    <rc><c>B </c><c>   1</c></rc>
    <rc><c>B </c><c>   1</c></rc>
    <rc><c>B </c><c>   1</c></rc>
    <rc><c>B </c><c>   1</c></rc>
    <rc><c>B </c><c>   1</c></rc>
    <rc><c>B </c><c>   1</c></rc>
    <rc><c>B </c><c>   1</c></rc>
   </set>
  </array>
  <array name="atomtypes" >
   <dimension dim="1">type</dimension>
   <field type="int">atomspertype</field>
   <field type="string">element</field>
   <field>mass</field>
   <field>valence</field>
   <field type="string">pseudopotential</field>
   <set>
    <rc><c>  14</c><c>B </c><c>     10.81100000</c><c>      3.00000000</c><c>  PAW_PBE B 06Sep2000                   </c></rc>
   </set>
  </array>
 </atominfo>
 <structure name="initialpos" >
  <crystal>
   <varray name="basis" >
    <v>       5.69700000       0.00000000       0.00000000 </v>
    <v>       0.00000000       4.04790000       0.00000000 </v>
    <v>       0.00000000       0.00000000       6.20420000 </v>
   </varray>
   <i name="volume">    143.07435078 </i>
   <varray name="rec_basis" >
    <v>       0.17553098       0.00000000       0.00000000 </v>
    <v>       0.00000000       0.24704168       0.00000000 </v>
    <v>       0.00000000       0.00000000       0.16118114 </v>
   </varray>
  </crystal>
  <varray name="positions" >
   <v>       0.52123000       0.50000000       0.63796000 </v>
   <v>       0.47877000       0.50000000       0.36204000 </v>
   <v>       0.97877000       0.50000000       0.63796000 </v>
   <v>       0.02123000       0.50000000       0.36204000 </v>
   <v>       0.60090000       0.50000000       0.89991000 </v>
   <v>       0.39910000       0.50000000       0.10009000 </v>
   <v>       0.89910000       0.50000000       0.89991000 </v>
   <v>       0.10090000       0.50000000       0.10009000 </v>
   <v>       0.75000000       0.79171000       0.72973000 </v>
   <v>       0.25000000       0.20829000       0.27027000 </v>
   <v>       0.75000000       0.20829000       0.72973000 </v>
   <v>       0.25000000       0.79171000       0.27027000 </v>
   <v>       0.25000000       0.50000000       0.52367000 </v>
   <v>       0.75000000       0.50000000       0.47633000 </v>
  </varray>
 </structure>
 <calculation>
  <scstep>
   <time name="dav">    1.05    1.16</time>
   <time name="total">    1.07    1.18</time>
   <energy>
    <i name="alphaZ">     94.24357992 </i>
    <i name="ewald">   -795.76658092 </i>
    <i name="hartreedc">   -271.33601302 </i>
    <i name="XCdc">     97.50108136 </i>
    <i name="pawpsdc">    608.99811708 </i>
    <i name="pawaedc">   -597.02363782 </i>
    <i name="eentropy">     -0.00057264 </i>
    <i name="bandstr">    -79.97743882 </i>
    <i name="atom">    996.36613177 </i>
    <i name="e_fr_energy">     53.00466691 </i>
    <i name="e_wo_entrp">     53.00523955 </i>
    <i name="e_0_energy">     53.00495323 </i>
   </energy>
  </scstep>
  <scstep>
   <time name="dav">    1.25    1.26</time>
   <time name="total">    1.25    1.26</time>
   <energy>
    <i name="e_fr_energy">    -92.97907155 </i>
    <i name="e_wo_entrp">    -92.97531651 </i>
    <i name="e_0_energy">    -92.97719403 </i>
   </energy>
  </scstep>
  <scstep>
   <time name="dav">    1.34    1.35</time>
   <time name="total">    1.34    1.35</time>
   <energy>
    <i name="e_fr_energy">    -97.59794970 </i>
    <i name="e_wo_entrp">    -97.59513192 </i>
    <i name="e_0_energy">    -97.59654081 </i>
   </energy>
  </scstep>
  <scstep>
   <time name="dav">    1.08    1.09</time>
   <time name="total">    1.08    1.09</time>
   <energy>
    <i name="e_fr_energy">    -97.62458363 </i>
    <i name="e_wo_entrp">    -97.62177833 </i>
    <i name="e_0_energy">    -97.62318098 </i>
   </energy>
  </scstep>
  <scstep>
   <time name="dav">    1.32    1.33</time>
   <time name="total">    1.34    1.36</time>
   <energy>
    <i name="e_fr_energy">    -97.62488532 </i>
    <i name="e_wo_entrp">    -97.62208015 </i>
    <i name="e_0_energy">    -97.62348274 </i>
   </energy>
  </scstep>
  <scstep>
   <time name="dav">    1.32    1.33</time>
   <time name="total">    1.36    1.37</time>
   <energy>
    <i name="e_fr_energy">    -92.20396378 </i>
    <i name="e_wo_entrp">    -92.19865183 </i>
    <i name="e_0_energy">    -92.20130780 </i>
   </energy>
  </scstep>
  <scstep>
   <time name="dav">    1.37    1.38</time>
   <time name="total">    1.40    1.42</time>
   <energy>
    <i name="e_fr_energy">    -90.57733660 </i>
    <i name="e_wo_entrp">    -90.57429408 </i>
    <i name="e_0_energy">    -90.57581534 </i>
   </energy>
  </scstep>
  <scstep>
   <time name="dav">    1.05    1.06</time>
   <time name="total">    1.08    1.09</time>
   <energy>
    <i name="e_fr_energy">    -90.57491653 </i>
    <i name="e_wo_entrp">    -90.57093868 </i>
    <i name="e_0_energy">    -90.57292760 </i>
   </energy>
  </scstep>
  <scstep>
   <time name="dav">    1.21    1.22</time>
   <time name="total">    1.24    1.25</time>
   <energy>
    <i name="e_fr_energy">    -90.59040942 </i>
    <i name="e_wo_entrp">    -90.58641971 </i>
    <i name="e_0_energy">    -90.58841457 </i>
   </energy>
  </scstep>
  <scstep>
   <time name="dav">    1.12    1.13</time>
   <time name="total">    1.15    1.16</time>
   <energy>
    <i name="e_fr_energy">    -90.59535393 </i>
    <i name="e_wo_entrp">    -90.59141155 </i>
    <i name="e_0_energy">    -90.59338274 </i>
   </energy>
  </scstep>
  <scstep>
   <time name="dav">    1.11    1.12</time>
   <time name="total">    1.15    1.15</time>
   <energy>
    <i name="e_fr_energy">    -90.59684713 </i>
    <i name="e_wo_entrp">    -90.59288186 </i>
    <i name="e_0_energy">    -90.59486450 </i>
   </energy>
  </scstep>
  <scstep>
   <time name="dav">    1.24    1.25</time>
   <time name="total">    1.28    1.29</time>
   <energy>
    <i name="e_fr_energy">    -90.59698484 </i>
    <i name="e_wo_entrp">    -90.59302116 </i>
    <i name="e_0_energy">    -90.59500300 </i>
   </energy>
  </scstep>
  <scstep>
   <time name="dav">    1.13    1.13</time>
   <time name="total">    1.16    1.17</time>
   <energy>
    <i name="e_fr_energy">    -90.59700782 </i>
    <i name="e_wo_entrp">    -90.59304686 </i>
    <i name="e_0_energy">    -90.59502734 </i>
   </energy>
  </scstep>
  <scstep>
   <time name="dav">    1.26    1.26</time>
   <time name="total">    1.27    1.27</time>
   <energy>
    <i name="alphaZ">     94.24357992 </i>
    <i name="ewald">   -795.76658092 </i>
    <i name="hartreedc">   -348.99642124 </i>
    <i name="XCdc">    101.58073712 </i>
    <i name="pawpsdc">   3721.47394121 </i>
    <i name="pawaedc">  -3710.66490933 </i>
    <i name="eentropy">     -0.00396162 </i>
    <i name="bandstr">   -148.82952561 </i>
    <i name="atom">    996.36613177 </i>
    <i name="e_fr_energy">    -90.59700870 </i>
    <i name="e_wo_entrp">    -90.59304707 </i>
    <i name="e_0_energy">    -90.59502788 </i>
   </energy>
  </scstep>
  <structure>
   <crystal>
    <varray name="basis" >
     <v>       5.69700000       0.00000000       0.00000000 </v>
     <v>       0.00000000       4.04790000       0.00000000 </v>
     <v>       0.00000000       0.00000000       6.20420000 </v>
    </varray>
    <i name="volume">    143.07435078 </i>
    <varray name="rec_basis" >
     <v>       0.17553098       0.00000000       0.00000000 </v>
     <v>       0.00000000       0.24704168       0.00000000 </v>
     <v>       0.00000000       0.00000000       0.16118114 </v>
    </varray>
   </crystal>
   <varray name="positions" >
    <v>       0.52123000       0.50000000       0.63796000 </v>
    <v>       0.47877000       0.50000000       0.36204000 </v>
    <v>       0.97877000       0.50000000       0.63796000 </v>
    <v>       0.02123000       0.50000000       0.36204000 </v>
    <v>       0.60090000       0.50000000       0.89991000 </v>
    <v>       0.39910000       0.50000000       0.10009000 </v>
    <v>       0.89910000       0.50000000       0.89991000 </v>
    <v>       0.10090000       0.50000000       0.10009000 </v>
    <v>       0.75000000       0.79171000       0.72973000 </v>
    <v>       0.25000000       0.20829000       0.27027000 </v>
    <v>       0.75000000       0.20829000       0.72973000 </v>
    <v>       0.25000000       0.79171000       0.27027000 </v>
    <v>       0.25000000       0.50000000       0.52367000 </v>
    <v>       0.75000000       0.50000000       0.47633000 </v>
   </varray>
  </structure>
  <varray name="forces" >
   <v>       0.05290756       0.00000000      -0.00818486 </v>
   <v>      -0.05290756      -0.00000000       0.00818486 </v>
   <v>      -0.05290756      -0.00000000      -0.00818486 </v>
   <v>       0.05290756      -0.00000000       0.00818486 </v>
   <v>      -0.81228109      -0.00000000       0.26967275 </v>
   <v>       0.81228109      -0.00000000      -0.26967275 </v>
   <v>       0.81228109      -0.00000000       0.26967275 </v>
   <v>      -0.81228109      -0.00000000      -0.26967275 </v>
   <v>       0.00000000       0.04094518      -0.06868316 </v>
   <v>       0.00000000      -0.04094518       0.06868316 </v>
   <v>       0.00000000      -0.04094518      -0.06868316 </v>
   <v>      -0.00000000       0.04094518       0.06868316 </v>
   <v>      -0.00000000       0.00000000      -0.01250251 </v>
   <v>      -0.00000000       0.00000000       0.01250251 </v>
  </varray>
  <varray name="stress" >
   <v>      12.03941957       0.00000000       0.00000000 </v>
   <v>       0.00000000       4.65491725       0.00000000 </v>
   <v>       0.00000000       0.00000000      -8.96639804 </v>
  </varray>
  <energy>
   <i name="e_fr_energy">    -90.59700870 </i>
   <i name="e_wo_entrp">    -90.59304707 </i>
   <i name="e_0_energy">    -90.59502788 </i>
  </energy>
  <time name="totalsc">   17.93   18.18</time>
  <eigenvalues>
   <array>
    <dimension dim="1">band</dimension>
    <dimension dim="2">kpoint</dimension>
    <dimension dim="3">spin</dimension>
    <field>eigene</field>
    <field>occ</field>
    <set>
     <set comment="spin 1">
      <set comment="kpoint 1">
       <r>  -12.7035    1.0000 </r>
       <r>  -11.6032    1.0000 </r>
       <r>   -8.6592    1.0000 </r>
       <r>   -8.3944    1.0000 </r>
       <r>   -6.1269    1.0000 </r>
       <r>   -5.2672    1.0000 </r>
       <r>   -4.6380    1.0000 </r>
       <r>   -4.2196    1.0000 </r>
       <r>   -4.0171    1.0000 </r>
       <r>   -3.3920    1.0000 </r>
       <r>   -2.8793    1.0000 </r>
       <r>   -2.1325    1.0000 </r>
       <r>   -1.5660    1.0000 </r>
       <r>   -1.2094    1.0000 </r>
       <r>   -0.1578    1.0000 </r>
       <r>   -0.0213    1.0000 </r>
       <r>    0.0289    1.0000 </r>
       <r>    0.1911    1.0000 </r>
       <r>    0.4469    1.0000 </r>
       <r>    1.8396    0.9997 </r>
       <r>    2.0336    0.0184 </r>
       <r>    2.3494    0.0000 </r>
       <r>    5.5180    0.0000 </r>
       <r>    5.7232    0.0000 </r>
       <r>    5.8230    0.0000 </r>
       <r>    6.0355    0.0000 </r>
       <r>    6.9377    0.0000 </r>
       <r>    7.4881    0.0000 </r>
       <r>    8.0131    0.0000 </r>
       <r>    8.4879    0.0000 </r>
       <r>    8.8343    0.0000 </r>
       <r>    9.1324    0.0000 </r>
       <r>    9.2109    0.0000 </r>
       <r>   10.3292    0.0000 </r>
       <r>   11.1541    0.0000 </r>
       <r>   11.2584    0.0000 </r>
       <r>   11.2852    0.0000 </r>
       <r>   11.7888    0.0000 </r>
       <r>   11.9779    0.0000 </r>
       <r>   12.5389    0.0000 </r>
       <r>   13.0688    0.0000 </r>
       <r>   13.3175    0.0000 </r>
       <r>   13.6217    0.0000 </r>
       <r>   15.0831    0.0000 </r>
       <r>   15.5229    0.0000 </r>
       <r>   15.8884    0.0000 </r>
       <r>   16.0773    0.0000 </r>
       <r>   16.3617    0.0000 </r>
      </set>
      <set comment="kpoint 2">
       <r>  -12.5845    1.0000 </r>
       <r>  -11.7882    1.0000 </r>
       <r>   -8.6297    1.0000 </r>
       <r>   -8.3666    1.0000 </r>
       <r>   -6.1056    1.0000 </r>
       <r>   -5.6158    1.0000 </r>
       <r>   -4.7719    1.0000 </r>
       <r>   -4.0261    1.0000 </r>
       <r>   -3.2800    1.0000 </r>
       <r>   -3.0705    1.0000 </r>
       <r>   -2.6667    1.0000 </r>
       <r>   -2.0807    1.0000 </r>
       <r>   -1.9311    1.0000 </r>
       <r>   -1.7412    1.0000 </r>
       <r>   -0.2817    1.0000 </r>
       <r>   -0.1495    1.0000 </r>
       <r>    0.1653    1.0000 </r>
       <r>    0.2411    1.0000 </r>
       <r>    0.3031    1.0000 </r>
       <r>    1.5722    1.0000 </r>
       <r>    1.9134    0.9050 </r>
       <r>    1.9915    0.1845 </r>
       <r>    5.5817    0.0000 </r>
       <r>    5.9305    0.0000 </r>
       <r>    6.1498    0.0000 </r>
       <r>    6.6428    0.0000 </r>
       <r>    6.7330    0.0000 </r>
       <r>    7.0289    0.0000 </r>
       <r>    8.2993    0.0000 </r>
       <r>    8.7768    0.0000 </r>
       <r>    8.9884    0.0000 </r>
       <r>    9.5039    0.0000 </r>
       <r>    9.9636    0.0000 </r>
       <r>   10.1567    0.0000 </r>
       <r>   10.3725    0.0000 </r>
       <r>   10.7027    0.0000 </r>
       <r>   11.3224    0.0000 </r>
       <r>   11.8856    0.0000 </r>
       <r>   12.3132    0.0000 </r>
       <r>   12.6410    0.0000 </r>
       <r>   12.8884    0.0000 </r>
       <r>   13.2546    0.0000 </r>
       <r>   14.3583    0.0000 </r>
       <r>   14.8534    0.0000 </r>
       <r>   15.2962    0.0000 </r>
       <r>   15.6346    0.0000 </r>
       <r>   16.0185    0.0000 </r>
       <r>   16.1712    0.0000 </r>
      </set>
      <set comment="kpoint 3">
       <r>  -12.3623    1.0000 </r>
       <r>  -12.0740    1.0000 </r>
       <r>   -8.5267    1.0000 </r>
       <r>   -8.4085    1.0000 </r>
       <r>   -6.1549    1.0000 </r>
       <r>   -5.9740    1.0000 </r>
       <r>   -4.1266    1.0000 </r>
       <r>   -3.7421    1.0000 </r>
       <r>   -3.3889    1.0000 </r>
       <r>   -3.1482    1.0000 </r>
       <r>   -2.3571    1.0000 </r>
       <r>   -2.0101    1.0000 </r>
       <r>   -1.9606    1.0000 </r>
       <r>   -1.8728    1.0000 </r>
       <r>   -0.7072    1.0000 </r>
       <r>   -0.4263    1.0000 </r>
       <r>    0.0854    1.0000 </r>
       <r>    0.2676    1.0000 </r>
       <r>    0.6759    1.0000 </r>
       <r>    1.2732    1.0000 </r>
       <r>    1.5168    1.0000 </r>
       <r>    1.7294    1.0000 </r>
       <r>    5.7379    0.0000 </r>
       <r>    5.9425    0.0000 </r>
       <r>    6.5525    0.0000 </r>
       <r>    6.6884    0.0000 </r>
       <r>    7.0820    0.0000 </r>
       <r>    7.6757    0.0000 </r>
       <r>    8.3655    0.0000 </r>
       <r>    8.5021    0.0000 </r>
       <r>    8.7258    0.0000 </r>
       <r>    8.9096    0.0000 </r>
       <r>   10.0305    0.0000 </r>
       <r>   10.5098    0.0000 </r>
       <r>   10.6904    0.0000 </r>
       <r>   11.3095    0.0000 </r>
       <r>   11.5443    0.0000 </r>
       <r>   11.7056    0.0000 </r>
       <r>   12.1589    0.0000 </r>
       <r>   12.4649    0.0000 </r>
       <r>   12.8489    0.0000 </r>
       <r>   13.4286    0.0000 </r>
       <r>   14.3952    0.0000 </r>
       <r>   14.6078    0.0000 </r>
       <r>   15.0995    0.0000 </r>
       <r>   15.2068    0.0000 </r>
       <r>   15.7503    0.0000 </r>
       <r>   16.2307    0.0000 </r>
      </set>
      <set comment="kpoint 4">
       <r>  -12.6352    1.0000 </r>
       <r>  -11.5415    1.0000 </r>
       <r>   -8.6056    1.0000 </r>
       <r>   -8.3297    1.0000 </r>
       <r>   -6.0501    1.0000 </r>
       <r>   -5.2018    1.0000 </r>
       <r>   -5.1061    1.0000 </r>
       <r>   -4.5663    1.0000 </r>
       <r>   -3.9997    1.0000 </r>
       <r>   -3.9785    1.0000 </r>
       <r>   -3.3135    1.0000 </r>
       <r>   -1.2018    1.0000 </r>
       <r>   -1.1325    1.0000 </r>
       <r>   -0.6884    1.0000 </r>
       <r>   -0.5341    1.0000 </r>
       <r>   -0.0264    1.0000 </r>
       <r>    0.0586    1.0000 </r>
       <r>    0.2723    1.0000 </r>
       <r>    0.5848    1.0000 </r>
       <r>    1.2251    1.0000 </r>
       <r>    1.4024    1.0000 </r>
       <r>    2.4240    0.0000 </r>
       <r>    5.2746    0.0000 </r>
       <r>    5.5525    0.0000 </r>
       <r>    6.0648    0.0000 </r>
       <r>    6.2555    0.0000 </r>
       <r>    7.6437    0.0000 </r>
       <r>    7.7002    0.0000 </r>
       <r>    8.3055    0.0000 </r>
       <r>    8.7746    0.0000 </r>
       <r>    9.0291    0.0000 </r>
       <r>    9.3367    0.0000 </r>
       <r>    9.5140    0.0000 </r>
       <r>   10.7385    0.0000 </r>
       <r>   10.9534    0.0000 </r>
       <r>   11.5148    0.0000 </r>
       <r>   11.6608    0.0000 </r>
       <r>   12.1182    0.0000 </r>
       <r>   12.3474    0.0000 </r>
       <r>   12.6964    0.0000 </r>
       <r>   12.9825    0.0000 </r>
       <r>   13.2232    0.0000 </r>
       <r>   13.3273    0.0000 </r>
       <r>   14.5468    0.0000 </r>
       <r>   14.9613    0.0000 </r>
       <r>   15.2651    0.0000 </r>
       <r>   15.4362    0.0000 </r>
       <r>   15.8982    0.0000 </r>
      </set>
      <set comment="kpoint 5">
       <r>  -12.5170    1.0000 </r>
       <r>  -11.7255    1.0000 </r>
       <r>   -8.5734    1.0000 </r>
       <r>   -8.3060    1.0000 </r>
       <r>   -6.0167    1.0000 </r>
       <r>   -5.5304    1.0000 </r>
       <r>   -4.9855    1.0000 </r>
       <r>   -4.7216    1.0000 </r>
       <r>   -4.1630    1.0000 </r>
       <r>   -3.1959    1.0000 </r>
       <r>   -2.5960    1.0000 </r>
       <r>   -1.9090    1.0000 </r>
       <r>   -1.0837    1.0000 </r>
       <r>   -0.8760    1.0000 </r>
       <r>   -0.4891    1.0000 </r>
       <r>   -0.1200    1.0000 </r>
       <r>    0.0861    1.0000 </r>
       <r>    0.2801    1.0000 </r>
       <r>    0.3497    1.0000 </r>
       <r>    0.9816    1.0000 </r>
       <r>    1.3512    1.0000 </r>
       <r>    1.9789    0.2942 </r>
       <r>    5.6686    0.0000 </r>
       <r>    6.0377    0.0000 </r>
       <r>    6.2185    0.0000 </r>
       <r>    6.5295    0.0000 </r>
       <r>    7.4397    0.0000 </r>
       <r>    7.9283    0.0000 </r>
       <r>    8.0686    0.0000 </r>
       <r>    8.9592    0.0000 </r>
       <r>    9.2243    0.0000 </r>
       <r>    9.7026    0.0000 </r>
       <r>    9.8163    0.0000 </r>
       <r>   10.1377    0.0000 </r>
       <r>   10.3140    0.0000 </r>
       <r>   11.1342    0.0000 </r>
       <r>   11.5361    0.0000 </r>
       <r>   12.0259    0.0000 </r>
       <r>   12.5710    0.0000 </r>
       <r>   12.7951    0.0000 </r>
       <r>   13.3558    0.0000 </r>
       <r>   13.5431    0.0000 </r>
       <r>   13.7943    0.0000 </r>
       <r>   14.4436    0.0000 </r>
       <r>   14.7679    0.0000 </r>
       <r>   15.2838    0.0000 </r>
       <r>   15.5346    0.0000 </r>
       <r>   16.1647    0.0000 </r>
      </set>
      <set comment="kpoint 6">
       <r>  -12.2962    1.0000 </r>
       <r>  -12.0097    1.0000 </r>
       <r>   -8.4694    1.0000 </r>
       <r>   -8.3506    1.0000 </r>
       <r>   -6.0626    1.0000 </r>
       <r>   -5.8833    1.0000 </r>
       <r>   -4.7438    1.0000 </r>
       <r>   -4.4425    1.0000 </r>
       <r>   -4.0853    1.0000 </r>
       <r>   -3.1107    1.0000 </r>
       <r>   -2.2274    1.0000 </r>
       <r>   -1.8874    1.0000 </r>
       <r>   -1.0703    1.0000 </r>
       <r>   -0.9720    1.0000 </r>
       <r>   -0.6700    1.0000 </r>
       <r>   -0.4461    1.0000 </r>
       <r>   -0.0303    1.0000 </r>
       <r>    0.0825    1.0000 </r>
       <r>    0.6997    1.0000 </r>
       <r>    0.9384    1.0000 </r>
       <r>    1.1315    1.0000 </r>
       <r>    1.3131    1.0000 </r>
       <r>    6.2072    0.0000 </r>
       <r>    6.4819    0.0000 </r>
       <r>    6.6110    0.0000 </r>
       <r>    7.0236    0.0000 </r>
       <r>    7.3405    0.0000 </r>
       <r>    7.7552    0.0000 </r>
       <r>    7.9824    0.0000 </r>
       <r>    8.5460    0.0000 </r>
       <r>    9.1364    0.0000 </r>
       <r>    9.1798    0.0000 </r>
       <r>    9.8697    0.0000 </r>
       <r>   10.4338    0.0000 </r>
       <r>   10.6913    0.0000 </r>
       <r>   11.0405    0.0000 </r>
       <r>   11.6227    0.0000 </r>
       <r>   11.8767    0.0000 </r>
       <r>   12.4363    0.0000 </r>
       <r>   13.0497    0.0000 </r>
       <r>   13.3775    0.0000 </r>
       <r>   13.8509    0.0000 </r>
       <r>   14.0724    0.0000 </r>
       <r>   14.2667    0.0000 </r>
       <r>   14.9275    0.0000 </r>
       <r>   15.1604    0.0000 </r>
       <r>   15.6499    0.0000 </r>
       <r>   16.2717    0.0000 </r>
      </set>
      <set comment="kpoint 7">
       <r>  -12.5323    1.0000 </r>
       <r>  -11.4489    1.0000 </r>
       <r>   -8.5267    1.0000 </r>
       <r>   -8.2324    1.0000 </r>
       <r>   -5.9569    1.0000 </r>
       <r>   -5.9120    1.0000 </r>
       <r>   -5.0169    1.0000 </r>
       <r>   -4.8126    1.0000 </r>
       <r>   -4.4631    1.0000 </r>
       <r>   -3.8962    1.0000 </r>
       <r>   -3.1988    1.0000 </r>
       <r>   -1.4540    1.0000 </r>
       <r>   -1.2744    1.0000 </r>
       <r>   -1.1518    1.0000 </r>
       <r>    0.0866    1.0000 </r>
       <r>    0.2124    1.0000 </r>
       <r>    0.3468    1.0000 </r>
       <r>    0.5827    1.0000 </r>
       <r>    0.6607    1.0000 </r>
       <r>    0.7465    1.0000 </r>
       <r>    1.3269    1.0000 </r>
       <r>    2.4837    0.0000 </r>
       <r>    4.7013    0.0000 </r>
       <r>    5.0775    0.0000 </r>
       <r>    6.3290    0.0000 </r>
       <r>    6.9922    0.0000 </r>
       <r>    7.1647    0.0000 </r>
       <r>    8.3499    0.0000 </r>
       <r>    8.7796    0.0000 </r>
       <r>    9.5933    0.0000 </r>
       <r>    9.6905    0.0000 </r>
       <r>    9.9061    0.0000 </r>
       <r>   10.2655    0.0000 </r>
       <r>   10.4535    0.0000 </r>
       <r>   10.8954    0.0000 </r>
       <r>   11.9751    0.0000 </r>
       <r>   12.1258    0.0000 </r>
       <r>   12.3125    0.0000 </r>
       <r>   12.4430    0.0000 </r>
       <r>   12.5367    0.0000 </r>
       <r>   12.6595    0.0000 </r>
       <r>   13.1475    0.0000 </r>
       <r>   13.3545    0.0000 </r>
       <r>   14.1676    0.0000 </r>
       <r>   14.4121    0.0000 </r>
       <r>   14.9940    0.0000 </r>
       <r>   15.6232    0.0000 </r>
       <r>   15.7445    0.0000 </r>
      </set>
      <set comment="kpoint 8">
       <r>  -12.4153    1.0000 </r>
       <r>  -11.6313    1.0000 </r>
       <r>   -8.4902    1.0000 </r>
       <r>   -8.2151    1.0000 </r>
       <r>   -5.8958    1.0000 </r>
       <r>   -5.7894    1.0000 </r>
       <r>   -5.3708    1.0000 </r>
       <r>   -4.9783    1.0000 </r>
       <r>   -4.6457    1.0000 </r>
       <r>   -3.0891    1.0000 </r>
       <r>   -2.4825    1.0000 </r>
       <r>   -1.8718    1.0000 </r>
       <r>   -1.4363    1.0000 </r>
       <r>   -1.1703    1.0000 </r>
       <r>   -0.1787    1.0000 </r>
       <r>    0.0498    1.0000 </r>
       <r>    0.2889    1.0000 </r>
       <r>    0.3684    1.0000 </r>
       <r>    0.4927    1.0000 </r>
       <r>    0.8811    1.0000 </r>
       <r>    1.2733    1.0000 </r>
       <r>    2.0305    0.0227 </r>
       <r>    5.1275    0.0000 </r>
       <r>    5.7214    0.0000 </r>
       <r>    6.3357    0.0000 </r>
       <r>    7.2555    0.0000 </r>
       <r>    7.4626    0.0000 </r>
       <r>    8.3137    0.0000 </r>
       <r>    8.9309    0.0000 </r>
       <r>    9.2421    0.0000 </r>
       <r>    9.4614    0.0000 </r>
       <r>    9.6884    0.0000 </r>
       <r>   10.1347    0.0000 </r>
       <r>   10.6430    0.0000 </r>
       <r>   10.9187    0.0000 </r>
       <r>   11.4334    0.0000 </r>
       <r>   11.8431    0.0000 </r>
       <r>   12.1520    0.0000 </r>
       <r>   12.5059    0.0000 </r>
       <r>   12.7089    0.0000 </r>
       <r>   13.1869    0.0000 </r>
       <r>   13.2803    0.0000 </r>
       <r>   13.5343    0.0000 </r>
       <r>   14.3023    0.0000 </r>
       <r>   14.4151    0.0000 </r>
       <r>   14.9931    0.0000 </r>
       <r>   15.3897    0.0000 </r>
       <r>   16.0569    0.0000 </r>
      </set>
      <set comment="kpoint 9">
       <r>  -12.1966    1.0000 </r>
       <r>  -11.9129    1.0000 </r>
       <r>   -8.3844    1.0000 </r>
       <r>   -8.2643    1.0000 </r>
       <r>   -5.9228    1.0000 </r>
       <r>   -5.7526    1.0000 </r>
       <r>   -5.5374    1.0000 </r>
       <r>   -5.2528    1.0000 </r>
       <r>   -4.0232    1.0000 </r>
       <r>   -3.0518    1.0000 </r>
       <r>   -2.1222    1.0000 </r>
       <r>   -1.8015    1.0000 </r>
       <r>   -1.3019    1.0000 </r>
       <r>   -1.0933    1.0000 </r>
       <r>   -0.6893    1.0000 </r>
       <r>   -0.3209    1.0000 </r>
       <r>    0.0216    1.0000 </r>
       <r>    0.2009    1.0000 </r>
       <r>    0.7506    1.0000 </r>
       <r>    1.0342    1.0000 </r>
       <r>    1.1716    1.0000 </r>
       <r>    1.3575    1.0000 </r>
       <r>    6.0688    0.0000 </r>
       <r>    6.5104    0.0000 </r>
       <r>    6.6743    0.0000 </r>
       <r>    6.9794    0.0000 </r>
       <r>    7.2500    0.0000 </r>
       <r>    7.7938    0.0000 </r>
       <r>    8.9319    0.0000 </r>
       <r>    9.1609    0.0000 </r>
       <r>    9.2953    0.0000 </r>
       <r>    9.8977    0.0000 </r>
       <r>   10.1097    0.0000 </r>
       <r>   10.2728    0.0000 </r>
       <r>   11.0770    0.0000 </r>
       <r>   11.4971    0.0000 </r>
       <r>   12.0073    0.0000 </r>
       <r>   12.0613    0.0000 </r>
       <r>   12.6555    0.0000 </r>
       <r>   12.7958    0.0000 </r>
       <r>   12.9271    0.0000 </r>
       <r>   13.5010    0.0000 </r>
       <r>   13.7068    0.0000 </r>
       <r>   13.8680    0.0000 </r>
       <r>   14.8897    0.0000 </r>
       <r>   15.1743    0.0000 </r>
       <r>   15.2134    0.0000 </r>
       <r>   15.8477    0.0000 </r>
      </set>
      <set comment="kpoint 10">
       <r>  -12.4542    1.0000 </r>
       <r>  -11.3790    1.0000 </r>
       <r>   -8.4685    1.0000 </r>
       <r>   -8.1584    1.0000 </r>
       <r>   -6.3794    1.0000 </r>
       <r>   -5.8404    1.0000 </r>
       <r>   -5.2536    1.0000 </r>
       <r>   -4.9009    1.0000 </r>
       <r>   -4.3761    1.0000 </r>
       <r>   -3.8222    1.0000 </r>
       <r>   -3.1036    1.0000 </r>
       <r>   -1.8313    1.0000 </r>
       <r>   -1.6540    1.0000 </r>
       <r>   -1.1513    1.0000 </r>
       <r>   -0.0047    1.0000 </r>
       <r>    0.1232    1.0000 </r>
       <r>    0.2194    1.0000 </r>
       <r>    0.3785    1.0000 </r>
       <r>    0.6734    1.0000 </r>
       <r>    1.2329    1.0000 </r>
       <r>    2.2484    0.0000 </r>
       <r>    2.5210    0.0000 </r>
       <r>    4.3429    0.0000 </r>
       <r>    4.7868    0.0000 </r>
       <r>    6.4429    0.0000 </r>
       <r>    7.0518    0.0000 </r>
       <r>    7.4529    0.0000 </r>
       <r>    8.6037    0.0000 </r>
       <r>    8.7375    0.0000 </r>
       <r>    9.5848    0.0000 </r>
       <r>   10.0935    0.0000 </r>
       <r>   10.2868    0.0000 </r>
       <r>   10.4487    0.0000 </r>
       <r>   11.0680    0.0000 </r>
       <r>   11.1887    0.0000 </r>
       <r>   11.4389    0.0000 </r>
       <r>   11.9336    0.0000 </r>
       <r>   12.1783    0.0000 </r>
       <r>   12.4469    0.0000 </r>
       <r>   13.0308    0.0000 </r>
       <r>   13.2620    0.0000 </r>
       <r>   13.4778    0.0000 </r>
       <r>   13.6643    0.0000 </r>
       <r>   14.3744    0.0000 </r>
       <r>   14.7790    0.0000 </r>
       <r>   15.1248    0.0000 </r>
       <r>   15.2486    0.0000 </r>
       <r>   15.4203    0.0000 </r>
      </set>
      <set comment="kpoint 11">
       <r>  -12.3381    1.0000 </r>
       <r>  -11.5602    1.0000 </r>
       <r>   -8.4286    1.0000 </r>
       <r>   -8.1464    1.0000 </r>
       <r>   -6.2486    1.0000 </r>
       <r>   -5.7631    1.0000 </r>
       <r>   -5.4246    1.0000 </r>
       <r>   -5.2647    1.0000 </r>
       <r>   -4.5842    1.0000 </r>
       <r>   -2.9936    1.0000 </r>
       <r>   -2.3720    1.0000 </r>
       <r>   -1.8476    1.0000 </r>
       <r>   -1.8190    1.0000 </r>
       <r>   -1.5437    1.0000 </r>
       <r>   -0.3282    1.0000 </r>
       <r>   -0.0897    1.0000 </r>
       <r>    0.1033    1.0000 </r>
       <r>    0.3666    1.0000 </r>
       <r>    0.3897    1.0000 </r>
       <r>    1.4562    1.0000 </r>
       <r>    2.0657    0.0014 </r>
       <r>    2.1526    0.0000 </r>
       <r>    4.7887    0.0000 </r>
       <r>    5.4261    0.0000 </r>
       <r>    6.4664    0.0000 </r>
       <r>    7.2761    0.0000 </r>
       <r>    7.6911    0.0000 </r>
       <r>    8.6252    0.0000 </r>
       <r>    8.8144    0.0000 </r>
       <r>    9.2883    0.0000 </r>
       <r>    9.3593    0.0000 </r>
       <r>   10.1832    0.0000 </r>
       <r>   10.5299    0.0000 </r>
       <r>   11.2218    0.0000 </r>
       <r>   11.3166    0.0000 </r>
       <r>   11.8680    0.0000 </r>
       <r>   11.9828    0.0000 </r>
       <r>   12.0837    0.0000 </r>
       <r>   12.4983    0.0000 </r>
       <r>   12.8435    0.0000 </r>
       <r>   12.9759    0.0000 </r>
       <r>   13.6038    0.0000 </r>
       <r>   13.6812    0.0000 </r>
       <r>   14.2164    0.0000 </r>
       <r>   14.3754    0.0000 </r>
       <r>   14.8552    0.0000 </r>
       <r>   14.9103    0.0000 </r>
       <r>   15.4866    0.0000 </r>
      </set>
      <set comment="kpoint 12">
       <r>  -12.1213    1.0000 </r>
       <r>  -11.8398    1.0000 </r>
       <r>   -8.3210    1.0000 </r>
       <r>   -8.1996    1.0000 </r>
       <r>   -6.0104    1.0000 </r>
       <r>   -5.7980    1.0000 </r>
       <r>   -5.7054    1.0000 </r>
       <r>   -5.6120    1.0000 </r>
       <r>   -3.9737    1.0000 </r>
       <r>   -3.0005    1.0000 </r>
       <r>   -2.0063    1.0000 </r>
       <r>   -1.7222    1.0000 </r>
       <r>   -1.6568    1.0000 </r>
       <r>   -1.4793    1.0000 </r>
       <r>   -0.6238    1.0000 </r>
       <r>   -0.4047    1.0000 </r>
       <r>   -0.2504    1.0000 </r>
       <r>   -0.1819    1.0000 </r>
       <r>    0.7820    1.0000 </r>
       <r>    1.3888    1.0000 </r>
       <r>    1.7359    1.0000 </r>
       <r>    1.9758    0.3255 </r>
       <r>    5.7376    0.0000 </r>
       <r>    6.3112    0.0000 </r>
       <r>    6.7716    0.0000 </r>
       <r>    6.9415    0.0000 </r>
       <r>    7.2572    0.0000 </r>
       <r>    7.5260    0.0000 </r>
       <r>    9.1237    0.0000 </r>
       <r>    9.5814    0.0000 </r>
       <r>    9.7530    0.0000 </r>
       <r>   10.0750    0.0000 </r>
       <r>   10.4833    0.0000 </r>
       <r>   10.9936    0.0000 </r>
       <r>   11.7798    0.0000 </r>
       <r>   11.9203    0.0000 </r>
       <r>   12.0412    0.0000 </r>
       <r>   12.1053    0.0000 </r>
       <r>   12.2632    0.0000 </r>
       <r>   12.7629    0.0000 </r>
       <r>   13.1072    0.0000 </r>
       <r>   13.2083    0.0000 </r>
       <r>   13.7845    0.0000 </r>
       <r>   13.8008    0.0000 </r>
       <r>   14.3639    0.0000 </r>
       <r>   14.4797    0.0000 </r>
       <r>   15.2510    0.0000 </r>
       <r>   15.6683    0.0000 </r>
      </set>
      <set comment="kpoint 13">
       <r>  -12.6614    1.0000 </r>
       <r>  -11.6762    1.0000 </r>
       <r>   -8.6647    1.0000 </r>
       <r>   -8.2626    1.0000 </r>
       <r>   -6.5169    1.0000 </r>
       <r>   -5.5224    1.0000 </r>
       <r>   -4.1646    1.0000 </r>
       <r>   -4.0840    1.0000 </r>
       <r>   -3.6718    1.0000 </r>
       <r>   -3.0322    1.0000 </r>
       <r>   -2.9060    1.0000 </r>
       <r>   -2.0957    1.0000 </r>
       <r>   -1.7058    1.0000 </r>
       <r>   -1.3903    1.0000 </r>
       <r>   -0.8000    1.0000 </r>
       <r>   -0.2156    1.0000 </r>
       <r>   -0.0806    1.0000 </r>
       <r>    0.2565    1.0000 </r>
       <r>    0.4128    1.0000 </r>
       <r>    1.4904    1.0000 </r>
       <r>    1.9352    0.7561 </r>
       <r>    3.0533    0.0000 </r>
       <r>    5.2711    0.0000 </r>
       <r>    5.6155    0.0000 </r>
       <r>    5.8722    0.0000 </r>
       <r>    6.5229    0.0000 </r>
       <r>    7.1733    0.0000 </r>
       <r>    7.3005    0.0000 </r>
       <r>    7.9846    0.0000 </r>
       <r>    8.8281    0.0000 </r>
       <r>    9.0151    0.0000 </r>
       <r>    9.3308    0.0000 </r>
       <r>    9.8439    0.0000 </r>
       <r>   10.1343    0.0000 </r>
       <r>   10.7140    0.0000 </r>
       <r>   10.9769    0.0000 </r>
       <r>   11.1239    0.0000 </r>
       <r>   11.9667    0.0000 </r>
       <r>   12.0763    0.0000 </r>
       <r>   12.6270    0.0000 </r>
       <r>   12.8033    0.0000 </r>
       <r>   13.5383    0.0000 </r>
       <r>   14.3285    0.0000 </r>
       <r>   14.5638    0.0000 </r>
       <r>   15.0238    0.0000 </r>
       <r>   15.1705    0.0000 </r>
       <r>   15.4673    0.0000 </r>
       <r>   16.4346    0.0000 </r>
      </set>
      <set comment="kpoint 14">
       <r>  -12.5477    1.0000 </r>
       <r>  -11.8266    1.0000 </r>
       <r>   -8.7494    1.0000 </r>
       <r>   -8.3110    1.0000 </r>
       <r>   -6.2877    1.0000 </r>
       <r>   -5.2753    1.0000 </r>
       <r>   -4.6954    1.0000 </r>
       <r>   -3.9532    1.0000 </r>
       <r>   -3.1945    1.0000 </r>
       <r>   -3.1413    1.0000 </r>
       <r>   -2.5719    1.0000 </r>
       <r>   -2.0968    1.0000 </r>
       <r>   -1.8714    1.0000 </r>
       <r>   -1.7296    1.0000 </r>
       <r>   -0.5432    1.0000 </r>
       <r>   -0.4773    1.0000 </r>
       <r>   -0.3170    1.0000 </r>
       <r>    0.2581    1.0000 </r>
       <r>    0.4110    1.0000 </r>
       <r>    1.4562    1.0000 </r>
       <r>    2.1692    0.0000 </r>
       <r>    2.2320    0.0000 </r>
       <r>    5.4759    0.0000 </r>
       <r>    6.1510    0.0000 </r>
       <r>    6.2835    0.0000 </r>
       <r>    6.5888    0.0000 </r>
       <r>    6.7976    0.0000 </r>
       <r>    7.0863    0.0000 </r>
       <r>    8.2238    0.0000 </r>
       <r>    8.7991    0.0000 </r>
       <r>    9.0582    0.0000 </r>
       <r>    9.5615    0.0000 </r>
       <r>    9.8976    0.0000 </r>
       <r>   10.2375    0.0000 </r>
       <r>   10.4076    0.0000 </r>
       <r>   10.7872    0.0000 </r>
       <r>   11.3301    0.0000 </r>
       <r>   11.9016    0.0000 </r>
       <r>   12.3422    0.0000 </r>
       <r>   12.9942    0.0000 </r>
       <r>   13.1311    0.0000 </r>
       <r>   13.8300    0.0000 </r>
       <r>   14.2416    0.0000 </r>
       <r>   14.3658    0.0000 </r>
       <r>   14.8207    0.0000 </r>
       <r>   15.3510    0.0000 </r>
       <r>   15.3831    0.0000 </r>
       <r>   15.9510    0.0000 </r>
      </set>
      <set comment="kpoint 15">
       <r>  -12.3384    1.0000 </r>
       <r>  -12.0748    1.0000 </r>
       <r>   -8.6949    1.0000 </r>
       <r>   -8.5063    1.0000 </r>
       <r>   -5.9248    1.0000 </r>
       <r>   -5.4665    1.0000 </r>
       <r>   -4.3645    1.0000 </r>
       <r>   -3.6966    1.0000 </r>
       <r>   -3.4350    1.0000 </r>
       <r>   -3.3771    1.0000 </r>
       <r>   -2.4496    1.0000 </r>
       <r>   -2.0267    1.0000 </r>
       <r>   -1.9555    1.0000 </r>
       <r>   -1.8108    1.0000 </r>
       <r>   -0.5476    1.0000 </r>
       <r>   -0.3130    1.0000 </r>
       <r>   -0.1683    1.0000 </r>
       <r>    0.0408    1.0000 </r>
       <r>    0.2931    1.0000 </r>
       <r>    1.0964    1.0000 </r>
       <r>    1.8347    0.9998 </r>
       <r>    2.1667    0.0000 </r>
       <r>    5.8263    0.0000 </r>
       <r>    6.1923    0.0000 </r>
       <r>    6.5696    0.0000 </r>
       <r>    6.8488    0.0000 </r>
       <r>    7.0797    0.0000 </r>
       <r>    7.2090    0.0000 </r>
       <r>    8.3180    0.0000 </r>
       <r>    8.4044    0.0000 </r>
       <r>    8.6073    0.0000 </r>
       <r>    8.7180    0.0000 </r>
       <r>    9.8852    0.0000 </r>
       <r>   10.2797    0.0000 </r>
       <r>   11.0446    0.0000 </r>
       <r>   11.5952    0.0000 </r>
       <r>   12.0338    0.0000 </r>
       <r>   12.2291    0.0000 </r>
       <r>   12.3904    0.0000 </r>
       <r>   12.7910    0.0000 </r>
       <r>   13.3547    0.0000 </r>
       <r>   13.7038    0.0000 </r>
       <r>   13.8615    0.0000 </r>
       <r>   14.1752    0.0000 </r>
       <r>   14.8277    0.0000 </r>
       <r>   15.1816    0.0000 </r>
       <r>   15.4757    0.0000 </r>
       <r>   15.7780    0.0000 </r>
      </set>
      <set comment="kpoint 16">
       <r>  -12.5940    1.0000 </r>
       <r>  -11.6128    1.0000 </r>
       <r>   -8.6109    1.0000 </r>
       <r>   -8.2020    1.0000 </r>
       <r>   -6.4400    1.0000 </r>
       <r>   -5.4257    1.0000 </r>
       <r>   -5.0580    1.0000 </r>
       <r>   -4.1224    1.0000 </r>
       <r>   -4.0678    1.0000 </r>
       <r>   -3.6072    1.0000 </r>
       <r>   -2.8384    1.0000 </r>
       <r>   -1.3817    1.0000 </r>
       <r>   -1.1170    1.0000 </r>
       <r>   -0.7805    1.0000 </r>
       <r>   -0.6489    1.0000 </r>
       <r>   -0.5524    1.0000 </r>
       <r>   -0.0220    1.0000 </r>
       <r>    0.2192    1.0000 </r>
       <r>    0.3413    1.0000 </r>
       <r>    0.9163    1.0000 </r>
       <r>    1.3229    1.0000 </r>
       <r>    3.1207    0.0000 </r>
       <r>    5.3863    0.0000 </r>
       <r>    5.6082    0.0000 </r>
       <r>    6.1187    0.0000 </r>
       <r>    6.2514    0.0000 </r>
       <r>    8.0609    0.0000 </r>
       <r>    8.1174    0.0000 </r>
       <r>    8.2625    0.0000 </r>
       <r>    8.7499    0.0000 </r>
       <r>    9.0214    0.0000 </r>
       <r>    9.5348    0.0000 </r>
       <r>    9.7152    0.0000 </r>
       <r>   10.1005    0.0000 </r>
       <r>   10.4422    0.0000 </r>
       <r>   11.3098    0.0000 </r>
       <r>   11.4424    0.0000 </r>
       <r>   12.0266    0.0000 </r>
       <r>   12.4995    0.0000 </r>
       <r>   12.7595    0.0000 </r>
       <r>   13.3396    0.0000 </r>
       <r>   13.4946    0.0000 </r>
       <r>   13.8569    0.0000 </r>
       <r>   14.4016    0.0000 </r>
       <r>   14.6458    0.0000 </r>
       <r>   15.2907    0.0000 </r>
       <r>   15.3793    0.0000 </r>
       <r>   15.6579    0.0000 </r>
      </set>
      <set comment="kpoint 17">
       <r>  -12.4810    1.0000 </r>
       <r>  -11.7630    1.0000 </r>
       <r>   -8.6893    1.0000 </r>
       <r>   -8.2528    1.0000 </r>
       <r>   -6.2027    1.0000 </r>
       <r>   -5.1873    1.0000 </r>
       <r>   -4.9380    1.0000 </r>
       <r>   -4.6199    1.0000 </r>
       <r>   -4.2350    1.0000 </r>
       <r>   -3.1199    1.0000 </r>
       <r>   -2.5086    1.0000 </r>
       <r>   -1.8157    1.0000 </r>
       <r>   -1.1143    1.0000 </r>
       <r>   -0.8530    1.0000 </r>
       <r>   -0.6811    1.0000 </r>
       <r>   -0.4968    1.0000 </r>
       <r>   -0.2261    1.0000 </r>
       <r>    0.1004    1.0000 </r>
       <r>    0.4029    1.0000 </r>
       <r>    0.9136    1.0000 </r>
       <r>    1.5860    1.0000 </r>
       <r>    2.2241    0.0000 </r>
       <r>    5.8045    0.0000 </r>
       <r>    6.0037    0.0000 </r>
       <r>    6.2573    0.0000 </r>
       <r>    6.7316    0.0000 </r>
       <r>    7.5994    0.0000 </r>
       <r>    7.8894    0.0000 </r>
       <r>    8.4604    0.0000 </r>
       <r>    8.7700    0.0000 </r>
       <r>    9.0369    0.0000 </r>
       <r>    9.1794    0.0000 </r>
       <r>    9.8281    0.0000 </r>
       <r>   10.3316    0.0000 </r>
       <r>   10.5450    0.0000 </r>
       <r>   11.0921    0.0000 </r>
       <r>   11.6620    0.0000 </r>
       <r>   11.9147    0.0000 </r>
       <r>   12.7075    0.0000 </r>
       <r>   13.0212    0.0000 </r>
       <r>   13.2956    0.0000 </r>
       <r>   13.5418    0.0000 </r>
       <r>   14.0659    0.0000 </r>
       <r>   14.4440    0.0000 </r>
       <r>   14.6108    0.0000 </r>
       <r>   15.3260    0.0000 </r>
       <r>   15.6015    0.0000 </r>
       <r>   15.8143    0.0000 </r>
      </set>
      <set comment="kpoint 18">
       <r>  -12.2729    1.0000 </r>
       <r>  -12.0104    1.0000 </r>
       <r>   -8.6326    1.0000 </r>
       <r>   -8.4456    1.0000 </r>
       <r>   -5.8376    1.0000 </r>
       <r>   -5.3804    1.0000 </r>
       <r>   -4.7042    1.0000 </r>
       <r>   -4.4513    1.0000 </r>
       <r>   -4.3099    1.0000 </r>
       <r>   -3.3755    1.0000 </r>
       <r>   -2.3653    1.0000 </r>
       <r>   -1.8328    1.0000 </r>
       <r>   -1.1158    1.0000 </r>
       <r>   -1.0071    1.0000 </r>
       <r>   -0.6642    1.0000 </r>
       <r>   -0.3688    1.0000 </r>
       <r>   -0.1448    1.0000 </r>
       <r>   -0.0229    1.0000 </r>
       <r>    0.3757    1.0000 </r>
       <r>    1.1430    1.0000 </r>
       <r>    1.2507    1.0000 </r>
       <r>    1.5365    1.0000 </r>
       <r>    6.4340    0.0000 </r>
       <r>    6.5985    0.0000 </r>
       <r>    6.6707    0.0000 </r>
       <r>    6.9581    0.0000 </r>
       <r>    7.2594    0.0000 </r>
       <r>    7.6252    0.0000 </r>
       <r>    7.9960    0.0000 </r>
       <r>    8.3015    0.0000 </r>
       <r>    8.9018    0.0000 </r>
       <r>    9.0732    0.0000 </r>
       <r>    9.9700    0.0000 </r>
       <r>   10.4375    0.0000 </r>
       <r>   10.7483    0.0000 </r>
       <r>   11.3451    0.0000 </r>
       <r>   11.8323    0.0000 </r>
       <r>   12.6538    0.0000 </r>
       <r>   12.8879    0.0000 </r>
       <r>   13.1728    0.0000 </r>
       <r>   13.4499    0.0000 </r>
       <r>   13.6624    0.0000 </r>
       <r>   13.9612    0.0000 </r>
       <r>   14.1386    0.0000 </r>
       <r>   14.7876    0.0000 </r>
       <r>   14.8454    0.0000 </r>
       <r>   15.2205    0.0000 </r>
       <r>   15.6613    0.0000 </r>
      </set>
      <set comment="kpoint 19">
       <r>  -12.4925    1.0000 </r>
       <r>  -11.5172    1.0000 </r>
       <r>   -8.5317    1.0000 </r>
       <r>   -8.1112    1.0000 </r>
       <r>   -6.3228    1.0000 </r>
       <r>   -5.8549    1.0000 </r>
       <r>   -5.2745    1.0000 </r>
       <r>   -4.9413    1.0000 </r>
       <r>   -3.9552    1.0000 </r>
       <r>   -3.5238    1.0000 </r>
       <r>   -2.7221    1.0000 </r>
       <r>   -1.3791    1.0000 </r>
       <r>   -1.3495    1.0000 </r>
       <r>   -1.0488    1.0000 </r>
       <r>   -0.7206    1.0000 </r>
       <r>   -0.1758    1.0000 </r>
       <r>    0.0901    1.0000 </r>
       <r>    0.3594    1.0000 </r>
       <r>    0.4905    1.0000 </r>
       <r>    0.8484    1.0000 </r>
       <r>    1.3021    1.0000 </r>
       <r>    3.1816    0.0000 </r>
       <r>    4.8422    0.0000 </r>
       <r>    5.5690    0.0000 </r>
       <r>    5.9804    0.0000 </r>
       <r>    6.9702    0.0000 </r>
       <r>    7.5844    0.0000 </r>
       <r>    8.7832    0.0000 </r>
       <r>    9.0783    0.0000 </r>
       <r>    9.1716    0.0000 </r>
       <r>    9.7105    0.0000 </r>
       <r>    9.9308    0.0000 </r>
       <r>   10.0054    0.0000 </r>
       <r>   10.2527    0.0000 </r>
       <r>   10.6140    0.0000 </r>
       <r>   11.2325    0.0000 </r>
       <r>   11.6816    0.0000 </r>
       <r>   12.3217    0.0000 </r>
       <r>   12.4663    0.0000 </r>
       <r>   12.7907    0.0000 </r>
       <r>   12.9634    0.0000 </r>
       <r>   13.4657    0.0000 </r>
       <r>   13.6890    0.0000 </r>
       <r>   13.9769    0.0000 </r>
       <r>   14.8045    0.0000 </r>
       <r>   14.8886    0.0000 </r>
       <r>   15.3865    0.0000 </r>
       <r>   15.6715    0.0000 </r>
      </set>
      <set comment="kpoint 20">
       <r>  -12.3806    1.0000 </r>
       <r>  -11.6673    1.0000 </r>
       <r>   -8.6001    1.0000 </r>
       <r>   -8.1659    1.0000 </r>
       <r>   -6.0736    1.0000 </r>
       <r>   -5.7328    1.0000 </r>
       <r>   -5.0664    1.0000 </r>
       <r>   -5.0336    1.0000 </r>
       <r>   -4.5306    1.0000 </r>
       <r>   -3.0271    1.0000 </r>
       <r>   -2.4118    1.0000 </r>
       <r>   -1.7561    1.0000 </r>
       <r>   -1.5803    1.0000 </r>
       <r>   -1.0511    1.0000 </r>
       <r>   -0.5100    1.0000 </r>
       <r>   -0.4316    1.0000 </r>
       <r>    0.0203    1.0000 </r>
       <r>    0.4080    1.0000 </r>
       <r>    0.7448    1.0000 </r>
       <r>    0.8271    1.0000 </r>
       <r>    1.2591    1.0000 </r>
       <r>    2.2860    0.0000 </r>
       <r>    5.2910    0.0000 </r>
       <r>    5.8203    0.0000 </r>
       <r>    6.3523    0.0000 </r>
       <r>    7.4691    0.0000 </r>
       <r>    7.8816    0.0000 </r>
       <r>    8.3799    0.0000 </r>
       <r>    8.6255    0.0000 </r>
       <r>    8.9165    0.0000 </r>
       <r>    9.3585    0.0000 </r>
       <r>    9.5604    0.0000 </r>
       <r>   10.1002    0.0000 </r>
       <r>   10.8993    0.0000 </r>
       <r>   11.2172    0.0000 </r>
       <r>   11.2573    0.0000 </r>
       <r>   11.5327    0.0000 </r>
       <r>   12.1350    0.0000 </r>
       <r>   12.3621    0.0000 </r>
       <r>   12.6455    0.0000 </r>
       <r>   12.9925    0.0000 </r>
       <r>   13.5114    0.0000 </r>
       <r>   13.8553    0.0000 </r>
       <r>   14.3941    0.0000 </r>
       <r>   14.6877    0.0000 </r>
       <r>   15.0502    0.0000 </r>
       <r>   15.4887    0.0000 </r>
       <r>   15.7879    0.0000 </r>
      </set>
      <set comment="kpoint 21">
       <r>  -12.1742    1.0000 </r>
       <r>  -11.9136    1.0000 </r>
       <r>   -8.5398    1.0000 </r>
       <r>   -8.3549    1.0000 </r>
       <r>   -5.7106    1.0000 </r>
       <r>   -5.5229    1.0000 </r>
       <r>   -5.2799    1.0000 </r>
       <r>   -5.2024    1.0000 </r>
       <r>   -4.2372    1.0000 </r>
       <r>   -3.3005    1.0000 </r>
       <r>   -2.2764    1.0000 </r>
       <r>   -1.7834    1.0000 </r>
       <r>   -1.5760    1.0000 </r>
       <r>   -1.3178    1.0000 </r>
       <r>   -0.4884    1.0000 </r>
       <r>   -0.1456    1.0000 </r>
       <r>    0.2548    1.0000 </r>
       <r>    0.4249    1.0000 </r>
       <r>    0.5774    1.0000 </r>
       <r>    1.0075    1.0000 </r>
       <r>    1.1608    1.0000 </r>
       <r>    1.2260    1.0000 </r>
       <r>    6.1063    0.0000 </r>
       <r>    6.2697    0.0000 </r>
       <r>    6.8860    0.0000 </r>
       <r>    7.2476    0.0000 </r>
       <r>    7.5235    0.0000 </r>
       <r>    7.8087    0.0000 </r>
       <r>    8.4964    0.0000 </r>
       <r>    8.7544    0.0000 </r>
       <r>    9.5411    0.0000 </r>
       <r>    9.6783    0.0000 </r>
       <r>    9.9839    0.0000 </r>
       <r>   10.6018    0.0000 </r>
       <r>   11.1936    0.0000 </r>
       <r>   11.2750    0.0000 </r>
       <r>   12.1857    0.0000 </r>
       <r>   12.4939    0.0000 </r>
       <r>   12.6721    0.0000 </r>
       <r>   12.9404    0.0000 </r>
       <r>   13.2607    0.0000 </r>
       <r>   13.5452    0.0000 </r>
       <r>   13.8550    0.0000 </r>
       <r>   13.9401    0.0000 </r>
       <r>   14.6688    0.0000 </r>
       <r>   14.7382    0.0000 </r>
       <r>   15.0763    0.0000 </r>
       <r>   15.4063    0.0000 </r>
      </set>
      <set comment="kpoint 22">
       <r>  -12.4156    1.0000 </r>
       <r>  -11.4450    1.0000 </r>
       <r>   -8.4733    1.0000 </r>
       <r>   -8.0427    1.0000 </r>
       <r>   -6.3027    1.0000 </r>
       <r>   -6.2237    1.0000 </r>
       <r>   -5.3869    1.0000 </r>
       <r>   -5.1551    1.0000 </r>
       <r>   -3.8584    1.0000 </r>
       <r>   -3.4556    1.0000 </r>
       <r>   -2.6190    1.0000 </r>
       <r>   -1.7521    1.0000 </r>
       <r>   -1.4461    1.0000 </r>
       <r>   -1.3021    1.0000 </r>
       <r>   -0.6819    1.0000 </r>
       <r>   -0.3905    1.0000 </r>
       <r>    0.0006    1.0000 </r>
       <r>    0.0738    1.0000 </r>
       <r>    0.4513    1.0000 </r>
       <r>    1.4332    1.0000 </r>
       <r>    2.1841    0.0000 </r>
       <r>    3.2174    0.0000 </r>
       <r>    4.5018    0.0000 </r>
       <r>    5.3273    0.0000 </r>
       <r>    6.0682    0.0000 </r>
       <r>    7.4020    0.0000 </r>
       <r>    7.4242    0.0000 </r>
       <r>    8.7068    0.0000 </r>
       <r>    8.9875    0.0000 </r>
       <r>    9.4620    0.0000 </r>
       <r>    9.5395    0.0000 </r>
       <r>   10.0780    0.0000 </r>
       <r>   10.6459    0.0000 </r>
       <r>   10.9818    0.0000 </r>
       <r>   11.2902    0.0000 </r>
       <r>   11.7330    0.0000 </r>
       <r>   11.7374    0.0000 </r>
       <r>   11.9636    0.0000 </r>
       <r>   12.3714    0.0000 </r>
       <r>   12.8002    0.0000 </r>
       <r>   13.0767    0.0000 </r>
       <r>   13.3279    0.0000 </r>
       <r>   13.6181    0.0000 </r>
       <r>   14.1606    0.0000 </r>
       <r>   14.7083    0.0000 </r>
       <r>   15.0335    0.0000 </r>
       <r>   15.2311    0.0000 </r>
       <r>   15.3780    0.0000 </r>
      </set>
      <set comment="kpoint 23">
       <r>  -12.3045    1.0000 </r>
       <r>  -11.5950    1.0000 </r>
       <r>   -8.5335    1.0000 </r>
       <r>   -8.1006    1.0000 </r>
       <r>   -6.1809    1.0000 </r>
       <r>   -5.9614    1.0000 </r>
       <r>   -5.5007    1.0000 </r>
       <r>   -4.9393    1.0000 </r>
       <r>   -4.4489    1.0000 </r>
       <r>   -2.9476    1.0000 </r>
       <r>   -2.3137    1.0000 </r>
       <r>   -1.9842    1.0000 </r>
       <r>   -1.6909    1.0000 </r>
       <r>   -1.4417    1.0000 </r>
       <r>   -0.4882    1.0000 </r>
       <r>   -0.4534    1.0000 </r>
       <r>   -0.2823    1.0000 </r>
       <r>    0.3764    1.0000 </r>
       <r>    0.4958    1.0000 </r>
       <r>    1.4488    1.0000 </r>
       <r>    2.0816    0.0003 </r>
       <r>    2.3262    0.0000 </r>
       <r>    4.9619    0.0000 </r>
       <r>    5.6015    0.0000 </r>
       <r>    6.4834    0.0000 </r>
       <r>    7.5943    0.0000 </r>
       <r>    8.0004    0.0000 </r>
       <r>    8.2067    0.0000 </r>
       <r>    8.6538    0.0000 </r>
       <r>    9.1670    0.0000 </r>
       <r>    9.5036    0.0000 </r>
       <r>   10.0647    0.0000 </r>
       <r>   10.6328    0.0000 </r>
       <r>   11.3096    0.0000 </r>
       <r>   11.3773    0.0000 </r>
       <r>   11.4395    0.0000 </r>
       <r>   11.8858    0.0000 </r>
       <r>   12.0051    0.0000 </r>
       <r>   12.4794    0.0000 </r>
       <r>   12.6557    0.0000 </r>
       <r>   13.1183    0.0000 </r>
       <r>   13.2971    0.0000 </r>
       <r>   13.8707    0.0000 </r>
       <r>   14.1983    0.0000 </r>
       <r>   14.4551    0.0000 </r>
       <r>   15.0111    0.0000 </r>
       <r>   15.2357    0.0000 </r>
       <r>   15.5489    0.0000 </r>
      </set>
      <set comment="kpoint 24">
       <r>  -12.0995    1.0000 </r>
       <r>  -11.8405    1.0000 </r>
       <r>   -8.4702    1.0000 </r>
       <r>   -8.2869    1.0000 </r>
       <r>   -5.9667    1.0000 </r>
       <r>   -5.7189    1.0000 </r>
       <r>   -5.5789    1.0000 </r>
       <r>   -5.1198    1.0000 </r>
       <r>   -4.1746    1.0000 </r>
       <r>   -3.2351    1.0000 </r>
       <r>   -2.1894    1.0000 </r>
       <r>   -1.9861    1.0000 </r>
       <r>   -1.8064    1.0000 </r>
       <r>   -1.5905    1.0000 </r>
       <r>   -0.4248    1.0000 </r>
       <r>   -0.1180    1.0000 </r>
       <r>   -0.0815    1.0000 </r>
       <r>    0.2531    1.0000 </r>
       <r>    0.4959    1.0000 </r>
       <r>    1.2544    1.0000 </r>
       <r>    1.6417    1.0000 </r>
       <r>    1.8899    0.9759 </r>
       <r>    5.8054    0.0000 </r>
       <r>    6.0625    0.0000 </r>
       <r>    7.0321    0.0000 </r>
       <r>    7.0772    0.0000 </r>
       <r>    7.4676    0.0000 </r>
       <r>    7.7205    0.0000 </r>
       <r>    9.0946    0.0000 </r>
       <r>    9.2053    0.0000 </r>
       <r>    9.6492    0.0000 </r>
       <r>    9.8658    0.0000 </r>
       <r>   10.5691    0.0000 </r>
       <r>   11.0895    0.0000 </r>
       <r>   11.5616    0.0000 </r>
       <r>   11.7327    0.0000 </r>
       <r>   11.7698    0.0000 </r>
       <r>   12.1394    0.0000 </r>
       <r>   12.8034    0.0000 </r>
       <r>   12.9882    0.0000 </r>
       <r>   13.1628    0.0000 </r>
       <r>   13.3868    0.0000 </r>
       <r>   13.9030    0.0000 </r>
       <r>   13.9263    0.0000 </r>
       <r>   14.3024    0.0000 </r>
       <r>   14.4634    0.0000 </r>
       <r>   15.2559    0.0000 </r>
       <r>   15.4071    0.0000 </r>
      </set>
      <set comment="kpoint 25">
       <r>  -12.6130    1.0000 </r>
       <r>  -11.7547    1.0000 </r>
       <r>   -8.6525    1.0000 </r>
       <r>   -8.1272    1.0000 </r>
       <r>   -6.8215    1.0000 </r>
       <r>   -5.7356    1.0000 </r>
       <r>   -3.9959    1.0000 </r>
       <r>   -3.6667    1.0000 </r>
       <r>   -3.1935    1.0000 </r>
       <r>   -3.0668    1.0000 </r>
       <r>   -2.4753    1.0000 </r>
       <r>   -2.0276    1.0000 </r>
       <r>   -1.8706    1.0000 </r>
       <r>   -1.6699    1.0000 </r>
       <r>   -1.4705    1.0000 </r>
       <r>   -0.8537    1.0000 </r>
       <r>    0.0770    1.0000 </r>
       <r>    0.2531    1.0000 </r>
       <r>    0.6966    1.0000 </r>
       <r>    1.3171    1.0000 </r>
       <r>    1.6191    1.0000 </r>
       <r>    3.5055    0.0000 </r>
       <r>    5.1984    0.0000 </r>
       <r>    5.4512    0.0000 </r>
       <r>    5.8988    0.0000 </r>
       <r>    7.0759    0.0000 </r>
       <r>    7.3251    0.0000 </r>
       <r>    7.5074    0.0000 </r>
       <r>    7.9985    0.0000 </r>
       <r>    8.7780    0.0000 </r>
       <r>    8.9630    0.0000 </r>
       <r>    9.4613    0.0000 </r>
       <r>    9.6817    0.0000 </r>
       <r>   10.5002    0.0000 </r>
       <r>   10.6913    0.0000 </r>
       <r>   10.9833    0.0000 </r>
       <r>   11.4196    0.0000 </r>
       <r>   11.7864    0.0000 </r>
       <r>   12.1736    0.0000 </r>
       <r>   12.4542    0.0000 </r>
       <r>   13.2812    0.0000 </r>
       <r>   13.4652    0.0000 </r>
       <r>   13.8113    0.0000 </r>
       <r>   14.1716    0.0000 </r>
       <r>   14.7532    0.0000 </r>
       <r>   14.9092    0.0000 </r>
       <r>   15.6115    0.0000 </r>
       <r>   15.9091    0.0000 </r>
      </set>
      <set comment="kpoint 26">
       <r>  -12.5059    1.0000 </r>
       <r>  -11.8707    1.0000 </r>
       <r>   -8.8069    1.0000 </r>
       <r>   -8.3390    1.0000 </r>
       <r>   -6.2264    1.0000 </r>
       <r>   -5.4574    1.0000 </r>
       <r>   -4.1556    1.0000 </r>
       <r>   -3.8633    1.0000 </r>
       <r>   -3.2418    1.0000 </r>
       <r>   -3.0443    1.0000 </r>
       <r>   -2.7618    1.0000 </r>
       <r>   -2.0888    1.0000 </r>
       <r>   -1.8602    1.0000 </r>
       <r>   -1.4950    1.0000 </r>
       <r>   -1.2381    1.0000 </r>
       <r>   -0.6335    1.0000 </r>
       <r>   -0.3048    1.0000 </r>
       <r>    0.1475    1.0000 </r>
       <r>    0.3040    1.0000 </r>
       <r>    1.7962    1.0000 </r>
       <r>    2.1480    0.0000 </r>
       <r>    2.2010    0.0000 </r>
       <r>    5.6194    0.0000 </r>
       <r>    6.0982    0.0000 </r>
       <r>    6.2942    0.0000 </r>
       <r>    6.6951    0.0000 </r>
       <r>    7.2000    0.0000 </r>
       <r>    7.2752    0.0000 </r>
       <r>    8.1584    0.0000 </r>
       <r>    8.2758    0.0000 </r>
       <r>    8.4951    0.0000 </r>
       <r>    9.9971    0.0000 </r>
       <r>   10.1586    0.0000 </r>
       <r>   10.3024    0.0000 </r>
       <r>   10.4970    0.0000 </r>
       <r>   11.1262    0.0000 </r>
       <r>   11.6574    0.0000 </r>
       <r>   12.1987    0.0000 </r>
       <r>   12.4411    0.0000 </r>
       <r>   12.6689    0.0000 </r>
       <r>   13.1685    0.0000 </r>
       <r>   13.7748    0.0000 </r>
       <r>   14.1169    0.0000 </r>
       <r>   14.3730    0.0000 </r>
       <r>   14.5908    0.0000 </r>
       <r>   14.8737    0.0000 </r>
       <r>   15.5628    0.0000 </r>
       <r>   15.7728    0.0000 </r>
      </set>
      <set comment="kpoint 27">
       <r>  -12.3122    1.0000 </r>
       <r>  -12.0775    1.0000 </r>
       <r>   -8.8127    1.0000 </r>
       <r>   -8.6252    1.0000 </r>
       <r>   -5.4544    1.0000 </r>
       <r>   -5.0004    1.0000 </r>
       <r>   -4.6400    1.0000 </r>
       <r>   -3.9451    1.0000 </r>
       <r>   -3.6287    1.0000 </r>
       <r>   -3.3988    1.0000 </r>
       <r>   -2.3842    1.0000 </r>
       <r>   -2.0439    1.0000 </r>
       <r>   -1.9229    1.0000 </r>
       <r>   -1.8258    1.0000 </r>
       <r>   -0.4920    1.0000 </r>
       <r>   -0.4569    1.0000 </r>
       <r>   -0.2705    1.0000 </r>
       <r>   -0.1669    1.0000 </r>
       <r>    0.2642    1.0000 </r>
       <r>    0.8642    1.0000 </r>
       <r>    2.2540    0.0000 </r>
       <r>    2.4057    0.0000 </r>
       <r>    5.9061    0.0000 </r>
       <r>    6.1651    0.0000 </r>
       <r>    6.7734    0.0000 </r>
       <r>    6.8709    0.0000 </r>
       <r>    7.0749    0.0000 </r>
       <r>    7.0957    0.0000 </r>
       <r>    7.9315    0.0000 </r>
       <r>    8.1121    0.0000 </r>
       <r>    8.3029    0.0000 </r>
       <r>    8.8338    0.0000 </r>
       <r>   10.3521    0.0000 </r>
       <r>   10.6699    0.0000 </r>
       <r>   11.5463    0.0000 </r>
       <r>   11.6815    0.0000 </r>
       <r>   11.9437    0.0000 </r>
       <r>   12.3340    0.0000 </r>
       <r>   12.5921    0.0000 </r>
       <r>   13.0363    0.0000 </r>
       <r>   13.3015    0.0000 </r>
       <r>   13.3856    0.0000 </r>
       <r>   14.2182    0.0000 </r>
       <r>   14.2519    0.0000 </r>
       <r>   14.6100    0.0000 </r>
       <r>   15.0931    0.0000 </r>
       <r>   15.5587    0.0000 </r>
       <r>   15.7004    0.0000 </r>
      </set>
      <set comment="kpoint 28">
       <r>  -12.5468    1.0000 </r>
       <r>  -11.6892    1.0000 </r>
       <r>   -8.6000    1.0000 </r>
       <r>   -8.0701    1.0000 </r>
       <r>   -6.7433    1.0000 </r>
       <r>   -5.6356    1.0000 </r>
       <r>   -4.9561    1.0000 </r>
       <r>   -4.2689    1.0000 </r>
       <r>   -3.5961    1.0000 </r>
       <r>   -3.0200    1.0000 </r>
       <r>   -2.3433    1.0000 </r>
       <r>   -1.6542    1.0000 </r>
[...]
       <r>   -2.5552    1.0000 </r>
       <r>   -1.9638    1.0000 </r>
       <r>   -1.6859    1.0000 </r>
       <r>   -1.3566    1.0000 </r>
       <r>   -1.1210    1.0000 </r>
       <r>   -0.5007    1.0000 </r>
       <r>   -0.1400    1.0000 </r>
       <r>    0.2480    1.0000 </r>
       <r>    0.4585    1.0000 </r>
       <r>    1.5811    1.0000 </r>
       <r>    1.9583    0.5164 </r>
       <r>    2.3882    0.0000 </r>
       <r>    5.1118    0.0000 </r>
       <r>    6.1326    0.0000 </r>
       <r>    6.7759    0.0000 </r>
       <r>    6.9750    0.0000 </r>
       <r>    7.9483    0.0000 </r>
       <r>    8.4776    0.0000 </r>
       <r>    8.6196    0.0000 </r>
       <r>    8.9684    0.0000 </r>
       <r>    9.6892    0.0000 </r>
       <r>   10.0341    0.0000 </r>
       <r>   10.6765    0.0000 </r>
       <r>   11.0530    0.0000 </r>
       <r>   11.3440    0.0000 </r>
       <r>   11.5250    0.0000 </r>
       <r>   11.5521    0.0000 </r>
       <r>   12.3217    0.0000 </r>
       <r>   12.3988    0.0000 </r>
       <r>   12.7698    0.0000 </r>
       <r>   12.9620    0.0000 </r>
       <r>   13.3789    0.0000 </r>
       <r>   13.7808    0.0000 </r>
       <r>   14.1490    0.0000 </r>
       <r>   14.2947    0.0000 </r>
       <r>   14.9917    0.0000 </r>
       <r>   15.2047    0.0000 </r>
       <r>   15.5378    0.0000 </r>
      </set>
      <set comment="kpoint 36">
       <r>  -12.0758    1.0000 </r>
       <r>  -11.8428    1.0000 </r>
       <r>   -8.5787    1.0000 </r>
       <r>   -8.3920    1.0000 </r>
       <r>   -5.9147    1.0000 </r>
       <r>   -5.7321    1.0000 </r>
       <r>   -5.1436    1.0000 </r>
       <r>   -4.6285    1.0000 </r>
       <r>   -4.4311    1.0000 </r>
       <r>   -3.7120    1.0000 </r>
       <r>   -2.2007    1.0000 </r>
       <r>   -2.1208    1.0000 </r>
       <r>   -2.0316    1.0000 </r>
       <r>   -1.6905    1.0000 </r>
       <r>   -0.3780    1.0000 </r>
       <r>   -0.0953    1.0000 </r>
       <r>    0.3226    1.0000 </r>
       <r>    0.5090    1.0000 </r>
       <r>    0.5225    1.0000 </r>
       <r>    1.0824    1.0000 </r>
       <r>    1.5562    1.0000 </r>
       <r>    1.7388    1.0000 </r>
       <r>    5.7854    0.0000 </r>
       <r>    6.0856    0.0000 </r>
       <r>    6.7956    0.0000 </r>
       <r>    7.3032    0.0000 </r>
       <r>    7.6574    0.0000 </r>
       <r>    7.7349    0.0000 </r>
       <r>    9.1903    0.0000 </r>
       <r>    9.3620    0.0000 </r>
       <r>    9.7529    0.0000 </r>
       <r>    9.9765    0.0000 </r>
       <r>   10.4038    0.0000 </r>
       <r>   10.8794    0.0000 </r>
       <r>   11.2067    0.0000 </r>
       <r>   11.5704    0.0000 </r>
       <r>   11.6238    0.0000 </r>
       <r>   11.8092    0.0000 </r>
       <r>   13.0149    0.0000 </r>
       <r>   13.1937    0.0000 </r>
       <r>   13.3742    0.0000 </r>
       <r>   13.8142    0.0000 </r>
       <r>   14.0267    0.0000 </r>
       <r>   14.3551    0.0000 </r>
       <r>   14.4462    0.0000 </r>
       <r>   14.8006    0.0000 </r>
       <r>   14.9245    0.0000 </r>
       <r>   15.1794    0.0000 </r>
      </set>
     </set>
    </set>
   </array>
  </eigenvalues>
  <separator name="orbital magnetization" >
   <v name="MAGDIPOLOUT">      0.00000000      0.00000000      0.00000000</v>
  </separator>
  <dos>
   <i name="efermi">      1.95977275 </i>
   <total>
    <array>
     <dimension dim="1">gridpoints</dimension>
     <dimension dim="2">spin</dimension>
     <field>energy</field>
     <field>total</field>
     <field>integrated</field>
     <set>
      <set comment="spin 1">
       <r>   -14.1604     0.0000     0.0000 </r>
       <r>   -14.0536     0.0000     0.0000 </r>
       <r>   -13.9467     0.0000     0.0000 </r>
       <r>   -13.8399     0.0000     0.0000 </r>
       <r>   -13.7330     0.0000     0.0000 </r>
       <r>   -13.6262     0.0000     0.0000 </r>
       <r>   -13.5194     0.0000     0.0000 </r>
       <r>   -13.4125     0.0000     0.0000 </r>
       <r>   -13.3057     0.0000     0.0000 </r>
       <r>   -13.1988     0.0000     0.0000 </r>
       <r>   -13.0920     0.0000     0.0000 </r>
       <r>   -12.9852     0.0000     0.0000 </r>
       <r>   -12.8783     0.0000     0.0000 </r>
       <r>   -12.7715     0.0147     0.0016 </r>
       <r>   -12.6646     0.8369     0.0910 </r>
       <r>   -12.5578     2.6814     0.3775 </r>
       <r>   -12.4510     3.9077     0.7950 </r>
       <r>   -12.3441     4.0298     1.2255 </r>
       <r>   -12.2373     3.7764     1.6290 </r>
       <r>   -12.1304     2.1201     1.8555 </r>
       <r>   -12.0236     3.3204     2.2102 </r>
       <r>   -11.9168     1.9602     2.4197 </r>
       <r>   -11.8099     3.3267     2.7751 </r>
       <r>   -11.7031     3.1213     3.1086 </r>
       <r>   -11.5962     3.7055     3.5045 </r>
       <r>   -11.4894     2.9170     3.8161 </r>
       <r>   -11.3826     1.4041     3.9661 </r>
       <r>   -11.2757     0.3160     3.9999 </r>
       <r>   -11.1689     0.0009     4.0000 </r>
       <r>   -11.0620     0.0000     4.0000 </r>
       <r>   -10.9552     0.0000     4.0000 </r>
       <r>   -10.8484     0.0000     4.0000 </r>
       <r>   -10.7415     0.0000     4.0000 </r>
       <r>   -10.6347     0.0000     4.0000 </r>
       <r>   -10.5278     0.0000     4.0000 </r>
       <r>   -10.4210     0.0000     4.0000 </r>
       <r>   -10.3142     0.0000     4.0000 </r>
       <r>   -10.2073     0.0000     4.0000 </r>
       <r>   -10.1005     0.0000     4.0000 </r>
       <r>    -9.9936     0.0000     4.0000 </r>
       <r>    -9.8868     0.0000     4.0000 </r>
       <r>    -9.7800     0.0000     4.0000 </r>
       <r>    -9.6731     0.0000     4.0000 </r>
       <r>    -9.5663     0.0000     4.0000 </r>
       <r>    -9.4594     0.0000     4.0000 </r>
       <r>    -9.3526     0.0000     4.0000 </r>
       <r>    -9.2458     0.0000     4.0000 </r>
       <r>    -9.1389     0.0000     4.0000 </r>
       <r>    -9.0321     0.0000     4.0000 </r>
       <r>    -8.9252     0.0006     4.0001 </r>
       <r>    -8.8184     0.4560     4.0488 </r>
       <r>    -8.7116     2.3880     4.3039 </r>
       <r>    -8.6047     5.9097     4.9353 </r>
       <r>    -8.4979     6.9294     5.6756 </r>
       <r>    -8.3910     5.9216     6.3083 </r>
       <r>    -8.2842     5.4127     6.8866 </r>
       <r>    -8.1774     4.6524     7.3837 </r>
       <r>    -8.0705     3.8101     7.7907 </r>
       <r>    -7.9637     1.3507     7.9350 </r>
       <r>    -7.8569     0.5906     7.9981 </r>
       <r>    -7.7500     0.0175     8.0000 </r>
       <r>    -7.6432     0.0000     8.0000 </r>
       <r>    -7.5363     0.0000     8.0000 </r>
       <r>    -7.4295     0.0000     8.0000 </r>
       <r>    -7.3227     0.0000     8.0000 </r>
       <r>    -7.2158     0.0000     8.0000 </r>
       <r>    -7.1090     0.0000     8.0000 </r>
       <r>    -7.0021     0.0000     8.0000 </r>
       <r>    -6.8953     0.0096     8.0010 </r>
       <r>    -6.7885     0.4719     8.0514 </r>
       <r>    -6.6816     0.5620     8.1115 </r>
       <r>    -6.5748     0.5398     8.1692 </r>
       <r>    -6.4679     1.0618     8.2826 </r>
       <r>    -6.3611     0.9391     8.3829 </r>
       <r>    -6.2543     1.9799     8.5945 </r>
       <r>    -6.1474     3.4108     8.9589 </r>
       <r>    -6.0406     3.5241     9.3354 </r>
       <r>    -5.9337     4.3435     9.7994 </r>
       <r>    -5.8269     4.1594    10.2438 </r>
       <r>    -5.7201     4.3201    10.7054 </r>
       <r>    -5.6132     3.3611    11.0645 </r>
       <r>    -5.5064     4.0330    11.4954 </r>
       <r>    -5.3995     4.6062    11.9875 </r>
       <r>    -5.2927     4.0171    12.4167 </r>
       <r>    -5.1859     4.8091    12.9305 </r>
       <r>    -5.0790     4.1947    13.3787 </r>
       <r>    -4.9722     3.6096    13.7643 </r>
       <r>    -4.8653     3.2702    14.1137 </r>
       <r>    -4.7585     1.8155    14.3077 </r>
       <r>    -4.6517     3.4977    14.6814 </r>
       <r>    -4.5448     3.3996    15.0446 </r>
       <r>    -4.4380     3.0663    15.3722 </r>
       <r>    -4.3311     2.4992    15.6392 </r>
       <r>    -4.2243     2.2298    15.8774 </r>
       <r>    -4.1175     3.4099    16.2417 </r>
       <r>    -4.0106     4.0035    16.6695 </r>
       <r>    -3.9038     4.4501    17.1449 </r>
       <r>    -3.7969     2.8594    17.4504 </r>
       <r>    -3.6901     1.9417    17.6579 </r>
       <r>    -3.5833     2.3314    17.9069 </r>
       <r>    -3.4764     1.3130    18.0472 </r>
       <r>    -3.3696     3.1586    18.3847 </r>
       <r>    -3.2627     2.6796    18.6710 </r>
       <r>    -3.1559     3.3814    19.0322 </r>
       <r>    -3.0491     4.4245    19.5049 </r>
       <r>    -2.9422     4.0771    19.9405 </r>
       <r>    -2.8354     2.8041    20.2401 </r>
       <r>    -2.7285     1.6803    20.4196 </r>
       <r>    -2.6217     1.9168    20.6244 </r>
       <r>    -2.5149     2.2579    20.8657 </r>
       <r>    -2.4080     2.3043    21.1119 </r>
       <r>    -2.3012     3.3818    21.4732 </r>
       <r>    -2.1943     2.7006    21.7617 </r>
       <r>    -2.0875     3.6692    22.1537 </r>
       <r>    -1.9807     4.9884    22.6867 </r>
       <r>    -1.8738     5.2783    23.2506 </r>
       <r>    -1.7670     7.6627    24.0693 </r>
       <r>    -1.6602     5.6940    24.6776 </r>
       <r>    -1.5533     5.1893    25.2321 </r>
       <r>    -1.4465     5.6003    25.8304 </r>
       <r>    -1.3396     4.4922    26.3103 </r>
       <r>    -1.2328     3.8298    26.7195 </r>
       <r>    -1.1260     6.0843    27.3696 </r>
       <r>    -1.0191     5.3881    27.9452 </r>
       <r>    -0.9123     2.4144    28.2032 </r>
       <r>    -0.8054     2.0757    28.4249 </r>
       <r>    -0.6986     3.7438    28.8249 </r>
       <r>    -0.5918     4.7711    29.3347 </r>
       <r>    -0.4849     6.3088    30.0087 </r>
       <r>    -0.3781     6.7677    30.7317 </r>
       <r>    -0.2712     5.7150    31.3423 </r>
       <r>    -0.1644     6.0446    31.9881 </r>
       <r>    -0.0576     6.9356    32.7291 </r>
       <r>     0.0493     6.6500    33.4396 </r>
       <r>     0.1561     6.7624    34.1621 </r>
       <r>     0.2630     7.3685    34.9494 </r>
       <r>     0.3698     9.0446    35.9157 </r>
       <r>     0.4766     9.3298    36.9125 </r>
       <r>     0.5835     4.1123    37.3518 </r>
       <r>     0.6903     3.0121    37.6736 </r>
       <r>     0.7972     3.4833    38.0458 </r>
       <r>     0.9040     3.1069    38.3777 </r>
       <r>     1.0108     4.0638    38.8119 </r>
       <r>     1.1177     3.0234    39.1349 </r>
       <r>     1.2245     3.9623    39.5583 </r>
       <r>     1.3314     6.0630    40.2060 </r>
       <r>     1.4382     3.4721    40.5770 </r>
       <r>     1.5450     3.4070    40.9410 </r>
       <r>     1.6519     3.4920    41.3141 </r>
       <r>     1.7587     2.2576    41.5553 </r>
       <r>     1.8656     2.0381    41.7730 </r>
       <r>     1.9724     2.5048    42.0406 </r>
       <r>     2.0792     2.9913    42.3602 </r>
       <r>     2.1861     2.9996    42.6807 </r>
       <r>     2.2929     3.7023    43.0763 </r>
       <r>     2.3998     2.4973    43.3431 </r>
       <r>     2.5066     1.5054    43.5039 </r>
       <r>     2.6134     0.4809    43.5553 </r>
       <r>     2.7203     0.0024    43.5556 </r>
       <r>     2.8271     0.0000    43.5556 </r>
       <r>     2.9340     0.0002    43.5556 </r>
       <r>     3.0408     0.1942    43.5763 </r>
       <r>     3.1476     0.8279    43.6648 </r>
       <r>     3.2545     0.9708    43.7685 </r>
       <r>     3.3613     0.0869    43.7778 </r>
       <r>     3.4682     0.0775    43.7861 </r>
       <r>     3.5750     0.8049    43.8721 </r>
       <r>     3.6818     1.0246    43.9815 </r>
       <r>     3.7887     0.1728    44.0000 </r>
       <r>     3.8955     0.0001    44.0000 </r>
       <r>     4.0024     0.0000    44.0000 </r>
       <r>     4.1092     0.0000    44.0000 </r>
       <r>     4.2160     0.0001    44.0000 </r>
       <r>     4.3229     0.1482    44.0158 </r>
       <r>     4.4297     0.3788    44.0563 </r>
       <r>     4.5365     0.4283    44.1021 </r>
       <r>     4.6434     0.2225    44.1258 </r>
       <r>     4.7502     1.0048    44.2332 </r>
       <r>     4.8571     1.2568    44.3675 </r>
       <r>     4.9639     0.6206    44.4338 </r>
       <r>     5.0707     0.9287    44.5330 </r>
       <r>     5.1776     1.3416    44.6763 </r>
       <r>     5.2844     1.3601    44.8216 </r>
       <r>     5.3913     1.6939    45.0026 </r>
       <r>     5.4981     2.6677    45.2876 </r>
       <r>     5.6049     3.1697    45.6263 </r>
       <r>     5.7118     2.6277    45.9070 </r>
       <r>     5.8186     3.7599    46.3087 </r>
       <r>     5.9255     3.8406    46.7191 </r>
       <r>     6.0323     3.2132    47.0624 </r>
       <r>     6.1391     5.4173    47.6411 </r>
       <r>     6.2460     4.4641    48.1181 </r>
       <r>     6.3528     5.4656    48.7020 </r>
       <r>     6.4597     2.5038    48.9695 </r>
       <r>     6.5665     4.1095    49.4086 </r>
       <r>     6.6733     4.4761    49.8868 </r>
       <r>     6.7802     4.0171    50.3160 </r>
       <r>     6.8870     3.5290    50.6930 </r>
       <r>     6.9939     4.1558    51.1370 </r>
       <r>     7.1007     6.0906    51.7878 </r>
       <r>     7.2075     4.2437    52.2412 </r>
       <r>     7.3144     5.3438    52.8121 </r>
       <r>     7.4212     2.9317    53.1253 </r>
       <r>     7.5281     5.1801    53.6787 </r>
       <r>     7.6349     4.4886    54.1583 </r>
       <r>     7.7417     3.8921    54.5741 </r>
       <r>     7.8486     2.2960    54.8194 </r>
       <r>     7.9554     3.1302    55.1539 </r>
       <r>     8.0623     4.7106    55.6572 </r>
       <r>     8.1691     2.5179    55.9262 </r>
       <r>     8.2759     3.3324    56.2822 </r>
       <r>     8.3828     4.9479    56.8108 </r>
       <r>     8.4896     4.2858    57.2687 </r>
       <r>     8.5965     3.4125    57.6333 </r>
       <r>     8.7033     3.4352    58.0003 </r>
       <r>     8.8101     6.5688    58.7021 </r>
       <r>     8.9170     4.3714    59.1692 </r>
       <r>     9.0238     5.6045    59.7680 </r>
       <r>     9.1307     5.5717    60.3632 </r>
       <r>     9.2375     6.9229    61.1029 </r>
       <r>     9.3443     3.2404    61.4491 </r>
       <r>     9.4512     2.4074    61.7063 </r>
       <r>     9.5580     5.0306    62.2438 </r>
       <r>     9.6649     5.4143    62.8222 </r>
       <r>     9.7717     5.9082    63.4534 </r>
       <r>     9.8785     3.5974    63.8378 </r>
       <r>     9.9854     4.5114    64.3198 </r>
       <r>    10.0922     5.7464    64.9337 </r>
       <r>    10.1990     5.2266    65.4921 </r>
       <r>    10.3059     4.3614    65.9581 </r>
       <r>    10.4127     4.3547    66.4234 </r>
       <r>    10.5196     6.3629    67.1032 </r>
       <r>    10.6264     4.3862    67.5718 </r>
       <r>    10.7332     5.4978    68.1592 </r>
       <r>    10.8401     1.7259    68.3436 </r>
       <r>    10.9469     2.7690    68.6394 </r>
       <r>    11.0538     4.8669    69.1594 </r>
       <r>    11.1606     5.6278    69.7607 </r>
       <r>    11.2674     5.7119    70.3709 </r>
       <r>    11.3743     7.4791    71.1700 </r>
       <r>    11.4811     4.3246    71.6320 </r>
       <r>    11.5880     5.5946    72.2297 </r>
       <r>    11.6948     4.9299    72.7564 </r>
       <r>    11.8016     4.7430    73.2632 </r>
       <r>    11.9085     4.9236    73.7892 </r>
       <r>    12.0153     6.1301    74.4442 </r>
       <r>    12.1222     5.0001    74.9784 </r>
       <r>    12.2290     5.2563    75.5400 </r>
       <r>    12.3358     4.5967    76.0311 </r>
       <r>    12.4427     5.9223    76.6638 </r>
       <r>    12.5495     6.8526    77.3959 </r>
       <r>    12.6564     5.6676    78.0015 </r>
       <r>    12.7632     7.1781    78.7684 </r>
       <r>    12.8700     5.8958    79.3983 </r>
       <r>    12.9769     4.3642    79.8645 </r>
       <r>    13.0837     6.6737    80.5775 </r>
       <r>    13.1906     5.4610    81.1610 </r>
       <r>    13.2974     5.7976    81.7804 </r>
       <r>    13.4042     7.0060    82.5289 </r>
       <r>    13.5111     5.8535    83.1543 </r>
       <r>    13.6179     5.2852    83.7190 </r>
       <r>    13.7248     4.8377    84.2358 </r>
       <r>    13.8316     5.1524    84.7863 </r>
       <r>    13.9384     6.7640    85.5090 </r>
       <r>    14.0453     3.6079    85.8945 </r>
       <r>    14.1521     4.2676    86.3504 </r>
       <r>    14.2590     5.9534    86.9865 </r>
       <r>    14.3658     5.4857    87.5726 </r>
       <r>    14.4726     6.8161    88.3008 </r>
       <r>    14.5795     3.9640    88.7243 </r>
       <r>    14.6863     4.2256    89.1758 </r>
       <r>    14.7932     3.7501    89.5764 </r>
       <r>    14.9000     6.4246    90.2628 </r>
       <r>    15.0068     4.8245    90.7783 </r>
       <r>    15.1137     4.8076    91.2919 </r>
       <r>    15.2205     6.9452    92.0339 </r>
       <r>    15.3274     6.5499    92.7337 </r>
       <r>    15.4342     5.5757    93.3294 </r>
       <r>    15.5410     5.0331    93.8672 </r>
       <r>    15.6479     5.6552    94.4714 </r>
       <r>    15.7547     4.4589    94.9477 </r>
       <r>    15.8616     3.0790    95.2767 </r>
       <r>    15.9684     1.9292    95.4828 </r>
       <r>    16.0752     1.2680    95.6183 </r>
       <r>    16.1821     1.1791    95.7443 </r>
       <r>    16.2889     1.1749    95.8698 </r>
       <r>    16.3957     0.6820    95.9427 </r>
       <r>    16.5026     0.5225    95.9985 </r>
       <r>    16.6094     0.0142    96.0000 </r>
       <r>    16.7163     0.0000    96.0000 </r>
       <r>    16.8231     0.0000    96.0000 </r>
       <r>    16.9299     0.0000    96.0000 </r>
       <r>    17.0368     0.0000    96.0000 </r>
       <r>    17.1436     0.0000    96.0000 </r>
       <r>    17.2505     0.0000    96.0000 </r>
       <r>    17.3573     0.0000    96.0000 </r>
       <r>    17.4641     0.0000    96.0000 </r>
       <r>    17.5710     0.0000    96.0000 </r>
       <r>    17.6778     0.0000    96.0000 </r>
       <r>    17.7847     0.0000    96.0000 </r>
       <r>    17.8915     0.0000    96.0000 </r>
      </set>
     </set>
    </array>
   </total>
  </dos>
 </calculation>
 <structure name="finalpos" >
  <crystal>
   <varray name="basis" >
    <v>       5.69700000       0.00000000       0.00000000 </v>
    <v>       0.00000000       4.04790000       0.00000000 </v>
    <v>       0.00000000       0.00000000       6.20420000 </v>
   </varray>
   <i name="volume">    143.07435078 </i>
   <varray name="rec_basis" >
    <v>       0.17553098       0.00000000       0.00000000 </v>
    <v>       0.00000000       0.24704168       0.00000000 </v>
    <v>       0.00000000       0.00000000       0.16118114 </v>
   </varray>
  </crystal>
  <varray name="positions" >
   <v>       0.52123000       0.50000000       0.63796000 </v>
   <v>       0.47877000       0.50000000       0.36204000 </v>
   <v>       0.97877000       0.50000000       0.63796000 </v>
   <v>       0.02123000       0.50000000       0.36204000 </v>
   <v>       0.60090000       0.50000000       0.89991000 </v>
   <v>       0.39910000       0.50000000       0.10009000 </v>
   <v>       0.89910000       0.50000000       0.89991000 </v>
   <v>       0.10090000       0.50000000       0.10009000 </v>
   <v>       0.75000000       0.79171000       0.72973000 </v>
   <v>       0.25000000       0.20829000       0.27027000 </v>
   <v>       0.75000000       0.20829000       0.72973000 </v>
   <v>       0.25000000       0.79171000       0.27027000 </v>
   <v>       0.25000000       0.50000000       0.52367000 </v>
   <v>       0.75000000       0.50000000       0.47633000 </v>
  </varray>
 </structure>
</modeling>
