   14   14    1    1
  0.1016451E+02  0.5686745E-09  0.4040614E-09  0.6193032E-09  0.5000000E-15
  1.000000000000000E-004
  CAR 
 Convergence                             
     42    175     48
 
  0.5000000E-01  0.3571429E-01  0.0000000E+00  0.3174603E-02
      1        -12.731011   1.000000
      2        -11.588457   1.000000
      3         -8.650059   1.000000
      4         -8.412584   1.000000
      5         -6.048414   1.000000
      6         -5.114146   1.000000
      7         -4.648209   1.000000
      8         -4.265163   1.000000
      9         -4.018532   1.000000
     10         -3.527208   1.000000
     11         -2.569522   1.000000
     12         -2.299803   1.000000
     13         -1.807404   1.000000
     14         -1.072254   1.000000
     15         -0.048171   1.000000
     16         -0.018397   1.000000
     17          0.184880   1.000000
     18          0.208431   1.000000
     19          0.594380   1.000000
     20          2.048493   0.000085
     21          2.112367   0.000000
     22          2.251847   0.000000
     23          5.500218   0.000000
     24          5.792042   0.000000
     25          5.884272   0.000000
     26          6.001976   0.000000
     27          6.862808   0.000000
     28          7.596732   0.000000
     29          7.929025   0.000000
     30          8.597847   0.000000
     31          8.875403   0.000000
     32          9.014716   0.000000
     33          9.135083   0.000000
     34         10.175859   0.000000
     35         11.232703   0.000000
     36         11.404260   0.000000
     37         11.737577   0.000000
     38         11.848755   0.000000
     39         12.000554   0.000000
     40         12.458549   0.000000
     41         12.942989   0.000000
     42         13.528723   0.000000
     43         13.555785   0.000000
     44         15.475862   0.000000
     45         15.657616   0.000000
     46         16.153943   0.000000
     47         16.415202   0.000000
     48         16.441847   0.000000
 
  0.1500000E+00  0.3571429E-01  0.0000000E+00  0.3174603E-02
      1        -12.687200   1.000000
      2        -11.662184   1.000000
      3         -8.629105   1.000000
      4         -8.401079   1.000000
      5         -5.979854   1.000000
      6         -5.457699   1.000000
      7         -4.772423   1.000000
      8         -3.996395   1.000000
      9         -3.777952   1.000000
     10         -3.187676   1.000000
     11         -2.640233   1.000000
     12         -2.279338   1.000000
     13         -1.887382   1.000000
     14         -1.379789   1.000000
     15         -0.007474   1.000000
     16          0.008671   1.000000
     17          0.119666   1.000000
     18          0.227140   1.000000
     19          0.499450   1.000000
     20          1.962009   0.094557
     21          2.034202   0.000397
     22          2.130015   0.000000
     23          5.588310   0.000000
     24          5.804148   0.000000
     25          5.907949   0.000000
     26          6.349830   0.000000
     27          6.776605   0.000000
     28          7.233299   0.000000
     29          8.143110   0.000000
     30          8.734092   0.000000
     31          9.138326   0.000000
     32          9.202694   0.000000
     33          9.268747   0.000000
     34         10.295780   0.000000
     35         11.009764   0.000000
     36         11.200046   0.000000
     37         11.306598   0.000000
     38         11.764811   0.000000
     39         12.218287   0.000000
     40         12.550115   0.000000
     41         13.198219   0.000000
     42         13.202991   0.000000
     43         14.091094   0.000000
     44         14.960900   0.000000
     45         15.833106   0.000000
     46         15.907620   0.000000
     47         16.315079   0.000000
     48         16.600718   0.000000
 
  0.2500000E+00  0.3571429E-01  0.0000000E+00  0.3174603E-02
      1        -12.601459   1.000000
      2        -11.795091   1.000000
      3         -8.585672   1.000000
      4         -8.386400   1.000000
      5         -5.958545   1.000000
      6         -5.785537   1.000000
      7         -4.727098   1.000000
      8         -3.867600   1.000000
      9         -3.266184   1.000000
     10         -2.810594   1.000000
     11         -2.692997   1.000000
     12         -2.238178   1.000000
     13         -1.999707   1.000000
     14         -1.885008   1.000000
     15         -0.188215   1.000000
     16          0.038848   1.000000
     17          0.171296   1.000000
     18          0.180117   1.000000
     19          0.469090   1.000000
     20          1.814398   0.997894
     21          1.898741   0.683059
     22          1.900946   0.660531
     23          5.708648   0.000000
     24          5.760923   0.000000
     25          6.217276   0.000000
     26          6.649539   0.000000
     27          6.810390   0.000000
     28          6.978048   0.000000
     29          8.296636   0.000000
     30          8.881811   0.000000
     31          9.072234   0.000000
     32          9.646203   0.000000
     33          9.711466   0.000000
     34         10.345203   0.000000
     35         10.554776   0.000000
     36         10.696081   0.000000
     37         11.430101   0.000000
     38         11.905045   0.000000
     39         12.453680   0.000000
     40         12.642671   0.000000
     41         12.854942   0.000000
     42         12.997085   0.000000
     43         14.718905   0.000000
     44         15.004357   0.000000
     45         15.299074   0.000000
     46         16.069169   0.000000
     47         16.085843   0.000000
     48         16.383457   0.000000
 
  0.3500000E+00  0.3571429E-01  0.0000000E+00  0.3174603E-02
      1        -12.477795   1.000000
      2        -11.964459   1.000000
      3         -8.523852   1.000000
      4         -8.383347   1.000000
      5         -6.040534   1.000000
      6         -6.019015   1.000000
      7         -4.398703   1.000000
      8         -3.697452   1.000000
      9         -3.005974   1.000000
     10         -2.879931   1.000000
     11         -2.424534   1.000000
     12         -2.230128   1.000000
     13         -2.118331   1.000000
     14         -2.102595   1.000000
     15         -0.487281   1.000000
     16         -0.215221   1.000000
     17          0.196033   1.000000
     18          0.272138   1.000000
     19          0.642849   1.000000
     20          1.562537   1.000000
     21          1.690343   1.000000
     22          1.751944   0.999998
     23          5.744790   0.000000
     24          5.794462   0.000000
     25          6.546941   0.000000
     26          6.717266   0.000000
     27          6.743624   0.000000
     28          7.463998   0.000000
     29          8.422792   0.000000
     30          8.746407   0.000000
     31          8.875435   0.000000
     32          9.595973   0.000000
     33         10.126130   0.000000
     34         10.181276   0.000000
     35         10.467976   0.000000
     36         11.228329   0.000000
     37         11.464990   0.000000
     38         12.021825   0.000000
     39         12.271769   0.000000
     40         12.351040   0.000000
     41         12.584282   0.000000
     42         13.322518   0.000000
     43         14.782651   0.000000
     44         15.054861   0.000000
     45         15.354846   0.000000
     46         15.454413   0.000000
     47         15.657960   0.000000
     48         16.462564   0.000000
 
  0.4500000E+00  0.3571429E-01  0.0000000E+00  0.3174603E-02
      1        -12.322891   1.000000
      2        -12.146909   1.000000
      3         -8.457529   1.000000
      4         -8.406231   1.000000
      5         -6.132329   1.000000
      6         -6.127067   1.000000
      7         -3.881944   1.000000
      8         -3.486786   1.000000
      9         -3.281242   1.000000
     10         -3.246909   1.000000
     11         -2.344051   1.000000
     12         -2.212730   1.000000
     13         -1.934969   1.000000
     14         -1.885070   1.000000
     15         -0.707706   1.000000
     16         -0.573031   1.000000
     17          0.279817   1.000000
     18          0.313814   1.000000
     19          0.904367   1.000000
     20          1.222710   1.000000
     21          1.609535   1.000000
     22          1.637420   1.000000
     23          5.771567   0.000000
     24          5.807358   0.000000
     25          6.524220   0.000000
     26          6.587703   0.000000
     27          7.416041   0.000000
     28          8.128305   0.000000
     29          8.147622   0.000000
     30          8.542241   0.000000
     31          8.682915   0.000000
     32          8.847356   0.000000
     33         10.564191   0.000000
     34         10.583684   0.000000
     35         10.832323   0.000000
     36         11.291493   0.000000
     37         11.476686   0.000000
     38         11.678813   0.000000
     39         12.014142   0.000000
     40         12.553772   0.000000
     41         12.780474   0.000000
     42         13.320037   0.000000
     43         14.658982   0.000000
     44         14.816845   0.000000
     45         14.942960   0.000000
     46         15.001133   0.000000
     47         16.193431   0.000000
     48         16.536618   0.000000
 
  0.5000000E-01  0.1071429E+00  0.0000000E+00  0.3174603E-02
      1        -12.706881   1.000000
      2        -11.566881   1.000000
      3         -8.631098   1.000000
      4         -8.389265   1.000000
      5         -6.021401   1.000000
      6         -5.080326   1.000000
      7         -4.625949   1.000000
      8         -4.562607   1.000000
      9         -4.162965   1.000000
     10         -3.504094   1.000000
     11         -3.264384   1.000000
     12         -1.769006   1.000000
     13         -1.067634   1.000000
     14         -1.006982   1.000000
     15         -0.283035   1.000000
     16         -0.255037   1.000000
     17          0.198354   1.000000
     18          0.278696   1.000000
     19          0.673182   1.000000
     20          1.779344   0.999942
     21          1.860156   0.941517
     22          2.304302   0.000000
     23          5.616368   0.000000
     24          5.752056   0.000000
     25          5.782903   0.000000
     26          6.055690   0.000000
     27          7.150898   0.000000
     28          7.882996   0.000000
     29          8.134645   0.000000
     30          8.241145   0.000000
     31          8.878768   0.000000
     32          9.174867   0.000000
     33          9.224159   0.000000
     34         10.632088   0.000000
     35         11.334253   0.000000
     36         11.450937   0.000000
     37         11.670834   0.000000
     38         11.952141   0.000000
     39         12.110935   0.000000
     40         12.741335   0.000000
     41         12.941772   0.000000
     42         13.262147   0.000000
     43         13.271077   0.000000
     44         15.418706   0.000000
     45         15.472496   0.000000
     46         15.942405   0.000000
     47         15.964112   0.000000
     48         16.309669   0.000000
 
  0.1500000E+00  0.1071429E+00  0.0000000E+00  0.3174603E-02
      1        -12.663171   1.000000
      2        -11.640455   1.000000
      3         -8.610007   1.000000
      4         -8.378141   1.000000
      5         -5.951042   1.000000
      6         -5.427548   1.000000
      7         -4.752208   1.000000
      8         -4.477806   1.000000
      9         -3.737472   1.000000
     10         -3.346012   1.000000
     11         -3.149125   1.000000
     12         -1.747092   1.000000
     13         -1.374350   1.000000
     14         -1.128272   1.000000
     15         -0.243615   1.000000
     16         -0.171187   1.000000
     17          0.166585   1.000000
     18          0.248429   1.000000
     19          0.570634   1.000000
     20          1.698502   1.000000
     21          1.783425   0.999907
     22          2.172861   0.000000
     23          5.691886   0.000000
     24          5.849914   0.000000
     25          5.983384   0.000000
     26          6.155641   0.000000
     27          7.066810   0.000000
     28          7.556989   0.000000
     29          8.280491   0.000000
     30          8.415603   0.000000
     31          9.210051   0.000000
     32          9.230652   0.000000
     33          9.483414   0.000000
     34         10.562216   0.000000
     35         10.939637   0.000000
     36         11.151950   0.000000
     37         11.506099   0.000000
     38         11.937757   0.000000
     39         12.331347   0.000000
     40         12.801471   0.000000
     41         12.937932   0.000000
     42         13.227254   0.000000
     43         13.805969   0.000000
     44         15.046726   0.000000
     45         15.484631   0.000000
     46         15.829384   0.000000
     47         15.884899   0.000000
     48         16.489835   0.000000
 
  0.2500000E+00  0.1071429E+00  0.0000000E+00  0.3174603E-02
      1        -12.577629   1.000000
      2        -11.773073   1.000000
      3         -8.566373   1.000000
      4         -8.364176   1.000000
      5         -5.926945   1.000000
      6         -5.754977   1.000000
      7         -4.710304   1.000000
      8         -4.368168   1.000000
      9         -3.468972   1.000000
     10         -3.210092   1.000000
     11         -2.680971   1.000000
     12         -1.880452   1.000000
     13         -1.702390   1.000000
     14         -1.293488   1.000000
     15         -0.195067   1.000000
     16         -0.190945   1.000000
     17          0.076571   1.000000
     18          0.235722   1.000000
     19          0.493899   1.000000
     20          1.562932   1.000000
     21          1.652825   1.000000
     22          1.923482   0.411570
     23          5.902677   0.000000
     24          5.976977   0.000000
     25          6.053931   0.000000
     26          6.606771   0.000000
     27          6.945089   0.000000
     28          7.328000   0.000000
     29          8.486103   0.000000
     30          8.550714   0.000000
     31          9.174994   0.000000
     32          9.683200   0.000000
     33          9.938393   0.000000
     34         10.187613   0.000000
     35         10.420037   0.000000
     36         10.895314   0.000000
     37         11.575114   0.000000
     38         12.171379   0.000000
     39         12.381678   0.000000
     40         12.616547   0.000000
     41         13.036725   0.000000
     42         13.087004   0.000000
     43         14.384417   0.000000
     44         15.175347   0.000000
     45         15.243146   0.000000
     46         15.731107   0.000000
     47         15.789965   0.000000
     48         16.509470   0.000000
 
  0.3500000E+00  0.1071429E+00  0.0000000E+00  0.3174603E-02
      1        -12.454243   1.000000
      2        -11.942061   1.000000
      3         -8.504315   1.000000
      4         -8.362028   1.000000
      5         -6.007727   1.000000
      6         -5.987513   1.000000
      7         -4.384063   1.000000
      8         -4.219857   1.000000
      9         -3.642133   1.000000
     10         -2.828469   1.000000
     11         -2.342212   1.000000
     12         -2.196381   1.000000
     13         -1.637536   1.000000
     14         -1.458247   1.000000
     15         -0.448006   1.000000
     16         -0.280794   1.000000
     17          0.109641   1.000000
     18          0.138212   1.000000
     19          0.653660   1.000000
     20          1.423060   1.000000
     21          1.506741   1.000000
     22          1.597926   1.000000
     23          5.921463   0.000000
     24          6.051187   0.000000
     25          6.559991   0.000000
     26          6.854137   0.000000
     27          6.926247   0.000000
     28          7.420646   0.000000
     29          8.472039   0.000000
     30          8.659943   0.000000
     31          9.006399   0.000000
     32          9.429766   0.000000
     33         10.138886   0.000000
     34         10.168445   0.000000
     35         10.505556   0.000000
     36         11.306544   0.000000
     37         11.428601   0.000000
     38         11.911758   0.000000
     39         12.374829   0.000000
     40         12.609151   0.000000
     41         12.785738   0.000000
     42         13.526918   0.000000
     43         14.844922   0.000000
     44         14.850372   0.000000
     45         15.239348   0.000000
     46         15.387256   0.000000
     47         15.739818   0.000000
     48         16.474556   0.000000
 
  0.4500000E+00  0.1071429E+00  0.0000000E+00  0.3174603E-02
      1        -12.299698   1.000000
      2        -12.124109   1.000000
      3         -8.437663   1.000000
      4         -8.385772   1.000000
      5         -6.099999   1.000000
      6         -6.094250   1.000000
      7         -4.039404   1.000000
      8         -3.874914   1.000000
      9         -3.833208   1.000000
     10         -3.268231   1.000000
     11         -2.089423   1.000000
     12         -1.893300   1.000000
     13         -1.569475   1.000000
     14         -1.569352   1.000000
     15         -0.668981   1.000000
     16         -0.569619   1.000000
     17          0.141199   1.000000
     18          0.172618   1.000000
     19          0.913825   1.000000
     20          1.228977   1.000000
     21          1.369075   1.000000
     22          1.393546   1.000000
     23          5.971492   0.000000
     24          6.035679   0.000000
     25          6.841787   0.000000
     26          6.891928   0.000000
     27          7.230709   0.000000
     28          7.947220   0.000000
     29          7.995105   0.000000
     30          8.681523   0.000000
     31          8.754023   0.000000
     32          8.868270   0.000000
     33         10.387497   0.000000
     34         10.634607   0.000000
     35         10.869596   0.000000
     36         10.980505   0.000000
     37         11.623674   0.000000
     38         11.738705   0.000000
     39         12.095017   0.000000
     40         12.725538   0.000000
     41         13.091514   0.000000
     42         13.553534   0.000000
     43         14.626160   0.000000
     44         14.810047   0.000000
     45         14.904794   0.000000
     46         15.121704   0.000000
     47         16.216156   0.000000
     48         16.510112   0.000000
 
  0.5000000E-01  0.1785714E+00  0.0000000E+00  0.3174603E-02
      1        -12.662297   1.000000
      2        -11.527091   1.000000
      3         -8.596381   1.000000
      4         -8.346238   1.000000
      5         -5.971452   1.000000
      6         -5.120137   1.000000
      7         -4.988492   1.000000
      8         -4.583756   1.000000
      9         -4.147342   1.000000
     10         -3.887907   1.000000
     11         -3.450515   1.000000
     12         -1.181305   1.000000
     13         -1.058194   1.000000
     14         -0.629468   1.000000
     15         -0.520727   1.000000
     16         -0.146418   1.000000
     17          0.219688   1.000000
     18          0.332339   1.000000
     19          0.752191   1.000000
     20          1.394300   1.000000
     21          1.458929   1.000000
     22          2.342863   0.000000
     23          5.323986   0.000000
     24          5.491745   0.000000
     25          6.170403   0.000000
     26          6.246183   0.000000
     27          7.590368   0.000000
     28          7.679001   0.000000
     29          8.368296   0.000000
     30          8.789659   0.000000
     31          8.945318   0.000000
     32          9.320466   0.000000
     33          9.440322   0.000000
     34         10.944169   0.000000
     35         11.383234   0.000000
     36         11.640386   0.000000
     37         11.756395   0.000000
     38         12.154150   0.000000
     39         12.327536   0.000000
     40         12.813555   0.000000
     41         12.828188   0.000000
     42         13.085015   0.000000
     43         13.286121   0.000000
     44         14.768404   0.000000
     45         15.245610   0.000000
     46         15.434699   0.000000
     47         15.504434   0.000000
     48         16.052738   0.000000
 
  0.1500000E+00  0.1785714E+00  0.0000000E+00  0.3174603E-02
      1        -12.618776   1.000000
      2        -11.600367   1.000000
      3         -8.575000   1.000000
      4         -8.335831   1.000000
      5         -5.897655   1.000000
      6         -5.379872   1.000000
      7         -5.019063   1.000000
      8         -4.714139   1.000000
      9         -3.954732   1.000000
     10         -3.694793   1.000000
     11         -3.109630   1.000000
     12         -1.366155   1.000000
     13         -1.154387   1.000000
     14         -0.735612   1.000000
     15         -0.482539   1.000000
     16         -0.066112   1.000000
     17          0.202299   1.000000
     18          0.273719   1.000000
     19          0.639913   1.000000
     20          1.314855   1.000000
     21          1.388999   1.000000
     22          2.206355   0.000000
     23          5.404045   0.000000
     24          5.840097   0.000000
     25          6.192130   0.000000
     26          6.283872   0.000000
     27          7.509181   0.000000
     28          7.835595   0.000000
     29          8.100452   0.000000
     30          8.879378   0.000000
     31          9.330223   0.000000
     32          9.351020   0.000000
     33          9.725938   0.000000
     34         10.579422   0.000000
     35         10.844192   0.000000
     36         11.342824   0.000000
     37         11.774642   0.000000
     38         12.264703   0.000000
     39         12.497675   0.000000
     40         12.563812   0.000000
     41         13.236420   0.000000
     42         13.336847   0.000000
     43         13.513178   0.000000
     44         14.775915   0.000000
     45         14.905189   0.000000
     46         15.382675   0.000000
     47         15.567930   0.000000
     48         16.071257   0.000000
 
  0.2500000E+00  0.1785714E+00  0.0000000E+00  0.3174603E-02
      1        -12.533596   1.000000
      2        -11.732445   1.000000
      3         -8.530963   1.000000
      4         -8.323212   1.000000
      5         -5.868108   1.000000
      6         -5.699953   1.000000
      7         -4.927191   1.000000
      8         -4.678931   1.000000
      9         -4.079630   1.000000
     10         -3.158914   1.000000
     11         -2.636738   1.000000
     12         -1.863959   1.000000
     13         -1.113353   1.000000
     14         -0.873841   1.000000
     15         -0.429056   1.000000
     16         -0.053217   1.000000
     17          0.039412   1.000000
     18          0.286395   1.000000
     19          0.524252   1.000000
     20          1.182789   1.000000
     21          1.270282   1.000000
     22          1.948632   0.174931
     23          5.726397   0.000000
     24          6.147076   0.000000
     25          6.319129   0.000000
     26          6.412958   0.000000
     27          7.405753   0.000000
     28          7.909844   0.000000
     29          8.069189   0.000000
     30          9.007619   0.000000
     31          9.318965   0.000000
     32          9.786621   0.000000
     33          9.912027   0.000000
     34         10.207578   0.000000
     35         10.317895   0.000000
     36         11.133752   0.000000
     37         11.648149   0.000000
     38         12.171534   0.000000
     39         12.577818   0.000000
     40         12.863550   0.000000
     41         13.121362   0.000000
     42         13.514474   0.000000
     43         14.036280   0.000000
     44         14.681429   0.000000
     45         14.955610   0.000000
     46         15.398015   0.000000
     47         15.589747   0.000000
     48         16.281643   0.000000
 
  0.3500000E+00  0.1785714E+00  0.0000000E+00  0.3174603E-02
      1        -12.410742   1.000000
      2        -11.900733   1.000000
      3         -8.468474   1.000000
      4         -8.322792   1.000000
      5         -5.946589   1.000000
      6         -5.929443   1.000000
      7         -4.790372   1.000000
      8         -4.357087   1.000000
      9         -4.245779   1.000000
     10         -2.789027   1.000000
     11         -2.300499   1.000000
     12         -2.155132   1.000000
     13         -1.056338   1.000000
     14         -1.010155   1.000000
     15         -0.432158   1.000000
     16         -0.340824   1.000000
     17          0.083740   1.000000
     18          0.089568   1.000000
     19          0.671449   1.000000
     20          1.052755   1.000000
     21          1.137029   1.000000
     22          1.612368   1.000000
     23          6.157341   0.000000
     24          6.264478   0.000000
     25          6.445360   0.000000
     26          6.849357   0.000000
     27          7.348178   0.000000
     28          7.830085   0.000000
     29          8.121686   0.000000
     30          9.107375   0.000000
     31          9.162268   0.000000
     32          9.239517   0.000000
     33          9.956025   0.000000
     34         10.255496   0.000000
     35         10.764107   0.000000
     36         11.144035   0.000000
     37         11.406132   0.000000
     38         12.018015   0.000000
     39         12.437869   0.000000
     40         13.051840   0.000000
     41         13.102689   0.000000
     42         13.861788   0.000000
     43         14.465131   0.000000
     44         14.477299   0.000000
     45         15.113036   0.000000
     46         15.204943   0.000000
     47         15.701599   0.000000
     48         16.456980   0.000000
 
  0.4500000E+00  0.1785714E+00  0.0000000E+00  0.3174603E-02
      1        -12.256852   1.000000
      2        -12.082009   1.000000
      3         -8.401167   1.000000
      4         -8.348153   1.000000
      5         -6.039945   1.000000
      6         -6.033126   1.000000
      7         -4.621218   1.000000
      8         -4.433916   1.000000
      9         -3.843037   1.000000
     10         -3.245435   1.000000
     11         -2.018954   1.000000
     12         -1.852104   1.000000
     13         -1.080000   1.000000
     14         -1.016149   1.000000
     15         -0.601694   1.000000
     16         -0.592795   1.000000
     17          0.033425   1.000000
     18          0.076997   1.000000
     19          0.929552   1.000000
     20          0.990580   1.000000
     21          1.031931   1.000000
     22          1.257684   1.000000
     23          6.248734   0.000000
     24          6.365670   0.000000
     25          6.920507   0.000000
     26          7.265020   0.000000
     27          7.324864   0.000000
     28          7.667954   0.000000
     29          7.978117   0.000000
     30          8.493107   0.000000
     31          9.164144   0.000000
     32          9.196977   0.000000
     33         10.078700   0.000000
     34         10.549860   0.000000
     35         10.775847   0.000000
     36         11.040696   0.000000
     37         11.804530   0.000000
     38         11.829149   0.000000
     39         12.218390   0.000000
     40         12.987350   0.000000
     41         13.484605   0.000000
     42         13.834937   0.000000
     43         14.308159   0.000000
     44         14.463167   0.000000
     45         15.069654   0.000000
     46         15.210870   0.000000
     47         16.076359   0.000000
     48         16.381943   0.000000
 
  0.5000000E-01  0.2500000E+00  0.0000000E+00  0.3174603E-02
      1        -12.604525   1.000000
      2        -11.475685   1.000000
      3         -8.552006   1.000000
      4         -8.290575   1.000000
      5         -5.906589   1.000000
      6         -5.602181   1.000000
      7         -4.917523   1.000000
      8         -4.526957   1.000000
      9         -4.409271   1.000000
     10         -4.107791   1.000000
     11         -3.388040   1.000000
     12         -1.203673   1.000000
     13         -1.044000   1.000000
     14         -0.986717   1.000000
     15         -0.167410   1.000000
     16          0.248218   1.000000
     17          0.376303   1.000000
     18          0.625696   1.000000
     19          0.816385   1.000000
     20          1.007644   1.000000
     21          1.022021   1.000000
     22          2.377498   0.000000
     23          4.977440   0.000000
     24          5.196018   0.000000
     25          6.407865   0.000000
     26          6.636940   0.000000
     27          7.318191   0.000000
     28          8.026883   0.000000
     29          8.768810   0.000000
     30          9.113503   0.000000
     31          9.541155   0.000000
     32          9.638191   0.000000
     33          9.721559   0.000000
     34         10.805759   0.000000
     35         11.336900   0.000000
     36         12.029959   0.000000
     37         12.075708   0.000000
     38         12.365984   0.000000
     39         12.488421   0.000000
     40         12.510187   0.000000
     41         12.632383   0.000000
     42         13.071066   0.000000
     43         13.883113   0.000000
     44         13.949910   0.000000
     45         14.502235   0.000000
     46         15.177419   0.000000
     47         15.475401   0.000000
     48         15.958548   0.000000
 
  0.1500000E+00  0.2500000E+00  0.0000000E+00  0.3174603E-02
      1        -12.561254   1.000000
      2        -11.548584   1.000000
      3         -8.530251   1.000000
      4         -8.281139   1.000000
      5         -5.828136   1.000000
      6         -5.567482   1.000000
      7         -5.256589   1.000000
      8         -4.663749   1.000000