       N       E                     dE             d eps       ncg     rms          rms(c)
DAV:   1     0.802465583699E+02    0.80247E+02   -0.20077E+04 16800   0.863E+02
DAV:   2    -0.918304058615E+02   -0.17208E+03   -0.16122E+03 23136   0.168E+02
DAV:   3    -0.977064183125E+02   -0.58760E+01   -0.58419E+01 24816   0.276E+01
DAV:   4    -0.977407442245E+02   -0.34326E-01   -0.34324E-01 20304   0.245E+00
DAV:   5    -0.977411233806E+02   -0.37916E-03   -0.37915E-03 24720   0.245E-01    0.124E+01
DAV:   6    -0.922450533836E+02    0.54961E+01   -0.40041E+00 24264   0.665E+00    0.684E+00
DAV:   7    -0.905723204651E+02    0.16727E+01   -0.32610E+00 25152   0.591E+00    0.172E+00
DAV:   8    -0.905846147766E+02   -0.12294E-01   -0.23791E-01 18552   0.169E+00    0.707E-01
DAV:   9    -0.905987568976E+02   -0.14142E-01   -0.17045E-02 23496   0.440E-01    0.200E-01
DAV:  10    -0.906028178187E+02   -0.40609E-02   -0.21023E-03 19032   0.162E-01    0.610E-02
DAV:  11    -0.906038823996E+02   -0.10646E-02   -0.62379E-04 21696   0.867E-02    0.322E-02
DAV:  12    -0.906039996140E+02   -0.11721E-03   -0.94332E-05 20640   0.373E-02    0.430E-03
DAV:  13    -0.906040044710E+02   -0.48570E-05   -0.41582E-06 23496   0.887E-03    0.186E-03
DAV:  14    -0.906040051673E+02   -0.69627E-06   -0.29831E-07 20328   0.234E-03
   1 F= -.90604005E+02 E0= -.90602400E+02  d E =-.321120E-02
