   14   14    1    1
  0.1017673E+02  0.5689024E-09  0.4042233E-09  0.6195514E-09  0.5000000E-15
  1.000000000000000E-004
  CAR 
 Convergence                             
     42    175     48
 
  0.5000000E-01  0.3571429E-01  0.0000000E+00  0.3174603E-02
      1        -12.729649   1.000000
      2        -11.587233   1.000000
      3         -8.651811   1.000000
      4         -8.414502   1.000000
      5         -6.051805   1.000000
      6         -5.117659   1.000000
      7         -4.652086   1.000000
      8         -4.267305   1.000000
      9         -4.021723   1.000000
     10         -3.530874   1.000000
     11         -2.574855   1.000000
     12         -2.305292   1.000000
     13         -1.813204   1.000000
     14         -1.077489   1.000000
     15         -0.052952   1.000000
     16         -0.023085   1.000000
     17          0.178526   1.000000
     18          0.201647   1.000000
     19          0.588029   1.000000
     20          2.041903   0.000081
     21          2.105610   0.000000
     22          2.244135   0.000000
     23          5.490801   0.000000
     24          5.782498   0.000000
     25          5.874005   0.000000
     26          5.992450   0.000000
     27          6.852053   0.000000
     28          7.585990   0.000000
     29          7.917606   0.000000
     30          8.583944   0.000000
     31          8.859101   0.000000
     32          9.000239   0.000000
     33          9.116562   0.000000
     34         10.164114   0.000000
     35         11.221835   0.000000
     36         11.388681   0.000000
     37         11.721318   0.000000
     38         11.833818   0.000000
     39         11.987240   0.000000
     40         12.446227   0.000000
     41         12.926337   0.000000
     42         13.511655   0.000000
     43         13.538764   0.000000
     44         15.454758   0.000000
     45         15.638265   0.000000
     46         16.133295   0.000000
     47         16.396822   0.000000
     48         16.422682   0.000000
 
  0.1500000E+00  0.3571429E-01  0.0000000E+00  0.3174603E-02
      1        -12.685853   1.000000
      2        -11.660973   1.000000
      3         -8.630826   1.000000
      4         -8.402997   1.000000
      5         -5.983326   1.000000
      6         -5.460653   1.000000
      7         -4.775931   1.000000
      8         -3.999308   1.000000
      9         -3.781055   1.000000
     10         -3.191781   1.000000
     11         -2.645461   1.000000
     12         -2.284912   1.000000
     13         -1.892881   1.000000
     14         -1.384893   1.000000
     15         -0.012337   1.000000
     16          0.002733   1.000000
     17          0.113916   1.000000
     18          0.220704   1.000000
     19          0.493064   1.000000
     20          1.955483   0.092258
     21          2.027484   0.000385
     22          2.122444   0.000000
     23          5.579049   0.000000
     24          5.793794   0.000000
     25          5.898591   0.000000
     26          6.339805   0.000000
     27          6.765994   0.000000
     28          7.222922   0.000000
     29          8.130773   0.000000
     30          8.720213   0.000000
     31          9.120697   0.000000
     32          9.186800   0.000000
     33          9.254340   0.000000
     34         10.282434   0.000000
     35         10.994650   0.000000
     36         11.184517   0.000000
     37         11.295531   0.000000
     38         11.750096   0.000000
     39         12.204861   0.000000
     40         12.537311   0.000000
     41         13.181014   0.000000
     42         13.186189   0.000000
     43         14.073207   0.000000
     44         14.940509   0.000000
     45         15.814630   0.000000
     46         15.890089   0.000000
     47         16.295322   0.000000
     48         16.581750   0.000000
 
  0.2500000E+00  0.3571429E-01  0.0000000E+00  0.3174603E-02
      1        -12.600135   1.000000
      2        -11.793891   1.000000
      3         -8.587362   1.000000
      4         -8.388309   1.000000
      5         -5.961953   1.000000
      6         -5.788222   1.000000
      7         -4.730481   1.000000
      8         -3.870811   1.000000
      9         -3.269452   1.000000
     10         -2.815470   1.000000
     11         -2.697628   1.000000
     12         -2.243905   1.000000
     13         -2.004829   1.000000
     14         -1.889905   1.000000
     15         -0.195071   1.000000
     16          0.033386   1.000000
     17          0.165172   1.000000
     18          0.175039   1.000000
     19          0.462735   1.000000
     20          1.807879   0.997799
     21          1.891524   0.685112
     22          1.894355   0.656154
     23          5.699493   0.000000
     24          5.750504   0.000000
     25          6.207874   0.000000
     26          6.639167   0.000000
     27          6.799919   0.000000
     28          6.967823   0.000000
     29          8.283734   0.000000
     30          8.868102   0.000000
     31          9.056250   0.000000
     32          9.630448   0.000000
     33          9.697333   0.000000
     34         10.330848   0.000000
     35         10.539430   0.000000
     36         10.680405   0.000000
     37         11.418325   0.000000
     38         11.890748   0.000000
     39         12.440176   0.000000
     40         12.625556   0.000000
     41         12.841147   0.000000
     42         12.979530   0.000000
     43         14.700553   0.000000
     44         14.985116   0.000000
     45         15.282742   0.000000
     46         16.050005   0.000000
     47         16.067179   0.000000
     48         16.362807   0.000000
 
  0.3500000E+00  0.3571429E-01  0.0000000E+00  0.3174603E-02
      1        -12.476505   1.000000
      2        -11.963254   1.000000
      3         -8.525543   1.000000
      4         -8.385222   1.000000
      5         -6.043663   1.000000
      6         -6.021613   1.000000
      7         -4.402290   1.000000
      8         -3.700918   1.000000
      9         -3.010565   1.000000
     10         -2.883583   1.000000
     11         -2.428826   1.000000
     12         -2.235084   1.000000
     13         -2.124371   1.000000
     14         -2.107307   1.000000
     15         -0.494145   1.000000
     16         -0.221819   1.000000
     17          0.190894   1.000000
     18          0.266864   1.000000
     19          0.636364   1.000000
     20          1.555425   1.000000
     21          1.684109   1.000000
     22          1.745503   0.999998
     23          5.734564   0.000000
     24          5.785203   0.000000
     25          6.536847   0.000000
     26          6.707453   0.000000
     27          6.733707   0.000000
     28          7.452684   0.000000
     29          8.409500   0.000000
     30          8.733639   0.000000
     31          8.860755   0.000000
     32          9.582414   0.000000
     33         10.110561   0.000000
     34         10.167298   0.000000
     35         10.452520   0.000000
     36         11.210684   0.000000
     37         11.451573   0.000000
     38         12.004942   0.000000
     39         12.256939   0.000000
     40         12.334058   0.000000
     41         12.570280   0.000000
     42         13.308006   0.000000
     43         14.767202   0.000000
     44         15.037497   0.000000
     45         15.334505   0.000000
     46         15.436713   0.000000
     47         15.639019   0.000000
     48         16.443604   0.000000
 
  0.4500000E+00  0.3571429E-01  0.0000000E+00  0.3174603E-02
      1        -12.321639   1.000000
      2        -12.145688   1.000000
      3         -8.459269   1.000000
      4         -8.408044   1.000000
      5         -6.134991   1.000000
      6         -6.129918   1.000000
      7         -3.885842   1.000000
      8         -3.490567   1.000000
      9         -3.285428   1.000000
     10         -3.251095   1.000000
     11         -2.347924   1.000000
     12         -2.217212   1.000000
     13         -1.940809   1.000000
     14         -1.890205   1.000000
     15         -0.714589   1.000000
     16         -0.579739   1.000000
     17          0.274547   1.000000
     18          0.308464   1.000000
     19          0.897705   1.000000
     20          1.215833   1.000000
     21          1.603339   1.000000
     22          1.631128   1.000000
     23          5.761605   0.000000
     24          5.797750   0.000000
     25          6.514399   0.000000
     26          6.577978   0.000000
     27          7.405399   0.000000
     28          8.116234   0.000000
     29          8.136066   0.000000
     30          8.528571   0.000000
     31          8.668813   0.000000
     32          8.834539   0.000000
     33         10.550254   0.000000
     34         10.569048   0.000000
     35         10.816491   0.000000
     36         11.275423   0.000000
     37         11.460455   0.000000
     38         11.661277   0.000000
     39         11.996229   0.000000
     40         12.537967   0.000000
     41         12.766270   0.000000
     42         13.305060   0.000000
     43         14.643818   0.000000
     44         14.798659   0.000000
     45         14.926636   0.000000
     46         14.984866   0.000000
     47         16.173085   0.000000
     48         16.516588   0.000000
 
  0.5000000E-01  0.1071429E+00  0.0000000E+00  0.3174603E-02
      1        -12.705543   1.000000
      2        -11.565657   1.000000
      3         -8.632888   1.000000
      4         -8.391221   1.000000
      5         -6.024843   1.000000
      6         -5.083856   1.000000
      7         -4.629869   1.000000
      8         -4.564921   1.000000
      9         -4.166044   1.000000
     10         -3.507813   1.000000
     11         -3.269364   1.000000
     12         -1.774476   1.000000
     13         -1.072883   1.000000
     14         -1.013110   1.000000
     15         -0.287574   1.000000
     16         -0.259573   1.000000
     17          0.192014   1.000000
     18          0.271913   1.000000
     19          0.666740   1.000000
     20          1.773071   0.999937
     21          1.853680   0.939722
     22          2.296540   0.000000
     23          5.607447   0.000000
     24          5.742232   0.000000
     25          5.773727   0.000000
     26          6.044850   0.000000
     27          7.139687   0.000000
     28          7.872102   0.000000
     29          8.121838   0.000000
     30          8.229310   0.000000
     31          8.862649   0.000000
     32          9.158259   0.000000
     33          9.207476   0.000000
     34         10.619452   0.000000
     35         11.318995   0.000000
     36         11.439379   0.000000
     37         11.654711   0.000000
     38         11.937077   0.000000
     39         12.097706   0.000000
     40         12.728450   0.000000
     41         12.925441   0.000000
     42         13.245814   0.000000
     43         13.254128   0.000000
     44         15.399192   0.000000
     45         15.452015   0.000000
     46         15.923581   0.000000
     47         15.942854   0.000000
     48         16.289682   0.000000
 
  0.1500000E+00  0.1071429E+00  0.0000000E+00  0.3174603E-02
      1        -12.661846   1.000000
      2        -11.639245   1.000000
      3         -8.611762   1.000000
      4         -8.380096   1.000000
      5         -5.954564   1.000000
      6         -5.430515   1.000000
      7         -4.755752   1.000000
      8         -4.480563   1.000000
      9         -3.740818   1.000000
     10         -3.350800   1.000000
     11         -3.153326   1.000000
     12         -1.752605   1.000000
     13         -1.379455   1.000000
     14         -1.133937   1.000000
     15         -0.248254   1.000000
     16         -0.176417   1.000000
     17          0.160095   1.000000
     18          0.242034   1.000000
     19          0.564160   1.000000
     20          1.692305   1.000000
     21          1.777021   0.999901
     22          2.165234   0.000000
     23          5.683034   0.000000
     24          5.840264   0.000000
     25          5.972657   0.000000
     26          6.145867   0.000000
     27          7.055738   0.000000
     28          7.546292   0.000000
     29          8.267687   0.000000
     30          8.402925   0.000000
     31          9.192269   0.000000
     32          9.215053   0.000000
     33          9.468436   0.000000
     34         10.548449   0.000000
     35         10.924832   0.000000
     36         11.136577   0.000000
     37         11.494402   0.000000
     38         11.923036   0.000000
     39         12.317954   0.000000
     40         12.787493   0.000000
     41         12.922017   0.000000
     42         13.210421   0.000000
     43         13.788641   0.000000
     44         15.026195   0.000000
     45         15.465388   0.000000
     46         15.811693   0.000000
     47         15.865019   0.000000
     48         16.469859   0.000000
 
  0.2500000E+00  0.1071429E+00  0.0000000E+00  0.3174603E-02
      1        -12.576329   1.000000
      2        -11.771881   1.000000
      3         -8.568098   1.000000
      4         -8.366121   1.000000
      5         -5.930414   1.000000
      6         -5.757696   1.000000
      7         -4.713718   1.000000
      8         -4.371152   1.000000
      9         -3.473553   1.000000
     10         -3.213762   1.000000
     11         -2.685545   1.000000
     12         -1.885350   1.000000
     13         -1.707988   1.000000
     14         -1.298711   1.000000
     15         -0.200012   1.000000
     16         -0.197711   1.000000
     17          0.071271   1.000000
     18          0.229300   1.000000
     19          0.487492   1.000000
     20          1.556854   1.000000
     21          1.646528   1.000000
     22          1.916088   0.415765
     23          5.892235   0.000000
     24          5.967446   0.000000
     25          6.044565   0.000000
     26          6.596477   0.000000
     27          6.934233   0.000000
     28          7.317539   0.000000
     29          8.473425   0.000000
     30          8.537576   0.000000
     31          9.158433   0.000000
     32          9.667610   0.000000
     33          9.924013   0.000000
     34         10.173563   0.000000
     35         10.405116   0.000000
     36         10.879222   0.000000
     37         11.562696   0.000000
     38         12.156835   0.000000
     39         12.365302   0.000000
     40         12.602846   0.000000
     41         13.019165   0.000000
     42         13.072770   0.000000
     43         14.366765   0.000000
     44         15.155444   0.000000
     45         15.225053   0.000000
     46         15.712020   0.000000
     47         15.771866   0.000000
     48         16.489625   0.000000
 
  0.3500000E+00  0.1071429E+00  0.0000000E+00  0.3174603E-02
      1        -12.452978   1.000000
      2        -11.940868   1.000000
      3         -8.506042   1.000000
      4         -8.363936   1.000000
      5         -6.010916   1.000000
      6         -5.990157   1.000000
      7         -4.387682   1.000000
      8         -4.223102   1.000000
      9         -3.646386   1.000000
     10         -2.832562   1.000000
     11         -2.346649   1.000000
     12         -2.201256   1.000000
     13         -1.643260   1.000000
     14         -1.463137   1.000000
     15         -0.455036   1.000000
     16         -0.286821   1.000000
     17          0.104099   1.000000
     18          0.132963   1.000000
     19          0.647138   1.000000
     20          1.417040   1.000000
     21          1.500586   1.000000
     22          1.590869   1.000000
     23          5.910853   0.000000
     24          6.041514   0.000000
     25          6.550453   0.000000
     26          6.843576   0.000000
     27          6.915848   0.000000
     28          7.409797   0.000000
     29          8.459950   0.000000
     30          8.646513   0.000000
     31          8.991491   0.000000
     32          9.416556   0.000000
     33         10.124015   0.000000
     34         10.152900   0.000000
     35         10.491263   0.000000
     36         11.288665   0.000000
     37         11.414186   0.000000
     38         11.896076   0.000000
     39         12.356596   0.000000
     40         12.594981   0.000000
     41         12.771420   0.000000
     42         13.511970   0.000000
     43         14.827236   0.000000
     44         14.833205   0.000000
     45         15.220295   0.000000
     46         15.369498   0.000000
     47         15.720233   0.000000
     48         16.455825   0.000000
 
  0.4500000E+00  0.1071429E+00  0.0000000E+00  0.3174603E-02
      1        -12.298462   1.000000
      2        -12.122901   1.000000
      3         -8.439432   1.000000
      4         -8.387614   1.000000
      5         -6.102709   1.000000
      6         -6.097156   1.000000
      7         -4.042932   1.000000
      8         -3.878747   1.000000
      9         -3.837182   1.000000
     10         -3.272455   1.000000
     11         -2.093560   1.000000
     12         -1.897929   1.000000
     13         -1.575084   1.000000
     14         -1.574562   1.000000
     15         -0.675964   1.000000
     16         -0.576243   1.000000
     17          0.135977   1.000000
     18          0.167351   1.000000
     19          0.907148   1.000000
     20          1.222121   1.000000
     21          1.363152   1.000000
     22          1.387556   1.000000
     23          5.961122   0.000000
     24          6.025651   0.000000
     25          6.831517   0.000000
     26          6.881734   0.000000
     27          7.220489   0.000000
     28          7.936113   0.000000
     29          7.983394   0.000000
     30          8.668950   0.000000
     31          8.740285   0.000000
     32          8.854218   0.000000
     33         10.372516   0.000000
     34         10.619903   0.000000
     35         10.855271   0.000000
     36         10.964737   0.000000
     37         11.607490   0.000000
     38         11.721027   0.000000
     39         12.076723   0.000000
     40         12.709163   0.000000
     41         13.076761   0.000000
     42         13.538092   0.000000
     43         14.608931   0.000000
     44         14.792979   0.000000
     45         14.888189   0.000000
     46         15.105251   0.000000
     47         16.196179   0.000000
     48         16.490258   0.000000
 
  0.5000000E-01  0.1785714E+00  0.0000000E+00  0.3174603E-02
      1        -12.661007   1.000000
      2        -11.525872   1.000000
      3         -8.598242   1.000000
      4         -8.348267   1.000000
      5         -5.974995   1.000000
      6         -5.122311   1.000000
      7         -4.992235   1.000000
      8         -4.587759   1.000000
      9         -4.150300   1.000000
     10         -3.892581   1.000000
     11         -3.454309   1.000000
     12         -1.186455   1.000000
     13         -1.063462   1.000000
     14         -0.633475   1.000000
     15         -0.525361   1.000000
     16         -0.152992   1.000000
     17          0.213318   1.000000
     18          0.325402   1.000000
     19          0.745623   1.000000
     20          1.388515   1.000000
     21          1.452931   1.000000
     22          2.334995   0.000000
     23          5.315742   0.000000
     24          5.483026   0.000000
     25          6.159843   0.000000
     26          6.234881   0.000000
     27          7.578281   0.000000
     28          7.666942   0.000000
     29          8.356820   0.000000
     30          8.775590   0.000000
     31          8.931207   0.000000
     32          9.302816   0.000000
     33          9.424816   0.000000
     34         10.930037   0.000000
     35         11.368608   0.000000
     36         11.625031   0.000000
     37         11.743887   0.000000
     38         12.138790   0.000000
     39         12.314218   0.000000
     40         12.798349   0.000000
     41         12.812722   0.000000
     42         13.067278   0.000000
     43         13.272189   0.000000
     44         14.747593   0.000000
     45         15.226608   0.000000
     46         15.414020   0.000000
     47         15.487779   0.000000
     48         16.032220   0.000000
 
  0.1500000E+00  0.1785714E+00  0.0000000E+00  0.3174603E-02
      1        -12.617498   1.000000
      2        -11.599168   1.000000
      3         -8.576826   1.000000
      4         -8.337857   1.000000
      5         -5.901282   1.000000
      6         -5.382737   1.000000
      7         -5.021774   1.000000
      8         -4.717758   1.000000
      9         -3.959260   1.000000
     10         -3.698265   1.000000
     11         -3.113848   1.000000
     12         -1.371252   1.000000
     13         -1.159653   1.000000
     14         -0.739850   1.000000
     15         -0.487212   1.000000
     16         -0.072520   1.000000
     17          0.195478   1.000000
     18          0.267295   1.000000
     19          0.633306   1.000000
     20          1.309144   1.000000
     21          1.383048   1.000000
     22          2.198645   0.000000
     23          5.395851   0.000000
     24          5.830857   0.000000
     25          6.180846   0.000000
     26          6.273527   0.000000
     27          7.497191   0.000000
     28          7.823527   0.000000
     29          8.088995   0.000000
     30          8.865520   0.000000
     31          9.312984   0.000000
     32          9.336522   0.000000
     33          9.710255   0.000000
     34         10.565337   0.000000
     35         10.829558   0.000000
     36         11.327792   0.000000
     37         11.762075   0.000000
     38         12.249703   0.000000
     39         12.482682   0.000000
     40         12.549526   0.000000
     41         13.219746   0.000000
     42         13.322414   0.000000
     43         13.496092   0.000000
     44         14.755696   0.000000
     45         14.886580   0.000000
     46         15.360421   0.000000
     47         15.551345   0.000000
     48         16.052437   0.000000
 
  0.2500000E+00  0.1785714E+00  0.0000000E+00  0.3174603E-02
      1        -12.532341   1.000000
      2        -11.731266   1.000000
      3         -8.532752   1.000000
      4         -8.325224   1.000000
      5         -5.871689   1.000000
      6         -5.702712   1.000000
      7         -4.929943   1.000000
      8         -4.682404   1.000000
      9         -4.083891   1.000000
     10         -3.162780   1.000000
     11         -2.641364   1.000000
     12         -1.868883   1.000000
     13         -1.118713   1.000000
     14         -0.878205   1.000000
     15         -0.433844   1.000000
     16         -0.060479   1.000000
     17          0.033675   1.000000
     18          0.279801   1.000000
     19          0.517765   1.000000
     20          1.177199   1.000000
     21          1.264417   1.000000
     22          1.941173   0.178201
     23          5.717953   0.000000
     24          6.135799   0.000000
     25          6.309280   0.000000
     26          6.402776   0.000000
     27          7.393980   0.000000
     28          7.898679   0.000000
     29          8.057181   0.000000
     30          8.993823   0.000000
     31          9.302813   0.000000
     32          9.771566   0.000000
     33          9.898485   0.000000
     34         10.191991   0.000000
     35         10.303552   0.000000
     36         11.117776   0.000000
     37         11.634348   0.000000
     38         12.156571   0.000000
     39         12.562407   0.000000
     40         12.849552   0.000000
     41         13.104102   0.000000
     42         13.499207   0.000000
     43         14.019047   0.000000
     44         14.661907   0.000000
     45         14.936830   0.000000
     46         15.376843   0.000000
     47         15.572557   0.000000
     48         16.262878   0.000000
 
  0.3500000E+00  0.1785714E+00  0.0000000E+00  0.3174603E-02
      1        -12.409514   1.000000
      2        -11.899567   1.000000
      3         -8.470261   1.000000
      4         -8.324765   1.000000
      5         -5.949895   1.000000
      6         -5.932168   1.000000
      7         -4.793324   1.000000
      8         -4.360758   1.000000
      9         -4.249716   1.000000
     10         -2.793289   1.000000
     11         -2.305081   1.000000
     12         -2.160027   1.000000
     13         -1.061793   1.000000
     14         -1.014642   1.000000
     15         -0.437432   1.000000
     16         -0.347730   1.000000
     17          0.077912   1.000000
     18          0.083297   1.000000
     19          0.664898   1.000000
     20          1.047260   1.000000
     21          1.131266   1.000000
     22          1.605181   1.000000
     23          6.146305   0.000000
     24          6.255387   0.000000
     25          6.434995   0.000000
     26          6.838818   0.000000
     27          7.336764   0.000000
     28          7.819133   0.000000
     29          8.110240   0.000000
     30          9.093538   0.000000
     31          9.149209   0.000000
     32          9.225338   0.000000
     33          9.940778   0.000000
     34         10.240138   0.000000
     35         10.750063   0.000000
     36         11.129217   0.000000
     37         11.388134   0.000000
     38         12.002968   0.000000
     39         12.419517   0.000000
     40         13.036990   0.000000
     41         13.087876   0.000000
     42         13.845800   0.000000
     43         14.446213   0.000000
     44         14.459188   0.000000
     45         15.094511   0.000000
     46         15.186751   0.000000
     47         15.682030   0.000000
     48         16.438651   0.000000
 
  0.4500000E+00  0.1785714E+00  0.0000000E+00  0.3174603E-02
      1        -12.255653   1.000000
      2        -12.080832   1.000000
      3         -8.402999   1.000000
      4         -8.350057   1.000000
      5         -6.042755   1.000000
      6         -6.036142   1.000000
      7         -4.624448   1.000000
      8         -4.437478   1.000000
      9         -3.847018   1.000000
     10         -3.249707   1.000000
     11         -2.023444   1.000000
     12         -1.856870   1.000000
     13         -1.084882   1.000000
     14         -1.021527   1.000000
     15         -0.607837   1.000000
     16         -0.599448   1.000000
     17          0.027744   1.000000
     18          0.071311   1.000000
     19          0.922862   1.000000
     20          0.985062   1.000000
     21          1.026289   1.000000
     22          1.250776   1.000000
     23          6.237750   0.000000
     24          6.354963   0.000000
     25          6.910728   0.000000
     26          7.254156   0.000000
     27          7.313725   0.000000
     28          7.657527   0.000000
     29          7.966961   0.000000
     30          8.481162   0.000000
     31          9.150152   0.000000
     32          9.182839   0.000000
     33         10.063716   0.000000
     34         10.535071   0.000000
     35         10.760668   0.000000
     36         11.026729   0.000000
     37         11.788210   0.000000
     38         11.811424   0.000000
     39         12.199554   0.000000
     40         12.970007   0.000000
     41         13.469156   0.000000
     42         13.818832   0.000000
     43         14.290240   0.000000
     44         14.445160   0.000000
     45         15.052527   0.000000
     46         15.193450   0.000000
     47         16.057170   0.000000
     48         16.362387   0.000000
 
  0.5000000E-01  0.2500000E+00  0.0000000E+00  0.3174603E-02
      1        -12.603302   1.000000
      2        -11.474475   1.000000
      3         -8.553964   1.000000
      4         -8.292698   1.000000
      5         -5.910265   1.000000
      6         -5.604129   1.000000
      7         -4.921417   1.000000
      8         -4.531077   1.000000
      9         -4.413695   1.000000
     10         -4.110799   1.000000
     11         -3.391936   1.000000
     12         -1.207308   1.000000
     13         -1.049268   1.000000
     14         -0.990154   1.000000
     15         -0.173406   1.000000
     16          0.241787   1.000000
     17          0.369241   1.000000
     18          0.618828   1.000000
     19          0.809714   1.000000
     20          1.002189   1.000000
     21          1.016522   1.000000
     22          2.369530   0.000000
     23          4.969839   0.000000
     24          5.187762   0.000000
     25          6.396272   0.000000
     26          6.625444   0.000000
     27          7.306643   0.000000
     28          8.013595   0.000000
     29          8.753619   0.000000
     30          9.101089   0.000000
     31          9.523969   0.000000
     32          9.624960   0.000000
     33          9.706066   0.000000
     34         10.791589   0.000000
     35         11.321564   0.000000
     36         12.015514   0.000000
     37         12.062553   0.000000
     38         12.349956   0.000000
     39         12.473762   0.000000
     40         12.496064   0.000000
     41         12.617147   0.000000
     42         13.053169   0.000000
     43         13.863062   0.000000
     44         13.934030   0.000000
     45         14.483186   0.000000
     46         15.160529   0.000000
     47         15.459094   0.000000
     48         15.936371   0.000000
 
  0.1500000E+00  0.2500000E+00  0.0000000E+00  0.3174603E-02
      1        -12.560038   1.000000
      2        -11.547395   1.000000
      3         -8.532166   1.000000
      4         -8.283256   1.000000
      5         -5.831906   1.000000
      6         -5.569421   1.000000
      7         -5.260077   1.000000
      8         -4.667470   1.000000