 running   24 mpi-ranks, with    1 threads/rank, on    1 nodes
 distrk:  each k-point on   24 cores,    1 groups
 distr:  one band on    1 cores,   24 groups
 vasp.6.4.3 19Mar24 (build May 31 2024 16:31:43) complex                        
  
 POSCAR found type information on POSCAR B 
 POSCAR found :  1 types and      14 ions
 Reading from existing POTCAR
 scaLAPACK will be used
 Reading from existing POTCAR
 LDA part: xc-table for (Slater+PW92), standard interpolation
 POSCAR, INCAR and KPOINTS ok, starting setup
 FFT: planning ... GRIDC
 FFT: planning ... GRID_SOFT
 FFT: planning ... GRID
 WAVECAR not read
 entering main loop
       N       E                     dE             d eps       ncg     rms          rms(c)
DAV:   1     0.787293146581E+02    0.78729E+02   -0.20059E+04 16800   0.863E+02
DAV:   2    -0.919430626730E+02   -0.17067E+03   -0.16008E+03 23040   0.168E+02
DAV:   3    -0.976857116536E+02   -0.57426E+01   -0.57091E+01 24672   0.274E+01
DAV:   4    -0.977192214151E+02   -0.33510E-01   -0.33508E-01 19944   0.243E+00
DAV:   5    -0.977195912341E+02   -0.36982E-03   -0.36981E-03 24672   0.243E-01    0.124E+01
DAV:   6    -0.922414374018E+02    0.54782E+01   -0.39927E+00 24336   0.663E+00    0.684E+00
DAV:   7    -0.905735050130E+02    0.16679E+01   -0.32523E+00 25176   0.590E+00    0.172E+00
DAV:   8    -0.905857998710E+02   -0.12295E-01   -0.23702E-01 18408   0.169E+00    0.707E-01
DAV:   9    -0.905999458013E+02   -0.14146E-01   -0.17019E-02 23472   0.440E-01    0.200E-01
DAV:  10    -0.906040056068E+02   -0.40598E-02   -0.21003E-03 19296   0.162E-01    0.610E-02
DAV:  11    -0.906050709570E+02   -0.10654E-02   -0.62464E-04 21528   0.867E-02    0.322E-02
DAV:  12    -0.906051878395E+02   -0.11688E-03   -0.94024E-05 20640   0.373E-02    0.430E-03
DAV:  13    -0.906051927007E+02   -0.48612E-05   -0.41540E-06 23544   0.886E-03    0.185E-03
DAV:  14    -0.906051933956E+02   -0.69498E-06   -0.29676E-07 20376   0.234E-03
   1 F= -.90605193E+02 E0= -.90603588E+02  d E =-.321157E-02
