       N       E                     dE             d eps       ncg     rms          rms(c)
DAV:   1     0.169359364372E+03    0.16936E+03   -0.28536E+04120960   0.143E+03
