  14  14   0   0
  0.1021960E+02  0.5697000E-09  0.4047900E-09  0.6204200E-09  0.5000000E-15
  1.000000000000000E-004
  CAR 
 Kpoints                                 
     17.84814986    -14.12685079  301      1.81708976      1.00000000
    -14.127  0.0000E+00  0.0000E+00
    -14.020  0.0000E+00  0.0000E+00
    -13.914  0.0000E+00  0.0000E+00
    -13.807  0.0000E+00  0.0000E+00
    -13.701  0.0000E+00  0.0000E+00
    -13.594  0.0000E+00  0.0000E+00
    -13.487  0.0000E+00  0.0000E+00
    -13.381  0.0000E+00  0.0000E+00
    -13.274  0.0000E+00  0.0000E+00
    -13.168  0.0000E+00  0.0000E+00
    -13.061  0.0000E+00  0.0000E+00
    -12.954  0.1476E-14  0.1573E-15
    -12.848  0.6330E-06  0.6747E-07
    -12.741  0.4311E-01  0.4595E-02
    -12.635  0.1613E+01  0.1765E+00
    -12.528  0.2966E+01  0.4926E+00
    -12.422  0.3629E+01  0.8794E+00
    -12.315  0.4883E+01  0.1400E+01
    -12.208  0.2911E+01  0.1710E+01
    -12.102  0.2560E+01  0.1983E+01
    -11.995  0.2356E+01  0.2234E+01
    -11.889  0.3105E+01  0.2565E+01
    -11.782  0.3337E+01  0.2921E+01
    -11.675  0.3286E+01  0.3271E+01
    -11.569  0.2991E+01  0.3590E+01
    -11.462  0.2680E+01  0.3875E+01
    -11.356  0.1157E+01  0.3999E+01
    -11.249  0.1278E-01  0.4000E+01
    -11.143  0.4773E-07  0.4000E+01
    -11.036  0.0000E+00  0.4000E+01
    -10.929  0.0000E+00  0.4000E+01
    -10.823  0.0000E+00  0.4000E+01
    -10.716  0.0000E+00  0.4000E+01
    -10.610  0.0000E+00  0.4000E+01
    -10.503  0.0000E+00  0.4000E+01
    -10.396  0.0000E+00  0.4000E+01
    -10.290  0.0000E+00  0.4000E+01
    -10.183  0.0000E+00  0.4000E+01
    -10.077  0.0000E+00  0.4000E+01
     -9.970  0.0000E+00  0.4000E+01
     -9.864  0.0000E+00  0.4000E+01
     -9.757  0.0000E+00  0.4000E+01
     -9.650  0.0000E+00  0.4000E+01
     -9.544  0.0000E+00  0.4000E+01
     -9.437  0.0000E+00  0.4000E+01
     -9.331  0.0000E+00  0.4000E+01
     -9.224  0.0000E+00  0.4000E+01
     -9.117  0.0000E+00  0.4000E+01
     -9.011  0.3232E-10  0.4000E+01
     -8.904  0.2640E-03  0.4000E+01
     -8.798  0.4447E+00  0.4047E+01
     -8.691  0.1890E+01  0.4249E+01
     -8.585  0.5176E+01  0.4801E+01
     -8.478  0.7648E+01  0.5616E+01
     -8.371  0.6380E+01  0.6296E+01
     -8.265  0.5720E+01  0.6905E+01
     -8.158  0.4249E+01  0.7358E+01
     -8.052  0.3779E+01  0.7761E+01
     -7.945  0.1662E+01  0.7938E+01
     -7.838  0.5789E+00  0.8000E+01
     -7.732  0.6403E-03  0.8000E+01
     -7.625  0.1568E-09  0.8000E+01
     -7.519  0.0000E+00  0.8000E+01
     -7.412  0.0000E+00  0.8000E+01
     -7.306  0.0000E+00  0.8000E+01
     -7.199  0.0000E+00  0.8000E+01
     -7.092  0.0000E+00  0.8000E+01
     -6.986  0.0000E+00  0.8000E+01
     -6.879  0.4909E-11  0.8000E+01
     -6.773  0.8918E-04  0.8000E+01
     -6.666  0.3117E+00  0.8033E+01
     -6.559  0.1327E+01  0.8175E+01
     -6.453  0.1404E+01  0.8324E+01
     -6.346  0.2229E+01  0.8562E+01
     -6.240  0.1561E+01  0.8728E+01
     -6.133  0.3194E+01  0.9069E+01
     -6.027  0.3861E+01  0.9480E+01
     -5.920  0.3341E+01  0.9836E+01
     -5.813  0.1937E+01  0.1004E+02
     -5.707  0.4787E+01  0.1055E+02
     -5.600  0.6105E+01  0.1120E+02
     -5.494  0.4835E+01  0.1172E+02
     -5.387  0.5063E+01  0.1226E+02
     -5.280  0.5501E+01  0.1284E+02
     -5.174  0.3434E+01  0.1321E+02
     -5.067  0.1457E+01  0.1337E+02
     -4.961  0.3008E+01  0.1369E+02
     -4.854  0.3676E+01  0.1408E+02
     -4.748  0.2236E+01  0.1432E+02
     -4.641  0.2325E+01  0.1456E+02
     -4.534  0.4539E+01  0.1505E+02
     -4.428  0.3022E+01  0.1537E+02
     -4.321  0.4223E+01  0.1582E+02
     -4.215  0.3345E+01  0.1618E+02
     -4.108  0.2854E+01  0.1648E+02
     -4.001  0.1378E+01  0.1663E+02
     -3.895  0.1790E+01  0.1682E+02
     -3.788  0.2002E+01  0.1703E+02
     -3.682  0.3040E+01  0.1736E+02
     -3.575  0.3918E+01  0.1777E+02
     -3.469  0.5380E+01  0.1835E+02
     -3.362  0.3006E+01  0.1867E+02
     -3.255  0.1912E+01  0.1887E+02
     -3.149  0.1427E+01  0.1902E+02
     -3.042  0.3000E+01  0.1934E+02
     -2.936  0.3857E+01  0.1975E+02
     -2.829  0.4232E+01  0.2021E+02
     -2.722  0.2516E+01  0.2047E+02
     -2.616  0.2439E+00  0.2050E+02
     -2.509  0.7910E+00  0.2058E+02
     -2.403  0.4093E+01  0.2102E+02
     -2.296  0.4501E+01  0.2150E+02
     -2.190  0.3413E+01  0.2186E+02
     -2.083  0.2699E+01  0.2215E+02
     -1.976  0.5091E+01  0.2269E+02
     -1.870  0.4000E+01  0.2312E+02
     -1.763  0.8178E+01  0.2399E+02
     -1.657  0.6013E+01  0.2463E+02
     -1.550  0.3386E+01  0.2499E+02
     -1.443  0.7801E+01  0.2583E+02
     -1.337  0.5102E+01  0.2637E+02
     -1.230  0.9311E+01  0.2736E+02
     -1.124  0.5476E+01  0.2795E+02
     -1.017  0.5808E+00  0.2801E+02
     -0.911  0.2543E+01  0.2828E+02
     -0.804  0.1453E+01  0.2843E+02
     -0.697  0.7583E+00  0.2851E+02
     -0.591  0.6393E+01  0.2920E+02
     -0.484  0.6729E+01  0.2991E+02
     -0.378  0.5438E+01  0.3049E+02
     -0.271  0.5974E+01  0.3113E+02
     -0.164  0.6614E+01  0.3183E+02
     -0.058  0.5693E+01  0.3244E+02
      0.049  0.1015E+02  0.3352E+02
      0.155  0.6350E+01  0.3420E+02
      0.262  0.8352E+01  0.3509E+02
      0.368  0.7030E+01  0.3584E+02
      0.475  0.5185E+01  0.3639E+02
      0.582  0.1137E+02  0.3760E+02
      0.688  0.4523E+01  0.3809E+02
      0.795  0.3565E+01  0.3847E+02
      0.901  0.9271E+00  0.3857E+02
      1.008  0.2912E+01  0.3888E+02
      1.115  0.2769E+01  0.3917E+02
      1.221  0.1956E+01  0.3938E+02
      1.328  0.4259E+01  0.3983E+02
      1.434  0.5261E+01  0.4039E+02
      1.541  0.5575E+01  0.4099E+02
      1.647  0.4655E+01  0.4148E+02
      1.754  0.2827E+01  0.4179E+02
      1.861  0.3379E+01  0.4215E+02
      1.967  0.3613E+01  0.4253E+02
      2.074  0.2674E+01  0.4282E+02
      2.180  0.1863E+00  0.4284E+02
      2.287  0.1220E+01  0.4297E+02
      2.394  0.3241E+00  0.4300E+02
      2.500  0.8107E+00  0.4309E+02
      2.607  0.1922E+01  0.4329E+02
      2.713  0.1879E+01  0.4349E+02
      2.820  0.7774E-01  0.4350E+02
      2.926  0.2411E-05  0.4350E+02
      3.033  0.7115E-08  0.4350E+02
      3.140  0.4921E-02  0.4350E+02
      3.246  0.9679E+00  0.4360E+02
      3.353  0.1949E+01  0.4381E+02
      3.459  0.1708E+01  0.4399E+02
      3.566  0.6124E-01  0.4400E+02
      3.673  0.1397E-05  0.4400E+02
      3.779  0.5208E-14  0.4400E+02
      3.886  0.0000E+00  0.4400E+02
      3.992  0.0000E+00  0.4400E+02
      4.099  0.0000E+00  0.4400E+02
      4.205  0.6076E-15  0.4400E+02
      4.312  0.3608E-06  0.4400E+02
      4.419  0.3335E-01  0.4400E+02
      4.525  0.1278E+01  0.4414E+02
      4.632  0.2530E+00  0.4417E+02
      4.738  0.4095E+00  0.4421E+02
      4.845  0.1140E+01  0.4433E+02
      4.952  0.1350E+00  0.4435E+02
      5.058  0.1787E+01  0.4454E+02
      5.165  0.1207E+01  0.4467E+02
      5.271  0.4683E+00  0.4472E+02
      5.378  0.2212E+01  0.4495E+02
      5.484  0.1548E+01  0.4512E+02
      5.591  0.3462E+01  0.4549E+02
      5.698  0.2310E+01  0.4573E+02
      5.804  0.3451E+01  0.4610E+02
      5.911  0.4798E+01  0.4661E+02
      6.017  0.3910E+01  0.4703E+02
      6.124  0.5932E+01  0.4766E+02
      6.231  0.6176E+01  0.4832E+02
      6.337  0.1773E+01  0.4851E+02
      6.444  0.4225E+01  0.4896E+02
      6.550  0.2960E+01  0.4927E+02
      6.657  0.2841E+01  0.4958E+02
      6.763  0.5686E+01  0.5018E+02
      6.870  0.5510E+01  0.5077E+02
      6.977  0.3620E+01  0.5115E+02
      7.083  0.4783E+01  0.5166E+02
      7.190  0.5934E+01  0.5230E+02
      7.296  0.3757E+01  0.5270E+02
      7.403  0.3863E+01  0.5311E+02
      7.510  0.4647E+01  0.5360E+02
      7.616  0.5842E+01  0.5423E+02
      7.723  0.1013E+01  0.5434E+02
      7.829  0.1306E+01  0.5447E+02
      7.936  0.3398E+01  0.5484E+02
      8.042  0.7563E+01  0.5564E+02
      8.149  0.4823E+01  0.5616E+02
      8.256  0.3110E+01  0.5649E+02
      8.362  0.3971E+00  0.5653E+02
      8.469  0.3925E+01  0.5695E+02
      8.575  0.6249E+01  0.5761E+02
      8.682  0.3884E+01  0.5803E+02
      8.789  0.2678E+01  0.5831E+02
      8.895  0.4524E+01  0.5880E+02
      9.002  0.7765E+01  0.5962E+02
      9.108  0.8457E+01  0.6053E+02
      9.215  0.3988E+01  0.6095E+02
      9.321  0.5747E+01  0.6156E+02
      9.428  0.1765E+01  0.6175E+02
      9.535  0.5370E+01  0.6232E+02
      9.641  0.5964E+01  0.6296E+02
      9.748  0.4749E+01  0.6347E+02
      9.854  0.4047E+01  0.6390E+02
      9.961  0.7826E+01  0.6473E+02
     10.068  0.1574E+01  0.6490E+02
     10.174  0.2934E+01  0.6521E+02
     10.281  0.2706E+01  0.6550E+02
     10.387  0.3808E+01  0.6591E+02
     10.494  0.5376E+01  0.6648E+02
     10.600  0.6089E+01  0.6713E+02
     10.707  0.4174E+01  0.6757E+02
     10.814  0.5110E+01  0.6812E+02
     10.920  0.3022E+01  0.6844E+02
     11.027  0.6069E+01  0.6909E+02
     11.133  0.5062E+01  0.6963E+02
     11.240  0.5623E+01  0.7022E+02
     11.347  0.9610E+01  0.7125E+02
     11.453  0.2888E+01  0.7156E+02
     11.560  0.4558E+01  0.7204E+02
     11.666  0.5226E+01  0.7260E+02
     11.773  0.3523E+01  0.7298E+02
     11.879  0.1001E+02  0.7404E+02
     11.986  0.7420E+01  0.7483E+02
     12.093  0.5672E+01  0.7544E+02
     12.199  0.4554E+01  0.7592E+02
     12.306  0.3888E+01  0.7634E+02
     12.412  0.2659E+01  0.7662E+02
     12.519  0.3897E+01  0.7704E+02
     12.626  0.7033E+01  0.7779E+02
     12.732  0.7159E+01  0.7855E+02
     12.839  0.3946E+01  0.7897E+02
     12.945  0.4186E+01  0.7942E+02
     13.052  0.6423E+01  0.8010E+02
     13.158  0.6958E+01  0.8084E+02
     13.265  0.4417E+01  0.8131E+02
     13.372  0.3764E+01  0.8171E+02
     13.478  0.8916E+01  0.8266E+02
     13.585  0.7665E+01  0.8348E+02
     13.691  0.7503E+01  0.8428E+02
     13.798  0.6044E+01  0.8492E+02
     13.905  0.5368E+01  0.8550E+02
     14.011  0.4883E+01  0.8602E+02
     14.118  0.5014E+01  0.8655E+02
     14.224  0.2615E+01  0.8683E+02
     14.331  0.5649E+01  0.8743E+02
     14.437  0.4314E+01  0.8789E+02
     14.544  0.7605E+01  0.8870E+02
     14.651  0.5936E+01  0.8934E+02
     14.757  0.3307E+01  0.8969E+02
     14.864  0.2822E+01  0.8999E+02
     14.970  0.4709E+01  0.9049E+02
     15.077  0.7238E+01  0.9126E+02
     15.184  0.5571E+01  0.9186E+02
     15.290  0.5189E+01  0.9241E+02
     15.397  0.8748E+01  0.9334E+02
     15.503  0.7279E+01  0.9412E+02
     15.610  0.1451E+01  0.9427E+02
     15.716  0.3303E+01  0.9462E+02
     15.823  0.3796E+01  0.9503E+02
     15.930  0.2565E+01  0.9530E+02
     16.036  0.1365E+01  0.9545E+02
     16.143  0.2105E+01  0.9567E+02
     16.249  0.1448E+01  0.9583E+02
     16.356  0.2830E+00  0.9586E+02
     16.463  0.1307E+01  0.9600E+02
     16.569  0.4305E-01  0.9600E+02
     16.676  0.6330E-06  0.9600E+02
     16.782  0.1389E-14  0.9600E+02
     16.889  0.0000E+00  0.9600E+02
     16.995  0.0000E+00  0.9600E+02
     17.102  0.0000E+00  0.9600E+02
     17.209  0.0000E+00  0.9600E+02
     17.315  0.0000E+00  0.9600E+02
     17.422  0.0000E+00  0.9600E+02
     17.528  0.0000E+00  0.9600E+02
     17.635  0.0000E+00  0.9600E+02
     17.742  0.0000E+00  0.9600E+02
     17.848  0.0000E+00  0.9600E+02
