<?xml version="1.0" encoding="ISO-8859-1"?>
<modeling>
 <generator>
  <i name="program" type="string">vasp </i>
  <i name="version" type="string">6.4.3  </i>
  <i name="subversion" type="string">19Mar24 (build May 31 2024 16:31:43) complex                          parallel </i>
  <i name="platform" type="string">LinuxIFC </i>
  <i name="date" type="string">2024 11 11 </i>
  <i name="time" type="string">18:23:06 </i>
 </generator>
 <incar>
  <i type="string" name="SYSTEM">Convergence</i>
  <i type="int" name="ISTART">     0</i>
  <i type="string" name="PREC">Accurate</i>
  <i type="string" name="ALGO">Normal</i>
  <i type="int" name="ISPIN">     1</i>
  <i type="int" name="ICHARG">     2</i>
  <i type="int" name="NELM">   100</i>
  <i type="int" name="IBRION">    -1</i>
  <i name="EDIFF">      0.00000100</i>
  <i name="EDIFFG">     -0.00100000</i>
  <i type="int" name="NSW">     0</i>
  <i type="int" name="ISIF">     2</i>
  <i name="ENCUT">    600.00000000</i>
  <i name="POTIM">      0.50000000</i>
  <i type="int" name="ISMEAR">     0</i>
  <i name="SIGMA">      0.05000000</i>
  <i type="logical" name="LWAVE"> F  </i>
  <i type="logical" name="LCHARG"> F  </i>
  <i type="string" name="GGA">PE</i>
 </incar>
 <primitive_cell>
  <structure name="primitive_cell" >
   <crystal>
    <varray name="basis" >
     <v>      15.02700000       0.00000000       0.00000000 </v>
     <v>       0.00000000      12.52250000       0.00000000 </v>
     <v>       0.00000000       0.00000000      18.03240000 </v>
    </varray>
    <i name="volume">   3393.25782468 </i>
    <varray name="rec_basis" >
     <v>       0.06654688       0.00000000       0.00000000 </v>
     <v>       0.00000000       0.07985626       0.00000000 </v>
     <v>       0.00000000       0.00000000       0.05545574 </v>
    </varray>
   </crystal>
   <varray name="positions" >
    <v>       0.52123000       0.54500000       0.63796000 </v>
   </varray>
  </structure>
  <varray name="primitive_index" >
   <v type="int" >        1 </v>
  </varray>
 </primitive_cell>
 <kpoints>
  <generation param="Monkhorst-Pack">
   <v type="int" name="divisions">      10       14        9 </v>
   <v name="usershift">      0.00000000       0.00000000       0.00000000 </v>
   <v name="genvec1">      0.10000000       0.00000000       0.00000000 </v>
   <v name="genvec2">      0.00000000       0.07142857       0.00000000 </v>
   <v name="genvec3">      0.00000000       0.00000000       0.11111111 </v>
   <v name="shift">      0.50000000       0.50000000       0.00000000 </v>
  </generation>
  <varray name="kpointlist" >
   <v>       0.05000000       0.03571429       0.00000000 </v>
   <v>       0.15000000       0.03571429       0.00000000 </v>
   <v>       0.25000000       0.03571429       0.00000000 </v>
   <v>       0.35000000       0.03571429       0.00000000 </v>
   <v>       0.45000000       0.03571429       0.00000000 </v>
   <v>       0.05000000       0.10714286       0.00000000 </v>
   <v>       0.15000000       0.10714286       0.00000000 </v>
   <v>       0.25000000       0.10714286       0.00000000 </v>
   <v>       0.35000000       0.10714286       0.00000000 </v>
   <v>       0.45000000       0.10714286       0.00000000 </v>
   <v>       0.05000000       0.17857143       0.00000000 </v>
   <v>       0.15000000       0.17857143       0.00000000 </v>
   <v>       0.25000000       0.17857143       0.00000000 </v>
   <v>       0.35000000       0.17857143       0.00000000 </v>
   <v>       0.45000000       0.17857143       0.00000000 </v>
   <v>       0.05000000       0.25000000       0.00000000 </v>
   <v>       0.15000000       0.25000000       0.00000000 </v>
   <v>       0.25000000       0.25000000       0.00000000 </v>
   <v>       0.35000000       0.25000000       0.00000000 </v>
   <v>       0.45000000       0.25000000       0.00000000 </v>
   <v>       0.05000000       0.32142857       0.00000000 </v>
   <v>       0.15000000       0.32142857       0.00000000 </v>
   <v>       0.25000000       0.32142857       0.00000000 </v>
   <v>       0.35000000       0.32142857       0.00000000 </v>
   <v>       0.45000000       0.32142857       0.00000000 </v>
   <v>       0.05000000       0.39285714       0.00000000 </v>
   <v>       0.15000000       0.39285714       0.00000000 </v>
   <v>       0.25000000       0.39285714       0.00000000 </v>
   <v>       0.35000000       0.39285714       0.00000000 </v>
   <v>       0.45000000       0.39285714       0.00000000 </v>
   <v>       0.05000000       0.46428571       0.00000000 </v>
   <v>       0.15000000       0.46428571       0.00000000 </v>
   <v>       0.25000000       0.46428571       0.00000000 </v>
   <v>       0.35000000       0.46428571       0.00000000 </v>
   <v>       0.45000000       0.46428571       0.00000000 </v>
   <v>       0.05000000       0.03571429       0.11111111 </v>
   <v>       0.15000000       0.03571429       0.11111111 </v>
   <v>       0.25000000       0.03571429       0.11111111 </v>
   <v>       0.35000000       0.03571429       0.11111111 </v>
   <v>       0.45000000       0.03571429       0.11111111 </v>
   <v>       0.05000000       0.10714286       0.11111111 </v>
   <v>       0.15000000       0.10714286       0.11111111 </v>
   <v>       0.25000000       0.10714286       0.11111111 </v>
   <v>       0.35000000       0.10714286       0.11111111 </v>
   <v>       0.45000000       0.10714286       0.11111111 </v>
   <v>       0.05000000       0.17857143       0.11111111 </v>
   <v>       0.15000000       0.17857143       0.11111111 </v>
   <v>       0.25000000       0.17857143       0.11111111 </v>
   <v>       0.35000000       0.17857143       0.11111111 </v>
   <v>       0.45000000       0.17857143       0.11111111 </v>
   <v>       0.05000000       0.25000000       0.11111111 </v>
   <v>       0.15000000       0.25000000       0.11111111 </v>
   <v>       0.25000000       0.25000000       0.11111111 </v>
   <v>       0.35000000       0.25000000       0.11111111 </v>
   <v>       0.45000000       0.25000000       0.11111111 </v>
   <v>       0.05000000       0.32142857       0.11111111 </v>
   <v>       0.15000000       0.32142857       0.11111111 </v>
   <v>       0.25000000       0.32142857       0.11111111 </v>
   <v>       0.35000000       0.32142857       0.11111111 </v>
   <v>       0.45000000       0.32142857       0.11111111 </v>
   <v>       0.05000000       0.39285714       0.11111111 </v>
   <v>       0.15000000       0.39285714       0.11111111 </v>
   <v>       0.25000000       0.39285714       0.11111111 </v>
   <v>       0.35000000       0.39285714       0.11111111 </v>
   <v>       0.45000000       0.39285714       0.11111111 </v>
   <v>       0.05000000       0.46428571       0.11111111 </v>
   <v>       0.15000000       0.46428571       0.11111111 </v>
   <v>       0.25000000       0.46428571       0.11111111 </v>
   <v>       0.35000000       0.46428571       0.11111111 </v>
   <v>       0.45000000       0.46428571       0.11111111 </v>
   <v>       0.05000000       0.03571429       0.22222222 </v>
   <v>       0.15000000       0.03571429       0.22222222 </v>
   <v>       0.25000000       0.03571429       0.22222222 </v>
   <v>       0.35000000       0.03571429       0.22222222 </v>
   <v>       0.45000000       0.03571429       0.22222222 </v>
   <v>       0.05000000       0.10714286       0.22222222 </v>
   <v>       0.15000000       0.10714286       0.22222222 </v>
   <v>       0.25000000       0.10714286       0.22222222 </v>
   <v>       0.35000000       0.10714286       0.22222222 </v>
   <v>       0.45000000       0.10714286       0.22222222 </v>
   <v>       0.05000000       0.17857143       0.22222222 </v>
   <v>       0.15000000       0.17857143       0.22222222 </v>
   <v>       0.25000000       0.17857143       0.22222222 </v>
   <v>       0.35000000       0.17857143       0.22222222 </v>
   <v>       0.45000000       0.17857143       0.22222222 </v>
   <v>       0.05000000       0.25000000       0.22222222 </v>
   <v>       0.15000000       0.25000000       0.22222222 </v>
   <v>       0.25000000       0.25000000       0.22222222 </v>
   <v>       0.35000000       0.25000000       0.22222222 </v>
   <v>       0.45000000       0.25000000       0.22222222 </v>
   <v>       0.05000000       0.32142857       0.22222222 </v>
   <v>       0.15000000       0.32142857       0.22222222 </v>
   <v>       0.25000000       0.32142857       0.22222222 </v>
   <v>       0.35000000       0.32142857       0.22222222 </v>
   <v>       0.45000000       0.32142857       0.22222222 </v>
   <v>       0.05000000       0.39285714       0.22222222 </v>
   <v>       0.15000000       0.39285714       0.22222222 </v>
   <v>       0.25000000       0.39285714       0.22222222 </v>
   <v>       0.35000000       0.39285714       0.22222222 </v>
   <v>       0.45000000       0.39285714       0.22222222 </v>
   <v>       0.05000000       0.46428571       0.22222222 </v>
   <v>       0.15000000       0.46428571       0.22222222 </v>
   <v>       0.25000000       0.46428571       0.22222222 </v>
   <v>       0.35000000       0.46428571       0.22222222 </v>
   <v>       0.45000000       0.46428571       0.22222222 </v>
   <v>       0.05000000       0.03571429       0.33333333 </v>
   <v>       0.15000000       0.03571429       0.33333333 </v>
   <v>       0.25000000       0.03571429       0.33333333 </v>
   <v>       0.35000000       0.03571429       0.33333333 </v>
   <v>       0.45000000       0.03571429       0.33333333 </v>
   <v>       0.05000000       0.10714286       0.33333333 </v>
   <v>       0.15000000       0.10714286       0.33333333 </v>
   <v>       0.25000000       0.10714286       0.33333333 </v>
   <v>       0.35000000       0.10714286       0.33333333 </v>
   <v>       0.45000000       0.10714286       0.33333333 </v>
   <v>       0.05000000       0.17857143       0.33333333 </v>
   <v>       0.15000000       0.17857143       0.33333333 </v>
   <v>       0.25000000       0.17857143       0.33333333 </v>
   <v>       0.35000000       0.17857143       0.33333333 </v>
   <v>       0.45000000       0.17857143       0.33333333 </v>
   <v>       0.05000000       0.25000000       0.33333333 </v>
   <v>       0.15000000       0.25000000       0.33333333 </v>
   <v>       0.25000000       0.25000000       0.33333333 </v>
   <v>       0.35000000       0.25000000       0.33333333 </v>
   <v>       0.45000000       0.25000000       0.33333333 </v>
   <v>       0.05000000       0.32142857       0.33333333 </v>
   <v>       0.15000000       0.32142857       0.33333333 </v>
   <v>       0.25000000       0.32142857       0.33333333 </v>
   <v>       0.35000000       0.32142857       0.33333333 </v>
   <v>       0.45000000       0.32142857       0.33333333 </v>
   <v>       0.05000000       0.39285714       0.33333333 </v>
   <v>       0.15000000       0.39285714       0.33333333 </v>
   <v>       0.25000000       0.39285714       0.33333333 </v>
   <v>       0.35000000       0.39285714       0.33333333 </v>
   <v>       0.45000000       0.39285714       0.33333333 </v>
   <v>       0.05000000       0.46428571       0.33333333 </v>
   <v>       0.15000000       0.46428571       0.33333333 </v>
   <v>       0.25000000       0.46428571       0.33333333 </v>
   <v>       0.35000000       0.46428571       0.33333333 </v>
   <v>       0.45000000       0.46428571       0.33333333 </v>
   <v>       0.05000000       0.03571429       0.44444444 </v>
   <v>       0.15000000       0.03571429       0.44444444 </v>
   <v>       0.25000000       0.03571429       0.44444444 </v>
   <v>       0.35000000       0.03571429       0.44444444 </v>
   <v>       0.45000000       0.03571429       0.44444444 </v>
   <v>       0.05000000       0.10714286       0.44444444 </v>
   <v>       0.15000000       0.10714286       0.44444444 </v>
   <v>       0.25000000       0.10714286       0.44444444 </v>
   <v>       0.35000000       0.10714286       0.44444444 </v>
   <v>       0.45000000       0.10714286       0.44444444 </v>
   <v>       0.05000000       0.17857143       0.44444444 </v>
   <v>       0.15000000       0.17857143       0.44444444 </v>
   <v>       0.25000000       0.17857143       0.44444444 </v>
   <v>       0.35000000       0.17857143       0.44444444 </v>
   <v>       0.45000000       0.17857143       0.44444444 </v>
   <v>       0.05000000       0.25000000       0.44444444 </v>
   <v>       0.15000000       0.25000000       0.44444444 </v>
   <v>       0.25000000       0.25000000       0.44444444 </v>
   <v>       0.35000000       0.25000000       0.44444444 </v>
   <v>       0.45000000       0.25000000       0.44444444 </v>
   <v>       0.05000000       0.32142857       0.44444444 </v>
   <v>       0.15000000       0.32142857       0.44444444 </v>
   <v>       0.25000000       0.32142857       0.44444444 </v>
   <v>       0.35000000       0.32142857       0.44444444 </v>
   <v>       0.45000000       0.32142857       0.44444444 </v>
   <v>       0.05000000       0.39285714       0.44444444 </v>
   <v>       0.15000000       0.39285714       0.44444444 </v>
   <v>       0.25000000       0.39285714       0.44444444 </v>
   <v>       0.35000000       0.39285714       0.44444444 </v>
   <v>       0.45000000       0.39285714       0.44444444 </v>
   <v>       0.05000000       0.46428571       0.44444444 </v>
   <v>       0.15000000       0.46428571       0.44444444 </v>
   <v>       0.25000000       0.46428571       0.44444444 </v>
   <v>       0.35000000       0.46428571       0.44444444 </v>
   <v>       0.45000000       0.46428571       0.44444444 </v>
  </varray>
  <varray name="weights" >
   <v>       0.00317460 </v>
   <v>       0.00317460 </v>
   <v>       0.00317460 </v>
   <v>       0.00317460 </v>
   <v>       0.00317460 </v>
   <v>       0.00317460 </v>
   <v>       0.00317460 </v>
   <v>       0.00317460 </v>
   <v>       0.00317460 </v>
   <v>       0.00317460 </v>
   <v>       0.00317460 </v>
   <v>       0.00317460 </v>
   <v>       0.00317460 </v>
   <v>       0.00317460 </v>
   <v>       0.00317460 </v>
   <v>       0.00317460 </v>
   <v>       0.00317460 </v>
   <v>       0.00317460 </v>
   <v>       0.00317460 </v>
   <v>       0.00317460 </v>
   <v>       0.00317460 </v>
   <v>       0.00317460 </v>
   <v>       0.00317460 </v>
   <v>       0.00317460 </v>
   <v>       0.00317460 </v>
   <v>       0.00317460 </v>
   <v>       0.00317460 </v>
   <v>       0.00317460 </v>
   <v>       0.00317460 </v>
   <v>       0.00317460 </v>
   <v>       0.00317460 </v>
   <v>       0.00317460 </v>
   <v>       0.00317460 </v>
   <v>       0.00317460 </v>
   <v>       0.00317460 </v>
   <v>       0.00634921 </v>
   <v>       0.00634921 </v>
   <v>       0.00634921 </v>
   <v>       0.00634921 </v>
   <v>       0.00634921 </v>
   <v>       0.00634921 </v>
   <v>       0.00634921 </v>
   <v>       0.00634921 </v>
   <v>       0.00634921 </v>
   <v>       0.00634921 </v>
   <v>       0.00634921 </v>
   <v>       0.00634921 </v>
   <v>       0.00634921 </v>
   <v>       0.00634921 </v>
   <v>       0.00634921 </v>
   <v>       0.00634921 </v>
   <v>       0.00634921 </v>
   <v>       0.00634921 </v>
   <v>       0.00634921 </v>
   <v>       0.00634921 </v>
   <v>       0.00634921 </v>
   <v>       0.00634921 </v>
   <v>       0.00634921 </v>
   <v>       0.00634921 </v>
   <v>       0.00634921 </v>
   <v>       0.00634921 </v>
   <v>       0.00634921 </v>
   <v>       0.00634921 </v>
   <v>       0.00634921 </v>
   <v>       0.00634921 </v>
   <v>       0.00634921 </v>
   <v>       0.00634921 </v>
   <v>       0.00634921 </v>
   <v>       0.00634921 </v>
   <v>       0.00634921 </v>
   <v>       0.00634921 </v>
   <v>       0.00634921 </v>
   <v>       0.00634921 </v>
   <v>       0.00634921 </v>
   <v>       0.00634921 </v>
   <v>       0.00634921 </v>
   <v>       0.00634921 </v>
   <v>       0.00634921 </v>
   <v>       0.00634921 </v>
   <v>       0.00634921 </v>
   <v>       0.00634921 </v>
   <v>       0.00634921 </v>
   <v>       0.00634921 </v>
   <v>       0.00634921 </v>
   <v>       0.00634921 </v>
   <v>       0.00634921 </v>
   <v>       0.00634921 </v>
   <v>       0.00634921 </v>
   <v>       0.00634921 </v>
   <v>       0.00634921 </v>
   <v>       0.00634921 </v>
   <v>       0.00634921 </v>
   <v>       0.00634921 </v>
   <v>       0.00634921 </v>
   <v>       0.00634921 </v>
   <v>       0.00634921 </v>
   <v>       0.00634921 </v>
   <v>       0.00634921 </v>
   <v>       0.00634921 </v>
   <v>       0.00634921 </v>
   <v>       0.00634921 </v>
   <v>       0.00634921 </v>
   <v>       0.00634921 </v>
   <v>       0.00634921 </v>
   <v>       0.00634921 </v>
   <v>       0.00634921 </v>
   <v>       0.00634921 </v>
   <v>       0.00634921 </v>
   <v>       0.00634921 </v>
   <v>       0.00634921 </v>
   <v>       0.00634921 </v>
   <v>       0.00634921 </v>
   <v>       0.00634921 </v>
   <v>       0.00634921 </v>
   <v>       0.00634921 </v>
   <v>       0.00634921 </v>
   <v>       0.00634921 </v>
   <v>       0.00634921 </v>
   <v>       0.00634921 </v>
   <v>       0.00634921 </v>
   <v>       0.00634921 </v>
   <v>       0.00634921 </v>
   <v>       0.00634921 </v>
   <v>       0.00634921 </v>
   <v>       0.00634921 </v>
   <v>       0.00634921 </v>
   <v>       0.00634921 </v>
   <v>       0.00634921 </v>
   <v>       0.00634921 </v>
   <v>       0.00634921 </v>
   <v>       0.00634921 </v>
   <v>       0.00634921 </v>
   <v>       0.00634921 </v>
   <v>       0.00634921 </v>
   <v>       0.00634921 </v>
   <v>       0.00634921 </v>
   <v>       0.00634921 </v>
   <v>       0.00634921 </v>
   <v>       0.00634921 </v>
   <v>       0.00634921 </v>
   <v>       0.00634921 </v>
   <v>       0.00634921 </v>
   <v>       0.00634921 </v>
   <v>       0.00634921 </v>
   <v>       0.00634921 </v>
   <v>       0.00634921 </v>
   <v>       0.00634921 </v>
   <v>       0.00634921 </v>
   <v>       0.00634921 </v>
   <v>       0.00634921 </v>
   <v>       0.00634921 </v>
   <v>       0.00634921 </v>
   <v>       0.00634921 </v>
   <v>       0.00634921 </v>
   <v>       0.00634921 </v>
   <v>       0.00634921 </v>
   <v>       0.00634921 </v>
   <v>       0.00634921 </v>
   <v>       0.00634921 </v>
   <v>       0.00634921 </v>
   <v>       0.00634921 </v>
   <v>       0.00634921 </v>
   <v>       0.00634921 </v>
   <v>       0.00634921 </v>
   <v>       0.00634921 </v>
   <v>       0.00634921 </v>
   <v>       0.00634921 </v>
   <v>       0.00634921 </v>
   <v>       0.00634921 </v>
   <v>       0.00634921 </v>
   <v>       0.00634921 </v>
   <v>       0.00634921 </v>
   <v>       0.00634921 </v>
   <v>       0.00634921 </v>
   <v>       0.00634921 </v>
  </varray>
 </kpoints>
 <parameters>
  <separator name="general" >
   <i type="string" name="SYSTEM">Convergence</i>
   <i type="logical" name="LCOMPAT"> F  </i>
  </separator>
  <separator name="electronic" >
   <i type="string" name="PREC">accura</i>
   <i name="ENMAX">    600.00000000</i>
   <i name="ENAUG">    535.51400000</i>
   <i name="EDIFF">      0.00000100</i>
   <i type="int" name="IALGO">    38</i>
   <i type="int" name="IWAVPR">    10</i>
   <i type="int" name="NBANDS">    24</i>
   <i type="int" name="NBANDSLOW">    -1</i>
   <i type="int" name="NBANDSHIGH">    -1</i>
   <i name="NELECT">      3.00000000</i>
   <i type="int" name="TURBO">     0</i>
   <i type="int" name="IRESTART">     0</i>
   <i type="int" name="NREBOOT">     0</i>
   <i type="int" name="NMIN">     0</i>
   <i name="EREF">      0.00000000</i>
   <separator name="electronic smearing" >
    <i type="int" name="ISMEAR">     0</i>
    <i name="SIGMA">      0.05000000</i>
    <i name="KSPACING">      0.50000000</i>
    <i type="logical" name="KGAMMA"> T  </i>
    <i type="logical" name="KBLOWUP"> T  </i>
   </separator>
   <separator name="electronic projectors" >
    <i type="logical" name="LREAL"> F  </i>
    <v name="ROPT">      0.00000000</v>
    <i type="int" name="LMAXPAW">  -100</i>
    <i type="int" name="LMAXMIX">     2</i>
    <i type="logical" name="NLSPLINE"> F  </i>
   </separator>
   <separator name="electronic startup" >
    <i type="int" name="ISTART">     0</i>
    <i type="int" name="ICHARG">     2</i>
    <i type="int" name="INIWAV">     1</i>
   </separator>
   <separator name="electronic spin" >
    <i type="int" name="ISPIN">     1</i>
    <i type="logical" name="LNONCOLLINEAR"> F  </i>
    <v name="MAGMOM">      1.00000000</v>
    <i name="NUPDOWN">     -1.00000000</i>
    <i type="logical" name="LSORBIT"> F  </i>
    <v name="SAXIS">      0.00000000      0.00000000      1.00000000</v>
    <i type="logical" name="LSPIRAL"> F  </i>
    <v name="QSPIRAL">      0.00000000      0.00000000      0.00000000</v>
    <i type="logical" name="LZEROZ"> F  </i>
   </separator>
   <separator name="electronic exchange-correlation" >
    <i type="logical" name="LASPH"> F  </i>
   </separator>
   <separator name="electronic convergence" >
    <i type="int" name="NELM">   100</i>
    <i type="int" name="NELMDL">    -5</i>
    <i type="int" name="NELMIN">     2</i>
    <i name="ENINI">    600.00000000</i>
    <separator name="electronic convergence detail" >
     <i type="logical" name="LDIAG"> T  </i>
     <i type="logical" name="LSUBROT"> F  </i>
     <i name="WEIMIN">      0.00000000</i>
     <i name="EBREAK">      0.00000001</i>
     <i name="DEPER">      0.30000000</i>
     <i type="int" name="NRMM">     4</i>
     <i name="TIME">      0.40000000</i>
    </separator>
   </separator>
   <separator name="electronic mixer" >
    <i name="AMIX">      0.40000000</i>
    <i name="BMIX">      1.00000000</i>
    <i name="AMIN">      0.10000000</i>
    <i name="AMIX_MAG">      1.60000000</i>
    <i name="BMIX_MAG">      1.00000000</i>
    <separator name="electronic mixer details" >
     <i type="int" name="IMIX">     4</i>
     <i type="logical" name="MIXFIRST"> F  </i>
     <i type="int" name="MAXMIX">   -45</i>
     <i name="WC">    100.00000000</i>
     <i type="int" name="INIMIX">     1</i>
     <i type="int" name="MIXPRE">     1</i>
     <i type="int" name="MREMOVE">     5</i>
    </separator>
   </separator>
   <separator name="electronic dipolcorrection" >
    <i type="logical" name="LDIPOL"> F  </i>
    <i type="logical" name="LMONO"> F  </i>
    <i type="int" name="IDIPOL">     0</i>
    <i name="EPSILON">      1.00000000</i>
    <v name="DIPOL">   -100.00000000   -100.00000000   -100.00000000</v>
    <i name="EFIELD">      0.00000000</i>
    <i type="logical" name="LVACPOTAV"> F  </i>
   </separator>
  </separator>
  <separator name="grids" >
   <i type="int" name="NGX">   120</i>
   <i type="int" name="NGY">   100</i>
   <i type="int" name="NGZ">   144</i>
   <i type="int" name="NGXF">   240</i>
   <i type="int" name="NGYF">   200</i>
   <i type="int" name="NGZF">   288</i>
   <i type="logical" name="ADDGRID"> F  </i>
  </separator>
  <separator name="ionic" >
   <i type="int" name="NSW">     0</i>
   <i type="int" name="IBRION">    -1</i>
   <i type="int" name="MDALGO">     0</i>
   <i type="int" name="ISIF">     2</i>
   <i name="PSTRESS">      0.00000000</i>
   <i name="EDIFFG">     -0.00100000</i>
   <i type="int" name="NFREE">     0</i>
   <i name="POTIM">      0.50000000</i>
   <i name="SMASS">     -3.00000000</i>
   <i name="SCALEE">      1.00000000</i>
  </separator>
  <separator name="ionic md" >
   <i name="TEBEG">      0.00010000</i>
   <i name="TEEND">      0.00010000</i>
   <i type="int" name="NBLOCK">     1</i>
   <i type="int" name="KBLOCK">     1</i>
   <i type="int" name="NPACO">   256</i>
   <i name="APACO">     10.00000000</i>
  </separator>
  <separator name="symmetry" >
   <i type="int" name="ISYM">     2</i>
   <i name="SYMPREC">      0.00001000</i>
  </separator>
  <separator name="dos" >
   <i type="int" name="LORBIT">     0</i>
   <v name="RWIGS">     -1.00000000</v>
   <i type="int" name="NEDOS">   301</i>
   <i name="EMIN">     10.00000000</i>
   <i name="EMAX">    -10.00000000</i>
   <i name="EFERMI">      0.00000000</i>
  </separator>
  <separator name="writing" >
   <i type="int" name="NWRITE">     2</i>
   <i type="logical" name="LWAVE"> F  </i>
   <i type="logical" name="LDOWNSAMPLE"> F  </i>
   <i type="logical" name="LCHARG"> F  </i>
   <i type="logical" name="LPARD"> F  </i>
   <i type="logical" name="LVTOT"> F  </i>
   <i type="logical" name="LVHAR"> F  </i>
   <i type="logical" name="LELF"> F  </i>
   <i type="logical" name="LOPTICS"> F  </i>
   <v name="STM">      0.00000000      0.00000000      0.00000000      0.00000000      0.00000000      0.00000000      0.00000000</v>
  </separator>
  <separator name="performance" >
   <i type="int" name="NPAR">    24</i>
   <i type="int" name="NSIM">     4</i>
   <i type="int" name="NBLK">    -1</i>
   <i type="logical" name="LPLANE"> T  </i>
   <i type="logical" name="LSCALAPACK"> T  </i>
   <i type="logical" name="LSCAAWARE"> F  </i>
   <i type="logical" name="LSCALU"> F  </i>
   <i type="logical" name="LASYNC"> F  </i>
   <i type="logical" name="LORBITALREAL"> F  </i>
  </separator>
  <separator name="miscellaneous" >
   <i type="int" name="IDIOT">     3</i>
   <i type="int" name="PHON_NSTRUCT">    -1</i>
   <i type="logical" name="LMUSIC"> F  </i>
   <v name="POMASS">     10.81100000</v>
   <v name="DARWINR">      0.00000000</v>
   <v name="DARWINV">      1.00000000</v>
   <i type="logical" name="LCORR"> T  </i>
  </separator>
  <i type="logical" name="GGA_COMPAT"> T  </i>
  <i type="logical" name="LBERRY"> F  </i>
  <i type="int" name="ICORELEVEL">     0</i>
  <i type="logical" name="LDAU"> F  </i>
  <i type="int" name="I_CONSTRAINED_M">     0</i>
  <separator name="electronic exchange-correlation" >
   <i type="string" name="GGA    ">PE</i>
   <i type="string" name="XC_C">1</i>
   <i type="int" name="VOSKOWN">     0</i>
   <i type="logical" name="LHFCALC"> F  </i>
   <i type="string" name="PRECFOCK"></i>
   <i type="logical" name="LSYMGRAD"> F  </i>
   <i type="logical" name="LHFONE"> F  </i>
   <i type="logical" name="LRHFCALC"> F  </i>
   <i type="logical" name="LTHOMAS"> F  </i>
   <i type="logical" name="LMODELHF"> F  </i>
   <i type="logical" name="LFOCKACE"> F  </i>
   <i name="ENCUT4O">     -1.00000000</i>
   <i type="int" name="EXXOEP">     0</i>
   <i type="int" name="FOURORBIT">     0</i>
   <i name="AEXX">      0.00000000</i>
   <i name="HFALPHA">      0.00000000</i>
   <i name="MCALPHA">      0.00000000</i>
   <i name="ALDAX">      1.00000000</i>
   <i name="AGGAX">      1.00000000</i>
   <i name="AMGGAX">      1.00000000</i>
   <i name="ALDAC">      1.00000000</i>
   <i name="AGGAC">      1.00000000</i>
   <i name="AMGGAC">      1.00000000</i>
   <i type="int" name="NKREDX">     1</i>
   <i type="int" name="NKREDY">     1</i>
   <i type="int" name="NKREDZ">     1</i>
   <i type="logical" name="SHIFTRED"> F  </i>
   <i type="logical" name="ODDONLY"> F  </i>
   <i type="logical" name="EVENONLY"> F  </i>
   <i type="int" name="LMAXFOCK">     0</i>
   <i type="int" name="NMAXFOCKAE">     0</i>
   <i type="logical" name="LFOCKAEDFT"> F  </i>
   <i name="HFSCREEN">      0.00000000</i>
   <i name="HFSCREENC">      0.00000000</i>
   <i type="int" name="NBANDSGWLOW">     0</i>
  </separator>
  <separator name="vdW DFT" >
   <i type="logical" name="LUSE_VDW"> F  </i>
   <i type="int" name="IVDW_NL">    -1</i>
   <i type="logical" name="LSPIN_VDW"> F  </i>
   <i name="ZAB_VDW">     -0.84910000</i>
   <i name="GAMMA_VDW">      1.39626340</i>
   <i name="ALPHA_VDW">      0.00000000</i>
   <i name="PARAM1">      0.12340000</i>
   <i name="PARAM2">      1.00000000</i>
   <i name="BPARAM">      6.30000000</i>
   <i name="CPARAM">      0.00930000</i>
  </separator>
  <separator name="model GW" >
   <i type="int" name="MODEL_GW">     0</i>
   <i name="MODEL_EPS0">   2035.95469481</i>
   <i name="MODEL_ALPHA">      1.00000000</i>
  </separator>
  <separator name="linear response parameters" >
   <i type="logical" name="LEPSILON"> F  </i>
   <i type="logical" name="LRPA"> F  </i>
   <i type="logical" name="LNABLA"> F  </i>
   <i type="logical" name="LVEL"> F  </i>
   <i name="CSHIFT">      0.10000000</i>
   <i name="OMEGAMAX">     -1.00000000</i>
   <i name="DEG_THRESHOLD">      0.00200000</i>
   <i name="RTIME">     -0.10000000</i>
   <i name="WPLASMAI">      0.00000000</i>
   <v name="DFIELD">      0.00000000      0.00000000      0.00000000</v>
   <v name="WPLASMA">      0.00000000      0.00000000      0.00000000      0.00000000      0.00000000      0.00000000      0.00000000      0.00000000      0.00000000</v>
  </separator>
  <separator name="orbital magnetization" >
   <i type="logical" name="NUCIND"> F  </i>
   <v name="MAGPOS">      0.00000000      0.00000000      0.00000000</v>
   <i type="logical" name="LNICSALL"> T  </i>
   <i type="logical" name="ORBITALMAG"> F  </i>
   <i type="logical" name="LMAGBLOCH"> F  </i>
   <i type="logical" name="LCHIMAG"> F  </i>
   <i type="logical" name="LGAUGE"> T  </i>
   <i type="int" name="MAGATOM">     0</i>
   <v name="MAGDIPOL">      0.00000000      0.00000000      0.00000000</v>
   <v name="AVECCONST">      0.00000000      0.00000000      0.00000000</v>
  </separator>
  <separator name="response functions" >
   <i type="logical" name="LALL_IN_ONE"> F  </i>
   <i type="int" name="IALL_IN_ONE">    -1</i>
   <i type="int" name="NBANDS_WAVE">    -1</i>
   <i type="logical" name="LFINITE_TEMPERATURE"> F  </i>
   <i type="logical" name="LADDER"> F  </i>
   <i type="logical" name="LRPAFORCE"> F  </i>
   <i type="logical" name="LFXC"> F  </i>
   <i type="logical" name="LHARTREE"> T  </i>
   <i type="int" name="IBSE">     0</i>
   <v type="int" name="KPOINT">    -1     0     0     0</v>
   <i type="logical" name="LTCTC"> F  </i>
   <i type="logical" name="LTCTE"> F  </i>
   <i type="logical" name="LTETE"> F  </i>
   <i type="logical" name="LTRIPLET"> F  </i>
   <i type="logical" name="LFXCEPS"> F  </i>
   <i type="logical" name="LFXHEG"> F  </i>
   <i type="int" name="NATURALO">     2</i>
   <i type="logical" name="LHOLEGF"> F  </i>
   <i type="logical" name="L2ORDER"> F  </i>
   <i type="logical" name="LDMP1"> F  </i>
   <i type="logical" name="LMP2LT"> F  </i>
   <i type="logical" name="LSMP2LT"> F  </i>
   <i type="logical" name="LGWLF"> F  </i>
   <i name="ENCUTGW">     -1.60000002</i>
   <i name="ENCUTGWSOFT">     -1.60000002</i>
   <i name="ENCUTLF">     -1.00000000</i>
   <i type="logical" name="ESF_SPLINES"> F  </i>
   <i name="ESF_CONV">      0.01000000</i>
   <i type="int" name="ESF_NINTER">    15</i>
   <i type="int" name="LMAXMP2">    -1</i>
   <i name="SCISSOR">      0.00000000</i>
   <i type="int" name="NOMEGA">     0</i>
   <i type="int" name="NOMEGAR">     0</i>
   <i type="int" name="NBANDSGW">    -1</i>
   <i type="int" name="NBANDSO">    -1</i>
   <i type="int" name="NBANDSV">    -1</i>
   <i type="int" name="NELMGW">     1</i>
   <i type="int" name="NELMHF">     1</i>
   <i type="int" name="DIM">     3</i>
   <i type="int" name="IESPILON">     4</i>
   <i type="int" name="ANTIRES">     0</i>
   <i name="OMEGAMAX">    -30.00000000</i>
   <i name="OMEGAMIN">    -30.00000000</i>
   <i name="OMEGATL">   -200.00000000</i>
   <i type="int" name="OMEGAGRID">     0</i>
   <i name="CSHIFT">     -0.10000000</i>
   <i type="logical" name="LSELFENERGY"> F  </i>
   <i type="logical" name="LSPECTRAL"> F  </i>
   <i type="logical" name="LSPECTRALGW"> F  </i>
   <i type="logical" name="LSINGLES"> F  </i>
   <i type="logical" name="LFERMIGW"> F  </i>
   <i type="logical" name="ODDONLYGW"> F  </i>
   <i type="logical" name="EVENONLYGW"> F  </i>
   <i type="int" name="NKREDLFX">     1</i>
   <i type="int" name="NKREDLFY">     1</i>
   <i type="int" name="NKREDLFZ">     1</i>
   <i type="int" name="MAXMEM">  2800</i>
   <i type="int" name="TELESCOPE">     0</i>
   <i type="int" name="NTAUPAR">    -1</i>
   <i type="int" name="NOMEGAPAR">    -1</i>
   <i name="DAMP_NEWTON">      0.80000001</i>
   <i name="LAMBDA">      1.00000000</i>
  </separator>
  <separator name="External order field" >
   <i name="OFIELD_KAPPA">      0.00000000</i>
   <v name="OFIELD_K">      0.00000000      0.00000000      0.00000000</v>
   <i name="OFIELD_Q6_NEAR">      0.00000000</i>
   <i name="OFIELD_Q6_FAR">      0.00000000</i>
   <i name="OFIELD_A">      0.00000000</i>
  </separator>
  <separator name="optional k-points parameters" >
   <i type="int" name="KPOINTS_OPT_MODE">     1</i>
   <i type="logical" name="LKPOINTS_OPT"> F  </i>
  </separator>
 </parameters>
 <atominfo>
  <atoms>       1 </atoms>
  <types>       1 </types>
  <array name="atoms" >
   <dimension dim="1">ion</dimension>
   <field type="string">element</field>
   <field type="int">atomtype</field>
   <set>
    <rc><c>B </c><c>   1</c></rc>
   </set>
  </array>
  <array name="atomtypes" >
   <dimension dim="1">type</dimension>
   <field type="int">atomspertype</field>
   <field type="string">element</field>
   <field>mass</field>
   <field>valence</field>
   <field type="string">pseudopotential</field>
   <set>
    <rc><c>   1</c><c>B </c><c>     10.81100000</c><c>      3.00000000</c><c>  PAW_PBE B 06Sep2000                   </c></rc>
   </set>
  </array>
 </atominfo>
 <structure name="initialpos" >
  <crystal>
   <varray name="basis" >
    <v>      15.02700000       0.00000000       0.00000000 </v>
    <v>       0.00000000      12.52250000       0.00000000 </v>
    <v>       0.00000000       0.00000000      18.03240000 </v>
   </varray>
   <i name="volume">   3393.25782468 </i>
   <varray name="rec_basis" >
    <v>       0.06654688       0.00000000       0.00000000 </v>
    <v>       0.00000000       0.07985626       0.00000000 </v>
    <v>       0.00000000       0.00000000       0.05545574 </v>
   </varray>
  </crystal>
  <varray name="positions" >
   <v>       0.52123000       0.54500000       0.63796000 </v>
  </varray>
 </structure>
 <calculation>
  <scstep>
   <time name="dav">   57.74   60.58</time>
   <time name="total">   58.21   61.11</time>
   <energy>
    <i name="alphaZ">      0.02027406 </i>
    <i name="ewald">    -11.80776267 </i>
    <i name="hartreedc">    -42.60456852 </i>
    <i name="XCdc">      4.75549673 </i>
    <i name="pawpsdc">     43.49986551 </i>
    <i name="pawaedc">    -42.64454556 </i>
    <i name="eentropy">     -0.01010082 </i>
    <i name="bandstr">    -14.43972277 </i>
    <i name="atom">     71.16960075 </i>
    <i name="e_fr_energy">      7.93853670 </i>
    <i name="e_wo_entrp">      7.94863752 </i>
    <i name="e_0_energy">      7.94358711 </i>
   </energy>
  </scstep>
  <scstep>
   <time name="dav">   95.66   99.67</time>
   <time name="total">   95.66   99.68</time>
   <energy>
    <i name="e_fr_energy">      0.10495867 </i>
    <i name="e_wo_entrp">      0.13451518 </i>
    <i name="e_0_energy">      0.11973693 </i>
   </energy>
  </scstep>
  <scstep>
   <time name="dav">   60.54   63.44</time>
   <time name="total">   60.54   63.44</time>
   <energy>
    <i name="e_fr_energy">     -0.05488795 </i>
    <i name="e_wo_entrp">     -0.00204436 </i>
    <i name="e_0_energy">     -0.02846615 </i>
   </energy>
  </scstep>
  <scstep>
   <time name="dav">   64.14   66.59</time>
   <time name="total">   64.14   66.60</time>
   <energy>
    <i name="e_fr_energy">     -0.05821515 </i>
    <i name="e_wo_entrp">     -0.00521384 </i>
    <i name="e_0_energy">     -0.03171450 </i>
   </energy>
  </scstep>
  <scstep>
   <time name="dav">   78.87   81.85</time>
   <time name="total">   82.89   85.98</time>
   <energy>
    <i name="e_fr_energy">     -0.05825222 </i>
    <i name="e_wo_entrp">     -0.00525088 </i>
    <i name="e_0_energy">     -0.03175155 </i>
   </energy>
  </scstep>
  <scstep>
   <time name="dav">   71.63   72.66</time>
   <time name="total">   72.08   73.12</time>
   <energy>
    <i name="alphaZ">      0.02027406 </i>
    <i name="ewald">    -11.80776267 </i>
    <i name="hartreedc">    -42.60478738 </i>
    <i name="XCdc">      4.75548409 </i>
    <i name="pawpsdc">     43.56773565 </i>
    <i name="pawaedc">    -42.71244866 </i>
    <i name="eentropy">     -0.05300134 </i>
    <i name="bandstr">    -22.39334760 </i>
    <i name="atom">     71.16960075 </i>
    <i name="e_fr_energy">     -0.05825310 </i>
    <i name="e_wo_entrp">     -0.00525176 </i>
    <i name="e_0_energy">     -0.03175243 </i>
   </energy>
  </scstep>
  <structure>
   <crystal>
    <varray name="basis" >
     <v>      15.02700000       0.00000000       0.00000000 </v>
     <v>       0.00000000      12.52250000       0.00000000 </v>
     <v>       0.00000000       0.00000000      18.03240000 </v>
    </varray>
    <i name="volume">   3393.25782468 </i>
    <varray name="rec_basis" >
     <v>       0.06654688       0.00000000       0.00000000 </v>
     <v>       0.00000000       0.07985626       0.00000000 </v>
     <v>       0.00000000       0.00000000       0.05545574 </v>
    </varray>
   </crystal>
   <varray name="positions" >
    <v>       0.52123000       0.54500000       0.63796000 </v>
   </varray>
  </structure>
  <varray name="forces" >
   <v>       0.00000000       0.00000000       0.00000000 </v>
  </varray>
  <varray name="stress" >
   <v>      -0.00046498       0.00000000       0.00000000 </v>
   <v>      -0.00000000      -0.00047213       0.00000000 </v>
   <v>       0.00000000       0.00000000      -0.00046443 </v>
  </varray>
  <energy>
   <i name="e_fr_energy">     -0.05825310 </i>
   <i name="e_wo_entrp">     -0.00525176 </i>
   <i name="e_0_energy">     -0.03175243 </i>
  </energy>
  <time name="totalsc">  494.08  510.83</time>
  <eigenvalues>
   <array>
    <dimension dim="1">band</dimension>
    <dimension dim="2">kpoint</dimension>
    <dimension dim="3">spin</dimension>
    <field>eigene</field>
    <field>occ</field>
    <set>
     <set comment="spin 1">
      <set comment="kpoint 1">
       <r>   -9.4101    1.0000 </r>
       <r>   -3.5732    0.1667 </r>
       <r>   -3.5732    0.1667 </r>
       <r>   -3.5731    0.1659 </r>
       <r>   -0.2615    0.0000 </r>
       <r>    0.2929    0.0000 </r>
       <r>    0.3085    0.0000 </r>
       <r>    0.4376    0.0000 </r>
       <r>    0.5715    0.0000 </r>
       <r>    0.6840    0.0000 </r>
       <r>    0.8258    0.0000 </r>
       <r>    0.9075    0.0000 </r>
       <r>    0.9403    0.0000 </r>
       <r>    1.0322    0.0000 </r>
       <r>    1.0746    0.0000 </r>
       <r>    1.1700    0.0000 </r>
       <r>    1.2038    0.0000 </r>
       <r>    1.2852    0.0000 </r>
       <r>    1.3298    0.0000 </r>
       <r>    1.3474    0.0000 </r>
       <r>    1.4231    0.0000 </r>
       <r>    1.4932    0.0000 </r>
       <r>    1.5708    0.0000 </r>
       <r>    1.7016    0.0000 </r>
      </set>
      <set comment="kpoint 2">
       <r>   -9.4101    1.0000 </r>
       <r>   -3.5732    0.1667 </r>
       <r>   -3.5732    0.1667 </r>
       <r>   -3.5731    0.1659 </r>
       <r>   -0.2517    0.0000 </r>
       <r>    0.2677    0.0000 </r>
       <r>    0.3197    0.0000 </r>
       <r>    0.3722    0.0000 </r>
       <r>    0.6866    0.0000 </r>
       <r>    0.7054    0.0000 </r>
       <r>    0.7981    0.0000 </r>
       <r>    0.8274    0.0000 </r>
       <r>    0.8381    0.0000 </r>
       <r>    1.1478    0.0000 </r>
       <r>    1.1607    0.0000 </r>
       <r>    1.1938    0.0000 </r>
       <r>    1.2148    0.0000 </r>
       <r>    1.2525    0.0000 </r>
       <r>    1.3271    0.0000 </r>
       <r>    1.3464    0.0000 </r>
       <r>    1.3829    0.0000 </r>
       <r>    1.5711    0.0000 </r>
       <r>    1.6321    0.0000 </r>
       <r>    1.6817    0.0000 </r>
      </set>
      <set comment="kpoint 3">
       <r>   -9.4101    1.0000 </r>
       <r>   -3.5732    0.1667 </r>
       <r>   -3.5732    0.1667 </r>
       <r>   -3.5731    0.1659 </r>
       <r>   -0.2337    0.0000 </r>
       <r>    0.1983    0.0000 </r>
       <r>    0.3412    0.0000 </r>
       <r>    0.3740    0.0000 </r>
       <r>    0.7016    0.0000 </r>
       <r>    0.7089    0.0000 </r>
       <r>    0.7128    0.0000 </r>
       <r>    0.8510    0.0000 </r>
       <r>    0.8693    0.0000 </r>
       <r>    1.0857    0.0000 </r>
       <r>    1.1896    0.0000 </r>
       <r>    1.2296    0.0000 </r>
       <r>    1.2682    0.0000 </r>
       <r>    1.2909    0.0000 </r>
       <r>    1.3824    0.0000 </r>
       <r>    1.3937    0.0000 </r>
       <r>    1.4009    0.0000 </r>
       <r>    1.5902    0.0000 </r>
       <r>    1.5911    0.0000 </r>
       <r>    1.6440    0.0000 </r>
      </set>
      <set comment="kpoint 4">
       <r>   -9.4101    1.0000 </r>
       <r>   -3.5732    0.1668 </r>
       <r>   -3.5732    0.1667 </r>
       <r>   -3.5731    0.1659 </r>
       <r>   -0.2116    0.0000 </r>
       <r>    0.1308    0.0000 </r>
       <r>    0.3702    0.0000 </r>
       <r>    0.4050    0.0000 </r>
       <r>    0.6222    0.0000 </r>
       <r>    0.6245    0.0000 </r>
       <r>    0.7364    0.0000 </r>
       <r>    0.8840    0.0000 </r>
       <r>    0.9977    0.0000 </r>
       <r>    1.0367    0.0000 </r>
       <r>    1.1628    0.0000 </r>
       <r>    1.2155    0.0000 </r>
       <r>    1.3021    0.0000 </r>
       <r>    1.3579    0.0000 </r>
       <r>    1.4309    0.0000 </r>
       <r>    1.4801    0.0000 </r>
       <r>    1.4999    0.0000 </r>
       <r>    1.5398    0.0000 </r>
       <r>    1.5531    0.0000 </r>
       <r>    1.5996    0.0000 </r>
      </set>
      <set comment="kpoint 5">
       <r>   -9.4101    1.0000 </r>
       <r>   -3.5732    0.1668 </r>
       <r>   -3.5732    0.1667 </r>
       <r>   -3.5731    0.1659 </r>
       <r>   -0.1947    0.0000 </r>
       <r>    0.0899    0.0000 </r>
       <r>    0.3966    0.0000 </r>
       <r>    0.4430    0.0000 </r>
       <r>    0.5591    0.0000 </r>
       <r>    0.5706    0.0000 </r>
       <r>    0.7566    0.0000 </r>
       <r>    0.9088    0.0000 </r>
       <r>    0.9674    0.0000 </r>
       <r>    1.0973    0.0000 </r>
       <r>    1.2077    0.0000 </r>
       <r>    1.2353    0.0000 </r>
       <r>    1.3366    0.0000 </r>
       <r>    1.3981    0.0000 </r>
       <r>    1.3987    0.0000 </r>
       <r>    1.4430    0.0000 </r>
       <r>    1.4484    0.0000 </r>
       <r>    1.5100    0.0000 </r>
       <r>    1.5756    0.0000 </r>
       <r>    1.5778    0.0000 </r>
      </set>
      <set comment="kpoint 6">
       <r>   -9.4101    1.0000 </r>
       <r>   -3.5732    0.1667 </r>
       <r>   -3.5732    0.1666 </r>
       <r>   -3.5731    0.1660 </r>
       <r>   -0.2524    0.0000 </r>
       <r>    0.3009    0.0000 </r>
       <r>    0.3175    0.0000 </r>
       <r>    0.4464    0.0000 </r>
       <r>    0.5597    0.0000 </r>
       <r>    0.5900    0.0000 </r>
       <r>    0.9150    0.0000 </r>
       <r>    0.9430    0.0000 </r>
       <r>    0.9600    0.0000 </r>
       <r>    1.0214    0.0000 </r>
       <r>    1.0805    0.0000 </r>
       <r>    1.0837    0.0000 </r>
       <r>    1.0911    0.0000 </r>
       <r>    1.1851    0.0000 </r>
       <r>    1.3295    0.0000 </r>
       <r>    1.4508    0.0000 </r>
       <r>    1.4876    0.0000 </r>
       <r>    1.5789    0.0000 </r>
       <r>    1.6324    0.0000 </r>
       <r>    1.6733    0.0000 </r>
      </set>
      <set comment="kpoint 7">
       <r>   -9.4101    1.0000 </r>
       <r>   -3.5732    0.1667 </r>
       <r>   -3.5732    0.1667 </r>
       <r>   -3.5731    0.1660 </r>
       <r>   -0.2426    0.0000 </r>
       <r>    0.2761    0.0000 </r>
       <r>    0.3286    0.0000 </r>
       <r>    0.3811    0.0000 </r>
       <r>    0.5766    0.0000 </r>
       <r>    0.7095    0.0000 </r>
       <r>    0.8068    0.0000 </r>
       <r>    0.8371    0.0000 </r>
       <r>    0.9640    0.0000 </r>
       <r>    1.0551    0.0000 </r>
       <r>    1.0581    0.0000 </r>
       <r>    1.1315    0.0000 </r>
       <r>    1.1889    0.0000 </r>
       <r>    1.2295    0.0000 </r>
       <r>    1.4157    0.0000 </r>
       <r>    1.4609    0.0000 </r>
       <r>    1.4649    0.0000 </r>
       <r>    1.5529    0.0000 </r>
       <r>    1.5690    0.0000 </r>
       <r>    1.5991    0.0000 </r>
      </set>
      <set comment="kpoint 8">
       <r>   -9.4101    1.0000 </r>
       <r>   -3.5732    0.1667 </r>
       <r>   -3.5732    0.1667 </r>
       <r>   -3.5731    0.1660 </r>
       <r>   -0.2246    0.0000 </r>
       <r>    0.2073    0.0000 </r>
       <r>    0.3501    0.0000 </r>
       <r>    0.3825    0.0000 </r>
       <r>    0.5970    0.0000 </r>
       <r>    0.7106    0.0000 </r>
       <r>    0.7184    0.0000 </r>
       <r>    0.8709    0.0000 </r>
       <r>    0.9614    0.0000 </r>
       <r>    0.9994    0.0000 </r>
       <r>    1.0811    0.0000 </r>
       <r>    1.1477    0.0000 </r>
       <r>    1.3206    0.0000 </r>
       <r>    1.3455    0.0000 </r>
       <r>    1.3915    0.0000 </r>
       <r>    1.4635    0.0000 </r>
       <r>    1.4920    0.0000 </r>
       <r>    1.5039    0.0000 </r>
       <r>    1.5262    0.0000 </r>
       <r>    1.6265    0.0000 </r>
      </set>
      <set comment="kpoint 9">
       <r>   -9.4101    1.0000 </r>
       <r>   -3.5732    0.1668 </r>
       <r>   -3.5732    0.1667 </r>
       <r>   -3.5731    0.1660 </r>
       <r>   -0.2026    0.0000 </r>
       <r>    0.1401    0.0000 </r>
       <r>    0.3790    0.0000 </r>
       <r>    0.4134    0.0000 </r>
       <r>    0.6227    0.0000 </r>
       <r>    0.6316    0.0000 </r>
       <r>    0.6337    0.0000 </r>
       <r>    0.8908    0.0000 </r>
       <r>    1.0148    0.0000 </r>
       <r>    1.0356    0.0000 </r>
       <r>    1.1085    0.0000 </r>
       <r>    1.1830    0.0000 </r>
       <r>    1.2875    0.0000 </r>
       <r>    1.3642    0.0000 </r>
       <r>    1.3938    0.0000 </r>
       <r>    1.4795    0.0000 </r>
       <r>    1.5399    0.0000 </r>
       <r>    1.5461    0.0000 </r>
       <r>    1.5648    0.0000 </r>
       <r>    1.6350    0.0000 </r>
      </set>
      <set comment="kpoint 10">
       <r>   -9.4101    1.0000 </r>
       <r>   -3.5732    0.1668 </r>
       <r>   -3.5732    0.1667 </r>
       <r>   -3.5731    0.1660 </r>
       <r>   -0.1857    0.0000 </r>
       <r>    0.0993    0.0000 </r>
       <r>    0.4052    0.0000 </r>
       <r>    0.4513    0.0000 </r>
       <r>    0.5677    0.0000 </r>
       <r>    0.5802    0.0000 </r>
       <r>    0.6457    0.0000 </r>
       <r>    0.8472    0.0000 </r>
       <r>    1.0345    0.0000 </r>
       <r>    1.1317    0.0000 </r>
       <r>    1.1868    0.0000 </r>
       <r>    1.2257    0.0000 </r>
       <r>    1.2547    0.0000 </r>
       <r>    1.3270    0.0000 </r>
       <r>    1.3306    0.0000 </r>
       <r>    1.4147    0.0000 </r>
       <r>    1.5196    0.0000 </r>
       <r>    1.6361    0.0000 </r>
       <r>    1.6427    0.0000 </r>
       <r>    1.7002    0.0000 </r>
      </set>
      <set comment="kpoint 11">
       <r>   -9.4101    1.0000 </r>
       <r>   -3.5732    0.1667 </r>
       <r>   -3.5732    0.1666 </r>
       <r>   -3.5731    0.1663 </r>
       <r>   -0.2346    0.0000 </r>
       <r>    0.3137    0.0000 </r>
       <r>    0.3352    0.0000 </r>
       <r>    0.4595    0.0000 </r>
       <r>    0.4660    0.0000 </r>
       <r>    0.6024    0.0000 </r>
       <r>    0.9148    0.0000 </r>
       <r>    0.9510    0.0000 </r>
       <r>    0.9576    0.0000 </r>
       <r>    0.9707    0.0000 </r>
       <r>    1.0687    0.0000 </r>
       <r>    1.0758    0.0000 </r>
       <r>    1.0994    0.0000 </r>
       <r>    1.1304    0.0000 </r>
       <r>    1.2253    0.0000 </r>
       <r>    1.5412    0.0000 </r>
       <r>    1.5695    0.0000 </r>
       <r>    1.6030    0.0000 </r>
       <r>    1.6379    0.0000 </r>
       <r>    1.6545    0.0000 </r>
      </set>
      <set comment="kpoint 12">
       <r>   -9.4101    1.0000 </r>
       <r>   -3.5732    0.1667 </r>
       <r>   -3.5732    0.1667 </r>
       <r>   -3.5731    0.1663 </r>
       <r>   -0.2248    0.0000 </r>
       <r>    0.2911    0.0000 </r>
       <r>    0.3463    0.0000 </r>
       <r>    0.3976    0.0000 </r>
       <r>    0.4719    0.0000 </r>
       <r>    0.7264    0.0000 </r>
       <r>    0.8231    0.0000 </r>
       <r>    0.8535    0.0000 </r>
       <r>    0.9360    0.0000 </r>
       <r>    0.9548    0.0000 </r>
       <r>    1.0145    0.0000 </r>
       <r>    1.1233    0.0000 </r>
       <r>    1.2041    0.0000 </r>
       <r>    1.2481    0.0000 </r>
       <r>    1.3381    0.0000 </r>
       <r>    1.4467    0.0000 </r>
       <r>    1.4746    0.0000 </r>
       <r>    1.6045    0.0000 </r>
       <r>    1.6080    0.0000 </r>
       <r>    1.6680    0.0000 </r>
      </set>
      <set comment="kpoint 13">
       <r>   -9.4101    1.0000 </r>
       <r>   -3.5732    0.1667 </r>
       <r>   -3.5732    0.1667 </r>
       <r>   -3.5731    0.1663 </r>
       <r>   -0.2069    0.0000 </r>
       <r>    0.2249    0.0000 </r>
       <r>    0.3677    0.0000 </r>
       <r>    0.3965    0.0000 </r>
       <r>    0.4925    0.0000 </r>
       <r>    0.7286    0.0000 </r>
       <r>    0.7329    0.0000 </r>
       <r>    0.8543    0.0000 </r>
       <r>    0.8987    0.0000 </r>
       <r>    0.9747    0.0000 </r>
       <r>    1.0225    0.0000 </r>
       <r>    1.1439    0.0000 </r>
       <r>    1.3143    0.0000 </r>
       <r>    1.3413    0.0000 </r>
       <r>    1.3872    0.0000 </r>
       <r>    1.4024    0.0000 </r>
       <r>    1.4956    0.0000 </r>
       <r>    1.5494    0.0000 </r>
       <r>    1.6244    0.0000 </r>
       <r>    1.6842    0.0000 </r>
      </set>
      <set comment="kpoint 14">
       <r>   -9.4101    1.0000 </r>
       <r>   -3.5732    0.1667 </r>
       <r>   -3.5732    0.1667 </r>
       <r>   -3.5731    0.1663 </r>
       <r>   -0.1850    0.0000 </r>
       <r>    0.1584    0.0000 </r>
       <r>    0.3964    0.0000 </r>
       <r>    0.4262    0.0000 </r>
       <r>    0.5197    0.0000 </r>
       <r>    0.6488    0.0000 </r>
       <r>    0.6501    0.0000 </r>
       <r>    0.7845    0.0000 </r>
       <r>    1.0023    0.0000 </r>
       <r>    1.0469    0.0000 </r>
       <r>    1.0597    0.0000 </r>
       <r>    1.1690    0.0000 </r>
       <r>    1.2627    0.0000 </r>
       <r>    1.2688    0.0000 </r>
       <r>    1.4428    0.0000 </r>
       <r>    1.5106    0.0000 </r>
       <r>    1.5739    0.0000 </r>
       <r>    1.5977    0.0000 </r>
       <r>    1.6529    0.0000 </r>
       <r>    1.6757    0.0000 </r>
      </set>
      <set comment="kpoint 15">
       <r>   -9.4101    1.0000 </r>
       <r>   -3.5732    0.1668 </r>
       <r>   -3.5732    0.1667 </r>
       <r>   -3.5731    0.1663 </r>
       <r>   -0.1682    0.0000 </r>
       <r>    0.1179    0.0000 </r>
       <r>    0.4223    0.0000 </r>
       <r>    0.4623    0.0000 </r>
       <r>    0.5443    0.0000 </r>
       <r>    0.5842    0.0000 </r>
       <r>    0.5992    0.0000 </r>
       <r>    0.7373    0.0000 </r>
       <r>    1.0267    0.0000 </r>
       <r>    1.0896    0.0000 </r>
       <r>    1.1849    0.0000 </r>
       <r>    1.1909    0.0000 </r>
       <r>    1.2151    0.0000 </r>
       <r>    1.2450    0.0000 </r>
       <r>    1.3823    0.0000 </r>
       <r>    1.4541    0.0000 </r>
       <r>    1.6291    0.0000 </r>
       <r>    1.6872    0.0000 </r>
       <r>    1.7338    0.0000 </r>
       <r>    1.7587    0.0000 </r>
      </set>
      <set comment="kpoint 16">
       <r>   -9.4101    1.0000 </r>
       <r>   -3.5732    0.1667 </r>
       <r>   -3.5732    0.1667 </r>
       <r>   -3.5732    0.1666 </r>
       <r>   -0.2087    0.0000 </r>
       <r>    0.3057    0.0000 </r>
       <r>    0.3615    0.0000 </r>
       <r>    0.3979    0.0000 </r>
       <r>    0.4902    0.0000 </r>
       <r>    0.6295    0.0000 </r>
       <r>    0.8355    0.0000 </r>
       <r>    0.8546    0.0000 </r>
       <r>    0.9549    0.0000 </r>
       <r>    0.9670    0.0000 </r>
       <r>    1.0169    0.0000 </r>
       <r>    1.0989    0.0000 </r>
       <r>    1.1043    0.0000 </r>
       <r>    1.1468    0.0000 </r>
       <r>    1.2709    0.0000 </r>
       <r>    1.4564    0.0000 </r>
       <r>    1.4781    0.0000 </r>
       <r>    1.5785    0.0000 </r>
       <r>    1.6157    0.0000 </r>
       <r>    1.6887    0.0000 </r>
      </set>
      <set comment="kpoint 17">
       <r>   -9.4101    1.0000 </r>
       <r>   -3.5732    0.1667 </r>
       <r>   -3.5732    0.1667 </r>
       <r>   -3.5732    0.1666 </r>
       <r>   -0.1991    0.0000 </r>
       <r>    0.2989    0.0000 </r>
       <r>    0.3726    0.0000 </r>
       <r>    0.3830    0.0000 </r>
       <r>    0.4337    0.0000 </r>
       <r>    0.7491    0.0000 </r>
       <r>    0.8269    0.0000 </r>
       <r>    0.8302    0.0000 </r>
       <r>    0.8760    0.0000 </r>
       <r>    0.8893    0.0000 </r>
       <r>    0.9178    0.0000 </r>
       <r>    1.2175    0.0000 </r>
       <r>    1.2261    0.0000 </r>
       <r>    1.2749    0.0000 </r>
       <r>    1.2920    0.0000 </r>
       <r>    1.3510    0.0000 </r>
       <r>    1.3820    0.0000 </r>
       <r>    1.6877    0.0000 </r>
       <r>    1.6934    0.0000 </r>
       <r>    1.7394    0.0000 </r>
      </set>
      <set comment="kpoint 18">
       <r>   -9.4101    1.0000 </r>
       <r>   -3.5732    0.1667 </r>
       <r>   -3.5732    0.1667 </r>
       <r>   -3.5732    0.1667 </r>
       <r>   -0.1813    0.0000 </r>
       <r>    0.2488    0.0000 </r>
       <r>    0.3728    0.0000 </r>
       <r>    0.3937    0.0000 </r>
       <r>    0.4479    0.0000 </r>
       <r>    0.7249    0.0000 </r>
       <r>    0.7542    0.0000 </r>
       <r>    0.7930    0.0000 </r>
       <r>    0.8776    0.0000 </r>
       <r>    0.9194    0.0000 </r>
       <r>    0.9227    0.0000 </r>
       <r>    1.2367    0.0000 </r>
       <r>    1.2415    0.0000 </r>
       <r>    1.2866    0.0000 </r>
       <r>    1.3895    0.0000 </r>
       <r>    1.4137    0.0000 </r>
       <r>    1.4393    0.0000 </r>
       <r>    1.6694    0.0000 </r>
       <r>    1.7343    0.0000 </r>
       <r>    1.7347    0.0000 </r>
      </set>
      <set comment="kpoint 19">
       <r>   -9.4101    1.0000 </r>
       <r>   -3.5732    0.1667 </r>
       <r>   -3.5732    0.1667 </r>
       <r>   -3.5732    0.1667 </r>
       <r>   -0.1596    0.0000 </r>
       <r>    0.1854    0.0000 </r>
       <r>    0.3950    0.0000 </r>
       <r>    0.4220    0.0000 </r>
       <r>    0.4802    0.0000 </r>
       <r>    0.6479    0.0000 </r>
       <r>    0.6775    0.0000 </r>
       <r>    0.7114    0.0000 </r>
       <r>    0.9045    0.0000 </r>
       <r>    0.9538    0.0000 </r>
       <r>    1.0765    0.0000 </r>
       <r>    1.1614    0.0000 </r>
       <r>    1.1655    0.0000 </r>
       <r>    1.3155    0.0000 </r>
       <r>    1.5352    0.0000 </r>
       <r>    1.5382    0.0000 </r>
       <r>    1.5768    0.0000 </r>
       <r>    1.6431    0.0000 </r>
       <r>    1.6626    0.0000 </r>
       <r>    1.7615    0.0000 </r>
      </set>
      <set comment="kpoint 20">
       <r>   -9.4101    1.0000 </r>
       <r>   -3.5732    0.1667 </r>
       <r>   -3.5732    0.1667 </r>
       <r>   -3.5732    0.1667 </r>
       <r>   -0.1432    0.0000 </r>
       <r>    0.1457    0.0000 </r>
       <r>    0.4195    0.0000 </r>
       <r>    0.4473    0.0000 </r>
       <r>    0.5168    0.0000 </r>
       <r>    0.5911    0.0000 </r>
       <r>    0.6275    0.0000 </r>
       <r>    0.6551    0.0000 </r>
       <r>    0.9297    0.0000 </r>
       <r>    0.9939    0.0000 </r>
       <r>    1.0925    0.0000 </r>
       <r>    1.1110    0.0000 </r>
       <r>    1.2519    0.0000 </r>
       <r>    1.3369    0.0000 </r>
       <r>    1.4402    0.0000 </r>
       <r>    1.5742    0.0000 </r>
       <r>    1.6812    0.0000 </r>
       <r>    1.7158    0.0000 </r>
       <r>    1.7661    0.0000 </r>
       <r>    1.7948    0.0000 </r>
      </set>
      <set comment="kpoint 21">
       <r>   -9.4101    1.0000 </r>
       <r>   -3.5732    0.1670 </r>
       <r>   -3.5732    0.1666 </r>
       <r>   -3.5732    0.1666 </r>
       <r>   -0.1768    0.0000 </r>
       <r>    0.2419    0.0000 </r>
       <r>    0.3956    0.0000 </r>
       <r>    0.4119    0.0000 </r>
       <r>    0.5235    0.0000 </r>
       <r>    0.6652    0.0000 </r>
       <r>    0.7487    0.0000 </r>
       <r>    0.7591    0.0000 </r>
       <r>    0.8789    0.0000 </r>
       <r>    0.9992    0.0000 </r>
       <r>    1.0196    0.0000 </r>
       <r>    1.0461    0.0000 </r>
       <r>    1.1321    0.0000 </r>
       <r>    1.1764    0.0000 </r>
       <r>    1.3675    0.0000 </r>
       <r>    1.3702    0.0000 </r>
       <r>    1.4315    0.0000 </r>
       <r>    1.4922    0.0000 </r>
       <r>    1.5347    0.0000 </r>
       <r>    1.7252    0.0000 </r>
      </set>
      <set comment="kpoint 22">
       <r>   -9.4101    1.0000 </r>
       <r>   -3.5732    0.1670 </r>
       <r>   -3.5732    0.1666 </r>
       <r>   -3.5732    0.1666 </r>
       <r>   -0.1672    0.0000 </r>
       <r>    0.2507    0.0000 </r>
       <r>    0.3827    0.0000 </r>
       <r>    0.4065    0.0000 </r>
       <r>    0.4670    0.0000 </r>
       <r>    0.7252    0.0000 </r>
       <r>    0.7588    0.0000 </r>
       <r>    0.7923    0.0000 </r>
       <r>    0.8212    0.0000 </r>
       <r>    0.8934    0.0000 </r>
       <r>    0.9311    0.0000 </r>
       <r>    1.1441    0.0000 </r>
       <r>    1.2281    0.0000 </r>
       <r>    1.2695    0.0000 </r>
       <r>    1.2915    0.0000 </r>
       <r>    1.3167    0.0000 </r>
       <r>    1.4455    0.0000 </r>
       <r>    1.6283    0.0000 </r>
       <r>    1.6618    0.0000 </r>
       <r>    1.7326    0.0000 </r>
      </set>
      <set comment="kpoint 23">
       <r>   -9.4101    1.0000 </r>
       <r>   -3.5732    0.1670 </r>
       <r>   -3.5732    0.1666 </r>
       <r>   -3.5732    0.1666 </r>
       <r>   -0.1497    0.0000 </r>
       <r>    0.2571    0.0000 </r>
       <r>    0.3202    0.0000 </r>
       <r>    0.4273    0.0000 </r>
       <r>    0.4776    0.0000 </r>
       <r>    0.6492    0.0000 </r>
       <r>    0.7683    0.0000 </r>
       <r>    0.8105    0.0000 </r>
       <r>    0.8136    0.0000 </r>
       <r>    0.8261    0.0000 </r>
       <r>    0.9558    0.0000 </r>
       <r>    1.1482    0.0000 </r>
       <r>    1.1532    0.0000 </r>
       <r>    1.3050    0.0000 </r>
       <r>    1.4192    0.0000 </r>
       <r>    1.4454    0.0000 </r>
       <r>    1.4912    0.0000 </r>
       <r>    1.7268    0.0000 </r>
       <r>    1.7659    0.0000 </r>
       <r>    1.8112    0.0000 </r>
      </set>
      <set comment="kpoint 24">
       <r>   -9.4101    1.0000 </r>
       <r>   -3.5732    0.1670 </r>
       <r>   -3.5732    0.1667 </r>
       <r>   -3.5732    0.1666 </r>
       <r>   -0.1286    0.0000 </r>
       <r>    0.2188    0.0000 </r>
       <r>    0.3180    0.0000 </r>
       <r>    0.4550    0.0000 </r>
       <r>    0.5102    0.0000 </r>
       <r>    0.5750    0.0000 </r>
       <r>    0.7126    0.0000 </r>
       <r>    0.7297    0.0000 </r>
       <r>    0.8180    0.0000 </r>
       <r>    0.8588    0.0000 </r>
       <r>    1.0597    0.0000 </r>
       <r>    1.0687    0.0000 </r>
       <r>    1.1237    0.0000 </r>
       <r>    1.4337    0.0000 </r>
       <r>    1.5015    0.0000 </r>
       <r>    1.5709    0.0000 </r>
       <r>    1.6307    0.0000 </r>
       <r>    1.6637    0.0000 </r>
       <r>    1.7953    0.0000 </r>
       <r>    1.8264    0.0000 </r>
      </set>
      <set comment="kpoint 25">
       <r>   -9.4101    1.0000 </r>
       <r>   -3.5732    0.1670 </r>
       <r>   -3.5732    0.1667 </r>
       <r>   -3.5732    0.1666 </r>
       <r>   -0.1126    0.0000 </r>
       <r>    0.1822    0.0000 </r>
       <r>    0.3388    0.0000 </r>
       <r>    0.4794    0.0000 </r>
       <r>    0.5238    0.0000 </r>
       <r>    0.5505    0.0000 </r>
       <r>    0.6647    0.0000 </r>
       <r>    0.6651    0.0000 </r>
       <r>    0.8433    0.0000 </r>
       <r>    0.8994    0.0000 </r>
       <r>    0.9992    0.0000 </r>
       <r>    1.0164    0.0000 </r>
       <r>    1.2872    0.0000 </r>
       <r>    1.4498    0.0000 </r>
       <r>    1.5063    0.0000 </r>
       <r>    1.6378    0.0000 </r>
       <r>    1.7154    0.0000 </r>
       <r>    1.7319    0.0000 </r>
       <r>    1.8077    0.0000 </r>
       <r>    1.8307    0.0000 </r>
      </set>
      <set comment="kpoint 26">
       <r>   -9.4101    1.0000 </r>
       <r>   -3.5733    0.1673 </r>
       <r>   -3.5732    0.1666 </r>
       <r>   -3.5732    0.1666 </r>
       <r>   -0.1430    0.0000 </r>
       <r>    0.1752    0.0000 </r>
       <r>    0.4349    0.0000 </r>
       <r>    0.4539    0.0000 </r>
       <r>    0.5617    0.0000 </r>
       <r>    0.6731    0.0000 </r>
       <r>    0.6733    0.0000 </r>
       <r>    0.7076    0.0000 </r>
       <r>    0.8063    0.0000 </r>
       <r>    0.9425    0.0000 </r>
       <r>    1.0371    0.0000 </r>
       <r>    1.0895    0.0000 </r>
       <r>    1.1712    0.0000 </r>
       <r>    1.2227    0.0000 </r>
       <r>    1.2915    0.0000 </r>
       <r>    1.2954    0.0000 </r>
       <r>    1.4167    0.0000 </r>
       <r>    1.4251    0.0000 </r>
       <r>    1.6021    0.0000 </r>
       <r>    1.7701    0.0000 </r>
      </set>
      <set comment="kpoint 27">
       <r>   -9.4101    1.0000 </r>
       <r>   -3.5733    0.1673 </r>
       <r>   -3.5732    0.1666 </r>
       <r>   -3.5732    0.1666 </r>
       <r>   -0.1336    0.0000 </r>
       <r>    0.1862    0.0000 </r>
       <r>    0.4199    0.0000 </r>
       <r>    0.4456    0.0000 </r>
       <r>    0.5099    0.0000 </r>
       <r>    0.6485    0.0000 </r>
       <r>    0.6846    0.0000 </r>
       <r>    0.7349    0.0000 </r>
       <r>    0.8332    0.0000 </r>
       <r>    0.9323    0.0000 </r>
       <r>    0.9778    0.0000 </r>
       <r>    1.0698    0.0000 </r>
       <r>    1.1665    0.0000 </r>
       <r>    1.1863    0.0000 </r>
       <r>    1.3134    0.0000 </r>
       <r>    1.3637    0.0000 </r>
       <r>    1.5485    0.0000 </r>
       <r>    1.5552    0.0000 </r>
       <r>    1.6261    0.0000 </r>
       <r>    1.7755    0.0000 </r>
      </set>
      <set comment="kpoint 28">
       <r>   -9.4101    1.0000 </r>
       <r>   -3.5733    0.1673 </r>
       <r>   -3.5732    0.1666 </r>
       <r>   -3.5732    0.1666 </r>
       <r>   -0.1167    0.0000 </r>
       <r>    0.2069    0.0000 </r>
       <r>    0.3433    0.0000 </r>
       <r>    0.4658    0.0000 </r>
       <r>    0.5213    0.0000 </r>
       <r>    0.5728    0.0000 </r>
       <r>    0.7065    0.0000 </r>
       <r>    0.7412    0.0000 </r>
       <r>    0.8388    0.0000 </r>
       <r>    0.8564    0.0000 </r>
       <r>    0.9948    0.0000 </r>
       <r>    1.0695    0.0000 </r>
       <r>    1.0742    0.0000 </r>
       <r>    1.2327    0.0000 </r>
       <r>    1.4556    0.0000 </r>
       <r>    1.5124    0.0000 </r>
       <r>    1.6101    0.0000 </r>
       <r>    1.7034    0.0000 </r>
       <r>    1.7303    0.0000 </r>
       <r>    1.7753    0.0000 </r>
      </set>
      <set comment="kpoint 29">
       <r>   -9.4101    1.0000 </r>
       <r>   -3.5733    0.1673 </r>
       <r>   -3.5732    0.1667 </r>
       <r>   -3.5732    0.1666 </r>
       <r>   -0.0963    0.0000 </r>
       <r>    0.2309    0.0000 </r>
       <r>    0.2803    0.0000 </r>
       <r>    0.4924    0.0000 </r>
       <r>    0.4956    0.0000 </r>
       <r>    0.5567    0.0000 </r>
       <r>    0.7317    0.0000 </r>
       <r>    0.7680    0.0000 </r>
       <r>    0.7720    0.0000 </r>
       <r>    0.7751    0.0000 </r>
       <r>    0.9811    0.0000 </r>
       <r>    0.9877    0.0000 </r>
       <r>    1.1582    0.0000 </r>
       <r>    1.3900    0.0000 </r>
       <r>    1.6066    0.0000 </r>
       <r>    1.6085    0.0000 </r>
       <r>    1.6770    0.0000 </r>
       <r>    1.7035    0.0000 </r>
       <r>    1.8430    0.0000 </r>
       <r>    1.8764    0.0000 </r>
      </set>
      <set comment="kpoint 30">
       <r>   -9.4101    1.0000 </r>
       <r>   -3.5733    0.1673 </r>
       <r>   -3.5732    0.1667 </r>
       <r>   -3.5732    0.1666 </r>
       <r>   -0.0811    0.0000 </r>
       <r>    0.2253    0.0000 </r>
       <r>    0.2720    0.0000 </r>
       <r>    0.4459    0.0000 </r>
       <r>    0.5153    0.0000 </r>
       <r>    0.5953    0.0000 </r>
       <r>    0.7078    0.0000 </r>
       <r>    0.7092    0.0000 </r>
       <r>    0.7714    0.0000 </r>
       <r>    0.8145    0.0000 </r>
       <r>    0.9153    0.0000 </r>
       <r>    0.9332    0.0000 </r>
       <r>    1.3250    0.0000 </r>
       <r>    1.4958    0.0000 </r>
       <r>    1.5749    0.0000 </r>
       <r>    1.6336    0.0000 </r>
       <r>    1.7452    0.0000 </r>
       <r>    1.7479    0.0000 </r>
       <r>    1.8681    0.0000 </r>
       <r>    1.8732    0.0000 </r>
      </set>
      <set comment="kpoint 31">
       <r>   -9.4101    1.0000 </r>
       <r>   -3.5733    0.1675 </r>
       <r>   -3.5732    0.1666 </r>
       <r>   -3.5732    0.1666 </r>
       <r>   -0.1179    0.0000 </r>
       <r>    0.1326    0.0000 </r>
       <r>    0.4698    0.0000 </r>
       <r>    0.5015    0.0000 </r>
       <r>    0.5939    0.0000 </r>
       <r>    0.6059    0.0000 </r>
       <r>    0.6200    0.0000 </r>
       <r>    0.7439    0.0000 </r>
       <r>    0.7583    0.0000 </r>
       <r>    0.8849    0.0000 </r>
       <r>    1.0694    0.0000 </r>
       <r>    1.1413    0.0000 </r>
       <r>    1.2077    0.0000 </r>
       <r>    1.2237    0.0000 </r>
       <r>    1.2375    0.0000 </r>
       <r>    1.2777    0.0000 </r>
       <r>    1.3564    0.0000 </r>
       <r>    1.3644    0.0000 </r>
       <r>    1.7071    0.0000 </r>
       <r>    1.8472    0.0000 </r>
      </set>
      <set comment="kpoint 32">
       <r>   -9.4101    1.0000 </r>
       <r>   -3.5733    0.1675 </r>
       <r>   -3.5732    0.1666 </r>
       <r>   -3.5732    0.1666 </r>
       <r>   -0.1089    0.0000 </r>
       <r>    0.1442    0.0000 </r>
       <r>    0.4596    0.0000 </r>
       <r>    0.4800    0.0000 </r>
       <r>    0.5530    0.0000 </r>
       <r>    0.5877    0.0000 </r>
       <r>    0.6321    0.0000 </r>
       <r>    0.6747    0.0000 </r>
       <r>    0.8669    0.0000 </r>
       <r>    0.9683    0.0000 </r>
       <r>    1.0165    0.0000 </r>
       <r>    1.0324    0.0000 </r>
       <r>    1.1132    0.0000 </r>
       <r>    1.1133    0.0000 </r>
       <r>    1.3442    0.0000 </r>
       <r>    1.4163    0.0000 </r>
       <r>    1.4958    0.0000 </r>
       <r>    1.5042    0.0000 </r>
       <r>    1.7149    0.0000 </r>
       <r>    1.8475    0.0000 </r>
      </set>
      <set comment="kpoint 33">
       <r>   -9.4101    1.0000 </r>
       <r>   -3.5733    0.1675 </r>
       <r>   -3.5732    0.1666 </r>
       <r>   -3.5732    0.1666 </r>
       <r>   -0.0925    0.0000 </r>
       <r>    0.1668    0.0000 </r>
       <r>    0.3799    0.0000 </r>
       <r>    0.4993    0.0000 </r>
       <r>    0.5132    0.0000 </r>
       <r>    0.5709    0.0000 </r>
       <r>    0.6558    0.0000 </r>
       <r>    0.6741    0.0000 </r>
       <r>    0.8763    0.0000 </r>
       <r>    0.9023    0.0000 </r>
       <r>    0.9957    0.0000 </r>
       <r>    1.0121    0.0000 </r>
       <r>    1.0464    0.0000 </r>
       <r>    1.1769    0.0000 </r>
       <r>    1.4865    0.0000 </r>
       <r>    1.5654    0.0000 </r>
       <r>    1.6440    0.0000 </r>
       <r>    1.6559    0.0000 </r>
       <r>    1.7326    0.0000 </r>
       <r>    1.8222    0.0000 </r>
      </set>
      <set comment="kpoint 34">
       <r>   -9.4101    1.0000 </r>
       <r>   -3.5733    0.1674 </r>
       <r>   -3.5732    0.1666 </r>
       <r>   -3.5732    0.1666 </r>
       <r>   -0.0731    0.0000 </r>
       <r>    0.1980    0.0000 </r>
       <r>    0.3123    0.0000 </r>
       <r>    0.4370    0.0000 </r>
       <r>    0.5241    0.0000 </r>
       <r>    0.6048    0.0000 </r>
       <r>    0.6887    0.0000 </r>
       <r>    0.7057    0.0000 </r>
       <r>    0.8022    0.0000 </r>
       <r>    0.8224    0.0000 </r>
       <r>    0.9129    0.0000 </r>
       <r>    0.9273    0.0000 </r>
       <r>    1.1924    0.0000 </r>
       <r>    1.3401    0.0000 </r>
       <r>    1.6354    0.0000 </r>
       <r>    1.6910    0.0000 </r>
       <r>    1.7038    0.0000 </r>
       <r>    1.7658    0.0000 </r>
       <r>    1.8105    0.0000 </r>
       <r>    1.8203    0.0000 </r>
      </set>
      <set comment="kpoint 35">
       <r>   -9.4101    1.0000 </r>
       <r>   -3.5733    0.1674 </r>
       <r>   -3.5732    0.1667 </r>
       <r>   -3.5732    0.1666 </r>
       <r>   -0.0589    0.0000 </r>
       <r>    0.2284    0.0000 </r>
       <r>    0.2721    0.0000 </r>
       <r>    0.3839    0.0000 </r>
       <r>    0.5448    0.0000 </r>
       <r>    0.6441    0.0000 </r>
       <r>    0.7217    0.0000 </r>
       <r>    0.7459    0.0000 </r>
       <r>    0.7560    0.0000 </r>
       <r>    0.7576    0.0000 </r>
       <r>    0.8460    0.0000 </r>
       <r>    0.8689    0.0000 </r>
       <r>    1.3564    0.0000 </r>
       <r>    1.5084    0.0000 </r>
       <r>    1.5473    0.0000 </r>
       <r>    1.7110    0.0000 </r>
       <r>    1.7259    0.0000 </r>
       <r>    1.7711    0.0000 </r>
       <r>    1.9133    0.0000 </r>
       <r>    1.9200    0.0000 </r>
      </set>
      <set comment="kpoint 36">
       <r>   -9.4101    1.0000 </r>
       <r>   -3.5732    0.1667 </r>
       <r>   -3.5732    0.1667 </r>
       <r>   -3.5731    0.1659 </r>
       <r>   -0.2585    0.0000 </r>
       <r>    0.2164    0.0000 </r>
       <r>    0.3863    0.0000 </r>
       <r>    0.4508    0.0000 </r>
       <r>    0.5783    0.0000 </r>
       <r>    0.6874    0.0000 </r>
       <r>    0.8285    0.0000 </r>
       <r>    0.8341    0.0000 </r>
       <r>    0.9614    0.0000 </r>
       <r>    1.0256    0.0000 </r>
       <r>    1.1002    0.0000 </r>
       <r>    1.1591    0.0000 </r>
       <r>    1.2493    0.0000 </r>
       <r>    1.2654    0.0000 </r>
       <r>    1.3074    0.0000 </r>
       <r>    1.4094    0.0000 </r>
       <r>    1.4335    0.0000 </r>
       <r>    1.4919    0.0000 </r>
       <r>    1.5138    0.0000 </r>
       <r>    1.6206    0.0000 </r>
      </set>
      <set comment="kpoint 37">
       <r>   -9.4101    1.0000 </r>
       <r>   -3.5732    0.1667 </r>
       <r>   -3.5732    0.1667 </r>
       <r>   -3.5731    0.1659 </r>
       <r>   -0.2487    0.0000 </r>
       <r>    0.2218    0.0000 </r>
       <r>    0.3177    0.0000 </r>
       <r>    0.4366    0.0000 </r>
       <r>    0.6894    0.0000 </r>
       <r>    0.7031    0.0000 </r>
       <r>    0.7303    0.0000 </r>
       <r>    0.8408    0.0000 </r>
       <r>    0.9158    0.0000 </r>
       <r>    1.0888    0.0000 </r>
       <r>    1.1165    0.0000 </r>
       <r>    1.1883    0.0000 </r>
       <r>    1.2435    0.0000 </r>
       <r>    1.2939    0.0000 </r>
       <r>    1.3308    0.0000 </r>
       <r>    1.3429    0.0000 </r>
       <r>    1.4565    0.0000 </r>
       <r>    1.4947    0.0000 </r>
       <r>    1.5812    0.0000 </r>
       <r>    1.6261    0.0000 </r>
      </set>
      <set comment="kpoint 38">
       <r>   -9.4101    1.0000 </r>
       <r>   -3.5732    0.1667 </r>
       <r>   -3.5732    0.1667 </r>
       <r>   -3.5731    0.1659 </r>
       <r>   -0.2308    0.0000 </r>
       <r>    0.1962    0.0000 </r>
       <r>    0.2775    0.0000 </r>
       <r>    0.4564    0.0000 </r>
       <r>    0.6175    0.0000 </r>
       <r>    0.7150    0.0000 </r>
       <r>    0.8004    0.0000 </r>
       <r>    0.8586    0.0000 </r>
       <r>    0.8759    0.0000 </r>
       <r>    1.0861    0.0000 </r>
       <r>    1.1408    0.0000 </r>
       <r>    1.2291    0.0000 </r>
       <r>    1.2398    0.0000 </r>
       <r>    1.2987    0.0000 </r>
       <r>    1.3414    0.0000 </r>
       <r>    1.4497    0.0000 </r>
       <r>    1.4872    0.0000 </r>
       <r>    1.5095    0.0000 </r>
       <r>    1.5197    0.0000 </r>
       <r>    1.6350    0.0000 </r>
      </set>
      <set comment="kpoint 39">
       <r>   -9.4101    1.0000 </r>
       <r>   -3.5732    0.1668 </r>
       <r>   -3.5732    0.1667 </r>
       <r>   -3.5731    0.1659 </r>
       <r>   -0.2089    0.0000 </r>
       <r>    0.1348    0.0000 </r>
       <r>    0.2998    0.0000 </r>
       <r>    0.4852    0.0000 </r>
       <r>    0.5367    0.0000 </r>
       <r>    0.7255    0.0000 </r>
       <r>    0.7396    0.0000 </r>
       <r>    0.8876    0.0000 </r>
       <r>    1.0018    0.0000 </r>
       <r>    1.0408    0.0000 </r>
       <r>    1.1638    0.0000 </r>
       <r>    1.1703    0.0000 </r>
       <r>    1.2974    0.0000 </r>
       <r>    1.3596    0.0000 </r>
       <r>    1.4007    0.0000 </r>
       <r>    1.4586    0.0000 </r>
       <r>    1.4936    0.0000 </r>
       <r>    1.5311    0.0000 </r>
       <r>    1.5643    0.0000 </r>
       <r>    1.6019    0.0000 </r>
      </set>
      <set comment="kpoint 40">
       <r>   -9.4101    1.0000 </r>
       <r>   -3.5732    0.1668 </r>
       <r>   -3.5732    0.1667 </r>
       <r>   -3.5731    0.1659 </r>
       <r>   -0.1922    0.0000 </r>
       <r>    0.0948    0.0000 </r>
       <r>    0.3301    0.0000 </r>
       <r>    0.4703    0.0000 </r>
       <r>    0.5253    0.0000 </r>
       <r>    0.6687    0.0000 </r>
       <r>    0.7595    0.0000 </r>
       <r>    0.9122    0.0000 </r>
       <r>    0.9722    0.0000 </r>
       <r>    1.1019    0.0000 </r>
       <r>    1.1897    0.0000 </r>
       <r>    1.2147    0.0000 </r>
       <r>    1.3226    0.0000 </r>
       <r>    1.3623    0.0000 </r>
       <r>    1.3982    0.0000 </r>
       <r>    1.4213    0.0000 </r>
       <r>    1.4749    0.0000 </r>
       <r>    1.5349    0.0000 </r>
       <r>    1.5605    0.0000 </r>
       <r>    1.6050    0.0000 </r>
      </set>
      <set comment="kpoint 41">
       <r>   -9.4101    1.0000 </r>
       <r>   -3.5732    0.1667 </r>
       <r>   -3.5732    0.1666 </r>
       <r>   -3.5731    0.1660 </r>
       <r>   -0.2494    0.0000 </r>
       <r>    0.2254    0.0000 </r>
       <r>    0.3938    0.0000 </r>
       <r>    0.4595    0.0000 </r>
       <r>    0.5658    0.0000 </r>
       <r>    0.5950    0.0000 </r>
       <r>    0.8414    0.0000 </r>
       <r>    0.9466    0.0000 </r>
       <r>    0.9698    0.0000 </r>
       <r>    0.9967    0.0000 </r>
       <r>    1.0376    0.0000 </r>
       <r>    1.1583    0.0000 </r>
       <r>    1.1637    0.0000 </r>
       <r>    1.2048    0.0000 </r>
       <r>    1.3296    0.0000 </r>
       <r>    1.3906    0.0000 </r>
       <r>    1.4869    0.0000 </r>
       <r>    1.5641    0.0000 </r>
       <r>    1.5828    0.0000 </r>
       <r>    1.6223    0.0000 </r>
      </set>
      <set comment="kpoint 42">
       <r>   -9.4101    1.0000 </r>
       <r>   -3.5732    0.1667 </r>
       <r>   -3.5732    0.1667 </r>
       <r>   -3.5731    0.1660 </r>
       <r>   -0.2397    0.0000 </r>
       <r>    0.2307    0.0000 </r>
       <r>    0.3265    0.0000 </r>
       <r>    0.4446    0.0000 </r>
       <r>    0.5809    0.0000 </r>
       <r>    0.7065    0.0000 </r>
       <r>    0.7395    0.0000 </r>
       <r>    0.9226    0.0000 </r>
       <r>    0.9609    0.0000 </r>
       <r>    1.0012    0.0000 </r>
       <r>    1.0697    0.0000 </r>
       <r>    1.1213    0.0000 </r>
       <r>    1.1943    0.0000 </r>
       <r>    1.3039    0.0000 </r>
       <r>    1.3975    0.0000 </r>
       <r>    1.4076    0.0000 </r>
       <r>    1.4905    0.0000 </r>
       <r>    1.5082    0.0000 </r>
       <r>    1.5278    0.0000 </r>
       <r>    1.6010    0.0000 </r>
      </set>
      <set comment="kpoint 43">
       <r>   -9.4101    1.0000 </r>
       <r>   -3.5732    0.1667 </r>
       <r>   -3.5732    0.1667 </r>
       <r>   -3.5731    0.1660 </r>
       <r>   -0.2217    0.0000 </r>
       <r>    0.2052    0.0000 </r>
       <r>    0.2866    0.0000 </r>
       <r>    0.4641    0.0000 </r>
       <r>    0.6008    0.0000 </r>
       <r>    0.6270    0.0000 </r>
       <r>    0.8084    0.0000 </r>
       <r>    0.8812    0.0000 </r>
       <r>    0.9608    0.0000 </r>
       <r>    1.0032    0.0000 </r>
       <r>    1.0289    0.0000 </r>
       <r>    1.2130    0.0000 </r>
       <r>    1.2598    0.0000 </r>
       <r>    1.3428    0.0000 </r>
       <r>    1.4067    0.0000 </r>
       <r>    1.4115    0.0000 </r>
       <r>    1.4759    0.0000 </r>
       <r>    1.5291    0.0000 </r>
       <r>    1.5735    0.0000 </r>
       <r>    1.5945    0.0000 </r>
      </set>
      <set comment="kpoint 44">
       <r>   -9.4101    1.0000 </r>
       <r>   -3.5732    0.1668 </r>
       <r>   -3.5732    0.1667 </r>
       <r>   -3.5731    0.1660 </r>
       <r>   -0.1999    0.0000 </r>
       <r>    0.1441    0.0000 </r>
       <r>    0.3089    0.0000 </r>
       <r>    0.4930    0.0000 </r>
       <r>    0.5456    0.0000 </r>
       <r>    0.6274    0.0000 </r>
       <r>    0.7338    0.0000 </r>
       <r>    0.8956    0.0000 </r>
       <r>    1.0154    0.0000 </r>
       <r>    1.0392    0.0000 </r>
       <r>    1.0578    0.0000 </r>
       <r>    1.2377    0.0000 </r>
       <r>    1.2797    0.0000 </r>
       <r>    1.3151    0.0000 </r>
       <r>    1.4108    0.0000 </r>
       <r>    1.4687    0.0000 </r>
       <r>    1.4860    0.0000 </r>
       <r>    1.5493    0.0000 </r>
       <r>    1.5966    0.0000 </r>
       <r>    1.6461    0.0000 </r>
      </set>
      <set comment="kpoint 45">
       <r>   -9.4101    1.0000 </r>
       <r>   -3.5732    0.1668 </r>
       <r>   -3.5732    0.1667 </r>
       <r>   -3.5731    0.1660 </r>
       <r>   -0.1832    0.0000 </r>
       <r>    0.1041    0.0000 </r>
       <r>    0.3390    0.0000 </r>
       <r>    0.4796    0.0000 </r>
       <r>    0.5327    0.0000 </r>
       <r>    0.6494    0.0000 </r>
       <r>    0.6771    0.0000 </r>
       <r>    0.8526    0.0000 </r>
       <r>    1.0349    0.0000 </r>
       <r>    1.0854    0.0000 </r>
       <r>    1.1955    0.0000 </r>
       <r>    1.2189    0.0000 </r>
       <r>    1.2580    0.0000 </r>
       <r>    1.3059    0.0000 </r>
       <r>    1.4095    0.0000 </r>
       <r>    1.4254    0.0000 </r>
       <r>    1.4804    0.0000 </r>
       <r>    1.5770    0.0000 </r>
       <r>    1.5951    0.0000 </r>
       <r>    1.6535    0.0000 </r>
      </set>
      <set comment="kpoint 46">
       <r>   -9.4101    1.0000 </r>
       <r>   -3.5732    0.1667 </r>
       <r>   -3.5732    0.1666 </r>
       <r>   -3.5731    0.1663 </r>
       <r>   -0.2316    0.0000 </r>
       <r>    0.2427    0.0000 </r>
       <r>    0.4004    0.0000 </r>
       <r>    0.4694    0.0000 </r>
       <r>    0.4807    0.0000 </r>
       <r>    0.6087    0.0000 </r>
       <r>    0.8467    0.0000 </r>
       <r>    0.8778    0.0000 </r>
       <r>    0.9905    0.0000 </r>
       <r>    1.0213    0.0000 </r>
       <r>    1.0608    0.0000 </r>
       <r>    1.0915    0.0000 </r>
       <r>    1.1231    0.0000 </r>
       <r>    1.1963    0.0000 </r>
       <r>    1.2311    0.0000 </r>
       <r>    1.4716    0.0000 </r>
       <r>    1.5000    0.0000 </r>
       <r>    1.5460    0.0000 </r>
       <r>    1.6162    0.0000 </r>
       <r>    1.6587    0.0000 </r>
      </set>
      <set comment="kpoint 47">
       <r>   -9.4101    1.0000 </r>
       <r>   -3.5732    0.1667 </r>
       <r>   -3.5732    0.1667 </r>
       <r>   -3.5731    0.1663 </r>
       <r>   -0.2219    0.0000 </r>
       <r>    0.2478    0.0000 </r>
       <r>    0.3434    0.0000 </r>
       <r>    0.4474    0.0000 </r>
[...]
       <r>    1.0293    0.0000 </r>
       <r>    1.0670    0.0000 </r>
       <r>    1.1324    0.0000 </r>
       <r>    1.1546    0.0000 </r>
       <r>    1.2773    0.0000 </r>
       <r>    1.5612    0.0000 </r>
       <r>    1.6776    0.0000 </r>
       <r>    1.7102    0.0000 </r>
       <r>    1.7566    0.0000 </r>
      </set>
      <set comment="kpoint 172">
       <r>   -9.4101    1.0000 </r>
       <r>   -3.5733    0.1675 </r>
       <r>   -3.5732    0.1666 </r>
       <r>   -3.5732    0.1666 </r>
       <r>   -0.0857    0.0000 </r>
       <r>    0.1965    0.0000 </r>
       <r>    0.2642    0.0000 </r>
       <r>    0.3624    0.0000 </r>
       <r>    0.5222    0.0000 </r>
       <r>    0.6837    0.0000 </r>
       <r>    0.7291    0.0000 </r>
       <r>    0.8277    0.0000 </r>
       <r>    0.9121    0.0000 </r>
       <r>    0.9822    0.0000 </r>
       <r>    1.0517    0.0000 </r>
       <r>    1.1046    0.0000 </r>
       <r>    1.1273    0.0000 </r>
       <r>    1.1849    0.0000 </r>
       <r>    1.2276    0.0000 </r>
       <r>    1.3001    0.0000 </r>
       <r>    1.4677    0.0000 </r>
       <r>    1.5966    0.0000 </r>
       <r>    1.6237    0.0000 </r>
       <r>    1.7426    0.0000 </r>
      </set>
      <set comment="kpoint 173">
       <r>   -9.4101    1.0000 </r>
       <r>   -3.5733    0.1674 </r>
       <r>   -3.5732    0.1666 </r>
       <r>   -3.5732    0.1666 </r>
       <r>   -0.0703    0.0000 </r>
       <r>    0.2176    0.0000 </r>
       <r>    0.2880    0.0000 </r>
       <r>    0.3878    0.0000 </r>
       <r>    0.4331    0.0000 </r>
       <r>    0.5875    0.0000 </r>
       <r>    0.6308    0.0000 </r>
       <r>    0.7247    0.0000 </r>
       <r>    1.0083    0.0000 </r>
       <r>    1.0556    0.0000 </r>
       <r>    1.1321    0.0000 </r>
       <r>    1.1531    0.0000 </r>
       <r>    1.2180    0.0000 </r>
       <r>    1.2916    0.0000 </r>
       <r>    1.3053    0.0000 </r>
       <r>    1.3806    0.0000 </r>
       <r>    1.4117    0.0000 </r>
       <r>    1.4991    0.0000 </r>
       <r>    1.5379    0.0000 </r>
       <r>    1.6486    0.0000 </r>
      </set>
      <set comment="kpoint 174">
       <r>   -9.4101    1.0000 </r>
       <r>   -3.5733    0.1674 </r>
       <r>   -3.5732    0.1666 </r>
       <r>   -3.5732    0.1666 </r>
       <r>   -0.0523    0.0000 </r>
       <r>    0.2457    0.0000 </r>
       <r>    0.3214    0.0000 </r>
       <r>    0.3649    0.0000 </r>
       <r>    0.4248    0.0000 </r>
       <r>    0.5094    0.0000 </r>
       <r>    0.5467    0.0000 </r>
       <r>    0.6351    0.0000 </r>
       <r>    1.0394    0.0000 </r>
       <r>    1.1691    0.0000 </r>
       <r>    1.1774    0.0000 </r>
       <r>    1.2122    0.0000 </r>
       <r>    1.2928    0.0000 </r>
       <r>    1.3132    0.0000 </r>
       <r>    1.3918    0.0000 </r>
       <r>    1.4177    0.0000 </r>
       <r>    1.4466    0.0000 </r>
       <r>    1.4996    0.0000 </r>
       <r>    1.5624    0.0000 </r>
       <r>    1.5791    0.0000 </r>
      </set>
      <set comment="kpoint 175">
       <r>   -9.4101    1.0000 </r>
       <r>   -3.5733    0.1674 </r>
       <r>   -3.5732    0.1667 </r>
       <r>   -3.5732    0.1666 </r>
       <r>   -0.0394    0.0000 </r>
       <r>    0.2709    0.0000 </r>
       <r>    0.3245    0.0000 </r>
       <r>    0.3577    0.0000 </r>
       <r>    0.4537    0.0000 </r>
       <r>    0.4732    0.0000 </r>
       <r>    0.4881    0.0000 </r>
       <r>    0.5647    0.0000 </r>
       <r>    1.0667    0.0000 </r>
       <r>    1.2026    0.0000 </r>
       <r>    1.2100    0.0000 </r>
       <r>    1.2260    0.0000 </r>
       <r>    1.3365    0.0000 </r>
       <r>    1.3575    0.0000 </r>
       <r>    1.3702    0.0000 </r>
       <r>    1.4366    0.0000 </r>
       <r>    1.4900    0.0000 </r>
       <r>    1.5723    0.0000 </r>
       <r>    1.6005    0.0000 </r>
       <r>    1.6607    0.0000 </r>
      </set>
     </set>
    </set>
   </array>
  </eigenvalues>
  <separator name="orbital magnetization" >
   <v name="MAGDIPOLOUT">      0.00000000      0.00000000      0.00000000</v>
  </separator>
  <dos>
   <i name="efermi">     -3.60738033 </i>
   <total>
    <array>
     <dimension dim="1">gridpoints</dimension>
     <dimension dim="2">spin</dimension>
     <field>energy</field>
     <field>total</field>
     <field>integrated</field>
     <set>
      <set comment="spin 1">
       <r>    -9.9766     0.0000     0.0000 </r>
       <r>    -9.9350     0.0000     0.0000 </r>
       <r>    -9.8935     0.0000     0.0000 </r>
       <r>    -9.8520     0.0000     0.0000 </r>
       <r>    -9.8104     0.0000     0.0000 </r>
       <r>    -9.7689     0.0000     0.0000 </r>
       <r>    -9.7273     0.0000     0.0000 </r>
       <r>    -9.6858     0.0000     0.0000 </r>
       <r>    -9.6442     0.0000     0.0000 </r>
       <r>    -9.6027     0.0000     0.0000 </r>
       <r>    -9.5612     0.0005     0.0000 </r>
       <r>    -9.5196     0.0465     0.0019 </r>
       <r>    -9.4781     1.2651     0.0545 </r>
       <r>    -9.4365     9.6308     0.4546 </r>
       <r>    -9.3950    21.0914     1.3308 </r>
       <r>    -9.3534    13.4821     1.8909 </r>
       <r>    -9.3119     2.4940     1.9945 </r>
       <r>    -9.2703     0.1301     1.9999 </r>
       <r>    -9.2288     0.0019     2.0000 </r>
       <r>    -9.1873     0.0000     2.0000 </r>
       <r>    -9.1457     0.0000     2.0000 </r>
       <r>    -9.1042     0.0000     2.0000 </r>
       <r>    -9.0626     0.0000     2.0000 </r>
       <r>    -9.0211     0.0000     2.0000 </r>
       <r>    -8.9795     0.0000     2.0000 </r>
       <r>    -8.9380     0.0000     2.0000 </r>
       <r>    -8.8965     0.0000     2.0000 </r>
       <r>    -8.8549     0.0000     2.0000 </r>
       <r>    -8.8134     0.0000     2.0000 </r>
       <r>    -8.7718     0.0000     2.0000 </r>
       <r>    -8.7303     0.0000     2.0000 </r>
       <r>    -8.6887     0.0000     2.0000 </r>
       <r>    -8.6472     0.0000     2.0000 </r>
       <r>    -8.6056     0.0000     2.0000 </r>
       <r>    -8.5641     0.0000     2.0000 </r>
       <r>    -8.5226     0.0000     2.0000 </r>
       <r>    -8.4810     0.0000     2.0000 </r>
       <r>    -8.4395     0.0000     2.0000 </r>
       <r>    -8.3979     0.0000     2.0000 </r>
       <r>    -8.3564     0.0000     2.0000 </r>
       <r>    -8.3148     0.0000     2.0000 </r>
       <r>    -8.2733     0.0000     2.0000 </r>
       <r>    -8.2318     0.0000     2.0000 </r>
       <r>    -8.1902     0.0000     2.0000 </r>
       <r>    -8.1487     0.0000     2.0000 </r>
       <r>    -8.1071     0.0000     2.0000 </r>
       <r>    -8.0656     0.0000     2.0000 </r>
       <r>    -8.0240     0.0000     2.0000 </r>
       <r>    -7.9825     0.0000     2.0000 </r>
       <r>    -7.9410     0.0000     2.0000 </r>
       <r>    -7.8994     0.0000     2.0000 </r>
       <r>    -7.8579     0.0000     2.0000 </r>
       <r>    -7.8163     0.0000     2.0000 </r>
       <r>    -7.7748     0.0000     2.0000 </r>
       <r>    -7.7332     0.0000     2.0000 </r>
       <r>    -7.6917     0.0000     2.0000 </r>
       <r>    -7.6501     0.0000     2.0000 </r>
       <r>    -7.6086     0.0000     2.0000 </r>
       <r>    -7.5671     0.0000     2.0000 </r>
       <r>    -7.5255     0.0000     2.0000 </r>
       <r>    -7.4840     0.0000     2.0000 </r>
       <r>    -7.4424     0.0000     2.0000 </r>
       <r>    -7.4009     0.0000     2.0000 </r>
       <r>    -7.3593     0.0000     2.0000 </r>
       <r>    -7.3178     0.0000     2.0000 </r>
       <r>    -7.2763     0.0000     2.0000 </r>
       <r>    -7.2347     0.0000     2.0000 </r>
       <r>    -7.1932     0.0000     2.0000 </r>
       <r>    -7.1516     0.0000     2.0000 </r>
       <r>    -7.1101     0.0000     2.0000 </r>
       <r>    -7.0685     0.0000     2.0000 </r>
       <r>    -7.0270     0.0000     2.0000 </r>
       <r>    -6.9854     0.0000     2.0000 </r>
       <r>    -6.9439     0.0000     2.0000 </r>
       <r>    -6.9024     0.0000     2.0000 </r>
       <r>    -6.8608     0.0000     2.0000 </r>
       <r>    -6.8193     0.0000     2.0000 </r>
       <r>    -6.7777     0.0000     2.0000 </r>
       <r>    -6.7362     0.0000     2.0000 </r>
       <r>    -6.6946     0.0000     2.0000 </r>
       <r>    -6.6531     0.0000     2.0000 </r>
       <r>    -6.6116     0.0000     2.0000 </r>
       <r>    -6.5700     0.0000     2.0000 </r>
       <r>    -6.5285     0.0000     2.0000 </r>
       <r>    -6.4869     0.0000     2.0000 </r>
       <r>    -6.4454     0.0000     2.0000 </r>
       <r>    -6.4038     0.0000     2.0000 </r>
       <r>    -6.3623     0.0000     2.0000 </r>
       <r>    -6.3207     0.0000     2.0000 </r>
       <r>    -6.2792     0.0000     2.0000 </r>
       <r>    -6.2377     0.0000     2.0000 </r>
       <r>    -6.1961     0.0000     2.0000 </r>
       <r>    -6.1546     0.0000     2.0000 </r>
       <r>    -6.1130     0.0000     2.0000 </r>
       <r>    -6.0715     0.0000     2.0000 </r>
       <r>    -6.0299     0.0000     2.0000 </r>
       <r>    -5.9884     0.0000     2.0000 </r>
       <r>    -5.9469     0.0000     2.0000 </r>
       <r>    -5.9053     0.0000     2.0000 </r>
       <r>    -5.8638     0.0000     2.0000 </r>
       <r>    -5.8222     0.0000     2.0000 </r>
       <r>    -5.7807     0.0000     2.0000 </r>
       <r>    -5.7391     0.0000     2.0000 </r>
       <r>    -5.6976     0.0000     2.0000 </r>
       <r>    -5.6561     0.0000     2.0000 </r>
       <r>    -5.6145     0.0000     2.0000 </r>
       <r>    -5.5730     0.0000     2.0000 </r>
       <r>    -5.5314     0.0000     2.0000 </r>
       <r>    -5.4899     0.0000     2.0000 </r>
       <r>    -5.4483     0.0000     2.0000 </r>
       <r>    -5.4068     0.0000     2.0000 </r>
       <r>    -5.3652     0.0000     2.0000 </r>
       <r>    -5.3237     0.0000     2.0000 </r>
       <r>    -5.2822     0.0000     2.0000 </r>
       <r>    -5.2406     0.0000     2.0000 </r>
       <r>    -5.1991     0.0000     2.0000 </r>
       <r>    -5.1575     0.0000     2.0000 </r>
       <r>    -5.1160     0.0000     2.0000 </r>
       <r>    -5.0744     0.0000     2.0000 </r>
       <r>    -5.0329     0.0000     2.0000 </r>
       <r>    -4.9914     0.0000     2.0000 </r>
       <r>    -4.9498     0.0000     2.0000 </r>
       <r>    -4.9083     0.0000     2.0000 </r>
       <r>    -4.8667     0.0000     2.0000 </r>
       <r>    -4.8252     0.0000     2.0000 </r>
       <r>    -4.7836     0.0000     2.0000 </r>
       <r>    -4.7421     0.0000     2.0000 </r>
       <r>    -4.7005     0.0000     2.0000 </r>
       <r>    -4.6590     0.0000     2.0000 </r>
       <r>    -4.6175     0.0000     2.0000 </r>
       <r>    -4.5759     0.0000     2.0000 </r>
       <r>    -4.5344     0.0000     2.0000 </r>
       <r>    -4.4928     0.0000     2.0000 </r>
       <r>    -4.4513     0.0000     2.0000 </r>
       <r>    -4.4097     0.0000     2.0000 </r>
       <r>    -4.3682     0.0000     2.0000 </r>
       <r>    -4.3267     0.0000     2.0000 </r>
       <r>    -4.2851     0.0000     2.0000 </r>
       <r>    -4.2436     0.0000     2.0000 </r>
       <r>    -4.2020     0.0000     2.0000 </r>
       <r>    -4.1605     0.0000     2.0000 </r>
       <r>    -4.1189     0.0000     2.0000 </r>
       <r>    -4.0774     0.0000     2.0000 </r>
       <r>    -4.0358     0.0000     2.0000 </r>
       <r>    -3.9943     0.0000     2.0000 </r>
       <r>    -3.9528     0.0000     2.0000 </r>
       <r>    -3.9112     0.0000     2.0000 </r>
       <r>    -3.8697     0.0000     2.0000 </r>
       <r>    -3.8281     0.0000     2.0000 </r>
       <r>    -3.7866     0.0000     2.0000 </r>
       <r>    -3.7450     0.0001     2.0000 </r>
       <r>    -3.7035     0.0164     2.0007 </r>
       <r>    -3.6620     0.8527     2.0361 </r>
       <r>    -3.6204    12.2400     2.5446 </r>
       <r>    -3.5789    49.8666     4.6162 </r>
       <r>    -3.5373    59.0230     7.0683 </r>
       <r>    -3.4958    20.3629     7.9142 </r>
       <r>    -3.4542     2.0094     7.9977 </r>
       <r>    -3.4127     0.0551     8.0000 </r>
       <r>    -3.3712     0.0004     8.0000 </r>
       <r>    -3.3296     0.0000     8.0000 </r>
       <r>    -3.2881     0.0000     8.0000 </r>
       <r>    -3.2465     0.0000     8.0000 </r>
       <r>    -3.2050     0.0000     8.0000 </r>
       <r>    -3.1634     0.0000     8.0000 </r>
       <r>    -3.1219     0.0000     8.0000 </r>
       <r>    -3.0803     0.0000     8.0000 </r>
       <r>    -3.0388     0.0000     8.0000 </r>
       <r>    -2.9973     0.0000     8.0000 </r>
       <r>    -2.9557     0.0000     8.0000 </r>
       <r>    -2.9142     0.0000     8.0000 </r>
       <r>    -2.8726     0.0000     8.0000 </r>
       <r>    -2.8311     0.0000     8.0000 </r>
       <r>    -2.7895     0.0000     8.0000 </r>
       <r>    -2.7480     0.0000     8.0000 </r>
       <r>    -2.7065     0.0000     8.0000 </r>
       <r>    -2.6649     0.0000     8.0000 </r>
       <r>    -2.6234     0.0000     8.0000 </r>
       <r>    -2.5818     0.0000     8.0000 </r>
       <r>    -2.5403     0.0000     8.0000 </r>
       <r>    -2.4987     0.0000     8.0000 </r>
       <r>    -2.4572     0.0000     8.0000 </r>
       <r>    -2.4156     0.0000     8.0000 </r>
       <r>    -2.3741     0.0000     8.0000 </r>
       <r>    -2.3326     0.0000     8.0000 </r>
       <r>    -2.2910     0.0000     8.0000 </r>
       <r>    -2.2495     0.0000     8.0000 </r>
       <r>    -2.2079     0.0000     8.0000 </r>
       <r>    -2.1664     0.0000     8.0000 </r>
       <r>    -2.1248     0.0000     8.0000 </r>
       <r>    -2.0833     0.0000     8.0000 </r>
       <r>    -2.0418     0.0000     8.0000 </r>
       <r>    -2.0002     0.0000     8.0000 </r>
       <r>    -1.9587     0.0000     8.0000 </r>
       <r>    -1.9171     0.0000     8.0000 </r>
       <r>    -1.8756     0.0000     8.0000 </r>
       <r>    -1.8340     0.0000     8.0000 </r>
       <r>    -1.7925     0.0000     8.0000 </r>
       <r>    -1.7509     0.0000     8.0000 </r>
       <r>    -1.7094     0.0000     8.0000 </r>
       <r>    -1.6679     0.0000     8.0000 </r>
       <r>    -1.6263     0.0000     8.0000 </r>
       <r>    -1.5848     0.0000     8.0000 </r>
       <r>    -1.5432     0.0000     8.0000 </r>
       <r>    -1.5017     0.0000     8.0000 </r>
       <r>    -1.4601     0.0000     8.0000 </r>
       <r>    -1.4186     0.0000     8.0000 </r>
       <r>    -1.3771     0.0000     8.0000 </r>
       <r>    -1.3355     0.0000     8.0000 </r>
       <r>    -1.2940     0.0000     8.0000 </r>
       <r>    -1.2524     0.0000     8.0000 </r>
       <r>    -1.2109     0.0000     8.0000 </r>
       <r>    -1.1693     0.0000     8.0000 </r>
       <r>    -1.1278     0.0000     8.0000 </r>
       <r>    -1.0863     0.0000     8.0000 </r>
       <r>    -1.0447     0.0000     8.0000 </r>
       <r>    -1.0032     0.0000     8.0000 </r>
       <r>    -0.9616     0.0000     8.0000 </r>
       <r>    -0.9201     0.0000     8.0000 </r>
       <r>    -0.8785     0.0000     8.0000 </r>
       <r>    -0.8370     0.0000     8.0000 </r>
       <r>    -0.7954     0.0000     8.0000 </r>
       <r>    -0.7539     0.0000     8.0000 </r>
       <r>    -0.7124     0.0000     8.0000 </r>
       <r>    -0.6708     0.0000     8.0000 </r>
       <r>    -0.6293     0.0000     8.0000 </r>
       <r>    -0.5877     0.0000     8.0000 </r>
       <r>    -0.5462     0.0000     8.0000 </r>
       <r>    -0.5046     0.0000     8.0000 </r>
       <r>    -0.4631     0.0000     8.0000 </r>
       <r>    -0.4216     0.0000     8.0000 </r>
       <r>    -0.3800     0.0004     8.0000 </r>
       <r>    -0.3385     0.0217     8.0009 </r>
       <r>    -0.2969     0.3871     8.0170 </r>
       <r>    -0.2554     2.5208     8.1217 </r>
       <r>    -0.2138     7.0744     8.4156 </r>
       <r>    -0.1723    10.5627     8.8544 </r>
       <r>    -0.1307    10.6383     9.2964 </r>
       <r>    -0.0892     8.8649     9.6647 </r>
       <r>    -0.0477     5.6373     9.8989 </r>
       <r>    -0.0061     2.0906     9.9857 </r>
       <r>     0.0354     0.6450    10.0125 </r>
       <r>     0.0770     1.7611    10.0857 </r>
       <r>     0.1185     5.1741    10.3006 </r>
       <r>     0.1601     9.8094    10.7081 </r>
       <r>     0.2016    13.6827    11.2766 </r>
       <r>     0.2431    15.5832    11.9239 </r>
       <r>     0.2847    15.8446    12.5822 </r>
       <r>     0.3262    15.9455    13.2446 </r>
       <r>     0.3678    16.2359    13.9191 </r>
       <r>     0.4093    16.5164    14.6053 </r>
       <r>     0.4509    17.4864    15.3317 </r>
       <r>     0.4924    18.5088    16.1006 </r>
       <r>     0.5340    18.5517    16.8714 </r>
       <r>     0.5755    18.9579    17.6589 </r>
       <r>     0.6170    19.8902    18.4852 </r>
       <r>     0.6586    20.3964    19.3326 </r>
       <r>     0.7001    20.9884    20.2045 </r>
       <r>     0.7417    22.3760    21.1341 </r>
       <r>     0.7832    22.5611    22.0714 </r>
       <r>     0.8248    21.9173    22.9819 </r>
       <r>     0.8663    23.2616    23.9483 </r>
       <r>     0.9078    24.5877    24.9697 </r>
       <r>     0.9494    24.3371    25.9808 </r>
       <r>     0.9909    24.8561    27.0134 </r>
       <r>     1.0325    25.9574    28.0918 </r>
       <r>     1.0740    26.1036    29.1762 </r>
       <r>     1.1156    26.1456    30.2624 </r>
       <r>     1.1571    26.8558    31.3781 </r>
       <r>     1.1986    27.7837    32.5323 </r>
       <r>     1.2402    27.4621    33.6732 </r>
       <r>     1.2817    27.5494    34.8177 </r>
       <r>     1.3233    28.6321    36.0072 </r>
       <r>     1.3648    28.7448    37.2013 </r>
       <r>     1.4064    28.4189    38.3820 </r>
       <r>     1.4479    29.3766    39.6024 </r>
       <r>     1.4895    30.9773    40.8893 </r>
       <r>     1.5310    30.1928    42.1436 </r>
       <r>     1.5725    29.6640    43.3759 </r>
       <r>     1.6141    30.1923    44.6302 </r>
       <r>     1.6556    27.9188    45.7901 </r>
       <r>     1.6972    21.4751    46.6822 </r>
       <r>     1.7387    14.2562    47.2745 </r>
       <r>     1.7803     8.4559    47.6258 </r>
       <r>     1.8218     4.8610    47.8277 </r>
       <r>     1.8633     2.6074    47.9360 </r>
       <r>     1.9049     1.1073    47.9821 </r>
       <r>     1.9464     0.3509    47.9966 </r>
       <r>     1.9880     0.0738    47.9997 </r>
       <r>     2.0295     0.0071    48.0000 </r>
       <r>     2.0711     0.0002    48.0000 </r>
       <r>     2.1126     0.0000    48.0000 </r>
       <r>     2.1542     0.0000    48.0000 </r>
       <r>     2.1957     0.0000    48.0000 </r>
       <r>     2.2372     0.0000    48.0000 </r>
       <r>     2.2788     0.0000    48.0000 </r>
       <r>     2.3203     0.0000    48.0000 </r>
       <r>     2.3619     0.0000    48.0000 </r>
       <r>     2.4034     0.0000    48.0000 </r>
       <r>     2.4450     0.0000    48.0000 </r>
       <r>     2.4865     0.0000    48.0000 </r>
      </set>
     </set>
    </array>
   </total>
  </dos>
 </calculation>
 <structure name="finalpos" >
  <crystal>
   <varray name="basis" >
    <v>      15.02700000       0.00000000       0.00000000 </v>
    <v>       0.00000000      12.52250000       0.00000000 </v>
    <v>       0.00000000       0.00000000      18.03240000 </v>
   </varray>
   <i name="volume">   3393.25782468 </i>
   <varray name="rec_basis" >
    <v>       0.06654688       0.00000000       0.00000000 </v>
    <v>       0.00000000       0.07985626       0.00000000 </v>
    <v>       0.00000000       0.00000000       0.05545574 </v>
   </varray>
  </crystal>
  <varray name="positions" >
   <v>       0.52123000       0.54500000       0.63796000 </v>
  </varray>
 </structure>
</modeling>
