<?xml version="1.0" encoding="ISO-8859-1"?>
<modeling>
 <generator>
  <i name="program" type="string">vasp </i>
  <i name="version" type="string">6.4.3  </i>
  <i name="subversion" type="string">19Mar24 (build May 31 2024 16:31:43) complex                          parallel </i>
  <i name="platform" type="string">LinuxIFC </i>
  <i name="date" type="string">2024 10 31 </i>
  <i name="time" type="string">01:08:09 </i>
 </generator>
 <incar>
  <i type="string" name="SYSTEM">Kpoints</i>
  <i type="int" name="ISTART">     0</i>
  <i type="string" name="PREC">Accurate</i>
  <i type="string" name="ALGO">Normal</i>
  <i type="int" name="ISPIN">     1</i>
  <i type="int" name="ICHARG">     2</i>
  <i type="int" name="NELM">   100</i>
  <i type="int" name="IBRION">    -1</i>
  <i name="EDIFF">      0.00000100</i>
  <i name="EDIFFG">     -0.00100000</i>
  <i type="int" name="NSW">     0</i>
  <i type="int" name="ISIF">     2</i>
  <i name="ENCUT">    400.00000000</i>
  <i name="POTIM">      0.50000000</i>
  <i type="int" name="ISMEAR">     0</i>
  <i name="SIGMA">      0.05000000</i>
  <i type="logical" name="LWAVE"> F  </i>
  <i type="logical" name="LCHARG"> F  </i>
  <i type="string" name="GGA">PE</i>
 </incar>
 <primitive_cell>
  <structure name="primitive_cell" >
   <crystal>
    <varray name="basis" >
     <v>       5.69700000       0.00000000       0.00000000 </v>
     <v>       0.00000000       4.04790000       0.00000000 </v>
     <v>       0.00000000       0.00000000       6.20420000 </v>
    </varray>
    <i name="volume">    143.07435078 </i>
    <varray name="rec_basis" >
     <v>       0.17553098       0.00000000       0.00000000 </v>
     <v>       0.00000000       0.24704168       0.00000000 </v>
     <v>       0.00000000       0.00000000       0.16118114 </v>
    </varray>
   </crystal>
   <varray name="positions" >
    <v>       0.52123000       0.50000000       0.63796000 </v>
    <v>       0.47877000       0.50000000       0.36204000 </v>
    <v>       0.97877000       0.50000000       0.63796000 </v>
    <v>       0.02123000       0.50000000       0.36204000 </v>
    <v>       0.60090000       0.50000000       0.89991000 </v>
    <v>       0.39910000       0.50000000       0.10009000 </v>
    <v>       0.89910000       0.50000000       0.89991000 </v>
    <v>       0.10090000       0.50000000       0.10009000 </v>
    <v>       0.75000000       0.79171000       0.72973000 </v>
    <v>       0.25000000       0.20829000       0.27027000 </v>
    <v>       0.75000000       0.20829000       0.72973000 </v>
    <v>       0.25000000       0.79171000       0.27027000 </v>
    <v>       0.25000000       0.50000000       0.52367000 </v>
    <v>       0.75000000       0.50000000       0.47633000 </v>
   </varray>
  </structure>
  <varray name="primitive_index" >
   <v type="int" >        1 </v>
   <v type="int" >        2 </v>
   <v type="int" >        3 </v>
   <v type="int" >        4 </v>
   <v type="int" >        5 </v>
   <v type="int" >        6 </v>
   <v type="int" >        7 </v>
   <v type="int" >        8 </v>
   <v type="int" >        9 </v>
   <v type="int" >       10 </v>
   <v type="int" >       11 </v>
   <v type="int" >       12 </v>
   <v type="int" >       13 </v>
   <v type="int" >       14 </v>
  </varray>
 </primitive_cell>
 <kpoints>
  <generation param="Monkhorst-Pack">
   <v type="int" name="divisions">      19       27       17 </v>
   <v name="usershift">      0.00000000       0.00000000       0.00000000 </v>
   <v name="genvec1">      0.05263158       0.00000000       0.00000000 </v>
   <v name="genvec2">      0.00000000       0.03703704       0.00000000 </v>
   <v name="genvec3">      0.00000000       0.00000000       0.05882353 </v>
   <v name="shift">      0.00000000       0.00000000       0.00000000 </v>
  </generation>
  <varray name="kpointlist" >
   <v>       0.00000000       0.00000000       0.00000000 </v>
   <v>       0.05263158       0.00000000       0.00000000 </v>
   <v>       0.10526316       0.00000000       0.00000000 </v>
   <v>       0.15789474       0.00000000       0.00000000 </v>
   <v>       0.21052632       0.00000000       0.00000000 </v>
   <v>       0.26315789       0.00000000       0.00000000 </v>
   <v>       0.31578947       0.00000000       0.00000000 </v>
   <v>       0.36842105       0.00000000       0.00000000 </v>
   <v>       0.42105263       0.00000000       0.00000000 </v>
   <v>       0.47368421       0.00000000       0.00000000 </v>
   <v>       0.00000000       0.03703704       0.00000000 </v>
   <v>       0.05263158       0.03703704       0.00000000 </v>
   <v>       0.10526316       0.03703704       0.00000000 </v>
   <v>       0.15789474       0.03703704       0.00000000 </v>
   <v>       0.21052632       0.03703704       0.00000000 </v>
   <v>       0.26315789       0.03703704       0.00000000 </v>
   <v>       0.31578947       0.03703704       0.00000000 </v>
   <v>       0.36842105       0.03703704       0.00000000 </v>
   <v>       0.42105263       0.03703704       0.00000000 </v>
   <v>       0.47368421       0.03703704       0.00000000 </v>
   <v>       0.00000000       0.07407407       0.00000000 </v>
   <v>       0.05263158       0.07407407       0.00000000 </v>
   <v>       0.10526316       0.07407407       0.00000000 </v>
   <v>       0.15789474       0.07407407       0.00000000 </v>
   <v>       0.21052632       0.07407407       0.00000000 </v>
   <v>       0.26315789       0.07407407       0.00000000 </v>
   <v>       0.31578947       0.07407407       0.00000000 </v>
   <v>       0.36842105       0.07407407       0.00000000 </v>
   <v>       0.42105263       0.07407407       0.00000000 </v>
   <v>       0.47368421       0.07407407       0.00000000 </v>
   <v>       0.00000000       0.11111111       0.00000000 </v>
   <v>       0.05263158       0.11111111       0.00000000 </v>
   <v>       0.10526316       0.11111111       0.00000000 </v>
   <v>       0.15789474       0.11111111       0.00000000 </v>
   <v>       0.21052632       0.11111111       0.00000000 </v>
   <v>       0.26315789       0.11111111       0.00000000 </v>
   <v>       0.31578947       0.11111111       0.00000000 </v>
   <v>       0.36842105       0.11111111       0.00000000 </v>
   <v>       0.42105263       0.11111111       0.00000000 </v>
   <v>       0.47368421       0.11111111       0.00000000 </v>
   <v>       0.00000000       0.14814815       0.00000000 </v>
   <v>       0.05263158       0.14814815       0.00000000 </v>
   <v>       0.10526316       0.14814815       0.00000000 </v>
   <v>       0.15789474       0.14814815       0.00000000 </v>
   <v>       0.21052632       0.14814815       0.00000000 </v>
   <v>       0.26315789       0.14814815       0.00000000 </v>
   <v>       0.31578947       0.14814815       0.00000000 </v>
   <v>       0.36842105       0.14814815       0.00000000 </v>
   <v>       0.42105263       0.14814815       0.00000000 </v>
   <v>       0.47368421       0.14814815       0.00000000 </v>
   <v>       0.00000000       0.18518519       0.00000000 </v>
   <v>       0.05263158       0.18518519       0.00000000 </v>
   <v>       0.10526316       0.18518519       0.00000000 </v>
   <v>       0.15789474       0.18518519       0.00000000 </v>
   <v>       0.21052632       0.18518519       0.00000000 </v>
   <v>       0.26315789       0.18518519       0.00000000 </v>
   <v>       0.31578947       0.18518519       0.00000000 </v>
   <v>       0.36842105       0.18518519       0.00000000 </v>
   <v>       0.42105263       0.18518519       0.00000000 </v>
   <v>       0.47368421       0.18518519       0.00000000 </v>
   <v>       0.00000000       0.22222222       0.00000000 </v>
   <v>       0.05263158       0.22222222       0.00000000 </v>
   <v>       0.10526316       0.22222222       0.00000000 </v>
   <v>       0.15789474       0.22222222       0.00000000 </v>
   <v>       0.21052632       0.22222222       0.00000000 </v>
   <v>       0.26315789       0.22222222       0.00000000 </v>
   <v>       0.31578947       0.22222222       0.00000000 </v>
   <v>       0.36842105       0.22222222       0.00000000 </v>
   <v>       0.42105263       0.22222222       0.00000000 </v>
   <v>       0.47368421       0.22222222       0.00000000 </v>
   <v>       0.00000000       0.25925926       0.00000000 </v>
   <v>       0.05263158       0.25925926       0.00000000 </v>
   <v>       0.10526316       0.25925926       0.00000000 </v>
   <v>       0.15789474       0.25925926       0.00000000 </v>
   <v>       0.21052632       0.25925926       0.00000000 </v>
   <v>       0.26315789       0.25925926       0.00000000 </v>
   <v>       0.31578947       0.25925926       0.00000000 </v>
   <v>       0.36842105       0.25925926       0.00000000 </v>
   <v>       0.42105263       0.25925926       0.00000000 </v>
   <v>       0.47368421       0.25925926       0.00000000 </v>
   <v>       0.00000000       0.29629630       0.00000000 </v>
   <v>       0.05263158       0.29629630       0.00000000 </v>
   <v>       0.10526316       0.29629630       0.00000000 </v>
   <v>       0.15789474       0.29629630       0.00000000 </v>
   <v>       0.21052632       0.29629630       0.00000000 </v>
   <v>       0.26315789       0.29629630       0.00000000 </v>
   <v>       0.31578947       0.29629630       0.00000000 </v>
   <v>       0.36842105       0.29629630       0.00000000 </v>
   <v>       0.42105263       0.29629630       0.00000000 </v>
   <v>       0.47368421       0.29629630       0.00000000 </v>
   <v>       0.00000000       0.33333333       0.00000000 </v>
   <v>       0.05263158       0.33333333       0.00000000 </v>
   <v>       0.10526316       0.33333333       0.00000000 </v>
   <v>       0.15789474       0.33333333       0.00000000 </v>
   <v>       0.21052632       0.33333333       0.00000000 </v>
   <v>       0.26315789       0.33333333       0.00000000 </v>
   <v>       0.31578947       0.33333333       0.00000000 </v>
   <v>       0.36842105       0.33333333       0.00000000 </v>
   <v>       0.42105263       0.33333333       0.00000000 </v>
   <v>       0.47368421       0.33333333       0.00000000 </v>
   <v>       0.00000000       0.37037037       0.00000000 </v>
   <v>       0.05263158       0.37037037       0.00000000 </v>
   <v>       0.10526316       0.37037037       0.00000000 </v>
   <v>       0.15789474       0.37037037       0.00000000 </v>
   <v>       0.21052632       0.37037037       0.00000000 </v>
   <v>       0.26315789       0.37037037       0.00000000 </v>
   <v>       0.31578947       0.37037037       0.00000000 </v>
   <v>       0.36842105       0.37037037       0.00000000 </v>
   <v>       0.42105263       0.37037037       0.00000000 </v>
   <v>       0.47368421       0.37037037       0.00000000 </v>
   <v>       0.00000000       0.40740741       0.00000000 </v>
   <v>       0.05263158       0.40740741       0.00000000 </v>
   <v>       0.10526316       0.40740741       0.00000000 </v>
   <v>       0.15789474       0.40740741       0.00000000 </v>
   <v>       0.21052632       0.40740741       0.00000000 </v>
   <v>       0.26315789       0.40740741       0.00000000 </v>
   <v>       0.31578947       0.40740741       0.00000000 </v>
   <v>       0.36842105       0.40740741       0.00000000 </v>
   <v>       0.42105263       0.40740741       0.00000000 </v>
   <v>       0.47368421       0.40740741       0.00000000 </v>
   <v>       0.00000000       0.44444444       0.00000000 </v>
   <v>       0.05263158       0.44444444       0.00000000 </v>
   <v>       0.10526316       0.44444444       0.00000000 </v>
   <v>       0.15789474       0.44444444       0.00000000 </v>
   <v>       0.21052632       0.44444444       0.00000000 </v>
   <v>       0.26315789       0.44444444       0.00000000 </v>
   <v>       0.31578947       0.44444444       0.00000000 </v>
   <v>       0.36842105       0.44444444       0.00000000 </v>
   <v>       0.42105263       0.44444444       0.00000000 </v>
   <v>       0.47368421       0.44444444       0.00000000 </v>
   <v>       0.00000000       0.48148148       0.00000000 </v>
   <v>       0.05263158       0.48148148       0.00000000 </v>
   <v>       0.10526316       0.48148148       0.00000000 </v>
   <v>       0.15789474       0.48148148       0.00000000 </v>
   <v>       0.21052632       0.48148148       0.00000000 </v>
   <v>       0.26315789       0.48148148       0.00000000 </v>
   <v>       0.31578947       0.48148148       0.00000000 </v>
   <v>       0.36842105       0.48148148       0.00000000 </v>
   <v>       0.42105263       0.48148148       0.00000000 </v>
   <v>       0.47368421       0.48148148       0.00000000 </v>
   <v>       0.00000000       0.00000000       0.05882353 </v>
   <v>       0.05263158       0.00000000       0.05882353 </v>
   <v>       0.10526316       0.00000000       0.05882353 </v>
   <v>       0.15789474       0.00000000       0.05882353 </v>
   <v>       0.21052632       0.00000000       0.05882353 </v>
   <v>       0.26315789       0.00000000       0.05882353 </v>
   <v>       0.31578947       0.00000000       0.05882353 </v>
   <v>       0.36842105       0.00000000       0.05882353 </v>
   <v>       0.42105263       0.00000000       0.05882353 </v>
   <v>       0.47368421       0.00000000       0.05882353 </v>
   <v>       0.00000000       0.03703704       0.05882353 </v>
   <v>       0.05263158       0.03703704       0.05882353 </v>
   <v>       0.10526316       0.03703704       0.05882353 </v>
   <v>       0.15789474       0.03703704       0.05882353 </v>
   <v>       0.21052632       0.03703704       0.05882353 </v>
   <v>       0.26315789       0.03703704       0.05882353 </v>
   <v>       0.31578947       0.03703704       0.05882353 </v>
   <v>       0.36842105       0.03703704       0.05882353 </v>
   <v>       0.42105263       0.03703704       0.05882353 </v>
   <v>       0.47368421       0.03703704       0.05882353 </v>
   <v>       0.00000000       0.07407407       0.05882353 </v>
   <v>       0.05263158       0.07407407       0.05882353 </v>
   <v>       0.10526316       0.07407407       0.05882353 </v>
   <v>       0.15789474       0.07407407       0.05882353 </v>
   <v>       0.21052632       0.07407407       0.05882353 </v>
   <v>       0.26315789       0.07407407       0.05882353 </v>
   <v>       0.31578947       0.07407407       0.05882353 </v>
   <v>       0.36842105       0.07407407       0.05882353 </v>
   <v>       0.42105263       0.07407407       0.05882353 </v>
   <v>       0.47368421       0.07407407       0.05882353 </v>
   <v>       0.00000000       0.11111111       0.05882353 </v>
   <v>       0.05263158       0.11111111       0.05882353 </v>
   <v>       0.10526316       0.11111111       0.05882353 </v>
   <v>       0.15789474       0.11111111       0.05882353 </v>
   <v>       0.21052632       0.11111111       0.05882353 </v>
   <v>       0.26315789       0.11111111       0.05882353 </v>
   <v>       0.31578947       0.11111111       0.05882353 </v>
   <v>       0.36842105       0.11111111       0.05882353 </v>
   <v>       0.42105263       0.11111111       0.05882353 </v>
   <v>       0.47368421       0.11111111       0.05882353 </v>
   <v>       0.00000000       0.14814815       0.05882353 </v>
   <v>       0.05263158       0.14814815       0.05882353 </v>
   <v>       0.10526316       0.14814815       0.05882353 </v>
   <v>       0.15789474       0.14814815       0.05882353 </v>
   <v>       0.21052632       0.14814815       0.05882353 </v>
   <v>       0.26315789       0.14814815       0.05882353 </v>
   <v>       0.31578947       0.14814815       0.05882353 </v>
   <v>       0.36842105       0.14814815       0.05882353 </v>
   <v>       0.42105263       0.14814815       0.05882353 </v>
   <v>       0.47368421       0.14814815       0.05882353 </v>
   <v>       0.00000000       0.18518519       0.05882353 </v>
   <v>       0.05263158       0.18518519       0.05882353 </v>
   <v>       0.10526316       0.18518519       0.05882353 </v>
   <v>       0.15789474       0.18518519       0.05882353 </v>
   <v>       0.21052632       0.18518519       0.05882353 </v>
   <v>       0.26315789       0.18518519       0.05882353 </v>
   <v>       0.31578947       0.18518519       0.05882353 </v>
   <v>       0.36842105       0.18518519       0.05882353 </v>
   <v>       0.42105263       0.18518519       0.05882353 </v>
   <v>       0.47368421       0.18518519       0.05882353 </v>
   <v>       0.00000000       0.22222222       0.05882353 </v>
   <v>       0.05263158       0.22222222       0.05882353 </v>
   <v>       0.10526316       0.22222222       0.05882353 </v>
   <v>       0.15789474       0.22222222       0.05882353 </v>
   <v>       0.21052632       0.22222222       0.05882353 </v>
   <v>       0.26315789       0.22222222       0.05882353 </v>
   <v>       0.31578947       0.22222222       0.05882353 </v>
   <v>       0.36842105       0.22222222       0.05882353 </v>
   <v>       0.42105263       0.22222222       0.05882353 </v>
   <v>       0.47368421       0.22222222       0.05882353 </v>
   <v>       0.00000000       0.25925926       0.05882353 </v>
   <v>       0.05263158       0.25925926       0.05882353 </v>
   <v>       0.10526316       0.25925926       0.05882353 </v>
   <v>       0.15789474       0.25925926       0.05882353 </v>
   <v>       0.21052632       0.25925926       0.05882353 </v>
   <v>       0.26315789       0.25925926       0.05882353 </v>
   <v>       0.31578947       0.25925926       0.05882353 </v>
   <v>       0.36842105       0.25925926       0.05882353 </v>
   <v>       0.42105263       0.25925926       0.05882353 </v>
   <v>       0.47368421       0.25925926       0.05882353 </v>
   <v>       0.00000000       0.29629630       0.05882353 </v>
   <v>       0.05263158       0.29629630       0.05882353 </v>
   <v>       0.10526316       0.29629630       0.05882353 </v>
   <v>       0.15789474       0.29629630       0.05882353 </v>
   <v>       0.21052632       0.29629630       0.05882353 </v>
   <v>       0.26315789       0.29629630       0.05882353 </v>
   <v>       0.31578947       0.29629630       0.05882353 </v>
   <v>       0.36842105       0.29629630       0.05882353 </v>
   <v>       0.42105263       0.29629630       0.05882353 </v>
   <v>       0.47368421       0.29629630       0.05882353 </v>
   <v>       0.00000000       0.33333333       0.05882353 </v>
   <v>       0.05263158       0.33333333       0.05882353 </v>
   <v>       0.10526316       0.33333333       0.05882353 </v>
   <v>       0.15789474       0.33333333       0.05882353 </v>
   <v>       0.21052632       0.33333333       0.05882353 </v>
   <v>       0.26315789       0.33333333       0.05882353 </v>
   <v>       0.31578947       0.33333333       0.05882353 </v>
   <v>       0.36842105       0.33333333       0.05882353 </v>
   <v>       0.42105263       0.33333333       0.05882353 </v>
   <v>       0.47368421       0.33333333       0.05882353 </v>
   <v>       0.00000000       0.37037037       0.05882353 </v>
   <v>       0.05263158       0.37037037       0.05882353 </v>
   <v>       0.10526316       0.37037037       0.05882353 </v>
   <v>       0.15789474       0.37037037       0.05882353 </v>
   <v>       0.21052632       0.37037037       0.05882353 </v>
   <v>       0.26315789       0.37037037       0.05882353 </v>
   <v>       0.31578947       0.37037037       0.05882353 </v>
   <v>       0.36842105       0.37037037       0.05882353 </v>
   <v>       0.42105263       0.37037037       0.05882353 </v>
   <v>       0.47368421       0.37037037       0.05882353 </v>
   <v>       0.00000000       0.40740741       0.05882353 </v>
   <v>       0.05263158       0.40740741       0.05882353 </v>
   <v>       0.10526316       0.40740741       0.05882353 </v>
   <v>       0.15789474       0.40740741       0.05882353 </v>
   <v>       0.21052632       0.40740741       0.05882353 </v>
   <v>       0.26315789       0.40740741       0.05882353 </v>
   <v>       0.31578947       0.40740741       0.05882353 </v>
   <v>       0.36842105       0.40740741       0.05882353 </v>
   <v>       0.42105263       0.40740741       0.05882353 </v>
   <v>       0.47368421       0.40740741       0.05882353 </v>
   <v>       0.00000000       0.44444444       0.05882353 </v>
   <v>       0.05263158       0.44444444       0.05882353 </v>
   <v>       0.10526316       0.44444444       0.05882353 </v>
   <v>       0.15789474       0.44444444       0.05882353 </v>
   <v>       0.21052632       0.44444444       0.05882353 </v>
   <v>       0.26315789       0.44444444       0.05882353 </v>
   <v>       0.31578947       0.44444444       0.05882353 </v>
   <v>       0.36842105       0.44444444       0.05882353 </v>
   <v>       0.42105263       0.44444444       0.05882353 </v>
   <v>       0.47368421       0.44444444       0.05882353 </v>
   <v>       0.00000000       0.48148148       0.05882353 </v>
   <v>       0.05263158       0.48148148       0.05882353 </v>
   <v>       0.10526316       0.48148148       0.05882353 </v>
   <v>       0.15789474       0.48148148       0.05882353 </v>
   <v>       0.21052632       0.48148148       0.05882353 </v>
   <v>       0.26315789       0.48148148       0.05882353 </v>
   <v>       0.31578947       0.48148148       0.05882353 </v>
   <v>       0.36842105       0.48148148       0.05882353 </v>
   <v>       0.42105263       0.48148148       0.05882353 </v>
   <v>       0.47368421       0.48148148       0.05882353 </v>
   <v>       0.00000000       0.00000000       0.11764706 </v>
   <v>       0.05263158       0.00000000       0.11764706 </v>
   <v>       0.10526316       0.00000000       0.11764706 </v>
   <v>       0.15789474       0.00000000       0.11764706 </v>
   <v>       0.21052632       0.00000000       0.11764706 </v>
   <v>       0.26315789       0.00000000       0.11764706 </v>
   <v>       0.31578947       0.00000000       0.11764706 </v>
   <v>       0.36842105       0.00000000       0.11764706 </v>
   <v>       0.42105263       0.00000000       0.11764706 </v>
   <v>       0.47368421       0.00000000       0.11764706 </v>
   <v>       0.00000000       0.03703704       0.11764706 </v>
   <v>       0.05263158       0.03703704       0.11764706 </v>
   <v>       0.10526316       0.03703704       0.11764706 </v>
   <v>       0.15789474       0.03703704       0.11764706 </v>
   <v>       0.21052632       0.03703704       0.11764706 </v>
   <v>       0.26315789       0.03703704       0.11764706 </v>
   <v>       0.31578947       0.03703704       0.11764706 </v>
   <v>       0.36842105       0.03703704       0.11764706 </v>
   <v>       0.42105263       0.03703704       0.11764706 </v>
   <v>       0.47368421       0.03703704       0.11764706 </v>
   <v>       0.00000000       0.07407407       0.11764706 </v>
   <v>       0.05263158       0.07407407       0.11764706 </v>
   <v>       0.10526316       0.07407407       0.11764706 </v>
   <v>       0.15789474       0.07407407       0.11764706 </v>
   <v>       0.21052632       0.07407407       0.11764706 </v>
   <v>       0.26315789       0.07407407       0.11764706 </v>
   <v>       0.31578947       0.07407407       0.11764706 </v>
   <v>       0.36842105       0.07407407       0.11764706 </v>
   <v>       0.42105263       0.07407407       0.11764706 </v>
   <v>       0.47368421       0.07407407       0.11764706 </v>
   <v>       0.00000000       0.11111111       0.11764706 </v>
   <v>       0.05263158       0.11111111       0.11764706 </v>
   <v>       0.10526316       0.11111111       0.11764706 </v>
   <v>       0.15789474       0.11111111       0.11764706 </v>
   <v>       0.21052632       0.11111111       0.11764706 </v>
   <v>       0.26315789       0.11111111       0.11764706 </v>
   <v>       0.31578947       0.11111111       0.11764706 </v>
   <v>       0.36842105       0.11111111       0.11764706 </v>
   <v>       0.42105263       0.11111111       0.11764706 </v>
   <v>       0.47368421       0.11111111       0.11764706 </v>
   <v>       0.00000000       0.14814815       0.11764706 </v>
   <v>       0.05263158       0.14814815       0.11764706 </v>
   <v>       0.10526316       0.14814815       0.11764706 </v>
   <v>       0.15789474       0.14814815       0.11764706 </v>
   <v>       0.21052632       0.14814815       0.11764706 </v>
   <v>       0.26315789       0.14814815       0.11764706 </v>
   <v>       0.31578947       0.14814815       0.11764706 </v>
   <v>       0.36842105       0.14814815       0.11764706 </v>
   <v>       0.42105263       0.14814815       0.11764706 </v>
   <v>       0.47368421       0.14814815       0.11764706 </v>
   <v>       0.00000000       0.18518519       0.11764706 </v>
   <v>       0.05263158       0.18518519       0.11764706 </v>
   <v>       0.10526316       0.18518519       0.11764706 </v>
   <v>       0.15789474       0.18518519       0.11764706 </v>
   <v>       0.21052632       0.18518519       0.11764706 </v>
   <v>       0.26315789       0.18518519       0.11764706 </v>
   <v>       0.31578947       0.18518519       0.11764706 </v>
   <v>       0.36842105       0.18518519       0.11764706 </v>
   <v>       0.42105263       0.18518519       0.11764706 </v>
   <v>       0.47368421       0.18518519       0.11764706 </v>
   <v>       0.00000000       0.22222222       0.11764706 </v>
   <v>       0.05263158       0.22222222       0.11764706 </v>
   <v>       0.10526316       0.22222222       0.11764706 </v>
   <v>       0.15789474       0.22222222       0.11764706 </v>
   <v>       0.21052632       0.22222222       0.11764706 </v>
   <v>       0.26315789       0.22222222       0.11764706 </v>
   <v>       0.31578947       0.22222222       0.11764706 </v>
   <v>       0.36842105       0.22222222       0.11764706 </v>
   <v>       0.42105263       0.22222222       0.11764706 </v>
   <v>       0.47368421       0.22222222       0.11764706 </v>
   <v>       0.00000000       0.25925926       0.11764706 </v>
   <v>       0.05263158       0.25925926       0.11764706 </v>
   <v>       0.10526316       0.25925926       0.11764706 </v>
   <v>       0.15789474       0.25925926       0.11764706 </v>
   <v>       0.21052632       0.25925926       0.11764706 </v>
   <v>       0.26315789       0.25925926       0.11764706 </v>
   <v>       0.31578947       0.25925926       0.11764706 </v>
   <v>       0.36842105       0.25925926       0.11764706 </v>
   <v>       0.42105263       0.25925926       0.11764706 </v>
   <v>       0.47368421       0.25925926       0.11764706 </v>
   <v>       0.00000000       0.29629630       0.11764706 </v>
   <v>       0.05263158       0.29629630       0.11764706 </v>
   <v>       0.10526316       0.29629630       0.11764706 </v>
   <v>       0.15789474       0.29629630       0.11764706 </v>
   <v>       0.21052632       0.29629630       0.11764706 </v>
   <v>       0.26315789       0.29629630       0.11764706 </v>
   <v>       0.31578947       0.29629630       0.11764706 </v>
   <v>       0.36842105       0.29629630       0.11764706 </v>
   <v>       0.42105263       0.29629630       0.11764706 </v>
   <v>       0.47368421       0.29629630       0.11764706 </v>
   <v>       0.00000000       0.33333333       0.11764706 </v>
   <v>       0.05263158       0.33333333       0.11764706 </v>
   <v>       0.10526316       0.33333333       0.11764706 </v>
   <v>       0.15789474       0.33333333       0.11764706 </v>
   <v>       0.21052632       0.33333333       0.11764706 </v>
   <v>       0.26315789       0.33333333       0.11764706 </v>
   <v>       0.31578947       0.33333333       0.11764706 </v>
   <v>       0.36842105       0.33333333       0.11764706 </v>
   <v>       0.42105263       0.33333333       0.11764706 </v>
   <v>       0.47368421       0.33333333       0.11764706 </v>
   <v>       0.00000000       0.37037037       0.11764706 </v>
   <v>       0.05263158       0.37037037       0.11764706 </v>
   <v>       0.10526316       0.37037037       0.11764706 </v>
   <v>       0.15789474       0.37037037       0.11764706 </v>
   <v>       0.21052632       0.37037037       0.11764706 </v>
   <v>       0.26315789       0.37037037       0.11764706 </v>
   <v>       0.31578947       0.37037037       0.11764706 </v>
   <v>       0.36842105       0.37037037       0.11764706 </v>
   <v>       0.42105263       0.37037037       0.11764706 </v>
   <v>       0.47368421       0.37037037       0.11764706 </v>
   <v>       0.00000000       0.40740741       0.11764706 </v>
   <v>       0.05263158       0.40740741       0.11764706 </v>
   <v>       0.10526316       0.40740741       0.11764706 </v>
   <v>       0.15789474       0.40740741       0.11764706 </v>
   <v>       0.21052632       0.40740741       0.11764706 </v>
   <v>       0.26315789       0.40740741       0.11764706 </v>
   <v>       0.31578947       0.40740741       0.11764706 </v>
   <v>       0.36842105       0.40740741       0.11764706 </v>
   <v>       0.42105263       0.40740741       0.11764706 </v>
   <v>       0.47368421       0.40740741       0.11764706 </v>
   <v>       0.00000000       0.44444444       0.11764706 </v>
   <v>       0.05263158       0.44444444       0.11764706 </v>
   <v>       0.10526316       0.44444444       0.11764706 </v>
   <v>       0.15789474       0.44444444       0.11764706 </v>
   <v>       0.21052632       0.44444444       0.11764706 </v>
   <v>       0.26315789       0.44444444       0.11764706 </v>
   <v>       0.31578947       0.44444444       0.11764706 </v>
   <v>       0.36842105       0.44444444       0.11764706 </v>
   <v>       0.42105263       0.44444444       0.11764706 </v>
   <v>       0.47368421       0.44444444       0.11764706 </v>
   <v>       0.00000000       0.48148148       0.11764706 </v>
   <v>       0.05263158       0.48148148       0.11764706 </v>
   <v>       0.10526316       0.48148148       0.11764706 </v>
   <v>       0.15789474       0.48148148       0.11764706 </v>
   <v>       0.21052632       0.48148148       0.11764706 </v>
   <v>       0.26315789       0.48148148       0.11764706 </v>
   <v>       0.31578947       0.48148148       0.11764706 </v>
   <v>       0.36842105       0.48148148       0.11764706 </v>
   <v>       0.42105263       0.48148148       0.11764706 </v>
   <v>       0.47368421       0.48148148       0.11764706 </v>
   <v>       0.00000000       0.00000000       0.17647059 </v>
   <v>       0.05263158       0.00000000       0.17647059 </v>
   <v>       0.10526316       0.00000000       0.17647059 </v>
   <v>       0.15789474       0.00000000       0.17647059 </v>
   <v>       0.21052632       0.00000000       0.17647059 </v>
   <v>       0.26315789       0.00000000       0.17647059 </v>
   <v>       0.31578947       0.00000000       0.17647059 </v>
   <v>       0.36842105       0.00000000       0.17647059 </v>
   <v>       0.42105263       0.00000000       0.17647059 </v>
   <v>       0.47368421       0.00000000       0.17647059 </v>
   <v>       0.00000000       0.03703704       0.17647059 </v>
   <v>       0.05263158       0.03703704       0.17647059 </v>
   <v>       0.10526316       0.03703704       0.17647059 </v>
   <v>       0.15789474       0.03703704       0.17647059 </v>
   <v>       0.21052632       0.03703704       0.17647059 </v>
   <v>       0.26315789       0.03703704       0.17647059 </v>
   <v>       0.31578947       0.03703704       0.17647059 </v>
   <v>       0.36842105       0.03703704       0.17647059 </v>
   <v>       0.42105263       0.03703704       0.17647059 </v>
   <v>       0.47368421       0.03703704       0.17647059 </v>
   <v>       0.00000000       0.07407407       0.17647059 </v>
   <v>       0.05263158       0.07407407       0.17647059 </v>
   <v>       0.10526316       0.07407407       0.17647059 </v>
   <v>       0.15789474       0.07407407       0.17647059 </v>
   <v>       0.21052632       0.07407407       0.17647059 </v>
   <v>       0.26315789       0.07407407       0.17647059 </v>
   <v>       0.31578947       0.07407407       0.17647059 </v>
   <v>       0.36842105       0.07407407       0.17647059 </v>
   <v>       0.42105263       0.07407407       0.17647059 </v>
   <v>       0.47368421       0.07407407       0.17647059 </v>
   <v>       0.00000000       0.11111111       0.17647059 </v>
   <v>       0.05263158       0.11111111       0.17647059 </v>
   <v>       0.10526316       0.11111111       0.17647059 </v>
   <v>       0.15789474       0.11111111       0.17647059 </v>
   <v>       0.21052632       0.11111111       0.17647059 </v>
   <v>       0.26315789       0.11111111       0.17647059 </v>
   <v>       0.31578947       0.11111111       0.17647059 </v>
   <v>       0.36842105       0.11111111       0.17647059 </v>
   <v>       0.42105263       0.11111111       0.17647059 </v>
   <v>       0.47368421       0.11111111       0.17647059 </v>
   <v>       0.00000000       0.14814815       0.17647059 </v>
   <v>       0.05263158       0.14814815       0.17647059 </v>
   <v>       0.10526316       0.14814815       0.17647059 </v>
   <v>       0.15789474       0.14814815       0.17647059 </v>
   <v>       0.21052632       0.14814815       0.17647059 </v>
   <v>       0.26315789       0.14814815       0.17647059 </v>
   <v>       0.31578947       0.14814815       0.17647059 </v>
   <v>       0.36842105       0.14814815       0.17647059 </v>
   <v>       0.42105263       0.14814815       0.17647059 </v>
   <v>       0.47368421       0.14814815       0.17647059 </v>
   <v>       0.00000000       0.18518519       0.17647059 </v>
   <v>       0.05263158       0.18518519       0.17647059 </v>
   <v>       0.10526316       0.18518519       0.17647059 </v>
   <v>       0.15789474       0.18518519       0.17647059 </v>
   <v>       0.21052632       0.18518519       0.17647059 </v>
   <v>       0.26315789       0.18518519       0.17647059 </v>
   <v>       0.31578947       0.18518519       0.17647059 </v>
   <v>       0.36842105       0.18518519       0.17647059 </v>
   <v>       0.42105263       0.18518519       0.17647059 </v>
   <v>       0.47368421       0.18518519       0.17647059 </v>
   <v>       0.00000000       0.22222222       0.17647059 </v>
   <v>       0.05263158       0.22222222       0.17647059 </v>
   <v>       0.10526316       0.22222222       0.17647059 </v>
   <v>       0.15789474       0.22222222       0.17647059 </v>
   <v>       0.21052632       0.22222222       0.17647059 </v>
   <v>       0.26315789       0.22222222       0.17647059 </v>
   <v>       0.31578947       0.22222222       0.17647059 </v>
   <v>       0.36842105       0.22222222       0.17647059 </v>
   <v>       0.42105263       0.22222222       0.17647059 </v>
   <v>       0.47368421       0.22222222       0.17647059 </v>
   <v>       0.00000000       0.25925926       0.17647059 </v>
   <v>       0.05263158       0.25925926       0.17647059 </v>
   <v>       0.10526316       0.25925926       0.17647059 </v>
   <v>       0.15789474       0.25925926       0.17647059 </v>
   <v>       0.21052632       0.25925926       0.17647059 </v>
   <v>       0.26315789       0.25925926       0.17647059 </v>
   <v>       0.31578947       0.25925926       0.17647059 </v>
   <v>       0.36842105       0.25925926       0.17647059 </v>
   <v>       0.42105263       0.25925926       0.17647059 </v>
   <v>       0.47368421       0.25925926       0.17647059 </v>
   <v>       0.00000000       0.29629630       0.17647059 </v>
   <v>       0.05263158       0.29629630       0.17647059 </v>
   <v>       0.10526316       0.29629630       0.17647059 </v>
   <v>       0.15789474       0.29629630       0.17647059 </v>
   <v>       0.21052632       0.29629630       0.17647059 </v>
   <v>       0.26315789       0.29629630       0.17647059 </v>
   <v>       0.31578947       0.29629630       0.17647059 </v>
   <v>       0.36842105       0.29629630       0.17647059 </v>
   <v>       0.42105263       0.29629630       0.17647059 </v>
   <v>       0.47368421       0.29629630       0.17647059 </v>
   <v>       0.00000000       0.33333333       0.17647059 </v>
   <v>       0.05263158       0.33333333       0.17647059 </v>
   <v>       0.10526316       0.33333333       0.17647059 </v>
   <v>       0.15789474       0.33333333       0.17647059 </v>
   <v>       0.21052632       0.33333333       0.17647059 </v>
   <v>       0.26315789       0.33333333       0.17647059 </v>
   <v>       0.31578947       0.33333333       0.17647059 </v>
   <v>       0.36842105       0.33333333       0.17647059 </v>
   <v>       0.42105263       0.33333333       0.17647059 </v>
   <v>       0.47368421       0.33333333       0.17647059 </v>
   <v>       0.00000000       0.37037037       0.17647059 </v>
   <v>       0.05263158       0.37037037       0.17647059 </v>
   <v>       0.10526316       0.37037037       0.17647059 </v>
   <v>       0.15789474       0.37037037       0.17647059 </v>
   <v>       0.21052632       0.37037037       0.17647059 </v>
   <v>       0.26315789       0.37037037       0.17647059 </v>
   <v>       0.31578947       0.37037037       0.17647059 </v>
   <v>       0.36842105       0.37037037       0.17647059 </v>
   <v>       0.42105263       0.37037037       0.17647059 </v>
   <v>       0.47368421       0.37037037       0.17647059 </v>
   <v>       0.00000000       0.40740741       0.17647059 </v>
   <v>       0.05263158       0.40740741       0.17647059 </v>
   <v>       0.10526316       0.40740741       0.17647059 </v>
   <v>       0.15789474       0.40740741       0.17647059 </v>
   <v>       0.21052632       0.40740741       0.17647059 </v>
   <v>       0.26315789       0.40740741       0.17647059 </v>
   <v>       0.31578947       0.40740741       0.17647059 </v>
   <v>       0.36842105       0.40740741       0.17647059 </v>
   <v>       0.42105263       0.40740741       0.17647059 </v>
   <v>       0.47368421       0.40740741       0.17647059 </v>
   <v>       0.00000000       0.44444444       0.17647059 </v>
   <v>       0.05263158       0.44444444       0.17647059 </v>
   <v>       0.10526316       0.44444444       0.17647059 </v>
   <v>       0.15789474       0.44444444       0.17647059 </v>
   <v>       0.21052632       0.44444444       0.17647059 </v>
   <v>       0.26315789       0.44444444       0.17647059 </v>
   <v>       0.31578947       0.44444444       0.17647059 </v>
   <v>       0.36842105       0.44444444       0.17647059 </v>
   <v>       0.42105263       0.44444444       0.17647059 </v>
   <v>       0.47368421       0.44444444       0.17647059 </v>
   <v>       0.00000000       0.48148148       0.17647059 </v>
   <v>       0.05263158       0.48148148       0.17647059 </v>
   <v>       0.10526316       0.48148148       0.17647059 </v>
   <v>       0.15789474       0.48148148       0.17647059 </v>
   <v>       0.21052632       0.48148148       0.17647059 </v>
   <v>       0.26315789       0.48148148       0.17647059 </v>
   <v>       0.31578947       0.48148148       0.17647059 </v>
   <v>       0.36842105       0.48148148       0.17647059 </v>
   <v>       0.42105263       0.48148148       0.17647059 </v>
   <v>       0.47368421       0.48148148       0.17647059 </v>
   <v>       0.00000000       0.00000000       0.23529412 </v>
   <v>       0.05263158       0.00000000       0.23529412 </v>
   <v>       0.10526316       0.00000000       0.23529412 </v>
   <v>       0.15789474       0.00000000       0.23529412 </v>
   <v>       0.21052632       0.00000000       0.23529412 </v>
   <v>       0.26315789       0.00000000       0.23529412 </v>
   <v>       0.31578947       0.00000000       0.23529412 </v>
   <v>       0.36842105       0.00000000       0.23529412 </v>
   <v>       0.42105263       0.00000000       0.23529412 </v>
   <v>       0.47368421       0.00000000       0.23529412 </v>
   <v>       0.00000000       0.03703704       0.23529412 </v>
   <v>       0.05263158       0.03703704       0.23529412 </v>
   <v>       0.10526316       0.03703704       0.23529412 </v>
   <v>       0.15789474       0.03703704       0.23529412 </v>
   <v>       0.21052632       0.03703704       0.23529412 </v>
   <v>       0.26315789       0.03703704       0.23529412 </v>
   <v>       0.31578947       0.03703704       0.23529412 </v>
   <v>       0.36842105       0.03703704       0.23529412 </v>
   <v>       0.42105263       0.03703704       0.23529412 </v>
   <v>       0.47368421       0.03703704       0.23529412 </v>
   <v>       0.00000000       0.07407407       0.23529412 </v>
   <v>       0.05263158       0.07407407       0.23529412 </v>
   <v>       0.10526316       0.07407407       0.23529412 </v>
   <v>       0.15789474       0.07407407       0.23529412 </v>
   <v>       0.21052632       0.07407407       0.23529412 </v>
   <v>       0.26315789       0.07407407       0.23529412 </v>
   <v>       0.31578947       0.07407407       0.23529412 </v>
   <v>       0.36842105       0.07407407       0.23529412 </v>
   <v>       0.42105263       0.07407407       0.23529412 </v>
   <v>       0.47368421       0.07407407       0.23529412 </v>
   <v>       0.00000000       0.11111111       0.23529412 </v>
   <v>       0.05263158       0.11111111       0.23529412 </v>
   <v>       0.10526316       0.11111111       0.23529412 </v>
   <v>       0.15789474       0.11111111       0.23529412 </v>
   <v>       0.21052632       0.11111111       0.23529412 </v>
   <v>       0.26315789       0.11111111       0.23529412 </v>
   <v>       0.31578947       0.11111111       0.23529412 </v>
   <v>       0.36842105       0.11111111       0.23529412 </v>
   <v>       0.42105263       0.11111111       0.23529412 </v>
   <v>       0.47368421       0.11111111       0.23529412 </v>
   <v>       0.00000000       0.14814815       0.23529412 </v>
   <v>       0.05263158       0.14814815       0.23529412 </v>
   <v>       0.10526316       0.14814815       0.23529412 </v>
   <v>       0.15789474       0.14814815       0.23529412 </v>
   <v>       0.21052632       0.14814815       0.23529412 </v>
   <v>       0.26315789       0.14814815       0.23529412 </v>
   <v>       0.31578947       0.14814815       0.23529412 </v>
   <v>       0.36842105       0.14814815       0.23529412 </v>
   <v>       0.42105263       0.14814815       0.23529412 </v>
   <v>       0.47368421       0.14814815       0.23529412 </v>
   <v>       0.00000000       0.18518519       0.23529412 </v>
   <v>       0.05263158       0.18518519       0.23529412 </v>
   <v>       0.10526316       0.18518519       0.23529412 </v>
   <v>       0.15789474       0.18518519       0.23529412 </v>
   <v>       0.21052632       0.18518519       0.23529412 </v>
   <v>       0.26315789       0.18518519       0.23529412 </v>
   <v>       0.31578947       0.18518519       0.23529412 </v>
   <v>       0.36842105       0.18518519       0.23529412 </v>
   <v>       0.42105263       0.18518519       0.23529412 </v>
   <v>       0.47368421       0.18518519       0.23529412 </v>
   <v>       0.00000000       0.22222222       0.23529412 </v>
   <v>       0.05263158       0.22222222       0.23529412 </v>
   <v>       0.10526316       0.22222222       0.23529412 </v>
   <v>       0.15789474       0.22222222       0.23529412 </v>
   <v>       0.21052632       0.22222222       0.23529412 </v>
   <v>       0.26315789       0.22222222       0.23529412 </v>
   <v>       0.31578947       0.22222222       0.23529412 </v>
   <v>       0.36842105       0.22222222       0.23529412 </v>
   <v>       0.42105263       0.22222222       0.23529412 </v>
   <v>       0.47368421       0.22222222       0.23529412 </v>
   <v>       0.00000000       0.25925926       0.23529412 </v>
   <v>       0.05263158       0.25925926       0.23529412 </v>
   <v>       0.10526316       0.25925926       0.23529412 </v>
   <v>       0.15789474       0.25925926       0.23529412 </v>
   <v>       0.21052632       0.25925926       0.23529412 </v>
   <v>       0.26315789       0.25925926       0.23529412 </v>
   <v>       0.31578947       0.25925926       0.23529412 </v>
   <v>       0.36842105       0.25925926       0.23529412 </v>
   <v>       0.42105263       0.25925926       0.23529412 </v>
   <v>       0.47368421       0.25925926       0.23529412 </v>
   <v>       0.00000000       0.29629630       0.23529412 </v>
   <v>       0.05263158       0.29629630       0.23529412 </v>
   <v>       0.10526316       0.29629630       0.23529412 </v>
   <v>       0.15789474       0.29629630       0.23529412 </v>
   <v>       0.21052632       0.29629630       0.23529412 </v>
   <v>       0.26315789       0.29629630       0.23529412 </v>
   <v>       0.31578947       0.29629630       0.23529412 </v>
   <v>       0.36842105       0.29629630       0.23529412 </v>
   <v>       0.42105263       0.29629630       0.23529412 </v>
   <v>       0.47368421       0.29629630       0.23529412 </v>
   <v>       0.00000000       0.33333333       0.23529412 </v>
   <v>       0.05263158       0.33333333       0.23529412 </v>
   <v>       0.10526316       0.33333333       0.23529412 </v>
   <v>       0.15789474       0.33333333       0.23529412 </v>
   <v>       0.21052632       0.33333333       0.23529412 </v>
   <v>       0.26315789       0.33333333       0.23529412 </v>
   <v>       0.31578947       0.33333333       0.23529412 </v>
   <v>       0.36842105       0.33333333       0.23529412 </v>
   <v>       0.42105263       0.33333333       0.23529412 </v>
   <v>       0.47368421       0.33333333       0.23529412 </v>
   <v>       0.00000000       0.37037037       0.23529412 </v>
   <v>       0.05263158       0.37037037       0.23529412 </v>
   <v>       0.10526316       0.37037037       0.23529412 </v>
   <v>       0.15789474       0.37037037       0.23529412 </v>
   <v>       0.21052632       0.37037037       0.23529412 </v>
   <v>       0.26315789       0.37037037       0.23529412 </v>
   <v>       0.31578947       0.37037037       0.23529412 </v>
   <v>       0.36842105       0.37037037       0.23529412 </v>
   <v>       0.42105263       0.37037037       0.23529412 </v>
   <v>       0.47368421       0.37037037       0.23529412 </v>
   <v>       0.00000000       0.40740741       0.23529412 </v>
   <v>       0.05263158       0.40740741       0.23529412 </v>
   <v>       0.10526316       0.40740741       0.23529412 </v>
   <v>       0.15789474       0.40740741       0.23529412 </v>
   <v>       0.21052632       0.40740741       0.23529412 </v>
   <v>       0.26315789       0.40740741       0.23529412 </v>
   <v>       0.31578947       0.40740741       0.23529412 </v>
   <v>       0.36842105       0.40740741       0.23529412 </v>
   <v>       0.42105263       0.40740741       0.23529412 </v>
   <v>       0.47368421       0.40740741       0.23529412 </v>
   <v>       0.00000000       0.44444444       0.23529412 </v>
   <v>       0.05263158       0.44444444       0.23529412 </v>
   <v>       0.10526316       0.44444444       0.23529412 </v>
   <v>       0.15789474       0.44444444       0.23529412 </v>
   <v>       0.21052632       0.44444444       0.23529412 </v>
   <v>       0.26315789       0.44444444       0.23529412 </v>
   <v>       0.31578947       0.44444444       0.23529412 </v>
   <v>       0.36842105       0.44444444       0.23529412 </v>
   <v>       0.42105263       0.44444444       0.23529412 </v>
   <v>       0.47368421       0.44444444       0.23529412 </v>
   <v>       0.00000000       0.48148148       0.23529412 </v>
   <v>       0.05263158       0.48148148       0.23529412 </v>
   <v>       0.10526316       0.48148148       0.23529412 </v>
   <v>       0.15789474       0.48148148       0.23529412 </v>
   <v>       0.21052632       0.48148148       0.23529412 </v>
   <v>       0.26315789       0.48148148       0.23529412 </v>
   <v>       0.31578947       0.48148148       0.23529412 </v>
   <v>       0.36842105       0.48148148       0.23529412 </v>
   <v>       0.42105263       0.48148148       0.23529412 </v>
   <v>       0.47368421       0.48148148       0.23529412 </v>
   <v>       0.00000000       0.00000000       0.29411765 </v>
   <v>       0.05263158       0.00000000       0.29411765 </v>
   <v>       0.10526316       0.00000000       0.29411765 </v>
   <v>       0.15789474       0.00000000       0.29411765 </v>
   <v>       0.21052632       0.00000000       0.29411765 </v>
   <v>       0.26315789       0.00000000       0.29411765 </v>
   <v>       0.31578947       0.00000000       0.29411765 </v>
   <v>       0.36842105       0.00000000       0.29411765 </v>
   <v>       0.42105263       0.00000000       0.29411765 </v>
   <v>       0.47368421       0.00000000       0.29411765 </v>
   <v>       0.00000000       0.03703704       0.29411765 </v>
   <v>       0.05263158       0.03703704       0.29411765 </v>
   <v>       0.10526316       0.03703704       0.29411765 </v>
   <v>       0.15789474       0.03703704       0.29411765 </v>
   <v>       0.21052632       0.03703704       0.29411765 </v>
   <v>       0.26315789       0.03703704       0.29411765 </v>
   <v>       0.31578947       0.03703704       0.29411765 </v>
   <v>       0.36842105       0.03703704       0.29411765 </v>
   <v>       0.42105263       0.03703704       0.29411765 </v>
   <v>       0.47368421       0.03703704       0.29411765 </v>
   <v>       0.00000000       0.07407407       0.29411765 </v>
   <v>       0.05263158       0.07407407       0.29411765 </v>
   <v>       0.10526316       0.07407407       0.29411765 </v>
   <v>       0.15789474       0.07407407       0.29411765 </v>
   <v>       0.21052632       0.07407407       0.29411765 </v>
   <v>       0.26315789       0.07407407       0.29411765 </v>
   <v>       0.31578947       0.07407407       0.29411765 </v>
   <v>       0.36842105       0.07407407       0.29411765 </v>
   <v>       0.42105263       0.07407407       0.29411765 </v>
   <v>       0.47368421       0.07407407       0.29411765 </v>
   <v>       0.00000000       0.11111111       0.29411765 </v>
   <v>       0.05263158       0.11111111       0.29411765 </v>
   <v>       0.10526316       0.11111111       0.29411765 </v>
   <v>       0.15789474       0.11111111       0.29411765 </v>
   <v>       0.21052632       0.11111111       0.29411765 </v>
   <v>       0.26315789       0.11111111       0.29411765 </v>
   <v>       0.31578947       0.11111111       0.29411765 </v>
   <v>       0.36842105       0.11111111       0.29411765 </v>
   <v>       0.42105263       0.11111111       0.29411765 </v>
   <v>       0.47368421       0.11111111       0.29411765 </v>
   <v>       0.00000000       0.14814815       0.29411765 </v>
   <v>       0.05263158       0.14814815       0.29411765 </v>
   <v>       0.10526316       0.14814815       0.29411765 </v>
   <v>       0.15789474       0.14814815       0.29411765 </v>
   <v>       0.21052632       0.14814815       0.29411765 </v>
   <v>       0.26315789       0.14814815       0.29411765 </v>
   <v>       0.31578947       0.14814815       0.29411765 </v>
   <v>       0.36842105       0.14814815       0.29411765 </v>
   <v>       0.42105263       0.14814815       0.29411765 </v>
   <v>       0.47368421       0.14814815       0.29411765 </v>
   <v>       0.00000000       0.18518519       0.29411765 </v>
   <v>       0.05263158       0.18518519       0.29411765 </v>
   <v>       0.10526316       0.18518519       0.29411765 </v>
   <v>       0.15789474       0.18518519       0.29411765 </v>
   <v>       0.21052632       0.18518519       0.29411765 </v>
   <v>       0.26315789       0.18518519       0.29411765 </v>
   <v>       0.31578947       0.18518519       0.29411765 </v>
   <v>       0.36842105       0.18518519       0.29411765 </v>
   <v>       0.42105263       0.18518519       0.29411765 </v>
   <v>       0.47368421       0.18518519       0.29411765 </v>
   <v>       0.00000000       0.22222222       0.29411765 </v>
   <v>       0.05263158       0.22222222       0.29411765 </v>
   <v>       0.10526316       0.22222222       0.29411765 </v>
   <v>       0.15789474       0.22222222       0.29411765 </v>
   <v>       0.21052632       0.22222222       0.29411765 </v>
   <v>       0.26315789       0.22222222       0.29411765 </v>
   <v>       0.31578947       0.22222222       0.29411765 </v>
   <v>       0.36842105       0.22222222       0.29411765 </v>
   <v>       0.42105263       0.22222222       0.29411765 </v>
   <v>       0.47368421       0.22222222       0.29411765 </v>
   <v>       0.00000000       0.25925926       0.29411765 </v>
   <v>       0.05263158       0.25925926       0.29411765 </v>
   <v>       0.10526316       0.25925926       0.29411765 </v>
   <v>       0.15789474       0.25925926       0.29411765 </v>
   <v>       0.21052632       0.25925926       0.29411765 </v>
   <v>       0.26315789       0.25925926       0.29411765 </v>
   <v>       0.31578947       0.25925926       0.29411765 </v>
   <v>       0.36842105       0.25925926       0.29411765 </v>
   <v>       0.42105263       0.25925926       0.29411765 </v>
   <v>       0.47368421       0.25925926       0.29411765 </v>
   <v>       0.00000000       0.29629630       0.29411765 </v>
   <v>       0.05263158       0.29629630       0.29411765 </v>
   <v>       0.10526316       0.29629630       0.29411765 </v>
   <v>       0.15789474       0.29629630       0.29411765 </v>
   <v>       0.21052632       0.29629630       0.29411765 </v>
   <v>       0.26315789       0.29629630       0.29411765 </v>
   <v>       0.31578947       0.29629630       0.29411765 </v>
   <v>       0.36842105       0.29629630       0.29411765 </v>
   <v>       0.42105263       0.29629630       0.29411765 </v>
   <v>       0.47368421       0.29629630       0.29411765 </v>
   <v>       0.00000000       0.33333333       0.29411765 </v>
   <v>       0.05263158       0.33333333       0.29411765 </v>
   <v>       0.10526316       0.33333333       0.29411765 </v>
   <v>       0.15789474       0.33333333       0.29411765 </v>
   <v>       0.21052632       0.33333333       0.29411765 </v>
   <v>       0.26315789       0.33333333       0.29411765 </v>
   <v>       0.31578947       0.33333333       0.29411765 </v>
   <v>       0.36842105       0.33333333       0.29411765 </v>
   <v>       0.42105263       0.33333333       0.29411765 </v>
   <v>       0.47368421       0.33333333       0.29411765 </v>
   <v>       0.00000000       0.37037037       0.29411765 </v>
   <v>       0.05263158       0.37037037       0.29411765 </v>
   <v>       0.10526316       0.37037037       0.29411765 </v>
   <v>       0.15789474       0.37037037       0.29411765 </v>
   <v>       0.21052632       0.37037037       0.29411765 </v>
   <v>       0.26315789       0.37037037       0.29411765 </v>
   <v>       0.31578947       0.37037037       0.29411765 </v>
   <v>       0.36842105       0.37037037       0.29411765 </v>
   <v>       0.42105263       0.37037037       0.29411765 </v>
   <v>       0.47368421       0.37037037       0.29411765 </v>
   <v>       0.00000000       0.40740741       0.29411765 </v>
   <v>       0.05263158       0.40740741       0.29411765 </v>
   <v>       0.10526316       0.40740741       0.29411765 </v>
   <v>       0.15789474       0.40740741       0.29411765 </v>
   <v>       0.21052632       0.40740741       0.29411765 </v>
   <v>       0.26315789       0.40740741       0.29411765 </v>
   <v>       0.31578947       0.40740741       0.29411765 </v>
   <v>       0.36842105       0.40740741       0.29411765 </v>
   <v>       0.42105263       0.40740741       0.29411765 </v>
   <v>       0.47368421       0.40740741       0.29411765 </v>
   <v>       0.00000000       0.44444444       0.29411765 </v>
   <v>       0.05263158       0.44444444       0.29411765 </v>
   <v>       0.10526316       0.44444444       0.29411765 </v>
   <v>       0.15789474       0.44444444       0.29411765 </v>
   <v>       0.21052632       0.44444444       0.29411765 </v>
   <v>       0.26315789       0.44444444       0.29411765 </v>
   <v>       0.31578947       0.44444444       0.29411765 </v>
   <v>       0.36842105       0.44444444       0.29411765 </v>
   <v>       0.42105263       0.44444444       0.29411765 </v>
   <v>       0.47368421       0.44444444       0.29411765 </v>
   <v>       0.00000000       0.48148148       0.29411765 </v>
   <v>       0.05263158       0.48148148       0.29411765 </v>
   <v>       0.10526316       0.48148148       0.29411765 </v>
   <v>       0.15789474       0.48148148       0.29411765 </v>
   <v>       0.21052632       0.48148148       0.29411765 </v>
   <v>       0.26315789       0.48148148       0.29411765 </v>
   <v>       0.31578947       0.48148148       0.29411765 </v>
   <v>       0.36842105       0.48148148       0.29411765 </v>
   <v>       0.42105263       0.48148148       0.29411765 </v>
   <v>       0.47368421       0.48148148       0.29411765 </v>
   <v>       0.00000000       0.00000000       0.35294118 </v>
   <v>       0.05263158       0.00000000       0.35294118 </v>
   <v>       0.10526316       0.00000000       0.35294118 </v>
   <v>       0.15789474       0.00000000       0.35294118 </v>
   <v>       0.21052632       0.00000000       0.35294118 </v>
   <v>       0.26315789       0.00000000       0.35294118 </v>
   <v>       0.31578947       0.00000000       0.35294118 </v>
   <v>       0.36842105       0.00000000       0.35294118 </v>
   <v>       0.42105263       0.00000000       0.35294118 </v>
   <v>       0.47368421       0.00000000       0.35294118 </v>
   <v>       0.00000000       0.03703704       0.35294118 </v>
   <v>       0.05263158       0.03703704       0.35294118 </v>
   <v>       0.10526316       0.03703704       0.35294118 </v>
   <v>       0.15789474       0.03703704       0.35294118 </v>
   <v>       0.21052632       0.03703704       0.35294118 </v>
   <v>       0.26315789       0.03703704       0.35294118 </v>
   <v>       0.31578947       0.03703704       0.35294118 </v>
   <v>       0.36842105       0.03703704       0.35294118 </v>
   <v>       0.42105263       0.03703704       0.35294118 </v>
   <v>       0.47368421       0.03703704       0.35294118 </v>
   <v>       0.00000000       0.07407407       0.35294118 </v>
   <v>       0.05263158       0.07407407       0.35294118 </v>
   <v>       0.10526316       0.07407407       0.35294118 </v>
   <v>       0.15789474       0.07407407       0.35294118 </v>
   <v>       0.21052632       0.07407407       0.35294118 </v>
   <v>       0.26315789       0.07407407       0.35294118 </v>
   <v>       0.31578947       0.07407407       0.35294118 </v>
   <v>       0.36842105       0.07407407       0.35294118 </v>
   <v>       0.42105263       0.07407407       0.35294118 </v>
   <v>       0.47368421       0.07407407       0.35294118 </v>
   <v>       0.00000000       0.11111111       0.35294118 </v>
   <v>       0.05263158       0.11111111       0.35294118 </v>
   <v>       0.10526316       0.11111111       0.35294118 </v>
   <v>       0.15789474       0.11111111       0.35294118 </v>
   <v>       0.21052632       0.11111111       0.35294118 </v>
   <v>       0.26315789       0.11111111       0.35294118 </v>
   <v>       0.31578947       0.11111111       0.35294118 </v>
   <v>       0.36842105       0.11111111       0.35294118 </v>
   <v>       0.42105263       0.11111111       0.35294118 </v>
   <v>       0.47368421       0.11111111       0.35294118 </v>
   <v>       0.00000000       0.14814815       0.35294118 </v>
   <v>       0.05263158       0.14814815       0.35294118 </v>
   <v>       0.10526316       0.14814815       0.35294118 </v>
   <v>       0.15789474       0.14814815       0.35294118 </v>
   <v>       0.21052632       0.14814815       0.35294118 </v>
   <v>       0.26315789       0.14814815       0.35294118 </v>
   <v>       0.31578947       0.14814815       0.35294118 </v>
   <v>       0.36842105       0.14814815       0.35294118 </v>
   <v>       0.42105263       0.14814815       0.35294118 </v>
   <v>       0.47368421       0.14814815       0.35294118 </v>
   <v>       0.00000000       0.18518519       0.35294118 </v>
   <v>       0.05263158       0.18518519       0.35294118 </v>
   <v>       0.10526316       0.18518519       0.35294118 </v>
   <v>       0.15789474       0.18518519       0.35294118 </v>
   <v>       0.21052632       0.18518519       0.35294118 </v>
   <v>       0.26315789       0.18518519       0.35294118 </v>
   <v>       0.31578947       0.18518519       0.35294118 </v>
   <v>       0.36842105       0.18518519       0.35294118 </v>
   <v>       0.42105263       0.18518519       0.35294118 </v>
   <v>       0.47368421       0.18518519       0.35294118 </v>
   <v>       0.00000000       0.22222222       0.35294118 </v>
   <v>       0.05263158       0.22222222       0.35294118 </v>
   <v>       0.10526316       0.22222222       0.35294118 </v>
   <v>       0.15789474       0.22222222       0.35294118 </v>
   <v>       0.21052632       0.22222222       0.35294118 </v>
   <v>       0.26315789       0.22222222       0.35294118 </v>
   <v>       0.31578947       0.22222222       0.35294118 </v>
   <v>       0.36842105       0.22222222       0.35294118 </v>
   <v>       0.42105263       0.22222222       0.35294118 </v>
   <v>       0.47368421       0.22222222       0.35294118 </v>
   <v>       0.00000000       0.25925926       0.35294118 </v>
   <v>       0.05263158       0.25925926       0.35294118 </v>
   <v>       0.10526316       0.25925926       0.35294118 </v>
   <v>       0.15789474       0.25925926       0.35294118 </v>
   <v>       0.21052632       0.25925926       0.35294118 </v>
   <v>       0.26315789       0.25925926       0.35294118 </v>
   <v>       0.31578947       0.25925926       0.35294118 </v>
   <v>       0.36842105       0.25925926       0.35294118 </v>
   <v>       0.42105263       0.25925926       0.35294118 </v>
   <v>       0.47368421       0.25925926       0.35294118 </v>
   <v>       0.00000000       0.29629630       0.35294118 </v>
   <v>       0.05263158       0.29629630       0.35294118 </v>
   <v>       0.10526316       0.29629630       0.35294118 </v>
   <v>       0.15789474       0.29629630       0.35294118 </v>
   <v>       0.21052632       0.29629630       0.35294118 </v>
   <v>       0.26315789       0.29629630       0.35294118 </v>
   <v>       0.31578947       0.29629630       0.35294118 </v>
   <v>       0.36842105       0.29629630       0.35294118 </v>
   <v>       0.42105263       0.29629630       0.35294118 </v>
   <v>       0.47368421       0.29629630       0.35294118 </v>
   <v>       0.00000000       0.33333333       0.35294118 </v>
   <v>       0.05263158       0.33333333       0.35294118 </v>
   <v>       0.10526316       0.33333333       0.35294118 </v>
   <v>       0.15789474       0.33333333       0.35294118 </v>
   <v>       0.21052632       0.33333333       0.35294118 </v>
   <v>       0.26315789       0.33333333       0.35294118 </v>
   <v>       0.31578947       0.33333333       0.35294118 </v>
   <v>       0.36842105       0.33333333       0.35294118 </v>
   <v>       0.42105263       0.33333333       0.35294118 </v>
   <v>       0.47368421       0.33333333       0.35294118 </v>
   <v>       0.00000000       0.37037037       0.35294118 </v>
   <v>       0.05263158       0.37037037       0.35294118 </v>
   <v>       0.10526316       0.37037037       0.35294118 </v>
   <v>       0.15789474       0.37037037       0.35294118 </v>
   <v>       0.21052632       0.37037037       0.35294118 </v>
   <v>       0.26315789       0.37037037       0.35294118 </v>
   <v>       0.31578947       0.37037037       0.35294118 </v>
   <v>       0.36842105       0.37037037       0.35294118 </v>
   <v>       0.42105263       0.37037037       0.35294118 </v>
   <v>       0.47368421       0.37037037       0.35294118 </v>
   <v>       0.00000000       0.40740741       0.35294118 </v>
   <v>       0.05263158       0.40740741       0.35294118 </v>
   <v>       0.10526316       0.40740741       0.35294118 </v>
   <v>       0.15789474       0.40740741       0.35294118 </v>
   <v>       0.21052632       0.40740741       0.35294118 </v>
   <v>       0.26315789       0.40740741       0.35294118 </v>
   <v>       0.31578947       0.40740741       0.35294118 </v>
   <v>       0.36842105       0.40740741       0.35294118 </v>
   <v>       0.42105263       0.40740741       0.35294118 </v>
   <v>       0.47368421       0.40740741       0.35294118 </v>
   <v>       0.00000000       0.44444444       0.35294118 </v>
   <v>       0.05263158       0.44444444       0.35294118 </v>
   <v>       0.10526316       0.44444444       0.35294118 </v>
   <v>       0.15789474       0.44444444       0.35294118 </v>
   <v>       0.21052632       0.44444444       0.35294118 </v>
   <v>       0.26315789       0.44444444       0.35294118 </v>
   <v>       0.31578947       0.44444444       0.35294118 </v>
   <v>       0.36842105       0.44444444       0.35294118 </v>
   <v>       0.42105263       0.44444444       0.35294118 </v>
   <v>       0.47368421       0.44444444       0.35294118 </v>
   <v>       0.00000000       0.48148148       0.35294118 </v>
   <v>       0.05263158       0.48148148       0.35294118 </v>
   <v>       0.10526316       0.48148148       0.35294118 </v>
   <v>       0.15789474       0.48148148       0.35294118 </v>
   <v>       0.21052632       0.48148148       0.35294118 </v>
   <v>       0.26315789       0.48148148       0.35294118 </v>
   <v>       0.31578947       0.48148148       0.35294118 </v>
   <v>       0.36842105       0.48148148       0.35294118 </v>
   <v>       0.42105263       0.48148148       0.35294118 </v>
   <v>       0.47368421       0.48148148       0.35294118 </v>
   <v>       0.00000000       0.00000000       0.41176471 </v>
   <v>       0.05263158       0.00000000       0.41176471 </v>
   <v>       0.10526316       0.00000000       0.41176471 </v>
   <v>       0.15789474       0.00000000       0.41176471 </v>
   <v>       0.21052632       0.00000000       0.41176471 </v>
   <v>       0.26315789       0.00000000       0.41176471 </v>
   <v>       0.31578947       0.00000000       0.41176471 </v>
   <v>       0.36842105       0.00000000       0.41176471 </v>
   <v>       0.42105263       0.00000000       0.41176471 </v>
   <v>       0.47368421       0.00000000       0.41176471 </v>
   <v>       0.00000000       0.03703704       0.41176471 </v>
   <v>       0.05263158       0.03703704       0.41176471 </v>
   <v>       0.10526316       0.03703704       0.41176471 </v>
   <v>       0.15789474       0.03703704       0.41176471 </v>
   <v>       0.21052632       0.03703704       0.41176471 </v>
   <v>       0.26315789       0.03703704       0.41176471 </v>
   <v>       0.31578947       0.03703704       0.41176471 </v>
   <v>       0.36842105       0.03703704       0.41176471 </v>
   <v>       0.42105263       0.03703704       0.41176471 </v>
   <v>       0.47368421       0.03703704       0.41176471 </v>
   <v>       0.00000000       0.07407407       0.41176471 </v>
   <v>       0.05263158       0.07407407       0.41176471 </v>
   <v>       0.10526316       0.07407407       0.41176471 </v>
   <v>       0.15789474       0.07407407       0.41176471 </v>
   <v>       0.21052632       0.07407407       0.41176471 </v>
   <v>       0.26315789       0.07407407       0.41176471 </v>
   <v>       0.31578947       0.07407407       0.41176471 </v>
   <v>       0.36842105       0.07407407       0.41176471 </v>
   <v>       0.42105263       0.07407407       0.41176471 </v>
   <v>       0.47368421       0.07407407       0.41176471 </v>
   <v>       0.00000000       0.11111111       0.41176471 </v>
   <v>       0.05263158       0.11111111       0.41176471 </v>
   <v>       0.10526316       0.11111111       0.41176471 </v>
   <v>       0.15789474       0.11111111       0.41176471 </v>
   <v>       0.21052632       0.11111111       0.41176471 </v>
   <v>       0.26315789       0.11111111       0.41176471 </v>
   <v>       0.31578947       0.11111111       0.41176471 </v>
   <v>       0.36842105       0.11111111       0.41176471 </v>
   <v>       0.42105263       0.11111111       0.41176471 </v>
   <v>       0.47368421       0.11111111       0.41176471 </v>
   <v>       0.00000000       0.14814815       0.41176471 </v>
   <v>       0.05263158       0.14814815       0.41176471 </v>
   <v>       0.10526316       0.14814815       0.41176471 </v>
   <v>       0.15789474       0.14814815       0.41176471 </v>
   <v>       0.21052632       0.14814815       0.41176471 </v>
   <v>       0.26315789       0.14814815       0.41176471 </v>
   <v>       0.31578947       0.14814815       0.41176471 </v>
   <v>       0.36842105       0.14814815       0.41176471 </v>
   <v>       0.42105263       0.14814815       0.41176471 </v>
   <v>       0.47368421       0.14814815       0.41176471 </v>
   <v>       0.00000000       0.18518519       0.41176471 </v>
   <v>       0.05263158       0.18518519       0.41176471 </v>
   <v>       0.10526316       0.18518519       0.41176471 </v>
   <v>       0.15789474       0.18518519       0.41176471 </v>
   <v>       0.21052632       0.18518519       0.41176471 </v>
   <v>       0.26315789       0.18518519       0.41176471 </v>
   <v>       0.31578947       0.18518519       0.41176471 </v>
   <v>       0.36842105       0.18518519       0.41176471 </v>
   <v>       0.42105263       0.18518519       0.41176471 </v>
   <v>       0.47368421       0.18518519       0.41176471 </v>
   <v>       0.00000000       0.22222222       0.41176471 </v>
   <v>       0.05263158       0.22222222       0.41176471 </v>
   <v>       0.10526316       0.22222222       0.41176471 </v>
   <v>       0.15789474       0.22222222       0.41176471 </v>
   <v>       0.21052632       0.22222222       0.41176471 </v>
   <v>       0.26315789       0.22222222       0.41176471 </v>
   <v>       0.31578947       0.22222222       0.41176471 </v>
   <v>       0.36842105       0.22222222       0.41176471 </v>
   <v>       0.42105263       0.22222222       0.41176471 </v>
   <v>       0.47368421       0.22222222       0.41176471 </v>
   <v>       0.00000000       0.25925926       0.41176471 </v>
   <v>       0.05263158       0.25925926       0.41176471 </v>
   <v>       0.10526316       0.25925926       0.41176471 </v>
   <v>       0.15789474       0.25925926       0.41176471 </v>
   <v>       0.21052632       0.25925926       0.41176471 </v>
   <v>       0.26315789       0.25925926       0.41176471 </v>
   <v>       0.31578947       0.25925926       0.41176471 </v>
   <v>       0.36842105       0.25925926       0.41176471 </v>
   <v>       0.42105263       0.25925926       0.41176471 </v>
   <v>       0.47368421       0.25925926       0.41176471 </v>
   <v>       0.00000000       0.29629630       0.41176471 </v>
   <v>       0.05263158       0.29629630       0.41176471 </v>
   <v>       0.10526316       0.29629630       0.41176471 </v>
   <v>       0.15789474       0.29629630       0.41176471 </v>
   <v>       0.21052632       0.29629630       0.41176471 </v>
   <v>       0.26315789       0.29629630       0.41176471 </v>
   <v>       0.31578947       0.29629630       0.41176471 </v>
   <v>       0.36842105       0.29629630       0.41176471 </v>
   <v>       0.42105263       0.29629630       0.41176471 </v>
   <v>       0.47368421       0.29629630       0.41176471 </v>
   <v>       0.00000000       0.33333333       0.41176471 </v>
   <v>       0.05263158       0.33333333       0.41176471 </v>
   <v>       0.10526316       0.33333333       0.41176471 </v>
   <v>       0.15789474       0.33333333       0.41176471 </v>
   <v>       0.21052632       0.33333333       0.41176471 </v>
   <v>       0.26315789       0.33333333       0.41176471 </v>
   <v>       0.31578947       0.33333333       0.41176471 </v>
   <v>       0.36842105       0.33333333       0.41176471 </v>
   <v>       0.42105263       0.33333333       0.41176471 </v>
   <v>       0.47368421       0.33333333       0.41176471 </v>
   <v>       0.00000000       0.37037037       0.41176471 </v>
   <v>       0.05263158       0.37037037       0.41176471 </v>
   <v>       0.10526316       0.37037037       0.41176471 </v>
   <v>       0.15789474       0.37037037       0.41176471 </v>
   <v>       0.21052632       0.37037037       0.41176471 </v>
   <v>       0.26315789       0.37037037       0.41176471 </v>
   <v>       0.31578947       0.37037037       0.41176471 </v>
   <v>       0.36842105       0.37037037       0.41176471 </v>
   <v>       0.42105263       0.37037037       0.41176471 </v>
   <v>       0.47368421       0.37037037       0.41176471 </v>
   <v>       0.00000000       0.40740741       0.41176471 </v>
   <v>       0.05263158       0.40740741       0.41176471 </v>
   <v>       0.10526316       0.40740741       0.41176471 </v>
   <v>       0.15789474       0.40740741       0.41176471 </v>
   <v>       0.21052632       0.40740741       0.41176471 </v>
   <v>       0.26315789       0.40740741       0.41176471 </v>
   <v>       0.31578947       0.40740741       0.41176471 </v>
   <v>       0.36842105       0.40740741       0.41176471 </v>
   <v>       0.42105263       0.40740741       0.41176471 </v>
   <v>       0.47368421       0.40740741       0.41176471 </v>
   <v>       0.00000000       0.44444444       0.41176471 </v>
   <v>       0.05263158       0.44444444       0.41176471 </v>
   <v>       0.10526316       0.44444444       0.41176471 </v>
   <v>       0.15789474       0.44444444       0.41176471 </v>
   <v>       0.21052632       0.44444444       0.41176471 </v>
   <v>       0.26315789       0.44444444       0.41176471 </v>
   <v>       0.31578947       0.44444444       0.41176471 </v>
   <v>       0.36842105       0.44444444       0.41176471 </v>
   <v>       0.42105263       0.44444444       0.41176471 </v>
   <v>       0.47368421       0.44444444       0.41176471 </v>
   <v>       0.00000000       0.48148148       0.41176471 </v>
   <v>       0.05263158       0.48148148       0.41176471 </v>
   <v>       0.10526316       0.48148148       0.41176471 </v>
   <v>       0.15789474       0.48148148       0.41176471 </v>
   <v>       0.21052632       0.48148148       0.41176471 </v>
   <v>       0.26315789       0.48148148       0.41176471 </v>
   <v>       0.31578947       0.48148148       0.41176471 </v>
   <v>       0.36842105       0.48148148       0.41176471 </v>
   <v>       0.42105263       0.48148148       0.41176471 </v>
   <v>       0.47368421       0.48148148       0.41176471 </v>
   <v>       0.00000000       0.00000000       0.47058824 </v>
   <v>       0.05263158       0.00000000       0.47058824 </v>
   <v>       0.10526316       0.00000000       0.47058824 </v>
   <v>       0.15789474       0.00000000       0.47058824 </v>
   <v>       0.21052632       0.00000000       0.47058824 </v>
   <v>       0.26315789       0.00000000       0.47058824 </v>
   <v>       0.31578947       0.00000000       0.47058824 </v>
   <v>       0.36842105       0.00000000       0.47058824 </v>
   <v>       0.42105263       0.00000000       0.47058824 </v>
   <v>       0.47368421       0.00000000       0.47058824 </v>
   <v>       0.00000000       0.03703704       0.47058824 </v>
   <v>       0.05263158       0.03703704       0.47058824 </v>
   <v>       0.10526316       0.03703704       0.47058824 </v>
   <v>       0.15789474       0.03703704       0.47058824 </v>
   <v>       0.21052632       0.03703704       0.47058824 </v>
   <v>       0.26315789       0.03703704       0.47058824 </v>
   <v>       0.31578947       0.03703704       0.47058824 </v>
   <v>       0.36842105       0.03703704       0.47058824 </v>
   <v>       0.42105263       0.03703704       0.47058824 </v>
   <v>       0.47368421       0.03703704       0.47058824 </v>
   <v>       0.00000000       0.07407407       0.47058824 </v>
   <v>       0.05263158       0.07407407       0.47058824 </v>
   <v>       0.10526316       0.07407407       0.47058824 </v>
   <v>       0.15789474       0.07407407       0.47058824 </v>
   <v>       0.21052632       0.07407407       0.47058824 </v>
   <v>       0.26315789       0.07407407       0.47058824 </v>
   <v>       0.31578947       0.07407407       0.47058824 </v>
   <v>       0.36842105       0.07407407       0.47058824 </v>
   <v>       0.42105263       0.07407407       0.47058824 </v>
   <v>       0.47368421       0.07407407       0.47058824 </v>
   <v>       0.00000000       0.11111111       0.47058824 </v>
   <v>       0.05263158       0.11111111       0.47058824 </v>
   <v>       0.10526316       0.11111111       0.47058824 </v>
   <v>       0.15789474       0.11111111       0.47058824 </v>
   <v>       0.21052632       0.11111111       0.47058824 </v>
   <v>       0.26315789       0.11111111       0.47058824 </v>
   <v>       0.31578947       0.11111111       0.47058824 </v>
   <v>       0.36842105       0.11111111       0.47058824 </v>
   <v>       0.42105263       0.11111111       0.47058824 </v>
   <v>       0.47368421       0.11111111       0.47058824 </v>
   <v>       0.00000000       0.14814815       0.47058824 </v>
   <v>       0.05263158       0.14814815       0.47058824 </v>
   <v>       0.10526316       0.14814815       0.47058824 </v>
   <v>       0.15789474       0.14814815       0.47058824 </v>
   <v>       0.21052632       0.14814815       0.47058824 </v>
   <v>       0.26315789       0.14814815       0.47058824 </v>
   <v>       0.31578947       0.14814815       0.47058824 </v>
   <v>       0.36842105       0.14814815       0.47058824 </v>
   <v>       0.42105263       0.14814815       0.47058824 </v>
   <v>       0.47368421       0.14814815       0.47058824 </v>
   <v>       0.00000000       0.18518519       0.47058824 </v>
   <v>       0.05263158       0.18518519       0.47058824 </v>
   <v>       0.10526316       0.18518519       0.47058824 </v>
   <v>       0.15789474       0.18518519       0.47058824 </v>
   <v>       0.21052632       0.18518519       0.47058824 </v>
   <v>       0.26315789       0.18518519       0.47058824 </v>
   <v>       0.31578947       0.18518519       0.47058824 </v>
   <v>       0.36842105       0.18518519       0.47058824 </v>
   <v>       0.42105263       0.18518519       0.47058824 </v>
   <v>       0.47368421       0.18518519       0.47058824 </v>
   <v>       0.00000000       0.22222222       0.47058824 </v>
   <v>       0.05263158       0.22222222       0.47058824 </v>
   <v>       0.10526316       0.22222222       0.47058824 </v>
   <v>       0.15789474       0.22222222       0.47058824 </v>
   <v>       0.21052632       0.22222222       0.47058824 </v>
   <v>       0.26315789       0.22222222       0.47058824 </v>
   <v>       0.31578947       0.22222222       0.47058824 </v>
   <v>       0.36842105       0.22222222       0.47058824 </v>
   <v>       0.42105263       0.22222222       0.47058824 </v>
   <v>       0.47368421       0.22222222       0.47058824 </v>
   <v>       0.00000000       0.25925926       0.47058824 </v>
   <v>       0.05263158       0.25925926       0.47058824 </v>
   <v>       0.10526316       0.25925926       0.47058824 </v>
   <v>       0.15789474       0.25925926       0.47058824 </v>
   <v>       0.21052632       0.25925926       0.47058824 </v>
   <v>       0.26315789       0.25925926       0.47058824 </v>
   <v>       0.31578947       0.25925926       0.47058824 </v>
   <v>       0.36842105       0.25925926       0.47058824 </v>
   <v>       0.42105263       0.25925926       0.47058824 </v>
   <v>       0.47368421       0.25925926       0.47058824 </v>
   <v>       0.00000000       0.29629630       0.47058824 </v>
   <v>       0.05263158       0.29629630       0.47058824 </v>
   <v>       0.10526316       0.29629630       0.47058824 </v>
   <v>       0.15789474       0.29629630       0.47058824 </v>
   <v>       0.21052632       0.29629630       0.47058824 </v>
   <v>       0.26315789       0.29629630       0.47058824 </v>
   <v>       0.31578947       0.29629630       0.47058824 </v>
   <v>       0.36842105       0.29629630       0.47058824 </v>
[...]
       <r>   -2.2120    1.0000 </r>
       <r>   -2.1287    1.0000 </r>
       <r>   -2.1284    1.0000 </r>
       <r>   -1.6880    1.0000 </r>
       <r>   -0.3789    1.0000 </r>
       <r>   -0.0171    1.0000 </r>
       <r>    0.3607    1.0000 </r>
       <r>    0.4448    1.0000 </r>
       <r>    0.5376    1.0000 </r>
       <r>    1.0546    1.0000 </r>
       <r>    1.6422    1.0000 </r>
       <r>    1.7782    0.9979 </r>
       <r>    5.7684    0.0000 </r>
       <r>    6.0843    0.0000 </r>
       <r>    6.7425    0.0000 </r>
       <r>    7.3925    0.0000 </r>
       <r>    7.5938    0.0000 </r>
       <r>    7.6946    0.0000 </r>
       <r>    9.3192    0.0000 </r>
       <r>    9.6203    0.0000 </r>
       <r>    9.7394    0.0000 </r>
       <r>    9.9385    0.0000 </r>
       <r>   10.5025    0.0000 </r>
       <r>   10.9321    0.0000 </r>
       <r>   11.1460    0.0000 </r>
       <r>   11.4627    0.0000 </r>
       <r>   11.5276    0.0000 </r>
       <r>   11.6450    0.0000 </r>
       <r>   13.0251    0.0000 </r>
       <r>   13.2202    0.0000 </r>
       <r>   13.6023    0.0000 </r>
       <r>   14.1060    0.0000 </r>
       <r>   14.2247    0.0000 </r>
       <r>   14.3814    0.0000 </r>
       <r>   14.4627    0.0000 </r>
       <r>   14.8125    0.0000 </r>
       <r>   15.0245    0.0000 </r>
       <r>   15.1406    0.0000 </r>
      </set>
      <set comment="kpoint 1260">
       <r>  -11.9845    1.0000 </r>
       <r>  -11.9115    1.0000 </r>
       <r>   -8.5267    1.0000 </r>
       <r>   -8.4675    1.0000 </r>
       <r>   -5.9143    1.0000 </r>
       <r>   -5.8596    1.0000 </r>
       <r>   -4.6955    1.0000 </r>
       <r>   -4.5478    1.0000 </r>
       <r>   -4.4020    1.0000 </r>
       <r>   -4.1839    1.0000 </r>
       <r>   -2.2128    1.0000 </r>
       <r>   -2.1845    1.0000 </r>
       <r>   -1.9902    1.0000 </r>
       <r>   -1.8416    1.0000 </r>
       <r>   -0.1213    1.0000 </r>
       <r>    0.0093    1.0000 </r>
       <r>    0.4361    1.0000 </r>
       <r>    0.4659    1.0000 </r>
       <r>    0.5817    1.0000 </r>
       <r>    0.7445    1.0000 </r>
       <r>    1.6646    1.0000 </r>
       <r>    1.7120    1.0000 </r>
       <r>    5.9045    0.0000 </r>
       <r>    6.0025    0.0000 </r>
       <r>    6.9800    0.0000 </r>
       <r>    7.3089    0.0000 </r>
       <r>    7.4557    0.0000 </r>
       <r>    7.5178    0.0000 </r>
       <r>    9.5054    0.0000 </r>
       <r>    9.6420    0.0000 </r>
       <r>    9.8787    0.0000 </r>
       <r>    9.9687    0.0000 </r>
       <r>   10.4956    0.0000 </r>
       <r>   10.6824    0.0000 </r>
       <r>   11.2854    0.0000 </r>
       <r>   11.4509    0.0000 </r>
       <r>   11.4849    0.0000 </r>
       <r>   11.5143    0.0000 </r>
       <r>   13.1292    0.0000 </r>
       <r>   13.1800    0.0000 </r>
       <r>   13.9086    0.0000 </r>
       <r>   14.1706    0.0000 </r>
       <r>   14.2473    0.0000 </r>
       <r>   14.2937    0.0000 </r>
       <r>   14.6851    0.0000 </r>
       <r>   14.7661    0.0000 </r>
       <r>   14.8308    0.0000 </r>
       <r>   14.9513    0.0000 </r>
      </set>
     </set>
    </set>
   </array>
  </eigenvalues>
  <separator name="orbital magnetization" >
   <v name="MAGDIPOLOUT">      0.00000000      0.00000000      0.00000000</v>
  </separator>
  <dos>
   <i name="efermi">      1.87914280 </i>
   <total>
    <array>
     <dimension dim="1">gridpoints</dimension>
     <dimension dim="2">spin</dimension>
     <field>energy</field>
     <field>total</field>
     <field>integrated</field>
     <set>
      <set comment="spin 1">
       <r>   -14.1998     0.0000     0.0000 </r>
       <r>   -14.0923     0.0000     0.0000 </r>
       <r>   -13.9847     0.0000     0.0000 </r>
       <r>   -13.8772     0.0000     0.0000 </r>
       <r>   -13.7696     0.0000     0.0000 </r>
       <r>   -13.6621     0.0000     0.0000 </r>
       <r>   -13.5545     0.0000     0.0000 </r>
       <r>   -13.4469     0.0000     0.0000 </r>
       <r>   -13.3394     0.0000     0.0000 </r>
       <r>   -13.2318     0.0000     0.0000 </r>
       <r>   -13.1243     0.0000     0.0000 </r>
       <r>   -13.0167     0.0000     0.0000 </r>
       <r>   -12.9092     0.0000     0.0000 </r>
       <r>   -12.8016     0.0019     0.0002 </r>
       <r>   -12.6940     0.4068     0.0440 </r>
       <r>   -12.5865     2.2500     0.2860 </r>
       <r>   -12.4789     3.5085     0.6633 </r>
       <r>   -12.3714     4.3405     1.1302 </r>
       <r>   -12.2638     3.5747     1.5147 </r>
       <r>   -12.1562     2.8735     1.8238 </r>
       <r>   -12.0487     2.6344     2.1071 </r>
       <r>   -11.9411     2.5879     2.3855 </r>
       <r>   -11.8336     2.7435     2.6805 </r>
       <r>   -11.7260     3.3235     3.0380 </r>
       <r>   -11.6185     3.6207     3.4274 </r>
       <r>   -11.5109     3.1255     3.7636 </r>
       <r>   -11.4033     1.7281     3.9495 </r>
       <r>   -11.2958     0.4606     3.9990 </r>
       <r>   -11.1882     0.0091     4.0000 </r>
       <r>   -11.0807     0.0000     4.0000 </r>
       <r>   -10.9731     0.0000     4.0000 </r>
       <r>   -10.8656     0.0000     4.0000 </r>
       <r>   -10.7580     0.0000     4.0000 </r>
       <r>   -10.6504     0.0000     4.0000 </r>
       <r>   -10.5429     0.0000     4.0000 </r>
       <r>   -10.4353     0.0000     4.0000 </r>
       <r>   -10.3278     0.0000     4.0000 </r>
       <r>   -10.2202     0.0000     4.0000 </r>
       <r>   -10.1127     0.0000     4.0000 </r>
       <r>   -10.0051     0.0000     4.0000 </r>
       <r>    -9.8975     0.0000     4.0000 </r>
       <r>    -9.7900     0.0000     4.0000 </r>
       <r>    -9.6824     0.0000     4.0000 </r>
       <r>    -9.5749     0.0000     4.0000 </r>
       <r>    -9.4673     0.0000     4.0000 </r>
       <r>    -9.3597     0.0000     4.0000 </r>
       <r>    -9.2522     0.0000     4.0000 </r>
       <r>    -9.1446     0.0000     4.0000 </r>
       <r>    -9.0371     0.0000     4.0000 </r>
       <r>    -8.9295     0.0007     4.0001 </r>
       <r>    -8.8220     0.3052     4.0329 </r>
       <r>    -8.7144     2.1761     4.2670 </r>
       <r>    -8.6068     5.4325     4.8513 </r>
       <r>    -8.4993     7.0082     5.6051 </r>
       <r>    -8.3917     6.2160     6.2736 </r>
       <r>    -8.2842     5.2964     6.8433 </r>
       <r>    -8.1766     4.8659     7.3667 </r>
       <r>    -8.0691     3.7117     7.7659 </r>
       <r>    -7.9615     1.6042     7.9384 </r>
       <r>    -7.8539     0.5338     7.9958 </r>
       <r>    -7.7464     0.0386     8.0000 </r>
       <r>    -7.6388     0.0000     8.0000 </r>
       <r>    -7.5313     0.0000     8.0000 </r>
       <r>    -7.4237     0.0000     8.0000 </r>
       <r>    -7.3161     0.0000     8.0000 </r>
       <r>    -7.2086     0.0000     8.0000 </r>
       <r>    -7.1010     0.0000     8.0000 </r>
       <r>    -6.9935     0.0043     8.0005 </r>
       <r>    -6.8859     0.1138     8.0127 </r>
       <r>    -6.7784     0.2896     8.0439 </r>
       <r>    -6.6708     0.4675     8.0941 </r>
       <r>    -6.5632     0.7278     8.1724 </r>
       <r>    -6.4557     0.9147     8.2708 </r>
       <r>    -6.3481     1.5043     8.4326 </r>
       <r>    -6.2406     2.1300     8.6617 </r>
       <r>    -6.1330     3.0719     8.9921 </r>
       <r>    -6.0255     3.9603     9.4181 </r>
       <r>    -5.9179     3.9690     9.8450 </r>
       <r>    -5.8103     4.0460    10.2802 </r>
       <r>    -5.7028     4.0737    10.7183 </r>
       <r>    -5.5952     4.0811    11.1573 </r>
       <r>    -5.4877     4.0675    11.5947 </r>
       <r>    -5.3801     4.5161    12.0805 </r>
       <r>    -5.2726     4.7673    12.5933 </r>
       <r>    -5.1650     4.3525    13.0614 </r>
       <r>    -5.0574     3.8723    13.4779 </r>
       <r>    -4.9499     3.3349    13.8366 </r>
       <r>    -4.8423     2.3771    14.0923 </r>
       <r>    -4.7348     2.4943    14.3605 </r>
       <r>    -4.6272     2.9847    14.6816 </r>
       <r>    -4.5196     3.7145    15.0811 </r>
       <r>    -4.4121     3.3150    15.4376 </r>
       <r>    -4.3045     3.1855    15.7803 </r>
       <r>    -4.1970     2.9062    16.0929 </r>
       <r>    -4.0894     2.8437    16.3987 </r>
       <r>    -3.9819     3.0343    16.7251 </r>
       <r>    -3.8743     3.0369    17.0517 </r>
       <r>    -3.7667     2.8457    17.3578 </r>
       <r>    -3.6592     3.0592    17.6868 </r>
       <r>    -3.5516     2.7436    17.9819 </r>
       <r>    -3.4441     2.7384    18.2765 </r>
       <r>    -3.3365     2.8866    18.5869 </r>
       <r>    -3.2290     2.6576    18.8728 </r>
       <r>    -3.1214     2.8021    19.1742 </r>
       <r>    -3.0138     2.9535    19.4918 </r>
       <r>    -2.9063     3.0679    19.8218 </r>
       <r>    -2.7987     2.7294    20.1154 </r>
       <r>    -2.6912     2.4457    20.3784 </r>
       <r>    -2.5836     2.6191    20.6601 </r>
       <r>    -2.4760     3.0121    20.9841 </r>
       <r>    -2.3685     3.2420    21.3328 </r>
       <r>    -2.2609     3.8258    21.7443 </r>
       <r>    -2.1534     3.2581    22.0947 </r>
       <r>    -2.0458     3.4676    22.4677 </r>
       <r>    -1.9383     4.2314    22.9228 </r>
       <r>    -1.8307     4.8081    23.4400 </r>
       <r>    -1.7231     5.7096    24.0541 </r>
       <r>    -1.6156     5.9121    24.6900 </r>
       <r>    -1.5080     6.0048    25.3359 </r>
       <r>    -1.4005     6.0287    25.9843 </r>
       <r>    -1.2929     5.7858    26.6066 </r>
       <r>    -1.1854     4.9971    27.1441 </r>
       <r>    -1.0778     5.1908    27.7024 </r>
       <r>    -0.9702     3.8217    28.1134 </r>
       <r>    -0.8627     2.6949    28.4033 </r>
       <r>    -0.7551     2.1581    28.6354 </r>
       <r>    -0.6476     3.7789    29.0419 </r>
       <r>    -0.5400     5.3126    29.6133 </r>
       <r>    -0.4325     5.9011    30.2480 </r>
       <r>    -0.3249     6.4579    30.9426 </r>
       <r>    -0.2173     6.1846    31.6078 </r>
       <r>    -0.1098     6.8886    32.3487 </r>
       <r>    -0.0022     6.9144    33.0924 </r>
       <r>     0.1053     6.2638    33.7661 </r>
       <r>     0.2129     6.8835    34.5065 </r>
       <r>     0.3205     8.6778    35.4399 </r>
       <r>     0.4280     8.5436    36.3588 </r>
       <r>     0.5356     7.9642    37.2154 </r>
       <r>     0.6431     4.1745    37.6644 </r>
       <r>     0.7507     2.8594    37.9720 </r>
       <r>     0.8582     3.2225    38.3186 </r>
       <r>     0.9658     3.3167    38.6753 </r>
       <r>     1.0734     3.3681    39.0376 </r>
       <r>     1.1809     4.0341    39.4715 </r>
       <r>     1.2885     3.4118    39.8385 </r>
       <r>     1.3960     3.7585    40.2427 </r>
       <r>     1.5036     4.1142    40.6852 </r>
       <r>     1.6111     3.8775    41.1023 </r>
       <r>     1.7187     3.4595    41.4744 </r>
       <r>     1.8263     3.4049    41.8406 </r>
       <r>     1.9338     2.9078    42.1533 </r>
       <r>     2.0414     2.4475    42.4166 </r>
       <r>     2.1489     2.5869    42.6948 </r>
       <r>     2.2565     2.4160    42.9547 </r>
       <r>     2.3641     1.8852    43.1575 </r>
       <r>     2.4716     1.1259    43.2786 </r>
       <r>     2.5792     0.9339    43.3790 </r>
       <r>     2.6867     0.8089    43.4660 </r>
       <r>     2.7943     0.6009    43.5306 </r>
       <r>     2.9018     0.4478    43.5788 </r>
       <r>     3.0094     0.5746    43.6406 </r>
       <r>     3.1170     0.5568    43.7005 </r>
       <r>     3.2245     0.4398    43.7478 </r>
       <r>     3.3321     0.3557    43.7861 </r>
       <r>     3.4396     0.3931    43.8283 </r>
       <r>     3.5472     0.4415    43.8758 </r>
       <r>     3.6547     0.2755    43.9055 </r>
       <r>     3.7623     0.2790    43.9355 </r>
       <r>     3.8699     0.3210    43.9700 </r>
       <r>     3.9774     0.2060    43.9921 </r>
       <r>     4.0850     0.0704    43.9997 </r>
       <r>     4.1925     0.0042    44.0002 </r>
       <r>     4.3001     0.0932    44.0102 </r>
       <r>     4.4076     0.2722    44.0395 </r>
       <r>     4.5152     0.3991    44.0824 </r>
       <r>     4.6228     0.5821    44.1450 </r>
       <r>     4.7303     0.7427    44.2249 </r>
       <r>     4.8379     0.8449    44.3158 </r>
       <r>     4.9454     0.8993    44.4125 </r>
       <r>     5.0530     1.0136    44.5215 </r>
       <r>     5.1606     1.1838    44.6488 </r>
       <r>     5.2681     1.4412    44.8038 </r>
       <r>     5.3757     1.8143    44.9990 </r>
       <r>     5.4832     2.2586    45.2419 </r>
       <r>     5.5908     2.6945    45.5317 </r>
       <r>     5.6983     2.9815    45.8524 </r>
       <r>     5.8059     3.4570    46.2242 </r>
       <r>     5.9135     3.7984    46.6328 </r>
       <r>     6.0210     4.2138    47.0860 </r>
       <r>     6.1286     4.6665    47.5879 </r>
       <r>     6.2361     4.4244    48.0638 </r>
       <r>     6.3437     4.1361    48.5087 </r>
       <r>     6.4512     4.2404    48.9648 </r>
       <r>     6.5588     4.3244    49.4299 </r>
       <r>     6.6664     3.8250    49.8413 </r>
       <r>     6.7739     3.5010    50.2179 </r>
       <r>     6.8815     4.2284    50.6727 </r>
       <r>     6.9890     4.4382    51.1500 </r>
       <r>     7.0966     4.9736    51.6850 </r>
       <r>     7.2041     5.0728    52.2306 </r>
       <r>     7.3117     4.9573    52.7638 </r>
       <r>     7.4193     4.4407    53.2414 </r>
       <r>     7.5268     4.4836    53.7237 </r>
       <r>     7.6344     3.9502    54.1485 </r>
       <r>     7.7419     3.2183    54.4947 </r>
       <r>     7.8495     3.1413    54.8325 </r>
       <r>     7.9571     3.2743    55.1847 </r>
       <r>     8.0646     3.3364    55.5436 </r>
       <r>     8.1722     3.6496    55.9361 </r>
       <r>     8.2797     4.1116    56.3783 </r>
       <r>     8.3873     3.9962    56.8082 </r>
       <r>     8.4948     4.0285    57.2415 </r>
       <r>     8.6024     4.1050    57.6830 </r>
       <r>     8.7100     4.4670    58.1635 </r>
       <r>     8.8175     4.9250    58.6932 </r>
       <r>     8.9251     5.2420    59.2570 </r>
       <r>     9.0326     4.9271    59.7869 </r>
       <r>     9.1402     5.1295    60.3387 </r>
       <r>     9.2477     5.2037    60.8984 </r>
       <r>     9.3553     4.7316    61.4073 </r>
       <r>     9.4629     4.8993    61.9342 </r>
       <r>     9.5704     4.3813    62.4055 </r>
       <r>     9.6780     4.9667    62.9397 </r>
       <r>     9.7855     5.1744    63.4962 </r>
       <r>     9.8931     5.0117    64.0353 </r>
       <r>    10.0007     4.8407    64.5559 </r>
       <r>    10.1082     3.7837    64.9629 </r>
       <r>    10.2158     4.2939    65.4247 </r>
       <r>    10.3233     4.4417    65.9025 </r>
       <r>    10.4309     5.4912    66.4931 </r>
       <r>    10.5384     5.4542    67.0797 </r>
       <r>    10.6460     4.7551    67.5912 </r>
       <r>    10.7536     4.1341    68.0358 </r>
       <r>    10.8611     3.8005    68.4446 </r>
       <r>    10.9687     3.6687    68.8392 </r>
       <r>    11.0762     4.9804    69.3749 </r>
       <r>    11.1838     5.8397    70.0030 </r>
       <r>    11.2913     6.3078    70.6814 </r>
       <r>    11.3989     5.4876    71.2717 </r>
       <r>    11.5065     4.6117    71.7677 </r>
       <r>    11.6140     4.7229    72.2757 </r>
       <r>    11.7216     4.7475    72.7863 </r>
       <r>    11.8291     4.7822    73.3007 </r>
       <r>    11.9367     5.6066    73.9037 </r>
       <r>    12.0442     6.1047    74.5603 </r>
       <r>    12.1518     5.8035    75.1845 </r>
       <r>    12.2594     5.5037    75.7765 </r>
       <r>    12.3669     5.1421    76.3296 </r>
       <r>    12.4745     5.7905    76.9524 </r>
       <r>    12.5820     6.0696    77.6052 </r>
       <r>    12.6896     5.7063    78.2190 </r>
       <r>    12.7972     5.9143    78.8551 </r>
       <r>    12.9047     5.9843    79.4987 </r>
       <r>    13.0123     5.8220    80.1249 </r>
       <r>    13.1198     6.2988    80.8024 </r>
       <r>    13.2274     6.0059    81.4484 </r>
       <r>    13.3349     5.9586    82.0893 </r>
       <r>    13.4425     5.4097    82.6712 </r>
       <r>    13.5501     5.3901    83.2509 </r>
       <r>    13.6576     5.3246    83.8236 </r>
       <r>    13.7652     5.7029    84.4370 </r>
       <r>    13.8727     5.7127    85.0514 </r>
       <r>    13.9803     5.4370    85.6362 </r>
       <r>    14.0878     5.2579    86.2018 </r>
       <r>    14.1954     5.1336    86.7539 </r>
       <r>    14.3030     5.0824    87.3006 </r>
       <r>    14.4105     4.5813    87.7933 </r>
       <r>    14.5181     5.1150    88.3435 </r>
       <r>    14.6256     5.4137    88.9258 </r>
       <r>    14.7332     4.9091    89.4538 </r>
       <r>    14.8408     4.1758    89.9029 </r>
       <r>    14.9483     4.8144    90.4208 </r>
       <r>    15.0559     5.8931    91.0546 </r>
       <r>    15.1634     6.0956    91.7102 </r>
       <r>    15.2710     5.6896    92.3222 </r>
       <r>    15.3785     5.8946    92.9562 </r>
       <r>    15.4861     5.8520    93.5856 </r>
       <r>    15.5937     5.9446    94.2250 </r>
       <r>    15.7012     4.6417    94.7243 </r>
       <r>    15.8088     3.2946    95.0786 </r>
       <r>    15.9163     2.4236    95.3393 </r>
       <r>    16.0239     1.8405    95.5373 </r>
       <r>    16.1314     1.3650    95.6841 </r>
       <r>    16.2390     1.0113    95.7929 </r>
       <r>    16.3466     0.9320    95.8931 </r>
       <r>    16.4541     0.6924    95.9676 </r>
       <r>    16.5617     0.2852    95.9983 </r>
       <r>    16.6692     0.0161    96.0000 </r>
       <r>    16.7768     0.0001    96.0000 </r>
       <r>    16.8843     0.0000    96.0000 </r>
       <r>    16.9919     0.0000    96.0000 </r>
       <r>    17.0995     0.0000    96.0000 </r>
       <r>    17.2070     0.0000    96.0000 </r>
       <r>    17.3146     0.0000    96.0000 </r>
       <r>    17.4221     0.0000    96.0000 </r>
       <r>    17.5297     0.0000    96.0000 </r>
       <r>    17.6373     0.0000    96.0000 </r>
       <r>    17.7448     0.0000    96.0000 </r>
       <r>    17.8524     0.0000    96.0000 </r>
       <r>    17.9599     0.0000    96.0000 </r>
       <r>    18.0675     0.0000    96.0000 </r>
      </set>
     </set>
    </array>
   </total>
  </dos>
 </calculation>
 <structure name="finalpos" >
  <crystal>
   <varray name="basis" >
    <v>       5.69700000       0.00000000       0.00000000 </v>
    <v>       0.00000000       4.04790000       0.00000000 </v>
    <v>       0.00000000       0.00000000       6.20420000 </v>
   </varray>
   <i name="volume">    143.07435078 </i>
   <varray name="rec_basis" >
    <v>       0.17553098       0.00000000       0.00000000 </v>
    <v>       0.00000000       0.24704168       0.00000000 </v>
    <v>       0.00000000       0.00000000       0.16118114 </v>
   </varray>
  </crystal>
  <varray name="positions" >
   <v>       0.52123000       0.50000000       0.63796000 </v>
   <v>       0.47877000       0.50000000       0.36204000 </v>
   <v>       0.97877000       0.50000000       0.63796000 </v>
   <v>       0.02123000       0.50000000       0.36204000 </v>
   <v>       0.60090000       0.50000000       0.89991000 </v>
   <v>       0.39910000       0.50000000       0.10009000 </v>
   <v>       0.89910000       0.50000000       0.89991000 </v>
   <v>       0.10090000       0.50000000       0.10009000 </v>
   <v>       0.75000000       0.79171000       0.72973000 </v>
   <v>       0.25000000       0.20829000       0.27027000 </v>
   <v>       0.75000000       0.20829000       0.72973000 </v>
   <v>       0.25000000       0.79171000       0.27027000 </v>
   <v>       0.25000000       0.50000000       0.52367000 </v>
   <v>       0.75000000       0.50000000       0.47633000 </v>
  </varray>
 </structure>
</modeling>
