  14  14   0   0
  0.6072273E+02  0.5700971E-09  0.6201871E-09  0.2404406E-08  0.5000000E-15
  1.000000000000000E-004
  CAR 
 Parameters                              
      3.85807166    -21.08884698  301     -4.35374252      1.00000000
    -21.089  0.0000E+00  0.0000E+00
    -21.006  0.0000E+00  0.0000E+00
    -20.923  0.0000E+00  0.0000E+00
    -20.839  0.0000E+00  0.0000E+00
    -20.756  0.0000E+00  0.0000E+00
    -20.673  0.0000E+00  0.0000E+00
    -20.590  0.0000E+00  0.0000E+00
    -20.507  0.0000E+00  0.0000E+00
    -20.424  0.0000E+00  0.0000E+00
    -20.340  0.0000E+00  0.0000E+00
    -20.257  0.0000E+00  0.0000E+00
    -20.174  0.7320E-12  0.6087E-13
    -20.091  0.1938E-06  0.1612E-07
    -20.008  0.3359E-03  0.2795E-04
    -19.925  0.9814E-02  0.8440E-03
    -19.842  0.2397E-01  0.2838E-02
    -19.758  0.1771E-01  0.4310E-02
    -19.675  0.1333E-01  0.5419E-02
    -19.592  0.1318E-01  0.6514E-02
    -19.509  0.1189E-01  0.7503E-02
    -19.426  0.1146E-01  0.8456E-02
    -19.343  0.1476E-01  0.9683E-02
    -19.259  0.1994E-01  0.1134E-01
    -19.176  0.1817E-01  0.1285E-01
    -19.093  0.5638E-02  0.1332E-01
    -19.010  0.1482E-03  0.1333E-01
    -18.927  0.5491E-07  0.1333E-01
    -18.844  0.1252E-12  0.1333E-01
    -18.760  0.0000E+00  0.1333E-01
    -18.677  0.0000E+00  0.1333E-01
    -18.594  0.0000E+00  0.1333E-01
    -18.511  0.0000E+00  0.1333E-01
    -18.428  0.0000E+00  0.1333E-01
    -18.345  0.0000E+00  0.1333E-01
    -18.262  0.0000E+00  0.1333E-01
    -18.178  0.0000E+00  0.1333E-01
    -18.095  0.0000E+00  0.1333E-01
    -18.012  0.0000E+00  0.1333E-01
    -17.929  0.0000E+00  0.1333E-01
    -17.846  0.0000E+00  0.1333E-01
    -17.763  0.0000E+00  0.1333E-01
    -17.679  0.0000E+00  0.1333E-01
    -17.596  0.0000E+00  0.1333E-01
    -17.513  0.0000E+00  0.1333E-01
    -17.430  0.0000E+00  0.1333E-01
    -17.347  0.0000E+00  0.1333E-01
    -17.264  0.0000E+00  0.1333E-01
    -17.180  0.0000E+00  0.1333E-01
    -17.097  0.0000E+00  0.1333E-01
    -17.014  0.0000E+00  0.1333E-01
    -16.931  0.0000E+00  0.1333E-01
    -16.848  0.0000E+00  0.1333E-01
    -16.765  0.0000E+00  0.1333E-01
    -16.682  0.0000E+00  0.1333E-01
    -16.598  0.0000E+00  0.1333E-01
    -16.515  0.0000E+00  0.1333E-01
    -16.432  0.0000E+00  0.1333E-01
    -16.349  0.0000E+00  0.1333E-01
    -16.266  0.0000E+00  0.1333E-01
    -16.183  0.0000E+00  0.1333E-01
    -16.099  0.0000E+00  0.1333E-01
    -16.016  0.0000E+00  0.1333E-01
    -15.933  0.0000E+00  0.1333E-01
    -15.850  0.0000E+00  0.1333E-01
    -15.767  0.1231E-12  0.1333E-01
    -15.684  0.6689E-07  0.1333E-01
    -15.601  0.2016E-03  0.1335E-01
    -15.517  0.7220E-02  0.1395E-01
    -15.434  0.2047E-01  0.1565E-01
    -15.351  0.2816E-01  0.1799E-01
    -15.268  0.3741E-01  0.2111E-01
    -15.185  0.3288E-01  0.2384E-01
    -15.102  0.2089E-01  0.2558E-01
    -15.018  0.1033E-01  0.2644E-01
    -14.935  0.2702E-02  0.2666E-01
    -14.852  0.7579E-04  0.2667E-01
    -14.769  0.2089E-07  0.2667E-01
    -14.686  0.2927E-13  0.2667E-01
    -14.603  0.0000E+00  0.2667E-01
    -14.519  0.0000E+00  0.2667E-01
    -14.436  0.0000E+00  0.2667E-01
    -14.353  0.0000E+00  0.2667E-01
    -14.270  0.0000E+00  0.2667E-01
    -14.187  0.0000E+00  0.2667E-01
    -14.104  0.0000E+00  0.2667E-01
    -14.021  0.3956E-18  0.2667E-01
    -13.937  0.9059E-11  0.2667E-01
    -13.854  0.8530E-06  0.2667E-01
    -13.771  0.4519E-03  0.2670E-01
    -13.688  0.2714E-02  0.2693E-01
    -13.605  0.1389E-02  0.2705E-01
    -13.522  0.3569E-02  0.2734E-01
    -13.438  0.5007E-02  0.2776E-01
    -13.355  0.3597E-02  0.2806E-01
    -13.272  0.1004E-01  0.2889E-01
    -13.189  0.1665E-01  0.3028E-01
    -13.106  0.1383E-01  0.3143E-01
    -13.023  0.1119E-01  0.3236E-01
    -12.940  0.1125E-01  0.3329E-01
    -12.856  0.9590E-02  0.3409E-01
    -12.773  0.1063E-01  0.3497E-01
    -12.690  0.1560E-01  0.3627E-01
    -12.607  0.1121E-01  0.3720E-01
    -12.524  0.1423E-01  0.3839E-01
    -12.441  0.1191E-01  0.3938E-01
    -12.357  0.5200E-02  0.3981E-01
    -12.274  0.2232E-02  0.3999E-01
    -12.191  0.6651E-04  0.4000E-01
    -12.108  0.1645E-07  0.4000E-01
    -12.025  0.2048E-13  0.4000E-01
    -11.942  0.0000E+00  0.4000E-01
    -11.858  0.0000E+00  0.4000E-01
    -11.775  0.0000E+00  0.4000E-01
    -11.692  0.1416E-12  0.4000E-01
    -11.609  0.7070E-07  0.4000E-01
    -11.526  0.1967E-03  0.4002E-01
    -11.443  0.5793E-02  0.4050E-01
    -11.360  0.1327E-01  0.4160E-01
    -11.276  0.1942E-01  0.4322E-01
    -11.193  0.1561E-01  0.4451E-01
    -11.110  0.1757E-01  0.4598E-01
    -11.027  0.2618E-01  0.4815E-01
    -10.944  0.1645E-01  0.4952E-01
    -10.861  0.1295E-01  0.5060E-01
    -10.777  0.1564E-01  0.5190E-01
    -10.694  0.1447E-01  0.5310E-01
    -10.611  0.1362E-01  0.5423E-01
    -10.528  0.7828E-02  0.5489E-01
    -10.445  0.1586E-01  0.5620E-01
    -10.362  0.1157E-01  0.5717E-01
    -10.279  0.9386E-02  0.5795E-01
    -10.195  0.1995E-01  0.5961E-01
    -10.112  0.1773E-01  0.6108E-01
    -10.029  0.1726E-01  0.6251E-01
     -9.946  0.1681E-01  0.6391E-01
     -9.863  0.1708E-01  0.6533E-01
     -9.780  0.1418E-01  0.6651E-01
     -9.696  0.1395E-01  0.6767E-01
     -9.613  0.8967E-02  0.6842E-01
     -9.530  0.1412E-01  0.6959E-01
     -9.447  0.1161E-01  0.7056E-01
     -9.364  0.1043E-01  0.7142E-01
     -9.281  0.6660E-02  0.7198E-01
     -9.197  0.4556E-02  0.7236E-01
     -9.114  0.5172E-02  0.7279E-01
     -9.031  0.5212E-02  0.7322E-01
     -8.948  0.7949E-02  0.7388E-01
     -8.865  0.5022E-02  0.7430E-01
     -8.782  0.4371E-02  0.7466E-01
     -8.699  0.7847E-02  0.7532E-01
     -8.615  0.1281E-01  0.7638E-01
     -8.532  0.1484E-01  0.7761E-01
     -8.449  0.7695E-02  0.7825E-01
     -8.366  0.1140E-01  0.7920E-01
     -8.283  0.2484E-02  0.7941E-01
     -8.200  0.2577E-02  0.7962E-01
     -8.116  0.5391E-02  0.8007E-01
     -8.033  0.9575E-02  0.8087E-01
     -7.950  0.8588E-02  0.8158E-01
     -7.867  0.1428E-01  0.8277E-01
     -7.784  0.2188E-01  0.8459E-01
     -7.701  0.2968E-01  0.8706E-01
     -7.618  0.2982E-01  0.8954E-01
     -7.534  0.3534E-01  0.9248E-01
     -7.451  0.3077E-01  0.9503E-01
     -7.368  0.2259E-01  0.9691E-01
     -7.285  0.2356E-01  0.9887E-01
     -7.202  0.2978E-01  0.1013E+00
     -7.119  0.2680E-01  0.1036E+00
     -7.035  0.2168E-01  0.1054E+00
     -6.952  0.1743E-01  0.1068E+00
     -6.869  0.1399E-01  0.1080E+00
     -6.786  0.8509E-02  0.1087E+00
     -6.703  0.7989E-02  0.1094E+00
     -6.620  0.6445E-02  0.1099E+00
     -6.536  0.4218E-02  0.1103E+00
     -6.453  0.1425E-01  0.1114E+00
     -6.370  0.1118E-01  0.1124E+00
     -6.287  0.1012E-01  0.1132E+00
     -6.204  0.1568E-01  0.1145E+00
     -6.121  0.2504E-01  0.1166E+00
     -6.038  0.1662E-01  0.1180E+00
     -5.954  0.1388E-01  0.1191E+00
     -5.871  0.1145E-01  0.1201E+00
     -5.788  0.1899E-01  0.1217E+00
     -5.705  0.1411E-01  0.1228E+00
     -5.622  0.1703E-01  0.1243E+00
     -5.539  0.1957E-01  0.1259E+00
     -5.455  0.1603E-01  0.1272E+00
     -5.372  0.1631E-01  0.1286E+00
     -5.289  0.8185E-02  0.1292E+00
     -5.206  0.2314E-02  0.1294E+00
     -5.123  0.5685E-03  0.1295E+00
     -5.040  0.2600E-02  0.1297E+00
     -4.957  0.2856E-02  0.1299E+00
     -4.873  0.2625E-02  0.1302E+00
     -4.790  0.7776E-02  0.1308E+00
     -4.707  0.5085E-02  0.1312E+00
     -4.624  0.4158E-02  0.1316E+00
     -4.541  0.2219E-01  0.1334E+00
     -4.458  0.3320E-01  0.1362E+00
     -4.374  0.3351E-01  0.1390E+00
     -4.291  0.4809E-01  0.1430E+00
     -4.208  0.2119E-01  0.1447E+00
     -4.125  0.5399E-02  0.1452E+00
     -4.042  0.1251E-03  0.1452E+00
     -3.959  0.1715E-02  0.1453E+00
     -3.875  0.5456E-02  0.1458E+00
     -3.792  0.3091E-02  0.1460E+00
     -3.709  0.4181E-03  0.1461E+00
     -3.626  0.7134E-06  0.1461E+00
     -3.543  0.2691E-05  0.1461E+00
     -3.460  0.7310E-03  0.1461E+00
     -3.377  0.2605E-02  0.1464E+00
     -3.293  0.2242E-03  0.1464E+00
     -3.210  0.3541E-03  0.1464E+00
     -3.127  0.2700E-02  0.1466E+00
     -3.044  0.5081E-03  0.1467E+00
     -2.961  0.1118E-05  0.1467E+00
     -2.878  0.1401E-10  0.1467E+00
     -2.794  0.7912E-18  0.1467E+00
     -2.711  0.0000E+00  0.1467E+00
     -2.628  0.0000E+00  0.1467E+00
     -2.545  0.0000E+00  0.1467E+00
     -2.462  0.0000E+00  0.1467E+00
     -2.379  0.0000E+00  0.1467E+00
     -2.296  0.0000E+00  0.1467E+00
     -2.212  0.0000E+00  0.1467E+00
     -2.129  0.0000E+00  0.1467E+00
     -2.046  0.0000E+00  0.1467E+00
     -1.963  0.1406E-11  0.1467E+00
     -1.880  0.2629E-06  0.1467E+00
     -1.797  0.2652E-03  0.1467E+00
     -1.713  0.2655E-02  0.1469E+00
     -1.630  0.1631E-02  0.1470E+00
     -1.547  0.5034E-02  0.1475E+00
     -1.464  0.9418E-02  0.1482E+00
     -1.381  0.1706E-01  0.1497E+00
     -1.298  0.1879E-01  0.1512E+00
     -1.214  0.2486E-01  0.1533E+00
     -1.131  0.2634E-01  0.1555E+00
     -1.048  0.2624E-01  0.1577E+00
     -0.965  0.1929E-01  0.1593E+00
     -0.882  0.2365E-01  0.1612E+00
     -0.799  0.1261E-01  0.1623E+00
     -0.716  0.1382E-01  0.1634E+00
     -0.632  0.1723E-01  0.1649E+00
     -0.549  0.1607E-01  0.1662E+00
     -0.466  0.2319E-01  0.1681E+00
     -0.383  0.1959E-01  0.1698E+00
     -0.300  0.1458E-01  0.1710E+00
     -0.217  0.1725E-01  0.1724E+00
     -0.133  0.1318E-01  0.1735E+00
     -0.050  0.1560E-01  0.1748E+00
      0.033  0.2024E-01  0.1765E+00
      0.116  0.1944E-01  0.1781E+00
      0.199  0.1288E-01  0.1792E+00
      0.282  0.3106E-01  0.1818E+00
      0.366  0.9499E-02  0.1825E+00
      0.449  0.1428E-01  0.1837E+00
      0.532  0.1136E-01  0.1847E+00
      0.615  0.5585E-02  0.1851E+00
      0.698  0.6938E-02  0.1857E+00
      0.781  0.8970E-02  0.1865E+00
      0.864  0.1284E-01  0.1875E+00
      0.948  0.9509E-02  0.1883E+00
      1.031  0.1413E-01  0.1895E+00
      1.114  0.1656E-01  0.1909E+00
      1.197  0.3196E-01  0.1935E+00
      1.280  0.2903E-01  0.1959E+00
      1.363  0.2558E-01  0.1981E+00
      1.447  0.3347E-01  0.2009E+00
      1.530  0.3099E-01  0.2034E+00
      1.613  0.2328E-01  0.2054E+00
      1.696  0.2504E-01  0.2075E+00
      1.779  0.1975E-01  0.2091E+00
      1.862  0.2696E-01  0.2113E+00
      1.945  0.3010E-01  0.2138E+00
      2.029  0.2623E-01  0.2160E+00
      2.112  0.4413E-01  0.2197E+00
      2.195  0.3774E-01  0.2228E+00
      2.278  0.3972E-01  0.2261E+00
      2.361  0.2280E-01  0.2280E+00
      2.444  0.2531E-01  0.2301E+00
      2.528  0.1531E-01  0.2314E+00
      2.611  0.1138E-01  0.2324E+00
      2.694  0.5697E-02  0.2328E+00
      2.777  0.5704E-02  0.2333E+00
      2.860  0.3716E-03  0.2333E+00
      2.943  0.3098E-06  0.2333E+00
      3.027  0.1439E-11  0.2333E+00
      3.110  0.0000E+00  0.2333E+00
      3.193  0.0000E+00  0.2333E+00
      3.276  0.0000E+00  0.2333E+00
      3.359  0.0000E+00  0.2333E+00
      3.442  0.0000E+00  0.2333E+00
      3.525  0.0000E+00  0.2333E+00
      3.609  0.0000E+00  0.2333E+00
      3.692  0.0000E+00  0.2333E+00
      3.775  0.0000E+00  0.2333E+00
      3.858  0.0000E+00  0.2333E+00
