   14   14  300    1
  0.6072273E+02  0.5700971E-09  0.6201871E-09  0.2404406E-08  0.5000000E-15
  1.000000000000000E-004
  CAR 
 Parameters                              
     42     25     35
 
  0.5000000E-01  0.1276756E-14  0.1276756E-14  0.2222222E-01
      1        -19.954896   1.000000
      2        -19.154537   1.000000
      3        -15.309383   1.000000
      4        -15.244816   1.000000
      5        -12.950263   1.000000
      6        -12.514796   1.000000
      7        -11.424625   1.000000
      8        -11.296467   1.000000
      9        -11.284067   1.000000
     10        -10.254712   1.000000
     11         -9.604928   1.000000
     12         -7.555164   1.000000
     13         -7.536761   1.000000
     14         -7.511053   1.000000
     15         -7.181052   1.000000
     16         -7.153607   1.000000
     17         -6.118191   1.000000
     18         -5.706466   1.000000
     19         -5.652239   1.000000
     20         -4.917371   1.000000
     21         -4.572059   1.000000
     22         -4.381541   0.784144
     23         -1.564254   0.000000
     24         -1.423265   0.000000
     25         -1.409705   0.000000
     26         -0.707205   0.000000
     27         -0.041382   0.000000
     28          0.260488   0.000000
     29          0.732739   0.000000
     30          0.852603   0.000000
     31          1.105689   0.000000
     32          1.605931   0.000000
     33          1.734140   0.000000
     34          1.756786   0.000000
     35          2.723369   0.000000
 
  0.1500000E+00  0.1276756E-14  0.1276756E-14  0.2222222E-01
      1        -19.920835   1.000000
      2        -19.199552   1.000000
      3        -15.312590   1.000000
      4        -15.234069   1.000000
      5        -12.954429   1.000000
      6        -12.745619   1.000000
      7        -11.421079   1.000000
      8        -11.224691   1.000000
      9        -10.946410   1.000000
     10         -9.985760   1.000000
     11         -9.729700   1.000000
     12         -7.864715   1.000000
     13         -7.509525   1.000000
     14         -7.475330   1.000000
     15         -7.330774   1.000000
     16         -7.134529   1.000000
     17         -6.161519   1.000000
     18         -5.784077   1.000000
     19         -5.741559   1.000000
     20         -5.022736   1.000000
     21         -4.547151   1.000000
     22         -4.369729   0.674426
     23         -1.488139   0.000000
     24         -1.349825   0.000000
     25         -1.065335   0.000000
     26         -0.733178   0.000000
     27         -0.101949   0.000000
     28          0.385448   0.000000
     29          0.851085   0.000000
     30          0.873609   0.000000
     31          1.197976   0.000000
     32          1.691590   0.000000
     33          1.824804   0.000000
     34          1.921935   0.000000
     35          2.689250   0.000000
 
  0.2500000E+00  0.1276756E-14  0.1276756E-14  0.2222222E-01
      1        -19.854795   1.000000
      2        -19.283354   1.000000
      3        -15.308554   1.000000
      4        -15.219984   1.000000
      5        -13.014774   1.000000
      6        -12.997174   1.000000
      7        -11.256482   1.000000
      8        -11.107904   1.000000
      9        -10.458136   1.000000
     10         -9.944083   1.000000
     11         -9.590351   1.000000
     12         -8.415767   1.000000
     13         -7.595162   1.000000
     14         -7.425193   1.000000
     15         -7.375418   1.000000
     16         -7.196592   1.000000
     17         -6.208917   1.000000
     18         -5.916052   1.000000
     19         -5.894047   1.000000
     20         -5.226419   1.000000
     21         -4.503375   0.999988
     22         -4.351148   0.470755
     23         -1.214611   0.000000
     24         -1.176838   0.000000
     25         -0.732781   0.000000
     26         -0.586249   0.000000
     27         -0.214461   0.000000
     28          0.283171   0.000000
     29          1.054472   0.000000
     30          1.159926   0.000000
     31          1.404436   0.000000
     32          1.862501   0.000000
     33          1.969133   0.000000
     34          2.189110   0.000000
     35          2.437163   0.000000
 
  0.3500000E+00  0.1276756E-14  0.1276756E-14  0.2222222E-01
      1        -19.761098   1.000000
      2        -19.394857   1.000000
      3        -15.289041   1.000000
      4        -15.214807   1.000000
      5        -13.175992   1.000000
      6        -13.125649   1.000000
      7        -10.937960   1.000000
      8        -10.885411   1.000000
      9        -10.203552   1.000000
     10         -9.938455   1.000000
     11         -9.209369   1.000000
     12         -9.053372   1.000000
     13         -7.890093   1.000000
     14         -7.404970   1.000000
     15         -7.319989   1.000000
     16         -7.271502   1.000000
     17         -6.167518   1.000000
     18         -6.061896   1.000000
     19         -6.059256   1.000000
     20         -5.491906   1.000000
     21         -4.449943   0.996745
     22         -4.343538   0.386430
     23         -1.034844   0.000000
     24         -0.680239   0.000000
     25         -0.658416   0.000000
     26         -0.381358   0.000000
     27          0.012824   0.000000
     28          0.022087   0.000000
     29          1.181931   0.000000
     30          1.454607   0.000000
     31          1.806319   0.000000
     32          1.897444   0.000000
     33          2.082375   0.000000
     34          2.125232   0.000000
     35          2.135658   0.000000
 
  0.4500000E+00  0.1276756E-14  0.1276756E-14  0.2222222E-01
      1        -19.646514   1.000000
      2        -19.520456   1.000000
      3        -15.257561   1.000000
      4        -15.228133   1.000000
      5        -13.250717   1.000000
      6        -13.223354   1.000000
      7        -10.722046   1.000000
      8        -10.471481   1.000000
      9        -10.361873   1.000000
     10         -9.768392   1.000000
     11         -9.389500   1.000000
     12         -9.096517   1.000000
     13         -7.981416   1.000000
     14         -7.725800   1.000000
     15         -7.230771   1.000000
     16         -7.209527   1.000000
     17         -6.169104   1.000000
     18         -6.166310   1.000000
     19         -6.008375   1.000000
     20         -5.768449   1.000000
     21         -4.397958   0.894462
     22         -4.359377   0.563313
     23         -0.829354   0.000000
     24         -0.622175   0.000000
     25         -0.495609   0.000000
     26         -0.257612   0.000000
     27          0.026235   0.000000
     28          0.653355   0.000000
     29          0.733231   0.000000
     30          1.338878   0.000000
     31          1.697041   0.000000
     32          1.921734   0.000000
     33          2.043359   0.000000
     34          2.243830   0.000000
     35          2.437635   0.000000
 
  0.5000000E-01  0.1111111E+00  0.1276756E-14  0.4444444E-01
      1        -19.946788   1.000000
      2        -19.166826   1.000000
      3        -15.310183   1.000000
      4        -15.215518   1.000000
      5        -13.083077   1.000000
      6        -12.564606   1.000000
      7        -11.358404   1.000000
      8        -11.263895   1.000000
      9        -11.099630   1.000000
     10        -10.179088   1.000000
     11         -9.668252   1.000000
     12         -7.741156   1.000000
     13         -7.558887   1.000000
     14         -7.424375   1.000000
     15         -7.294430   1.000000
     16         -6.975881   1.000000
     17         -6.485053   1.000000
     18         -5.819383   1.000000
     19         -5.656237   1.000000
     20         -4.635142   1.000000
     21         -4.488768   0.999933
     22         -4.354743   0.511293
     23         -1.524468   0.000000
     24         -1.415281   0.000000
     25         -1.268077   0.000000
     26         -0.922710   0.000000
     27         -0.081466   0.000000
     28          0.247504   0.000000
     29          0.807555   0.000000
     30          1.084436   0.000000
     31          1.152781   0.000000
     32          1.646333   0.000000
     33          1.787123   0.000000
     34          1.855243   0.000000
     35          2.724121   0.000000
 
  0.1500000E+00  0.1111111E+00  0.1276756E-14  0.4444444E-01
      1        -19.913169   1.000000
      2        -19.209863   1.000000
      3        -15.343927   1.000000
      4        -15.188186   1.000000
      5        -13.131591   1.000000
      6        -12.620551   1.000000
      7        -11.461397   1.000000
      8        -11.205067   1.000000
      9        -10.771393   1.000000
     10         -9.912731   1.000000
     11         -9.775309   1.000000
     12         -8.064042   1.000000
     13         -7.624878   1.000000
     14         -7.277968   1.000000
     15         -7.264796   1.000000
     16         -7.135267   1.000000
     17         -6.498732   1.000000
     18         -5.997136   1.000000
     19         -5.606792   1.000000
     20         -4.748228   1.000000
     21         -4.528165   1.000000
     22         -4.347687   0.432002
     23         -1.427548   0.000000
     24         -1.373158   0.000000
     25         -0.962909   0.000000
     26         -0.898058   0.000000
     27         -0.139275   0.000000
     28          0.468557   0.000000
     29          0.935673   0.000000
     30          0.997271   0.000000
     31          1.246404   0.000000
     32          1.732070   0.000000
     33          1.880604   0.000000
     34          1.957541   0.000000
     35          2.579800   0.000000
 
  0.2500000E+00  0.1111111E+00  0.1276756E-14  0.4444444E-01
      1        -19.848061   1.000000
      2        -19.290351   1.000000
      3        -15.362417   1.000000
      4        -15.178685   1.000000
      5        -13.210798   1.000000
      6        -12.738763   1.000000
      7        -11.352206   1.000000
      8        -11.089527   1.000000
      9        -10.334087   1.000000
     10         -9.967494   1.000000
     11         -9.538520   1.000000
     12         -8.554861   1.000000
     13         -7.615754   1.000000
     14         -7.514971   1.000000
     15         -7.197222   1.000000
     16         -7.162825   1.000000
     17         -6.502243   1.000000
     18         -6.155956   1.000000
     19         -5.654707   1.000000
     20         -5.047570   1.000000
     21         -4.500244   0.999983
     22         -4.337781   0.325833
     23         -1.272265   0.000000
     24         -1.098602   0.000000
     25         -0.814442   0.000000
     26         -0.551577   0.000000
     27         -0.244239   0.000000
     28          0.495270   0.000000
     29          1.130359   0.000000
     30          1.160225   0.000000
     31          1.426141   0.000000
     32          1.894580   0.000000
     33          2.030143   0.000000
     34          2.149310   0.000000
     35          2.375328   0.000000
 
  0.3500000E+00  0.1111111E+00  0.1276756E-14  0.4444444E-01
      1        -19.755849   1.000000
      2        -19.398100   1.000000
      3        -15.349397   1.000000
      4        -15.200566   1.000000
      5        -13.252729   1.000000
      6        -12.916749   1.000000
      7        -11.002734   1.000000
      8        -10.921865   1.000000
      9        -10.209528   1.000000
     10         -9.856881   1.000000
     11         -9.358255   1.000000
     12         -8.962942   1.000000
     13         -7.828259   1.000000
     14         -7.534691   1.000000
     15         -7.365004   1.000000
     16         -7.149388   1.000000
     17         -6.392863   1.000000
     18         -6.206754   1.000000
     19         -5.785063   1.000000
     20         -5.428252   1.000000
     21         -4.449572   0.996641
     22         -4.338340   0.331548
     23         -1.081172   0.000000
     24         -0.652263   0.000000
     25         -0.626520   0.000000
     26         -0.427571   0.000000
     27         -0.023395   0.000000
     28          0.217594   0.000000
     29          1.333593   0.000000
     30          1.435358   0.000000
     31          1.712701   0.000000
     32          1.885225   0.000000
     33          1.992062   0.000000
     34          2.081135   0.000000
     35          2.233690   0.000000
 
  0.4500000E+00  0.1111111E+00  0.1276756E-14  0.4444444E-01
      1        -19.643414   1.000000
      2        -19.520213   1.000000
      3        -15.306670   1.000000
      4        -15.249494   1.000000
      5        -13.213517   1.000000
      6        -13.092249   1.000000
      7        -10.709932   1.000000
      8        -10.495203   1.000000
      9        -10.466162   1.000000
     10         -9.919618   1.000000
     11         -9.330328   1.000000
     12         -9.003363   1.000000
     13         -7.909873   1.000000
     14         -7.660335   1.000000
     15         -7.401860   1.000000
     16         -7.252540   1.000000
     17         -6.148600   1.000000
     18         -6.119489   1.000000
     19         -5.956850   1.000000
     20         -5.812986   1.000000
     21         -4.397956   0.894451
     22         -4.358307   0.551363
     23         -0.866547   0.000000
     24         -0.650820   0.000000
     25         -0.412068   0.000000
     26         -0.110537   0.000000
     27          0.021308   0.000000
     28          0.406422   0.000000
     29          1.005771   0.000000
     30          1.298891   0.000000
     31          1.672981   0.000000
     32          1.833720   0.000000
     33          2.085219   0.000000
     34          2.215606   0.000000
     35          2.403810   0.000000
 
  0.5000000E-01  0.2222222E+00  0.1276756E-14  0.4444444E-01
      1        -19.925119   1.000000
      2        -19.199008   1.000000
      3        -15.301257   1.000000
      4        -15.147441   1.000000
      5        -13.342203   1.000000
      6        -12.706811   1.000000
      7        -11.207791   1.000000
      8        -11.110101   1.000000
      9        -10.709590   1.000000
     10         -9.961865   1.000000
     11         -9.822632   1.000000
     12         -8.084131   1.000000
     13         -7.679421   1.000000
     14         -7.494856   1.000000
     15         -7.200803   1.000000
     16         -7.099359   1.000000
     17         -6.704975   1.000000
     18         -6.031372   1.000000
     19         -5.756883   1.000000
     20         -4.588222   1.000000
     21         -4.306795   0.092111
     22         -3.926808   0.000000
     23         -1.502426   0.000000
     24         -1.305889   0.000000
     25         -1.253682   0.000000
     26         -0.925075   0.000000
     27         -0.189520   0.000000
     28          0.197084   0.000000
     29          1.014957   0.000000
     30          1.247440   0.000000
     31          1.542611   0.000000
     32          1.768463   0.000000
     33          1.945186   0.000000
     34          2.111003   0.000000
     35          2.544824   0.000000
 
  0.1500000E+00  0.2222222E+00  0.1276756E-14  0.4444444E-01
      1        -19.892708   1.000000
      2        -19.237014   1.000000
      3        -15.371984   1.000000
      4        -15.125684   1.000000
      5        -13.336204   1.000000
      6        -12.609722   1.000000
      7        -11.352585   1.000000
      8        -11.150548   1.000000
      9        -10.434088   1.000000
     10         -9.893121   1.000000
     11         -9.723351   1.000000
     12         -8.395911   1.000000
     13         -7.658356   1.000000
     14         -7.563965   1.000000
     15         -7.061859   1.000000
     16         -7.038922   1.000000
     17         -6.883416   1.000000
     18         -6.230473   1.000000
     19         -5.574655   1.000000
     20         -4.581287   1.000000
     21         -4.360059   0.570902
     22         -4.201498   0.000008
     23         -1.375776   0.000000
     24         -1.278570   0.000000
     25         -1.124125   0.000000
     26         -0.704941   0.000000
     27         -0.238658   0.000000
     28          0.484700   0.000000
     29          1.163795   0.000000
     30          1.238857   0.000000
     31          1.437293   0.000000
     32          1.844349   0.000000
     33          2.047747   0.000000
     34          2.074679   0.000000
     35          2.419744   0.000000
 
  0.2500000E+00  0.2222222E+00  0.1276756E-14  0.4444444E-01
      1        -19.830126   1.000000
      2        -19.308983   1.000000
      3        -15.427607   1.000000
      4        -15.153139   1.000000
      5        -13.294331   1.000000
      6        -12.532027   1.000000
      7        -11.452681   1.000000
      8        -11.038634   1.000000
      9        -10.079624   1.000000
     10        -10.033062   1.000000
     11         -9.487582   1.000000
     12         -8.737147   1.000000
     13         -7.749399   1.000000
     14         -7.543247   1.000000
     15         -7.095686   1.000000
     16         -7.050103   1.000000
     17         -7.019519   1.000000
     18         -6.247375   1.000000
     19         -5.491462   1.000000
     20         -4.850473   1.000000
     21         -4.496688   0.999974
     22         -4.293340   0.043777
     23         -1.305341   0.000000
     24         -0.990794   0.000000
     25         -0.848775   0.000000
     26         -0.469499   0.000000
     27         -0.286946   0.000000
     28          0.801166   0.000000
     29          1.119140   0.000000
     30          1.423336   0.000000
     31          1.509584   0.000000
     32          1.936809   0.000000
     33          2.091702   0.000000
     34          2.109067   0.000000
     35          2.224646   0.000000
 
  0.3500000E+00  0.2222222E+00  0.1276756E-14  0.4444444E-01
      1        -19.741968   1.000000
      2        -19.406922   1.000000
      3        -15.438268   1.000000
      4        -15.228495   1.000000
      5        -13.193048   1.000000
      6        -12.626795   1.000000
      7        -11.237621   1.000000
      8        -10.877666   1.000000
      9        -10.228919   1.000000
     10         -9.812833   1.000000
     11         -9.550960   1.000000
     12         -8.771460   1.000000
     13         -7.737869   1.000000
     14         -7.729517   1.000000
     15         -7.248976   1.000000
     16         -7.236658   1.000000
     17         -6.832821   1.000000
     18         -6.078269   1.000000
     19         -5.528630   1.000000
     20         -5.415310   1.000000
     21         -4.454855   0.997881
     22         -4.320686   0.174902
     23         -1.169566   0.000000
     24         -0.562546   0.000000
     25         -0.533126   0.000000
     26         -0.507950   0.000000
     27         -0.035149   0.000000
     28          0.584112   0.000000
     29          1.333656   0.000000
     30          1.591672   0.000000
     31          1.615117   0.000000
     32          1.687256   0.000000
     33          2.033249   0.000000
     34          2.063593   0.000000
     35          2.198792   0.000000
 
  0.4500000E+00  0.2222222E+00  0.1276756E-14  0.4444444E-01
      1        -19.635332   1.000000
      2        -19.519793   1.000000
      3        -15.399202   1.000000
      4        -15.321412   1.000000
      5        -13.031751   1.000000
      6        -12.828322   1.000000
      7        -10.792857   1.000000
      8        -10.677420   1.000000
      9        -10.453482   1.000000
     10        -10.260809   1.000000
     11         -9.188018   1.000000
     12         -8.846742   1.000000
     13         -7.734637   1.000000
     14         -7.631479   1.000000
     15         -7.496976   1.000000
     16         -7.453239   1.000000
     17         -6.456982   1.000000
     18         -5.971306   1.000000
     19         -5.861792   1.000000
     20         -5.664812   1.000000
     21         -4.401464   0.911455
     22         -4.354994   0.514117
     23         -0.971504   0.000000
     24         -0.753573   0.000000
     25         -0.182616   0.000000
     26          0.027349   0.000000
     27          0.200499   0.000000
     28          0.232328   0.000000
     29          1.201734   0.000000
     30          1.269251   0.000000
     31          1.537628   0.000000
     32          1.629902   0.000000
     33          2.209197   0.000000
     34          2.211306   0.000000
     35          2.240677   0.000000
 
  0.5000000E-01  0.3333333E+00  0.1276756E-14  0.4444444E-01
      1        -19.898093   1.000000
      2        -19.237868   1.000000
      3        -15.283598   1.000000
      4        -15.066520   1.000000
      5        -13.583851   1.000000
      6        -12.854028   1.000000
      7        -11.131859   1.000000
      8        -10.813844   1.000000
      9        -10.240191   1.000000
     10         -9.996047   1.000000
     11         -9.649172   1.000000
     12         -8.403081   1.000000
     13         -8.187806   1.000000
     14         -7.690870   1.000000
     15         -7.389381   1.000000
     16         -6.925954   1.000000
     17         -6.491159   1.000000
     18         -6.254784   1.000000
     19         -5.946622   1.000000
     20         -4.567749   1.000000
     21         -4.271221   0.009796
     22         -3.430677   0.000000
     23         -1.607606   0.000000
     24         -1.443829   0.000000
     25         -1.110905   0.000000
     26         -0.382374   0.000000
     27         -0.320592   0.000000
     28          0.123812   0.000000
     29          1.313028   0.000000
     30          1.418994   0.000000
     31          1.866037   0.000000
     32          1.956145   0.000000
     33          2.151896   0.000000
     34          2.197515   0.000000
     35          2.212971   0.000000
 
  0.1500000E+00  0.3333333E+00  0.1276756E-14  0.4444444E-01
      1        -19.867241   1.000000
      2        -19.270095   1.000000
      3        -15.375564   1.000000
      4        -15.088679   1.000000
      5        -13.458867   1.000000
      6        -12.737020   1.000000
      7        -11.076916   1.000000
      8        -11.066850   1.000000
      9        -10.058249   1.000000
     10        -10.034660   1.000000
     11         -9.542167   1.000000
     12         -8.627583   1.000000
     13         -8.030081   1.000000
     14         -7.611323   1.000000
     15         -7.559455   1.000000
     16         -6.916606   1.000000
     17         -6.668679   1.000000
     18         -6.306984   1.000000
     19         -5.670145   1.000000
     20         -4.557200   1.000000
     21         -4.324184   0.201569
     22         -3.940048   0.000000
     23         -1.317319   0.000000
     24         -1.185312   0.000000
     25         -1.132118   0.000000
     26         -0.417616   0.000000
     27         -0.249628   0.000000
     28          0.423823   0.000000
     29          1.385341   0.000000
     30          1.468969   0.000000
     31          1.589952   0.000000
     32          1.850674   0.000000
     33          1.982843   0.000000
     34          2.247960   0.000000
     35          2.315183   0.000000
 
  0.2500000E+00  0.3333333E+00  0.1276756E-14  0.4444444E-01
      1        -19.807907   1.000000
      2        -19.332076   1.000000
      3        -15.464318   1.000000
      4        -15.173085   1.000000
      5        -13.249695   1.000000
      6        -12.543628   1.000000
      7        -11.324382   1.000000
      8        -10.970286   1.000000
      9        -10.121178   1.000000
     10         -9.880215   1.000000
     11         -9.584586   1.000000
     12         -8.649716   1.000000
     13         -7.808757   1.000000
     14         -7.790211   1.000000
     15         -7.485081   1.000000
     16         -7.156828   1.000000
     17         -6.898788   1.000000
     18         -6.076147   1.000000
     19         -5.464411   1.000000
     20         -4.799605   1.000000
     21         -4.506800   0.999993
     22         -4.234546   0.000374
     23         -1.261711   0.000000
     24         -0.922359   0.000000
     25         -0.707772   0.000000
     26         -0.507438   0.000000
     27         -0.107204   0.000000
     28          0.821914   0.000000
     29          1.166725   0.000000
     30          1.485582   0.000000
     31          1.527178   0.000000
     32          1.771042   0.000000
     33          2.032556   0.000000
     34          2.279124   0.000000
     35          2.360135   0.000000
 
  0.3500000E+00  0.3333333E+00  0.1276756E-14  0.4444444E-01
      1        -19.724932   1.000000
      2        -19.418232   1.000000
      3        -15.504071   1.000000
      4        -15.292284   1.000000
      5        -13.005754   1.000000
      6        -12.420364   1.000000
      7        -11.388062   1.000000
      8        -10.819200   1.000000
      9        -10.260838   1.000000
     10        -10.171459   1.000000
     11         -9.376377   1.000000
     12         -8.566502   1.000000
     13         -7.859728   1.000000
     14         -7.683147   1.000000
     15         -7.429152   1.000000
     16         -7.280891   1.000000
     17         -7.079818   1.000000
     18         -5.805340   1.000000
     19         -5.507242   1.000000
     20         -5.378195   1.000000
     21         -4.467156   0.999331
     22         -4.296479   0.052653
     23         -1.217878   0.000000
     24         -0.755002   0.000000
     25         -0.393166   0.000000
     26         -0.293356   0.000000
     27          0.068916   0.000000
     28          0.757827   0.000000
     29          1.219382   0.000000
     30          1.239312   0.000000
     31          1.470384   0.000000
     32          2.046800   0.000000
     33          2.125018   0.000000
     34          2.158077   0.000000
     35          2.270970   0.000000
 
  0.4500000E+00  0.3333333E+00  0.1276756E-14  0.4444444E-01
      1        -19.625658   1.000000
      2        -19.519732   1.000000
      3        -15.482510   1.000000
      4        -15.405638   1.000000
      5        -12.754791   1.000000
      6        -12.526932   1.000000
      7        -11.114590   1.000000
      8        -10.655545   1.000000
      9        -10.636281   1.000000
     10        -10.441287   1.000000
     11         -9.033306   1.000000
     12         -8.714835   1.000000
     13         -7.809972   1.000000
     14         -7.657699   1.000000
     15         -7.536698   1.000000
     16         -7.303291   1.000000
     17         -6.789922   1.000000
     18         -6.191386   1.000000
     19         -5.574997   1.000000
     20         -5.421815   1.000000
     21         -4.409891   0.943871
     22         -4.350809   0.466942
     23         -1.096491   0.000000
     24         -0.920278   0.000000
     25          0.046050   0.000000
     26          0.070467   0.000000
     27          0.202799   0.000000
     28          0.424791   0.000000
     29          1.101158   0.000000
     30          1.359622   0.000000
     31          1.418519   0.000000
     32          1.436337   0.000000
     33          2.286656   0.000000
     34          2.385426   0.000000
     35          2.404620   0.000000
 
  0.5000000E-01  0.4444444E+00  0.1276756E-14  0.4444444E-01
      1        -19.878725   1.000000
      2        -19.264898   1.000000
      3        -15.269660   1.000000
      4        -15.007068   1.000000
      5        -13.730768   1.000000
      6        -12.940977   1.000000
      7        -11.071364   1.000000
      8        -10.608396   1.000000
      9        -10.114040   1.000000
     10         -9.755275   1.000000
     11         -9.449850   1.000000
     12         -8.600696   1.000000
     13         -8.559867   1.000000
     14         -8.186663   1.000000
     15         -7.294588   1.000000
     16         -6.697391   1.000000
     17         -6.371930   1.000000
     18         -6.368980   1.000000
     19         -6.178583   1.000000
     20         -4.551807   1.000000
     21         -4.256803   0.003055
     22         -3.164802   0.000000
     23         -1.745543   0.000000
     24         -1.385297   0.000000
     25         -1.016914   0.000000
     26         -0.444928   0.000000
     27          0.063279   0.000000
     28          0.259406   0.000000
     29          1.371122   0.000000
     30          1.619549   0.000000
     31          1.658364   0.000000
     32          1.886777   0.000000
     33          2.093509   0.000000
     34          2.104291   0.000000
     35          2.286921   0.000000
 
  0.1500000E+00  0.4444444E+00  0.1276756E-14  0.4444444E-01
      1        -19.849024   1.000000
      2        -19.293284   1.000000
      3        -15.367278   1.000000
      4        -15.079554   1.000000
      5        -13.501142   1.000000
      6        -12.848770   1.000000
      7        -11.018372   1.000000
      8        -10.804915   1.000000
      9        -10.135384   1.000000
     10         -9.760769   1.000000
     11         -9.519977   1.000000
     12         -8.619303   1.000000
     13         -8.384974   1.000000
     14         -7.962114   1.000000
     15         -7.537457   1.000000
     16         -6.978602   1.000000
     17         -6.545842   1.000000
     18         -6.136317   1.000000
     19         -5.858023   1.000000
     20         -4.542073   1.000000
     21         -4.319912   0.169315
     22         -3.834312   0.000000
     23         -1.243867   0.000000
     24         -1.126122   0.000000
     25         -1.051403   0.000000
     26         -0.497638   0.000000
     27          0.233009   0.000000
     28          0.346136   0.000000
     29          1.152312   0.000000
     30          1.466955   0.000000
     31          1.624417   0.000000
     32          1.826299   0.000000
     33          2.080820   0.000000