<?xml version="1.0" encoding="ISO-8859-1"?>
<modeling>
 <generator>
  <i name="program" type="string">vasp </i>
  <i name="version" type="string">6.5.0  </i>
  <i name="subversion" type="string">16Dec24 (build Jan 08 2025 16:17:04) complex                          parallel </i>
  <i name="platform" type="string">LinuxIFC </i>
  <i name="date" type="string">2025 02 24 </i>
  <i name="time" type="string">15:09:49 </i>
 </generator>
 <incar>
  <i type="string" name="SYSTEM">Parameters</i>
  <i type="int" name="ISTART">     0</i>
  <i type="string" name="PREC">Accurate</i>
  <i type="string" name="ALGO">Normal</i>
  <i type="int" name="ISPIN">     1</i>
  <i type="int" name="ICHARG">     2</i>
  <i type="int" name="NELM">    60</i>
  <i type="int" name="IBRION">     2</i>
  <i name="EDIFF">      0.00000100</i>
  <i name="EDIFFG">     -0.01000000</i>
  <i type="int" name="NSW">   300</i>
  <i type="int" name="ISIF">     3</i>
  <i name="ENCUT">    600.00000000</i>
  <i name="POTIM">      0.50000000</i>
  <i type="int" name="ISMEAR">     0</i>
  <i name="SIGMA">      0.05000000</i>
  <i type="logical" name="LWAVE"> F  </i>
  <i type="logical" name="LCHARG"> F  </i>
  <i type="string" name="GGA">PE</i>
  <i type="logical" name="LDIPOL"> T  </i>
  <i type="int" name="IDIPOL">     3</i>
  <v name="DIPOL">      0.50000000      0.50000000      0.08400000</v>
  <i type="int" name="IVDW">    12</i>
  <v type="logical" name="LATTICE_CONSTRAINTS"> T   T   F  </v>
 </incar>
 <primitive_cell>
  <structure name="primitive_cell" >
   <crystal>
    <varray name="basis" >
     <v>       5.70097065       0.00000000       0.00000000 </v>
     <v>       0.00000000       6.20187140       0.00000000 </v>
     <v>       0.00000000       0.00000000      24.04405832 </v>
    </varray>
    <i name="volume">    850.11823945 </i>
    <varray name="rec_basis" >
     <v>       0.17540873       0.00000000       0.00000000 </v>
     <v>       0.00000000       0.16124165       0.00000000 </v>
     <v>       0.00000000       0.00000000       0.04159032 </v>
    </varray>
   </crystal>
   <varray name="positions" >
    <v>       0.52128989       0.63795769       0.08409683 </v>
    <v>       0.47871011       0.36204231       0.08409683 </v>
    <v>       0.97871011       0.63795769       0.08409683 </v>
    <v>       0.02128989       0.36204231       0.08409683 </v>
    <v>       0.59744966       0.89986831       0.08409683 </v>
    <v>       0.40255034       0.10013168       0.08409683 </v>
    <v>       0.90255034       0.89986831       0.08409683 </v>
    <v>       0.09744966       0.10013168       0.08409683 </v>
    <v>       0.75000000       0.72957939       0.13313621 </v>
    <v>       0.25000000       0.27042061       0.03505746 </v>
    <v>       0.75000000       0.72957939       0.03505746 </v>
    <v>       0.25000000       0.27042061       0.13313621 </v>
    <v>       0.25000000       0.52399302       0.08409683 </v>
    <v>       0.75000000       0.47600695       0.08409683 </v>
   </varray>
  </structure>
  <varray name="primitive_index" >
   <v type="int" >        1 </v>
   <v type="int" >        2 </v>
   <v type="int" >        3 </v>
   <v type="int" >        4 </v>
   <v type="int" >        5 </v>
   <v type="int" >        6 </v>
   <v type="int" >        7 </v>
   <v type="int" >        8 </v>
   <v type="int" >        9 </v>
   <v type="int" >       10 </v>
   <v type="int" >       11 </v>
   <v type="int" >       12 </v>
   <v type="int" >       13 </v>
   <v type="int" >       14 </v>
  </varray>
 </primitive_cell>
 <kpoints>
  <generation param="Monkhorst-Pack">
   <v type="int" name="divisions">      10        9        1 </v>
   <v name="usershift">      0.00000000       0.00000000       0.00000000 </v>
   <v name="genvec1">      0.10000000       0.00000000       0.00000000 </v>
   <v name="genvec2">      0.00000000       0.11111111       0.00000000 </v>
   <v name="genvec3">      0.00000000       0.00000000       1.00000000 </v>
   <v name="shift">      0.50000000       0.00000000       0.00000000 </v>
  </generation>
  <varray name="kpointlist" >
   <v>       0.05000000       0.00000000       0.00000000 </v>
   <v>       0.15000000       0.00000000       0.00000000 </v>
   <v>       0.25000000       0.00000000       0.00000000 </v>
   <v>       0.35000000       0.00000000       0.00000000 </v>
   <v>       0.45000000       0.00000000       0.00000000 </v>
   <v>       0.05000000       0.11111111       0.00000000 </v>
   <v>       0.15000000       0.11111111       0.00000000 </v>
   <v>       0.25000000       0.11111111       0.00000000 </v>
   <v>       0.35000000       0.11111111       0.00000000 </v>
   <v>       0.45000000       0.11111111       0.00000000 </v>
   <v>       0.05000000       0.22222222       0.00000000 </v>
   <v>       0.15000000       0.22222222       0.00000000 </v>
   <v>       0.25000000       0.22222222       0.00000000 </v>
   <v>       0.35000000       0.22222222       0.00000000 </v>
   <v>       0.45000000       0.22222222       0.00000000 </v>
   <v>       0.05000000       0.33333333       0.00000000 </v>
   <v>       0.15000000       0.33333333       0.00000000 </v>
   <v>       0.25000000       0.33333333       0.00000000 </v>
   <v>       0.35000000       0.33333333       0.00000000 </v>
   <v>       0.45000000       0.33333333       0.00000000 </v>
   <v>       0.05000000       0.44444444       0.00000000 </v>
   <v>       0.15000000       0.44444444       0.00000000 </v>
   <v>       0.25000000       0.44444444       0.00000000 </v>
   <v>       0.35000000       0.44444444       0.00000000 </v>
   <v>       0.45000000       0.44444444       0.00000000 </v>
  </varray>
  <varray name="weights" >
   <v>       0.02222222 </v>
   <v>       0.02222222 </v>
   <v>       0.02222222 </v>
   <v>       0.02222222 </v>
   <v>       0.02222222 </v>
   <v>       0.04444444 </v>
   <v>       0.04444444 </v>
   <v>       0.04444444 </v>
   <v>       0.04444444 </v>
   <v>       0.04444444 </v>
   <v>       0.04444444 </v>
   <v>       0.04444444 </v>
   <v>       0.04444444 </v>
   <v>       0.04444444 </v>
   <v>       0.04444444 </v>
   <v>       0.04444444 </v>
   <v>       0.04444444 </v>
   <v>       0.04444444 </v>
   <v>       0.04444444 </v>
   <v>       0.04444444 </v>
   <v>       0.04444444 </v>
   <v>       0.04444444 </v>
   <v>       0.04444444 </v>
   <v>       0.04444444 </v>
   <v>       0.04444444 </v>
  </varray>
 </kpoints>
 <parameters>
  <separator name="general" >
   <i type="string" name="SYSTEM">Parameters</i>
   <i type="logical" name="LCOMPAT"> F  </i>
  </separator>
  <separator name="electronic" >
   <i type="string" name="PREC">accura</i>
   <i name="ENMAX">    600.00000000</i>
   <i name="ENAUG">    535.51400000</i>
   <i name="EDIFF">      0.00000100</i>
   <i type="int" name="IALGO">    38</i>
   <i type="int" name="IWAVPR">    11</i>
   <i type="int" name="NBANDS">    35</i>
   <i type="int" name="NBANDSLOW">    -1</i>
   <i type="int" name="NBANDSHIGH">    -1</i>
   <i name="NELECT">     42.00000000</i>
   <i type="int" name="TURBO">     0</i>
   <i type="int" name="IRESTART">     0</i>
   <i type="int" name="NREBOOT">     0</i>
   <i type="int" name="NMIN">     0</i>
   <i name="EREF">      0.00000000</i>
   <separator name="electronic smearing" >
    <i type="int" name="ISMEAR">     0</i>
    <i name="SIGMA">      0.05000000</i>
    <i name="KSPACING">      0.50000000</i>
    <i type="logical" name="KGAMMA"> T  </i>
    <i type="logical" name="KBLOWUP"> T  </i>
   </separator>
   <separator name="electronic projectors" >
    <i type="logical" name="LREAL"> F  </i>
    <v name="ROPT">      0.00000000</v>
    <i type="int" name="LMAXPAW">  -100</i>
    <i type="int" name="LMAXMIX">     2</i>
    <i type="logical" name="NLSPLINE"> F  </i>
   </separator>
   <separator name="electronic startup" >
    <i type="int" name="ISTART">     0</i>
    <i type="int" name="ICHARG">     2</i>
    <i type="int" name="INIWAV">     1</i>
   </separator>
   <separator name="electronic spin" >
    <i type="int" name="ISPIN">     1</i>
    <i type="logical" name="LNONCOLLINEAR"> F  </i>
    <v name="MAGMOM">      1.00000000      1.00000000      1.00000000      1.00000000      1.00000000      1.00000000      1.00000000      1.00000000      1.00000000      1.00000000      1.00000000      1.00000000      1.00000000      1.00000000</v>
    <i name="NUPDOWN">     -1.00000000</i>
    <i type="logical" name="LSORBIT"> F  </i>
    <v name="SAXIS">      0.00000000      0.00000000      1.00000000</v>
    <i type="logical" name="LSPIRAL"> F  </i>
    <v name="QSPIRAL">      0.00000000      0.00000000      0.00000000</v>
    <i type="logical" name="LZEROZ"> F  </i>
   </separator>
   <separator name="electronic exchange-correlation" >
    <i type="logical" name="LASPH"> F  </i>
   </separator>
   <separator name="electronic convergence" >
    <i type="int" name="NELM">    60</i>
    <i type="int" name="NELMDL">    -5</i>
    <i type="int" name="NELMIN">     2</i>
    <i name="ENINI">    600.00000000</i>
    <separator name="electronic convergence detail" >
     <i type="logical" name="LDIAG"> T  </i>
     <i type="logical" name="LSUBROT"> F  </i>
     <i name="WEIMIN">      0.00100000</i>
     <i name="EBREAK">      0.00000001</i>
     <i name="DEPER">      0.30000000</i>
     <i type="int" name="NRMM">     4</i>
     <i name="TIME">      0.40000000</i>
    </separator>
   </separator>
   <separator name="electronic mixer" >
    <i name="AMIX">      0.40000000</i>
    <i name="BMIX">      1.00000000</i>
    <i name="AMIN">      0.10000000</i>
    <i name="AMIX_MAG">      1.60000000</i>
    <i name="BMIX_MAG">      1.00000000</i>
    <separator name="electronic mixer details" >
     <i type="int" name="IMIX">     4</i>
     <i type="logical" name="MIXFIRST"> F  </i>
     <i type="int" name="MAXMIX">   -45</i>
     <i name="WC">    100.00000000</i>
     <i type="int" name="INIMIX">     1</i>
     <i type="int" name="MIXPRE">     1</i>
     <i type="int" name="MREMOVE">     5</i>
    </separator>
   </separator>
   <separator name="electronic dipolcorrection" >
    <i type="logical" name="LDIPOL"> T  </i>
    <i type="logical" name="LMONO"> F  </i>
    <i type="int" name="IDIPOL">     3</i>
    <i name="EPSILON">      1.00000000</i>
    <v name="DIPOL">      0.50000000      0.50000000      0.08400000</v>
    <i name="EFIELD">      0.00000000</i>
    <i type="logical" name="LVACPOTAV"> F  </i>
   </separator>
  </separator>
  <separator name="grids" >
   <i type="int" name="NGX">    48</i>
   <i type="int" name="NGY">    50</i>
   <i type="int" name="NGZ">   192</i>
   <i type="int" name="NGXF">    96</i>
   <i type="int" name="NGYF">   100</i>
   <i type="int" name="NGZF">   384</i>
   <i type="logical" name="ADDGRID"> F  </i>
  </separator>
  <separator name="ionic" >
   <i type="int" name="NSW">   300</i>
   <i type="int" name="IBRION">     2</i>
   <i type="int" name="MDALGO">     0</i>
   <i type="int" name="ISIF">     3</i>
   <i name="PSTRESS">      0.00000000</i>
   <i name="EDIFFG">     -0.01000000</i>
   <i type="int" name="NFREE">     1</i>
   <i name="POTIM">      0.50000000</i>
   <i name="SMASS">     -3.00000000</i>
   <i name="SCALEE">      1.00000000</i>
  </separator>
  <separator name="ionic md" >
   <i name="TEBEG">      0.00010000</i>
   <i name="TEEND">      0.00010000</i>
   <i type="int" name="NBLOCK">     1</i>
   <i type="int" name="KBLOCK">   300</i>
   <i type="int" name="NPACO">   256</i>
   <i name="APACO">     10.00000000</i>
  </separator>
  <separator name="symmetry" >
   <i type="int" name="ISYM">     2</i>
   <i name="SYMPREC">      0.00001000</i>
  </separator>
  <separator name="dos" >
   <i type="int" name="LORBIT">     0</i>
   <v name="RWIGS">     -1.00000000</v>
   <i type="int" name="NEDOS">   301</i>
   <i name="EMIN">     10.00000000</i>
   <i name="EMAX">    -10.00000000</i>
   <i name="EFERMI">      0.00000000</i>
  </separator>
  <separator name="writing" >
   <i type="int" name="NWRITE">     2</i>
   <i type="logical" name="LWAVE"> F  </i>
   <i type="logical" name="LDOWNSAMPLE"> F  </i>
   <i type="logical" name="LCHARG"> F  </i>
   <i type="logical" name="LPARD"> F  </i>
   <i type="logical" name="LVTOT"> F  </i>
   <i type="logical" name="LVHAR"> F  </i>
   <i type="logical" name="LELF"> F  </i>
   <i type="logical" name="LOPTICS"> F  </i>
   <v name="STM">      0.00000000      0.00000000      0.00000000      0.00000000      0.00000000      0.00000000      0.00000000</v>
  </separator>
  <separator name="performance" >
   <i type="int" name="NPAR">     7</i>
   <i type="int" name="NSIM">     4</i>
   <i type="int" name="NBLK">    -1</i>
   <i type="logical" name="LPLANE"> T  </i>
   <i type="logical" name="LSCALAPACK"> T  </i>
   <i type="logical" name="LSCAAWARE"> F  </i>
   <i type="logical" name="LSCALU"> F  </i>
   <i type="logical" name="LASYNC"> F  </i>
   <i type="logical" name="LORBITALREAL"> F  </i>
  </separator>
  <separator name="miscellaneous" >
   <i type="int" name="IDIOT">     3</i>
   <i type="int" name="PHON_NSTRUCT">    -1</i>
   <i type="logical" name="LMUSIC"> F  </i>
   <v name="POMASS">     10.81100000</v>
   <v name="DARWINR">      0.00000000</v>
   <v name="DARWINV">      1.00000000</v>
   <i type="logical" name="LCORR"> T  </i>
  </separator>
  <i type="logical" name="GGA_COMPAT"> T  </i>
  <i type="logical" name="LBERRY"> F  </i>
  <i type="int" name="ICORELEVEL">     0</i>
  <i type="logical" name="LDAU"> F  </i>
  <i type="int" name="I_CONSTRAINED_M">     0</i>
  <separator name="electronic exchange-correlation" >
   <i type="string" name="GGA    ">PE</i>
   <i type="string" name="XC_C">1</i>
   <i type="int" name="VOSKOWN">     0</i>
   <i type="logical" name="LHFCALC"> F  </i>
   <i type="string" name="PRECFOCK"></i>
   <i type="logical" name="LSYMGRAD"> F  </i>
   <i type="logical" name="LHFONE"> F  </i>
   <i type="logical" name="LRHFCALC"> F  </i>
   <i type="logical" name="LTHOMAS"> F  </i>
   <i type="logical" name="LMODELHF"> F  </i>
   <i type="logical" name="LFOCKACE"> F  </i>
   <i name="ENCUT4O">     -1.00000000</i>
   <i type="int" name="EXXOEP">     0</i>
   <i type="int" name="FOURORBIT">     0</i>
   <i name="AEXX">      0.00000000</i>
   <i name="HFALPHA">      0.00000000</i>
   <i name="MCALPHA">      0.00000000</i>
   <i name="ALDAX">      1.00000000</i>
   <i name="AGGAX">      1.00000000</i>
   <i name="AMGGAX">      1.00000000</i>
   <i name="ALDAC">      1.00000000</i>
   <i name="AGGAC">      1.00000000</i>
   <i name="AMGGAC">      1.00000000</i>
   <i type="int" name="NKREDX">     1</i>
   <i type="int" name="NKREDY">     1</i>
   <i type="int" name="NKREDZ">     1</i>
   <i type="logical" name="SHIFTRED"> F  </i>
   <i type="logical" name="ODDONLY"> F  </i>
   <i type="logical" name="EVENONLY"> F  </i>
   <i type="int" name="LMAXFOCK">     0</i>
   <i type="int" name="NMAXFOCKAE">     0</i>
   <i type="logical" name="LFOCKAEDFT"> F  </i>
   <i name="HFSCREEN">      0.00000000</i>
   <i name="HFSCREENC">      0.00000000</i>
   <i type="int" name="NBANDSGWLOW">     0</i>
  </separator>
  <separator name="vdW DFT" >
   <i type="logical" name="LUSE_VDW"> F  </i>
   <i type="int" name="IVDW_NL">    -1</i>
   <i type="logical" name="LSPIN_VDW"> F  </i>
   <i name="ZAB_VDW">     -0.84910000</i>
   <i name="GAMMA_VDW">      1.39626340</i>
   <i name="ALPHA_VDW">      0.00000000</i>
   <i name="PARAM1">      0.12340000</i>
   <i name="PARAM2">      1.00000000</i>
   <i name="BPARAM">      6.30000000</i>
   <i name="CPARAM">      0.00930000</i>
  </separator>
  <separator name="model GW" >
   <i type="int" name="MODEL_GW">     0</i>
   <i name="MODEL_EPS0">     36.43363883</i>
   <i name="MODEL_ALPHA">      1.00000000</i>
  </separator>
  <separator name="linear response parameters" >
   <i type="logical" name="LEPSILON"> F  </i>
   <i type="logical" name="LRPA"> F  </i>
   <i type="logical" name="LNABLA"> F  </i>
   <i type="logical" name="LVEL"> F  </i>
   <i name="CSHIFT">      0.10000000</i>
   <i name="OMEGAMAX">     -1.00000000</i>
   <i name="DEG_THRESHOLD">      0.00200000</i>
   <i name="RTIME">     -0.10000000</i>
   <i name="WPLASMAI">      0.00000000</i>
   <v name="DFIELD">      0.00000000      0.00000000      0.00000000</v>
   <v name="WPLASMA">      0.00000000      0.00000000      0.00000000      0.00000000      0.00000000      0.00000000      0.00000000      0.00000000      0.00000000</v>
  </separator>
  <separator name="orbital magnetization" >
   <i type="logical" name="NUCIND"> F  </i>
   <v name="MAGPOS">      0.00000000      0.00000000      0.00000000</v>
   <i type="logical" name="LNICSALL"> T  </i>
   <i type="logical" name="ORBITALMAG"> F  </i>
   <i type="logical" name="LMAGBLOCH"> F  </i>
   <i type="logical" name="LCHIMAG"> F  </i>
   <i type="logical" name="LGAUGE"> T  </i>
   <i type="int" name="MAGATOM">     0</i>
   <v name="MAGDIPOL">      0.00000000      0.00000000      0.00000000</v>
   <v name="AVECCONST">      0.00000000      0.00000000      0.00000000</v>
  </separator>
  <separator name="response functions" >
   <i type="logical" name="LALL_IN_ONE"> F  </i>
   <i type="int" name="IALL_IN_ONE">    -1</i>
   <i type="int" name="NBANDS_WAVE">    -1</i>
   <i type="logical" name="LFINITE_TEMPERATURE"> F  </i>
   <i type="logical" name="LADDER"> F  </i>
   <i type="logical" name="LRPAFORCE"> F  </i>
   <i type="logical" name="LFXC"> F  </i>
   <i type="logical" name="LHARTREE"> T  </i>
   <i type="int" name="IBSE">     2</i>
   <v type="int" name="KPOINT">    -1     0     0     0</v>
   <i type="logical" name="LTCTC"> F  </i>
   <i type="logical" name="LTCTE"> F  </i>
   <i type="logical" name="LTETE"> F  </i>
   <i type="logical" name="LTRIPLET"> F  </i>
   <i type="logical" name="LFXCEPS"> F  </i>
   <i type="logical" name="LFXHEG"> F  </i>
   <i type="int" name="NATURALO">     2</i>
   <i type="logical" name="LHOLEGF"> F  </i>
   <i type="logical" name="L2ORDER"> F  </i>
   <i type="logical" name="LDMP1"> F  </i>
   <i type="logical" name="LMP2LT"> F  </i>
   <i type="logical" name="LSMP2LT"> F  </i>
   <i type="logical" name="LGWLF"> F  </i>
   <i name="ENCUTGW">     -1.60000002</i>
   <i name="ENCUTGWSOFT">     -1.60000002</i>
   <i name="ENCUTLF">     -1.00000000</i>
   <i type="logical" name="ESF_SPLINES"> F  </i>
   <i name="ESF_CONV">      0.01000000</i>
   <i type="int" name="ESF_NINTER">    15</i>
   <i type="int" name="LMAXMP2">    -1</i>
   <i name="SCISSOR">      0.00000000</i>
   <i type="int" name="NOMEGA">     0</i>
   <i type="int" name="NOMEGAR">     0</i>
   <i type="int" name="NBANDSGW">    -1</i>
   <i type="int" name="NBANDSO">    -1</i>
   <i type="int" name="NBANDSV">    -1</i>
   <i type="int" name="NELMGW">     1</i>
   <i type="int" name="NELMHF">     1</i>
   <i type="int" name="DIM">     3</i>
   <i type="int" name="IESPILON">     4</i>
   <i type="int" name="ANTIRES">     0</i>
   <i name="OMEGAMAX">    -30.00000000</i>
   <i name="OMEGAMIN">    -30.00000000</i>
   <i name="OMEGATL">   -200.00000000</i>
   <i type="int" name="OMEGAGRID">     0</i>
   <i name="CSHIFT">     -0.10000000</i>
   <i type="logical" name="LSELFENERGY"> F  </i>
   <i type="logical" name="LSPECTRAL"> F  </i>
   <i type="logical" name="LSPECTRALGW"> F  </i>
   <i type="logical" name="LSINGLES"> F  </i>
   <i type="logical" name="LFERMIGW"> F  </i>
   <i type="logical" name="ODDONLYGW"> F  </i>
   <i type="logical" name="EVENONLYGW"> F  </i>
   <i type="int" name="NKREDLFX">     1</i>
   <i type="int" name="NKREDLFY">     1</i>
   <i type="int" name="NKREDLFZ">     1</i>
   <i type="int" name="MAXMEM">  2800</i>
   <i type="int" name="TELESCOPE">     0</i>
   <i type="int" name="NTAUPAR">    -1</i>
   <i type="int" name="NOMEGAPAR">    -1</i>
   <i name="DAMP_NEWTON">      0.80000001</i>
   <i name="LAMBDA">      1.00000000</i>
  </separator>
  <separator name="External order field" >
   <i name="OFIELD_KAPPA">      0.00000000</i>
   <v name="OFIELD_K">      0.00000000      0.00000000      0.00000000</v>
   <i name="OFIELD_Q6_NEAR">      0.00000000</i>
   <i name="OFIELD_Q6_FAR">      0.00000000</i>
   <i name="OFIELD_A">      0.00000000</i>
  </separator>
  <separator name="optional k-points parameters" >
   <i type="int" name="KPOINTS_OPT_MODE">     1</i>
   <i type="logical" name="LKPOINTS_OPT"> F  </i>
  </separator>
 </parameters>
 <atominfo>
  <atoms>      14 </atoms>
  <types>       1 </types>
  <array name="atoms" >
   <dimension dim="1">ion</dimension>
   <field type="string">element</field>
   <field type="int">atomtype</field>
   <set>
    <rc><c>B </c><c>   1</c></rc>
    <rc><c>B </c><c>   1</c></rc>
    <rc><c>B </c><c>   1</c></rc>
    <rc><c>B </c><c>   1</c></rc>
    <rc><c>B </c><c>   1</c></rc>
    <rc><c>B </c><c>   1</c></rc>
    <rc><c>B </c><c>   1</c></rc>
    <rc><c>B </c><c>   1</c></rc>
    <rc><c>B </c><c>   1</c></rc>
    <rc><c>B </c><c>   1</c></rc>
    <rc><c>B </c><c>   1</c></rc>
    <rc><c>B </c><c>   1</c></rc>
    <rc><c>B </c><c>   1</c></rc>
    <rc><c>B </c><c>   1</c></rc>
   </set>
  </array>
  <array name="atomtypes" >
   <dimension dim="1">type</dimension>
   <field type="int">atomspertype</field>
   <field type="string">element</field>
   <field>mass</field>
   <field>valence</field>
   <field type="string">pseudopotential</field>
   <set>
    <rc><c>  14</c><c>B </c><c>     10.81100000</c><c>      3.00000000</c><c>  PAW_PBE B 06Sep2000                   </c></rc>
   </set>
  </array>
 </atominfo>
 <structure name="initialpos" >
  <crystal>
   <varray name="basis" >
    <v>       5.70097065       0.00000000       0.00000000 </v>
    <v>       0.00000000       6.20187140       0.00000000 </v>
    <v>       0.00000000       0.00000000      24.04405832 </v>
   </varray>
   <i name="volume">    850.11823945 </i>
   <varray name="rec_basis" >
    <v>       0.17540873       0.00000000       0.00000000 </v>
    <v>       0.00000000       0.16124165       0.00000000 </v>
    <v>       0.00000000       0.00000000       0.04159032 </v>
   </varray>
  </crystal>
  <varray name="positions" >
   <v>       0.52128989       0.63795769       0.08409683 </v>
   <v>       0.47871011       0.36204231       0.08409683 </v>
   <v>       0.97871011       0.63795769       0.08409683 </v>
   <v>       0.02128989       0.36204231       0.08409683 </v>
   <v>       0.59744966       0.89986831       0.08409683 </v>
   <v>       0.40255034       0.10013168       0.08409683 </v>
   <v>       0.90255034       0.89986831       0.08409683 </v>
   <v>       0.09744966       0.10013168       0.08409683 </v>
   <v>       0.75000000       0.72957939       0.13313621 </v>
   <v>       0.25000000       0.27042061       0.03505746 </v>
   <v>       0.75000000       0.72957939       0.03505746 </v>
   <v>       0.25000000       0.27042061       0.13313621 </v>
   <v>       0.25000000       0.52399302       0.08409683 </v>
   <v>       0.75000000       0.47600695       0.08409683 </v>
  </varray>
 </structure>
 <calculation>
  <scstep>
   <time name="dav">    0.92    0.92</time>
   <time name="total">    0.96    0.97</time>
   <dipole>
    <v name="dipole">      0.00000000       0.00000000      -0.00000327 </v>
    <i name="Tr[quadrupol]">   -255.55724718 </i>
    <i name="Echarged">      0.00000000 </i>
    <i name="Edipol_quadrupol">      0.00000000 </i>
    <i name="Eion">      0.00000000 </i>
   </dipole>
   <energy>
    <i name="alphaZ">     15.86113418 </i>
    <i name="ewald">   6320.24766130 </i>
    <i name="hartreedc">  -6941.67214916 </i>
    <i name="XCdc">     94.76451061 </i>
    <i name="pawpsdc">    608.99811708 </i>
    <i name="pawaedc">   -597.02363782 </i>
    <i name="eentropy">     -0.00947705 </i>
    <i name="bandstr">   -179.72775483 </i>
    <i name="atom">    996.37441054 </i>
    <i name="e_fr_energy">    317.81281486 </i>
    <i name="e_wo_entrp">    317.82229191 </i>
    <i name="e_0_energy">    317.81755338 </i>
   </energy>
  </scstep>
  <scstep>
   <time name="dav">    1.27    1.27</time>
   <time name="total">    1.27    1.27</time>
   <dipole>
    <v name="dipole">      0.00000000       0.00000000      -0.00000327 </v>
    <i name="Tr[quadrupol]">   -255.55724718 </i>
    <i name="Echarged">      0.00000000 </i>
    <i name="Edipol_quadrupol">      0.00000000 </i>
    <i name="Eion">      0.00000000 </i>
   </dipole>
   <energy>
    <i name="e_fr_energy">    -45.29693872 </i>
    <i name="e_wo_entrp">    -45.28792072 </i>
    <i name="e_0_energy">    -45.29242972 </i>
   </energy>
  </scstep>
  <scstep>
   <time name="dav">    1.15    1.16</time>
   <time name="total">    1.15    1.16</time>
   <dipole>
    <v name="dipole">      0.00000000       0.00000000      -0.00000327 </v>
    <i name="Tr[quadrupol]">   -255.55724718 </i>
    <i name="Echarged">      0.00000000 </i>
    <i name="Edipol_quadrupol">      0.00000000 </i>
    <i name="Eion">      0.00000000 </i>
   </dipole>
   <energy>
    <i name="e_fr_energy">    -93.12185918 </i>
    <i name="e_wo_entrp">    -93.11137002 </i>
    <i name="e_0_energy">    -93.11661460 </i>
   </energy>
  </scstep>
  <scstep>
   <time name="dav">    1.10    1.11</time>
   <time name="total">    1.10    1.11</time>
   <dipole>
    <v name="dipole">      0.00000000       0.00000000      -0.00000327 </v>
    <i name="Tr[quadrupol]">   -255.55724718 </i>
    <i name="Echarged">      0.00000000 </i>
    <i name="Edipol_quadrupol">      0.00000000 </i>
    <i name="Eion">      0.00000000 </i>
   </dipole>
   <energy>
    <i name="e_fr_energy">    -94.18093174 </i>
    <i name="e_wo_entrp">    -94.16999942 </i>
    <i name="e_0_energy">    -94.17546558 </i>
   </energy>
  </scstep>
  <scstep>
   <time name="dav">    1.29    1.29</time>
   <time name="total">    1.38    1.39</time>
   <dipole>
    <v name="dipole">      0.00000000       0.00000000      -0.00000327 </v>
    <i name="Tr[quadrupol]">   -255.55724718 </i>
    <i name="Echarged">      0.00000000 </i>
    <i name="Edipol_quadrupol">      0.00000000 </i>
    <i name="Eion">      0.00000000 </i>
   </dipole>
   <energy>
    <i name="e_fr_energy">    -94.20621591 </i>
    <i name="e_wo_entrp">    -94.19527852 </i>
    <i name="e_0_energy">    -94.20074722 </i>
   </energy>
  </scstep>
  <scstep>
   <time name="dav">    1.13    1.14</time>
   <time name="total">    1.25    1.25</time>
   <dipole>
    <v name="dipole">      0.00000000       0.00000000       0.00031110 </v>
    <i name="Tr[quadrupol]">   -257.02350281 </i>
    <i name="Echarged">      0.00000000 </i>
    <i name="Edipol_quadrupol">      0.00000000 </i>
    <i name="Eion">      0.00000000 </i>
   </dipole>
   <energy>
    <i name="e_fr_energy">    -85.74847736 </i>
    <i name="e_wo_entrp">    -85.73248315 </i>
    <i name="e_0_energy">    -85.74048026 </i>
   </energy>
  </scstep>
  <scstep>
   <time name="dav">    1.12    1.12</time>
   <time name="total">    1.23    1.24</time>
   <dipole>
    <v name="dipole">      0.00000000       0.00000000       0.00062524 </v>
    <i name="Tr[quadrupol]">   -258.13933089 </i>
    <i name="Echarged">      0.00000000 </i>
    <i name="Edipol_quadrupol">      0.00000000 </i>
    <i name="Eion">      0.00000000 </i>
   </dipole>
   <energy>
    <i name="e_fr_energy">    -84.33182746 </i>
    <i name="e_wo_entrp">    -84.31410177 </i>
    <i name="e_0_energy">    -84.32296462 </i>
   </energy>
  </scstep>
  <scstep>
   <time name="dav">    1.10    1.10</time>
   <time name="total">    1.22    1.22</time>
   <dipole>
    <v name="dipole">      0.00000000       0.00000000       0.00083541 </v>
    <i name="Tr[quadrupol]">   -258.68783320 </i>
    <i name="Echarged">      0.00000000 </i>
    <i name="Edipol_quadrupol">      0.00000000 </i>
    <i name="Eion">      0.00000000 </i>
   </dipole>
   <energy>
    <i name="e_fr_energy">    -84.23782479 </i>
    <i name="e_wo_entrp">    -84.22447296 </i>
    <i name="e_0_energy">    -84.23114887 </i>
   </energy>
  </scstep>
  <scstep>
   <time name="dav">    1.28    1.28</time>
   <time name="total">    1.41    1.42</time>
   <dipole>
    <v name="dipole">      0.00000000       0.00000000       0.00090272 </v>
    <i name="Tr[quadrupol]">   -258.96725642 </i>
    <i name="Echarged">      0.00000000 </i>
    <i name="Edipol_quadrupol">      0.00000000 </i>
    <i name="Eion">      0.00000000 </i>
   </dipole>
   <energy>
    <i name="e_fr_energy">    -84.11290497 </i>
    <i name="e_wo_entrp">    -84.09569195 </i>
    <i name="e_0_energy">    -84.10429846 </i>
   </energy>
  </scstep>
  <scstep>
   <time name="dav">    1.34    1.35</time>
   <time name="total">    1.46    1.46</time>
   <dipole>
    <v name="dipole">      0.00000000       0.00000000       0.00103319 </v>
    <i name="Tr[quadrupol]">   -259.39039139 </i>
    <i name="Echarged">      0.00000000 </i>
    <i name="Edipol_quadrupol">      0.00000000 </i>
    <i name="Eion">      0.00000000 </i>
   </dipole>
   <energy>
    <i name="e_fr_energy">    -84.10328563 </i>
    <i name="e_wo_entrp">    -84.08656653 </i>
    <i name="e_0_energy">    -84.09492608 </i>
   </energy>
  </scstep>
  <scstep>
   <time name="dav">    1.17    1.18</time>
   <time name="total">    1.29    1.29</time>
   <dipole>
    <v name="dipole">      0.00000000       0.00000000       0.00106167 </v>
    <i name="Tr[quadrupol]">   -259.55681434 </i>
    <i name="Echarged">      0.00000000 </i>
    <i name="Edipol_quadrupol">      0.00000000 </i>
    <i name="Eion">      0.00000000 </i>
   </dipole>
   <energy>
    <i name="e_fr_energy">    -84.09757374 </i>
    <i name="e_wo_entrp">    -84.08048622 </i>
    <i name="e_0_energy">    -84.08902998 </i>
   </energy>
  </scstep>
  <scstep>
   <time name="dav">    1.10    1.11</time>
   <time name="total">    1.22    1.23</time>
   <dipole>
    <v name="dipole">      0.00000000       0.00000000       0.00108210 </v>
    <i name="Tr[quadrupol]">   -259.86913408 </i>
    <i name="Echarged">      0.00000000 </i>
    <i name="Edipol_quadrupol">      0.00000000 </i>
    <i name="Eion">      0.00000000 </i>
   </dipole>
   <energy>
    <i name="e_fr_energy">    -84.09557307 </i>
    <i name="e_wo_entrp">    -84.07912236 </i>
    <i name="e_0_energy">    -84.08734772 </i>
   </energy>
  </scstep>
  <scstep>
   <time name="dav">    1.22    1.23</time>
   <time name="total">    1.34    1.35</time>
   <dipole>
    <v name="dipole">      0.00000000       0.00000000       0.00101417 </v>
    <i name="Tr[quadrupol]">   -260.11283299 </i>
    <i name="Echarged">      0.00000000 </i>
    <i name="Edipol_quadrupol">      0.00000000 </i>
    <i name="Eion">      0.00000000 </i>
   </dipole>
   <energy>
    <i name="e_fr_energy">    -84.09708949 </i>
    <i name="e_wo_entrp">    -84.08100061 </i>
    <i name="e_0_energy">    -84.08904505 </i>
   </energy>
  </scstep>
  <scstep>
   <time name="dav">    1.03    1.03</time>
   <time name="total">    1.15    1.15</time>
   <dipole>
    <v name="dipole">      0.00000000       0.00000000       0.00082400 </v>
    <i name="Tr[quadrupol]">   -260.22550683 </i>
    <i name="Echarged">      0.00000000 </i>
    <i name="Edipol_quadrupol">      0.00000000 </i>
    <i name="Eion">      0.00000000 </i>
   </dipole>
   <energy>
    <i name="e_fr_energy">    -84.09924946 </i>
    <i name="e_wo_entrp">    -84.08314201 </i>
    <i name="e_0_energy">    -84.09119573 </i>
   </energy>
  </scstep>
  <scstep>
   <time name="dav">    1.15    1.16</time>
   <time name="total">    1.27    1.28</time>
   <dipole>
    <v name="dipole">      0.00000000       0.00000000       0.00060179 </v>
    <i name="Tr[quadrupol]">   -260.26271884 </i>
    <i name="Echarged">      0.00000000 </i>
    <i name="Edipol_quadrupol">      0.00000000 </i>
    <i name="Eion">      0.00000000 </i>
   </dipole>
   <energy>
    <i name="e_fr_energy">    -84.10092149 </i>
    <i name="e_wo_entrp">    -84.08487379 </i>
    <i name="e_0_energy">    -84.09289764 </i>
   </energy>
  </scstep>
  <scstep>
   <time name="dav">    1.15    1.15</time>
   <time name="total">    1.27    1.27</time>
   <dipole>
    <v name="dipole">      0.00000000       0.00000000       0.00041033 </v>
    <i name="Tr[quadrupol]">   -260.25646393 </i>
    <i name="Echarged">      0.00000000 </i>
    <i name="Edipol_quadrupol">      0.00000000 </i>
    <i name="Eion">      0.00000000 </i>
   </dipole>
   <energy>
    <i name="e_fr_energy">    -84.10219684 </i>
    <i name="e_wo_entrp">    -84.08616434 </i>
    <i name="e_0_energy">    -84.09418059 </i>
   </energy>
  </scstep>
  <scstep>
   <time name="dav">    1.06    1.07</time>
   <time name="total">    1.18    1.19</time>
   <dipole>
    <v name="dipole">      0.00000000       0.00000000       0.00021059 </v>
    <i name="Tr[quadrupol]">   -260.24160152 </i>
    <i name="Echarged">      0.00000000 </i>
    <i name="Edipol_quadrupol">      0.00000000 </i>
    <i name="Eion">      0.00000000 </i>
   </dipole>
   <energy>
    <i name="e_fr_energy">    -84.10314590 </i>
    <i name="e_wo_entrp">    -84.08711941 </i>
    <i name="e_0_energy">    -84.09513266 </i>
   </energy>
  </scstep>
  <scstep>
   <time name="dav">    1.26    1.27</time>
   <time name="total">    1.38    1.39</time>
   <dipole>
    <v name="dipole">      0.00000000       0.00000000       0.00015421 </v>
    <i name="Tr[quadrupol]">   -260.23770633 </i>
    <i name="Echarged">      0.00000000 </i>
    <i name="Edipol_quadrupol">      0.00000000 </i>
    <i name="Eion">      0.00000000 </i>
   </dipole>
   <energy>
    <i name="e_fr_energy">    -84.10330129 </i>
    <i name="e_wo_entrp">    -84.08727488 </i>
    <i name="e_0_energy">    -84.09528808 </i>
   </energy>
  </scstep>
  <scstep>
   <time name="dav">    1.14    1.15</time>
   <time name="total">    1.26    1.27</time>
   <dipole>
    <v name="dipole">      0.00000000       0.00000000       0.00006002 </v>
    <i name="Tr[quadrupol]">   -260.22875536 </i>
    <i name="Echarged">      0.00000000 </i>
    <i name="Edipol_quadrupol">      0.00000000 </i>
    <i name="Eion">      0.00000000 </i>
   </dipole>
   <energy>
    <i name="e_fr_energy">    -84.10351551 </i>
    <i name="e_wo_entrp">    -84.08748856 </i>
    <i name="e_0_energy">    -84.09550203 </i>
   </energy>
  </scstep>
  <scstep>
   <time name="dav">    1.14    1.14</time>
   <time name="total">    1.26    1.26</time>
   <dipole>
    <v name="dipole">      0.00000000       0.00000000       0.00002849 </v>
    <i name="Tr[quadrupol]">   -260.22639703 </i>
    <i name="Echarged">      0.00000000 </i>
    <i name="Edipol_quadrupol">      0.00000000 </i>
    <i name="Eion">      0.00000000 </i>
   </dipole>
   <energy>
    <i name="e_fr_energy">    -84.10355572 </i>
    <i name="e_wo_entrp">    -84.08752986 </i>
    <i name="e_0_energy">    -84.09554279 </i>
   </energy>
  </scstep>
  <scstep>
   <time name="dav">    1.06    1.06</time>
   <time name="total">    1.18    1.18</time>
   <dipole>
    <v name="dipole">      0.00000000       0.00000000       0.00001122 </v>
    <i name="Tr[quadrupol]">   -260.22485866 </i>
    <i name="Echarged">      0.00000000 </i>
    <i name="Edipol_quadrupol">      0.00000000 </i>
    <i name="Eion">      0.00000000 </i>
   </dipole>
   <energy>
    <i name="e_fr_energy">    -84.10357029 </i>
    <i name="e_wo_entrp">    -84.08754403 </i>
    <i name="e_0_energy">    -84.09555716 </i>
   </energy>
  </scstep>
  <scstep>
   <time name="dav">    1.12    1.13</time>
   <time name="total">    1.24    1.25</time>
   <dipole>
    <v name="dipole">      0.00000000       0.00000000       0.00000563 </v>
    <i name="Tr[quadrupol]">   -260.22422429 </i>
    <i name="Echarged">      0.00000000 </i>
    <i name="Edipol_quadrupol">      0.00000000 </i>
    <i name="Eion">      0.00000000 </i>
   </dipole>
   <energy>
    <i name="e_fr_energy">    -84.10357342 </i>
    <i name="e_wo_entrp">    -84.08754680 </i>
    <i name="e_0_energy">    -84.09556011 </i>
   </energy>
  </scstep>
  <scstep>
   <time name="dav">    1.04    1.04</time>
   <time name="total">    1.16    1.17</time>
   <dipole>
    <v name="dipole">      0.00000000       0.00000000       0.00000190 </v>
    <i name="Tr[quadrupol]">   -260.22387904 </i>
    <i name="Echarged">      0.00000000 </i>
    <i name="Edipol_quadrupol">      0.00000000 </i>
    <i name="Eion">      0.00000000 </i>
   </dipole>
   <energy>
    <i name="e_fr_energy">    -84.10357473 </i>
    <i name="e_wo_entrp">    -84.08754824 </i>
    <i name="e_0_energy">    -84.09556149 </i>
   </energy>
  </scstep>
  <scstep>
   <time name="dav">    0.89    0.89</time>
   <time name="total">    0.93    0.93</time>
   <dipole>
    <v name="dipole">      0.00000000       0.00000000       0.00000073 </v>
    <i name="Tr[quadrupol]">   -260.22364506 </i>
    <i name="Echarged">      0.00000000 </i>
    <i name="Edipol_quadrupol">      0.00000000 </i>
    <i name="Eion">      0.00000000 </i>
   </dipole>
   <energy>
    <i name="alphaZ">     15.86113353 </i>
    <i name="ewald">   6320.24766130 </i>
    <i name="hartreedc">  -7109.06343629 </i>
    <i name="XCdc">     98.83515185 </i>
    <i name="pawpsdc">   3416.34098130 </i>
    <i name="pawaedc">  -3405.40091300 </i>
    <i name="eentropy">     -0.01602649 </i>
    <i name="bandstr">   -417.28253756 </i>
    <i name="atom">    996.37441054 </i>
    <i name="e_fr_energy">    -84.10357483 </i>
    <i name="e_wo_entrp">    -84.08754834 </i>
    <i name="e_0_energy">    -84.09556159 </i>
   </energy>
  </scstep>
  <structure>
   <crystal>
    <varray name="basis" >
     <v>       5.70097065       0.00000000       0.00000000 </v>
     <v>       0.00000000       6.20187140       0.00000000 </v>
     <v>       0.00000000       0.00000000      24.04405832 </v>
    </varray>
    <i name="volume">    850.11823945 </i>
    <varray name="rec_basis" >
     <v>       0.17540873       0.00000000       0.00000000 </v>
     <v>       0.00000000       0.16124165       0.00000000 </v>
     <v>       0.00000000       0.00000000       0.04159032 </v>
    </varray>
   </crystal>
   <varray name="positions" >
    <v>       0.52128989       0.63795769       0.08409683 </v>
    <v>       0.47871011       0.36204231       0.08409683 </v>
    <v>       0.97871011       0.63795769       0.08409683 </v>
    <v>       0.02128989       0.36204231       0.08409683 </v>
    <v>       0.59744966       0.89986831       0.08409683 </v>
    <v>       0.40255034       0.10013168       0.08409683 </v>
    <v>       0.90255034       0.89986831       0.08409683 </v>
    <v>       0.09744966       0.10013168       0.08409683 </v>
    <v>       0.75000000       0.72957939       0.13313621 </v>
    <v>       0.25000000       0.27042061       0.03505746 </v>
    <v>       0.75000000       0.72957939       0.03505746 </v>
    <v>       0.25000000       0.27042061       0.13313621 </v>
    <v>       0.25000000       0.52399302       0.08409683 </v>
    <v>       0.75000000       0.47600695       0.08409683 </v>
   </varray>
  </structure>
  <varray name="forces" >
   <v>      -0.04174831       0.03772587       0.00000000 </v>
   <v>       0.04174831      -0.03772587       0.00000000 </v>
   <v>       0.04174831       0.03772587       0.00000000 </v>
   <v>      -0.04174831      -0.03772587       0.00000000 </v>
   <v>      -0.18531888       0.20319724       0.00000000 </v>
   <v>       0.18531888      -0.20319724       0.00000000 </v>
   <v>       0.18531888       0.20319724       0.00000000 </v>
   <v>      -0.18531888      -0.20319724       0.00000000 </v>
   <v>       0.00000000      -0.18523510      -2.81925165 </v>
   <v>       0.00000000       0.18523510       2.81925165 </v>
   <v>       0.00000000      -0.18523510       2.81925165 </v>
   <v>       0.00000000       0.18523510      -2.81925165 </v>
   <v>       0.00000000      -0.09706628       0.00000000 </v>
   <v>      -0.00000000       0.09706628       0.00000000 </v>
  </varray>
  <varray name="stress" >
   <v>       1.90292537       0.00000000       0.00000000 </v>
   <v>      -0.00000000       2.21970594       0.00000000 </v>
   <v>       0.00000000       0.00000000     -25.22163627 </v>
  </varray>
  <energy>
   <i name="e_fr_energy">    -85.29945521 </i>
   <i name="e_wo_entrp">    -85.28342872 </i>
   <i name="e_0_energy">    -85.29144197 </i>
  </energy>
  <time name="totalsc">   30.72   30.88</time>
 </calculation>
 <calculation>
  <scstep>
   <time name="dav">    1.02    1.02</time>
   <time name="total">    1.14    1.14</time>
   <dipole>
    <v name="dipole">      0.00000000       0.00000000      -0.00000012 </v>
    <i name="Tr[quadrupol]">   -262.79147554 </i>
    <i name="Echarged">      0.00000000 </i>
    <i name="Edipol_quadrupol">      0.00000000 </i>
    <i name="Eion">      0.00000000 </i>
   </dipole>
   <energy>
    <i name="alphaZ">     15.74224896 </i>
    <i name="ewald">   6394.75997727 </i>
    <i name="hartreedc">  -7166.09555796 </i>
    <i name="XCdc">    100.11588198 </i>
    <i name="pawpsdc">   3416.33993612 </i>
    <i name="pawaedc">  -3405.39986966 </i>
    <i name="eentropy">     -0.01822459 </i>
    <i name="bandstr">   -436.98693649 </i>
    <i name="atom">    996.37441054 </i>
    <i name="e_fr_energy">    -85.16813383 </i>
    <i name="e_wo_entrp">    -85.14990923 </i>
    <i name="e_0_energy">    -85.15902153 </i>
   </energy>
  </scstep>
  <scstep>
   <time name="dav">    1.32    1.33</time>
   <time name="total">    1.44    1.45</time>
   <dipole>
    <v name="dipole">      0.00000000       0.00000000       0.00001907 </v>
    <i name="Tr[quadrupol]">   -262.86618671 </i>
    <i name="Echarged">      0.00000000 </i>
    <i name="Edipol_quadrupol">      0.00000000 </i>
    <i name="Eion">      0.00000000 </i>
   </dipole>
   <energy>
    <i name="e_fr_energy">    -85.15403307 </i>
    <i name="e_wo_entrp">    -85.13490493 </i>
    <i name="e_0_energy">    -85.14446900 </i>
   </energy>
  </scstep>
  <scstep>
   <time name="dav">    1.14    1.14</time>
   <time name="total">    1.26    1.27</time>
   <dipole>
    <v name="dipole">      0.00000000       0.00000000       0.00003045 </v>
    <i name="Tr[quadrupol]">   -262.92103693 </i>
    <i name="Echarged">      0.00000000 </i>
    <i name="Edipol_quadrupol">      0.00000000 </i>
    <i name="Eion">      0.00000000 </i>
   </dipole>
   <energy>
    <i name="e_fr_energy">    -85.13446393 </i>
    <i name="e_wo_entrp">    -85.11578927 </i>
    <i name="e_0_energy">    -85.12512660 </i>
   </energy>
  </scstep>
  <scstep>
   <time name="dav">    1.37    1.37</time>
   <time name="total">    1.49    1.50</time>
   <dipole>
    <v name="dipole">      0.00000000       0.00000000       0.00003576 </v>
    <i name="Tr[quadrupol]">   -262.94028490 </i>
    <i name="Echarged">      0.00000000 </i>
    <i name="Edipol_quadrupol">      0.00000000 </i>
    <i name="Eion">      0.00000000 </i>
   </dipole>
   <energy>
    <i name="e_fr_energy">    -85.13502296 </i>
    <i name="e_wo_entrp">    -85.11631754 </i>
    <i name="e_0_energy">    -85.12567025 </i>
   </energy>
  </scstep>
  <scstep>
   <time name="dav">    1.47    1.48</time>
   <time name="total">    1.60    1.60</time>
   <dipole>
    <v name="dipole">      0.00000000       0.00000000       0.00003782 </v>
    <i name="Tr[quadrupol]">   -262.94330435 </i>
    <i name="Echarged">      0.00000000 </i>
    <i name="Edipol_quadrupol">      0.00000000 </i>
    <i name="Eion">      0.00000000 </i>
   </dipole>
   <energy>
    <i name="e_fr_energy">    -85.13497822 </i>
    <i name="e_wo_entrp">    -85.11621447 </i>
    <i name="e_0_energy">    -85.12559635 </i>
   </energy>
  </scstep>
  <scstep>
   <time name="dav">    1.19    1.20</time>
   <time name="total">    1.31    1.32</time>
   <dipole>
    <v name="dipole">      0.00000000       0.00000000       0.00004069 </v>
    <i name="Tr[quadrupol]">   -262.95071312 </i>
    <i name="Echarged">      0.00000000 </i>
    <i name="Edipol_quadrupol">      0.00000000 </i>
    <i name="Eion">      0.00000000 </i>
   </dipole>
   <energy>
    <i name="e_fr_energy">    -85.13500050 </i>
    <i name="e_wo_entrp">    -85.11623557 </i>
    <i name="e_0_energy">    -85.12561803 </i>
   </energy>
  </scstep>
  <scstep>
   <time name="dav">    1.24    1.24</time>
   <time name="total">    1.36    1.37</time>
   <dipole>
    <v name="dipole">      0.00000000       0.00000000       0.00004121 </v>
    <i name="Tr[quadrupol]">   -262.95430083 </i>
    <i name="Echarged">      0.00000000 </i>
    <i name="Edipol_quadrupol">      0.00000000 </i>
    <i name="Eion">      0.00000000 </i>
   </dipole>
   <energy>
    <i name="e_fr_energy">    -85.13503352 </i>
    <i name="e_wo_entrp">    -85.11626844 </i>
    <i name="e_0_energy">    -85.12565098 </i>
   </energy>
  </scstep>
  <scstep>
   <time name="dav">    1.15    1.15</time>
   <time name="total">    1.27    1.28</time>
   <dipole>
    <v name="dipole">      0.00000000       0.00000000       0.00004043 </v>
    <i name="Tr[quadrupol]">   -262.95761336 </i>
    <i name="Echarged">      0.00000000 </i>
    <i name="Edipol_quadrupol">      0.00000000 </i>
    <i name="Eion">      0.00000000 </i>
   </dipole>
   <energy>
    <i name="e_fr_energy">    -85.13506780 </i>
    <i name="e_wo_entrp">    -85.11630511 </i>
    <i name="e_0_energy">    -85.12568645 </i>
   </energy>
  </scstep>
  <scstep>
   <time name="dav">    1.17    1.17</time>
   <time name="total">    1.29    1.30</time>
   <dipole>
    <v name="dipole">      0.00000000       0.00000000       0.00003675 </v>
    <i name="Tr[quadrupol]">   -262.96158229 </i>
    <i name="Echarged">      0.00000000 </i>
    <i name="Edipol_quadrupol">      0.00000000 </i>
    <i name="Eion">      0.00000000 </i>
   </dipole>
   <energy>
    <i name="e_fr_energy">    -85.13511494 </i>
    <i name="e_wo_entrp">    -85.11635636 </i>
    <i name="e_0_energy">    -85.12573565 </i>
   </energy>
  </scstep>
  <scstep>
   <time name="dav">    1.06    1.07</time>
   <time name="total">    1.19    1.19</time>
   <dipole>
    <v name="dipole">      0.00000000       0.00000000       0.00002814 </v>
    <i name="Tr[quadrupol]">   -262.96393490 </i>
    <i name="Echarged">      0.00000000 </i>
    <i name="Edipol_quadrupol">      0.00000000 </i>
    <i name="Eion">      0.00000000 </i>
   </dipole>
   <energy>
    <i name="e_fr_energy">    -85.13515106 </i>
    <i name="e_wo_entrp">    -85.11639479 </i>
    <i name="e_0_energy">    -85.12577293 </i>
   </energy>
  </scstep>
  <scstep>
   <time name="dav">    1.07    1.08</time>
   <time name="total">    1.19    1.20</time>
   <dipole>
    <v name="dipole">      0.00000000       0.00000000       0.00002320 </v>
    <i name="Tr[quadrupol]">   -262.96395312 </i>
    <i name="Echarged">      0.00000000 </i>
    <i name="Edipol_quadrupol">      0.00000000 </i>
    <i name="Eion">      0.00000000 </i>
   </dipole>
   <energy>
    <i name="e_fr_energy">    -85.13515974 </i>
    <i name="e_wo_entrp">    -85.11640435 </i>
    <i name="e_0_energy">    -85.12578205 </i>
   </energy>
  </scstep>
  <scstep>
   <time name="dav">    0.94    0.94</time>
   <time name="total">    1.06    1.07</time>
   <dipole>
    <v name="dipole">      0.00000000       0.00000000       0.00001315 </v>
    <i name="Tr[quadrupol]">   -262.96312145 </i>
    <i name="Echarged">      0.00000000 </i>
    <i name="Edipol_quadrupol">      0.00000000 </i>
    <i name="Eion">      0.00000000 </i>
   </dipole>
   <energy>
    <i name="e_fr_energy">    -85.13517288 </i>
    <i name="e_wo_entrp">    -85.11641808 </i>
    <i name="e_0_energy">    -85.12579548 </i>
   </energy>
  </scstep>
  <scstep>
   <time name="dav">    1.12    1.12</time>
   <time name="total">    1.24    1.25</time>
   <dipole>
    <v name="dipole">      0.00000000       0.00000000       0.00000967 </v>
    <i name="Tr[quadrupol]">   -262.96274023 </i>
    <i name="Echarged">      0.00000000 </i>
    <i name="Edipol_quadrupol">      0.00000000 </i>
    <i name="Eion">      0.00000000 </i>
   </dipole>
   <energy>
    <i name="e_fr_energy">    -85.13517594 </i>
    <i name="e_wo_entrp">    -85.11642102 </i>
    <i name="e_0_energy">    -85.12579848 </i>
   </energy>
  </scstep>
  <scstep>
   <time name="dav">    1.17    1.18</time>
   <time name="total">    1.29    1.30</time>
   <dipole>
    <v name="dipole">      0.00000000       0.00000000       0.00000360 </v>
    <i name="Tr[quadrupol]">   -262.96206356 </i>
    <i name="Echarged">      0.00000000 </i>
    <i name="Edipol_quadrupol">      0.00000000 </i>
    <i name="Eion">      0.00000000 </i>
   </dipole>
   <energy>
    <i name="e_fr_energy">    -85.13517985 </i>
    <i name="e_wo_entrp">    -85.11642484 </i>
    <i name="e_0_energy">    -85.12580235 </i>
   </energy>
  </scstep>
  <scstep>
   <time name="dav">    1.07    1.08</time>
   <time name="total">    1.11    1.12</time>
   <dipole>
    <v name="dipole">      0.00000000       0.00000000       0.00000192 </v>
    <i name="Tr[quadrupol]">   -262.96189028 </i>
    <i name="Echarged">      0.00000000 </i>
    <i name="Edipol_quadrupol">      0.00000000 </i>
    <i name="Eion">      0.00000000 </i>
   </dipole>
   <energy>
    <i name="alphaZ">     15.74224863 </i>
    <i name="ewald">   6394.75997727 </i>
    <i name="hartreedc">  -7176.52458550 </i>
    <i name="XCdc">    100.26949794 </i>
    <i name="pawpsdc">   3723.44374680 </i>
    <i name="pawaedc">  -3712.61508133 </i>
    <i name="eentropy">     -0.01875502 </i>
    <i name="bandstr">   -426.56663983 </i>
    <i name="atom">    996.37441054 </i>
    <i name="e_fr_energy">    -85.13518050 </i>
    <i name="e_wo_entrp">    -85.11642548 </i>
    <i name="e_0_energy">    -85.12580299 </i>
   </energy>
  </scstep>
  <structure>
   <crystal>
    <varray name="basis" >
     <v>       5.72080612       0.00000000       0.00000000 </v>
     <v>      -0.00000000       6.22704179       0.00000000 </v>
     <v>       0.00000000       0.00000000      24.04405832 </v>
    </varray>
    <i name="volume">    856.53829160 </i>
    <varray name="rec_basis" >
     <v>       0.17480054       0.00000000       0.00000000 </v>
     <v>       0.00000000       0.16058990       0.00000000 </v>
     <v>       0.00000000       0.00000000       0.04159032 </v>
    </varray>
   </crystal>
   <varray name="positions" >
    <v>       0.52093660       0.63825115       0.08409683 </v>
    <v>       0.47906340       0.36174885       0.08409683 </v>
    <v>       0.97906340       0.63825115       0.08409683 </v>
    <v>       0.02093660       0.36174885       0.08409683 </v>
    <v>       0.59588146       0.90144892       0.08409683 </v>
    <v>       0.40411854       0.09855107       0.08409683 </v>
    <v>       0.90411854       0.90144892       0.08409683 </v>
    <v>       0.09588146       0.09855107       0.08409683 </v>
    <v>       0.75000000       0.72813850       0.12747959 </v>
    <v>       0.25000000       0.27186150       0.04071408 </v>
    <v>       0.75000000       0.72813850       0.04071408 </v>
    <v>       0.25000000       0.27186150       0.12747959 </v>
    <v>       0.25000000       0.52323796       0.08409683 </v>
    <v>       0.75000000       0.47676201       0.08409683 </v>
   </varray>
  </structure>
  <varray name="forces" >
   <v>      -0.49768903       0.20067869      -0.00000000 </v>
   <v>       0.49768903      -0.20067869      -0.00000000 </v>
   <v>       0.49768903       0.20067869      -0.00000000 </v>
   <v>      -0.49768903      -0.20067869      -0.00000000 </v>
   <v>       0.14621304       0.02198492      -0.00000000 </v>
   <v>      -0.14621304      -0.02198492      -0.00000000 </v>
   <v>      -0.14621304       0.02198492      -0.00000000 </v>
   <v>       0.14621304      -0.02198492      -0.00000000 </v>
   <v>       0.00000000      -0.30965254      -0.76399964 </v>
   <v>       0.00000000       0.30965254       0.76399964 </v>
   <v>       0.00000000      -0.30965254       0.76399964 </v>
   <v>       0.00000000       0.30965254      -0.76399964 </v>
   <v>       0.00000000      -0.13710681      -0.00000000 </v>
   <v>       0.00000000       0.13710681      -0.00000000 </v>
  </varray>
  <varray name="stress" >
   <v>       2.12393906       0.00000000       0.00000000 </v>
   <v>       0.00000000       4.16145767       0.00000000 </v>
   <v>       0.00000000       0.00000000      -6.11801398 </v>
  </varray>
  <energy>
   <i name="e_fr_energy">    -86.33343425 </i>
   <i name="e_wo_entrp">    -86.31467923 </i>
   <i name="e_0_energy">    -86.32405674 </i>
  </energy>
  <time name="totalsc">   20.42   20.52</time>
 </calculation>
 <calculation>
  <scstep>
   <time name="dav">    0.96    0.96</time>
   <time name="total">    1.08    1.08</time>
   <dipole>
    <v name="dipole">      0.00000000       0.00000000       0.00000055 </v>
    <i name="Tr[quadrupol]">   -263.79744949 </i>
    <i name="Echarged">      0.00000000 </i>
    <i name="Edipol_quadrupol">      0.00000000 </i>
    <i name="Eion">      0.00000000 </i>
   </dipole>
   <energy>
    <i name="alphaZ">     15.70404195 </i>
    <i name="ewald">   6418.43053677 </i>
    <i name="hartreedc">  -7193.85109928 </i>
    <i name="XCdc">    100.69467293 </i>
    <i name="pawpsdc">   3723.44147481 </i>
    <i name="pawaedc">  -3712.61281163 </i>
    <i name="eentropy">     -0.01901113 </i>
    <i name="bandstr">   -433.37423436 </i>
    <i name="atom">    996.37441054 </i>
    <i name="e_fr_energy">    -85.21201939 </i>
    <i name="e_wo_entrp">    -85.19300826 </i>
    <i name="e_0_energy">    -85.20251383 </i>
   </energy>
  </scstep>
  <scstep>
   <time name="dav">    1.37    1.38</time>
   <time name="total">    1.50    1.50</time>
   <dipole>
    <v name="dipole">      0.00000000       0.00000000       0.00000280 </v>
    <i name="Tr[quadrupol]">   -263.80808547 </i>
    <i name="Echarged">      0.00000000 </i>
    <i name="Edipol_quadrupol">      0.00000000 </i>
    <i name="Eion">      0.00000000 </i>
   </dipole>
   <energy>
    <i name="e_fr_energy">    -85.20593342 </i>
    <i name="e_wo_entrp">    -85.18660489 </i>
    <i name="e_0_energy">    -85.19626915 </i>
   </energy>
  </scstep>
  <scstep>
   <time name="dav">    1.25    1.26</time>
   <time name="total">    1.37    1.38</time>
   <dipole>
    <v name="dipole">      0.00000000       0.00000000       0.00000526 </v>
    <i name="Tr[quadrupol]">   -263.82166535 </i>
    <i name="Echarged">      0.00000000 </i>
    <i name="Edipol_quadrupol">      0.00000000 </i>
    <i name="Eion">      0.00000000 </i>
   </dipole>
   <energy>
    <i name="e_fr_energy">    -85.20397377 </i>
    <i name="e_wo_entrp">    -85.18476925 </i>
    <i name="e_0_energy">    -85.19437151 </i>
   </energy>
  </scstep>
  <scstep>
   <time name="dav">    1.18    1.18</time>
   <time name="total">    1.30    1.31</time>
   <dipole>
    <v name="dipole">      0.00000000       0.00000000       0.00000566 </v>
    <i name="Tr[quadrupol]">   -263.82228488 </i>
    <i name="Echarged">      0.00000000 </i>
    <i name="Edipol_quadrupol">      0.00000000 </i>
    <i name="Eion">      0.00000000 </i>
   </dipole>
   <energy>
    <i name="e_fr_energy">    -85.20406228 </i>
    <i name="e_wo_entrp">    -85.18492414 </i>
    <i name="e_0_energy">    -85.19449321 </i>
   </energy>
  </scstep>
  <scstep>
   <time name="dav">    1.34    1.34</time>
   <time name="total">    1.46    1.46</time>
   <dipole>
    <v name="dipole">      0.00000000       0.00000000       0.00000576 </v>
    <i name="Tr[quadrupol]">   -263.82148348 </i>
    <i name="Echarged">      0.00000000 </i>
    <i name="Edipol_quadrupol">      0.00000000 </i>
    <i name="Eion">      0.00000000 </i>
   </dipole>
   <energy>
    <i name="e_fr_energy">    -85.20407674 </i>
    <i name="e_wo_entrp">    -85.18492632 </i>
    <i name="e_0_energy">    -85.19450153 </i>
   </energy>
  </scstep>
  <scstep>
   <time name="dav">    1.26    1.27</time>
   <time name="total">    1.39    1.39</time>
   <dipole>
    <v name="dipole">      0.00000000       0.00000000       0.00000558 </v>
    <i name="Tr[quadrupol]">   -263.82068214 </i>
    <i name="Echarged">      0.00000000 </i>
    <i name="Edipol_quadrupol">      0.00000000 </i>
    <i name="Eion">      0.00000000 </i>
   </dipole>
   <energy>
    <i name="e_fr_energy">    -85.20407624 </i>
    <i name="e_wo_entrp">    -85.18491943 </i>
    <i name="e_0_energy">    -85.19449783 </i>
   </energy>
  </scstep>
  <scstep>
   <time name="dav">    1.10    1.11</time>
   <time name="total">    1.22    1.23</time>
   <dipole>
    <v name="dipole">      0.00000000       0.00000000       0.00000530 </v>
    <i name="Tr[quadrupol]">   -263.82037712 </i>
    <i name="Echarged">      0.00000000 </i>
    <i name="Edipol_quadrupol">      0.00000000 </i>
    <i name="Eion">      0.00000000 </i>
   </dipole>
   <energy>
    <i name="e_fr_energy">    -85.20407837 </i>
    <i name="e_wo_entrp">    -85.18492220 </i>
    <i name="e_0_energy">    -85.19450029 </i>
   </energy>
  </scstep>
  <scstep>
   <time name="dav">    1.02    1.03</time>
   <time name="total">    1.06    1.06</time>
   <dipole>
    <v name="dipole">      0.00000000       0.00000000       0.00000506 </v>
    <i name="Tr[quadrupol]">   -263.82020978 </i>
    <i name="Echarged">      0.00000000 </i>
    <i name="Edipol_quadrupol">      0.00000000 </i>
    <i name="Eion">      0.00000000 </i>
   </dipole>
   <energy>
    <i name="alphaZ">     15.70404122 </i>
    <i name="ewald">   6418.43053677 </i>
    <i name="hartreedc">  -7196.38084464 </i>
    <i name="XCdc">    100.73805582 </i>
    <i name="pawpsdc">   3838.29868247 </i>
    <i name="pawaedc">  -3827.51090577 </i>
    <i name="eentropy">     -0.01915657 </i>
    <i name="bandstr">   -430.83889902 </i>
    <i name="atom">    996.37441054 </i>
    <i name="e_fr_energy">    -85.20407919 </i>
    <i name="e_wo_entrp">    -85.18492262 </i>
    <i name="e_0_energy">    -85.19450090 </i>
   </energy>
  </scstep>
  <structure>
   <crystal>
    <varray name="basis" >
     <v>       5.72722867       0.00000000       0.00000000 </v>
     <v>      -0.00000000       6.23519174       0.00000000 </v>
     <v>       0.00000000       0.00000000      24.04405832 </v>
    </varray>
    <i name="volume">    858.62219256 </i>
    <varray name="rec_basis" >
     <v>       0.17460452       0.00000000       0.00000000 </v>
     <v>       0.00000000       0.16037999       0.00000000 </v>
     <v>       0.00000000       0.00000000       0.04159032 </v>
    </varray>
   </crystal>
   <varray name="positions" >
    <v>       0.52082261       0.63834579       0.08409683 </v>
    <v>       0.47917739       0.36165421       0.08409683 </v>
    <v>       0.97917739       0.63834579       0.08409683 </v>
    <v>       0.02082261       0.36165421       0.08409683 </v>
    <v>       0.59537545       0.90195865       0.08409683 </v>
    <v>       0.40462455       0.09804135       0.08409683 </v>
    <v>       0.90462455       0.90195865       0.08409683 </v>
    <v>       0.09537545       0.09804135       0.08409683 </v>
    <v>       0.75000000       0.72767383       0.12564802 </v>
    <v>       0.25000000       0.27232617       0.04254565 </v>
    <v>       0.75000000       0.72767383       0.04254565 </v>
    <v>       0.25000000       0.27232617       0.12564802 </v>
    <v>       0.25000000       0.52299447       0.08409683 </v>
    <v>       0.75000000       0.47700550       0.08409683 </v>
   </varray>
  </structure>
  <varray name="forces" >
   <v>      -0.70713485       0.17908666      -0.00000000 </v>
   <v>       0.70713485      -0.17908666      -0.00000000 </v>
   <v>       0.70713485       0.17908666       0.00000000 </v>
   <v>      -0.70713485      -0.17908666       0.00000000 </v>
   <v>       0.25302183      -0.03550104       0.00000000 </v>
   <v>      -0.25302183       0.03550104       0.00000000 </v>
   <v>      -0.25302183      -0.03550104       0.00000000 </v>
   <v>       0.25302183       0.03550104       0.00000000 </v>
   <v>      -0.00000000      -0.29650122       0.10968809 </v>
   <v>      -0.00000000       0.29650122      -0.10968809 </v>
   <v>      -0.00000000      -0.29650122      -0.10968809 </v>
   <v>      -0.00000000       0.29650122       0.10968809 </v>
   <v>      -0.00000000      -0.12638000       0.00000000 </v>
   <v>      -0.00000000       0.12638000       0.00000000 </v>
  </varray>
  <varray name="stress" >
   <v>       3.18417748       0.00000000       0.00000000 </v>
   <v>       0.00000000       4.99590500       0.00000000 </v>
   <v>       0.00000000       0.00000000       0.66175559 </v>
  </varray>
  <energy>
   <i name="e_fr_energy">    -86.40281087 </i>
   <i name="e_wo_entrp">    -86.38365431 </i>
   <i name="e_0_energy">    -86.39323259 </i>
  </energy>
  <time name="totalsc">   11.53   11.59</time>
 </calculation>
 <calculation>
  <scstep>
   <time name="dav">    1.01    1.01</time>
   <time name="total">    1.13    1.13</time>
   <dipole>
    <v name="dipole">      0.00000000       0.00000000       0.00000448 </v>
    <i name="Tr[quadrupol]">   -263.75927067 </i>
    <i name="Echarged">      0.00000000 </i>
    <i name="Edipol_quadrupol">      0.00000000 </i>
    <i name="Eion">      0.00000000 </i>
   </dipole>
   <energy>
    <i name="alphaZ">     15.70680459 </i>
    <i name="ewald">   6416.72374147 </i>
    <i name="hartreedc">  -7195.15219899 </i>
    <i name="XCdc">    100.70735064 </i>
    <i name="pawpsdc">   3838.28168395 </i>
    <i name="pawaedc">  -3827.49388287 </i>
    <i name="eentropy">     -0.01899387 </i>
    <i name="bandstr">   -430.33345369 </i>
    <i name="atom">    996.37441054 </i>
    <i name="e_fr_energy">    -85.20453823 </i>
    <i name="e_wo_entrp">    -85.18554437 </i>
    <i name="e_0_energy">    -85.19504130 </i>
   </energy>
  </scstep>
  <scstep>
   <time name="dav">    1.30    1.31</time>
   <time name="total">    1.43    1.43</time>
   <dipole>
    <v name="dipole">      0.00000000       0.00000000       0.00000420 </v>
    <i name="Tr[quadrupol]">   -263.75891705 </i>
    <i name="Echarged">      0.00000000 </i>
    <i name="Edipol_quadrupol">      0.00000000 </i>
    <i name="Eion">      0.00000000 </i>
   </dipole>
   <energy>
    <i name="e_fr_energy">    -85.20449161 </i>
    <i name="e_wo_entrp">    -85.18552050 </i>
    <i name="e_0_energy">    -85.19500605 </i>
   </energy>
  </scstep>
  <scstep>
   <time name="dav">    1.22    1.23</time>
   <time name="total">    1.34    1.35</time>
   <dipole>
    <v name="dipole">      0.00000000       0.00000000       0.00000369 </v>
    <i name="Tr[quadrupol]">   -263.75822944 </i>
    <i name="Echarged">      0.00000000 </i>
    <i name="Edipol_quadrupol">      0.00000000 </i>
    <i name="Eion">      0.00000000 </i>
   </dipole>
   <energy>
    <i name="e_fr_energy">    -85.20448216 </i>
    <i name="e_wo_entrp">    -85.18550763 </i>
    <i name="e_0_energy">    -85.19499490 </i>
   </energy>
  </scstep>
  <scstep>
   <time name="dav">    1.20    1.20</time>
   <time name="total">    1.24    1.24</time>
   <dipole>
    <v name="dipole">      0.00000000       0.00000000       0.00000324 </v>
    <i name="Tr[quadrupol]">   -263.75820138 </i>
    <i name="Echarged">      0.00000000 </i>
    <i name="Edipol_quadrupol">      0.00000000 </i>
    <i name="Eion">      0.00000000 </i>
   </dipole>
   <energy>
    <i name="alphaZ">     15.70680479 </i>
    <i name="ewald">   6416.72374147 </i>
    <i name="hartreedc">  -7195.00766099 </i>
    <i name="XCdc">    100.70459430 </i>
    <i name="pawpsdc">   3830.53876282 </i>
    <i name="pawaedc">  -3819.74810195 </i>
    <i name="eentropy">     -0.01897798 </i>
    <i name="bandstr">   -430.47805587 </i>
    <i name="atom">    996.37441054 </i>
    <i name="e_fr_energy">    -85.20448289 </i>
    <i name="e_wo_entrp">    -85.18550490 </i>
    <i name="e_0_energy">    -85.19499390 </i>
   </energy>
  </scstep>
  <structure>
   <crystal>
    <varray name="basis" >
     <v>       5.72676337       0.00000000       0.00000000 </v>
     <v>      -0.00000000       6.23460131       0.00000000 </v>
     <v>       0.00000000       0.00000000      24.04405832 </v>
    </varray>
    <i name="volume">    858.47113662 </i>
    <varray name="rec_basis" >
     <v>       0.17461870       0.00000000       0.00000000 </v>
     <v>       0.00000000       0.16039518       0.00000000 </v>
     <v>       0.00000000       0.00000000       0.04159032 </v>
    </varray>
   </crystal>
   <varray name="positions" >
    <v>       0.52083086       0.63833894       0.08409683 </v>
    <v>       0.47916914       0.36166106       0.08409683 </v>
    <v>       0.97916914       0.63833894       0.08409683 </v>
    <v>       0.02083086       0.36166106       0.08409683 </v>
    <v>       0.59541207       0.90192177       0.08409683 </v>
    <v>       0.40458793       0.09807823       0.08409683 </v>
    <v>       0.90458793       0.90192177       0.08409683 </v>
    <v>       0.09541207       0.09807823       0.08409683 </v>
    <v>       0.75000000       0.72770745       0.12578071 </v>
    <v>       0.25000000       0.27229255       0.04241296 </v>
    <v>       0.75000000       0.72770745       0.04241296 </v>
    <v>       0.25000000       0.27229255       0.12578071 </v>
    <v>       0.25000000       0.52301209       0.08409683 </v>
    <v>       0.75000000       0.47698788       0.08409683 </v>
   </varray>
  </structure>
  <varray name="forces" >
   <v>      -0.69242726       0.18288467       0.00000000 </v>
   <v>       0.69242726      -0.18288467       0.00000000 </v>
   <v>       0.69242726       0.18288467       0.00000000 </v>
   <v>      -0.69242726      -0.18288467       0.00000000 </v>
   <v>       0.24515404      -0.03119796      -0.00000000 </v>
   <v>      -0.24515404       0.03119796      -0.00000000 </v>
   <v>      -0.24515404      -0.03119796       0.00000000 </v>
   <v>       0.24515404       0.03119796       0.00000000 </v>
   <v>       0.00000000      -0.29877360       0.04103239 </v>
   <v>       0.00000000       0.29877360      -0.04103239 </v>
   <v>       0.00000000      -0.29877360      -0.04103239 </v>
   <v>       0.00000000       0.29877360       0.04103239 </v>
   <v>       0.00000000      -0.12793125       0.00000000 </v>
   <v>       0.00000000       0.12793125       0.00000000 </v>
  </varray>
  <varray name="stress" >
   <v>       3.08966904      -0.00000000       0.00000000 </v>
   <v>       0.00000000       4.93855841       0.00000000 </v>
   <v>       0.00000000       0.00000000       0.16041992 </v>
  </varray>
  <energy>
   <i name="e_fr_energy">    -86.40318473 </i>
   <i name="e_wo_entrp">    -86.38420675 </i>
   <i name="e_0_energy">    -86.39369574 </i>
  </energy>
  <time name="totalsc">    6.29    6.33</time>
 </calculation>
 <calculation>
  <scstep>
   <time name="dav">    1.01    1.02</time>
   <time name="total">    1.13    1.14</time>
   <dipole>
    <v name="dipole">      0.00000000       0.00000000       0.00000277 </v>
    <i name="Tr[quadrupol]">   -269.68977077 </i>
    <i name="Echarged">      0.00000000 </i>
    <i name="Edipol_quadrupol">      0.00000000 </i>
    <i name="Eion">      0.00000000 </i>
   </dipole>
   <energy>
    <i name="alphaZ">     15.45036105 </i>
    <i name="ewald">   6306.00068725 </i>
    <i name="hartreedc">  -7086.49156528 </i>
    <i name="XCdc">    100.16376473 </i>
    <i name="pawpsdc">   3829.76012511 </i>
    <i name="pawaedc">  -3818.96927593 </i>
    <i name="eentropy">     -0.01902708 </i>
    <i name="bandstr">   -427.55731339 </i>
    <i name="atom">    996.37441054 </i>
    <i name="e_fr_energy">    -85.28783299 </i>
    <i name="e_wo_entrp">    -85.26880592 </i>
    <i name="e_0_energy">    -85.27831946 </i>
   </energy>
  </scstep>
  <scstep>
   <time name="dav">    1.38    1.39</time>
   <time name="total">    1.50    1.51</time>
   <dipole>
    <v name="dipole">      0.00000000       0.00000000      -0.00000050 </v>
    <i name="Tr[quadrupol]">   -269.67425094 </i>
    <i name="Echarged">      0.00000000 </i>
    <i name="Edipol_quadrupol">      0.00000000 </i>
    <i name="Eion">      0.00000000 </i>
   </dipole>
   <energy>
    <i name="e_fr_energy">    -85.27960617 </i>
    <i name="e_wo_entrp">    -85.26032283 </i>
    <i name="e_0_energy">    -85.26996450 </i>
   </energy>
  </scstep>
  <scstep>
   <time name="dav">    1.16    1.17</time>
   <time name="total">    1.28    1.29</time>
   <dipole>
    <v name="dipole">      0.00000000       0.00000000      -0.00000374 </v>
    <i name="Tr[quadrupol]">   -269.66389735 </i>
    <i name="Echarged">      0.00000000 </i>
    <i name="Edipol_quadrupol">      0.00000000 </i>
    <i name="Eion">      0.00000000 </i>
   </dipole>
   <energy>
    <i name="e_fr_energy">    -85.27639979 </i>
    <i name="e_wo_entrp">    -85.25684874 </i>
    <i name="e_0_energy">    -85.26662426 </i>
   </energy>
  </scstep>
  <scstep>
   <time name="dav">    1.17    1.17</time>
   <time name="total">    1.29    1.30</time>
   <dipole>
    <v name="dipole">      0.00000000       0.00000000      -0.00000461 </v>
    <i name="Tr[quadrupol]">   -269.66382636 </i>
    <i name="Echarged">      0.00000000 </i>
    <i name="Edipol_quadrupol">      0.00000000 </i>
    <i name="Eion">      0.00000000 </i>
   </dipole>
   <energy>
    <i name="e_fr_energy">    -85.27626970 </i>
    <i name="e_wo_entrp">    -85.25678007 </i>
    <i name="e_0_energy">    -85.26652488 </i>
   </energy>
  </scstep>
  <scstep>
   <time name="dav">    1.28    1.29</time>
   <time name="total">    1.41    1.41</time>
   <dipole>
    <v name="dipole">      0.00000000       0.00000000      -0.00000592 </v>
    <i name="Tr[quadrupol]">   -269.66069512 </i>
    <i name="Echarged">      0.00000000 </i>
    <i name="Edipol_quadrupol">      0.00000000 </i>
    <i name="Eion">      0.00000000 </i>
   </dipole>
   <energy>
    <i name="e_fr_energy">    -85.27625524 </i>
    <i name="e_wo_entrp">    -85.25674648 </i>
    <i name="e_0_energy">    -85.26650086 </i>
   </energy>
  </scstep>
  <scstep>
   <time name="dav">    1.23    1.23</time>
   <time name="total">    1.27    1.27</time>
   <dipole>
    <v name="dipole">      0.00000000       0.00000000      -0.00000671 </v>
    <i name="Tr[quadrupol]">   -269.65859178 </i>
    <i name="Echarged">      0.00000000 </i>
    <i name="Edipol_quadrupol">      0.00000000 </i>
    <i name="Eion">      0.00000000 </i>
   </dipole>
   <energy>
    <i name="alphaZ">     15.45036257 </i>
    <i name="ewald">   6306.00068725 </i>
    <i name="hartreedc">  -7085.85181693 </i>
    <i name="XCdc">    100.14408317 </i>
    <i name="pawpsdc">   3677.87222470 </i>
    <i name="pawaedc">  -3667.01658641 </i>
    <i name="eentropy">     -0.01951477 </i>
    <i name="bandstr">   -428.23010629 </i>
    <i name="atom">    996.37441054 </i>
    <i name="e_fr_energy">    -85.27625618 </i>
    <i name="e_wo_entrp">    -85.25674141 </i>
    <i name="e_0_energy">    -85.26649879 </i>
   </energy>
  </scstep>
  <structure>
   <crystal>
    <varray name="basis" >
     <v>       5.76356131      -0.00000000       0.00000000 </v>
     <v>      -0.00000000       6.29761669       0.00000000 </v>
     <v>       0.00000000       0.00000000      24.04405832 </v>
    </varray>
    <i name="volume">    872.71996953 </i>
    <varray name="rec_basis" >
     <v>       0.17350384       0.00000000       0.00000000 </v>
     <v>       0.00000000       0.15879023       0.00000000 </v>
     <v>       0.00000000       0.00000000       0.04159032 </v>
    </varray>
   </crystal>
   <varray name="positions" >
    <v>       0.51460919       0.63987082       0.08409683 </v>
    <v>       0.48539081       0.36012918       0.08409683 </v>
    <v>       0.98539081       0.63987082       0.08409683 </v>
    <v>       0.01460919       0.36012918       0.08409683 </v>
    <v>       0.59743158       0.90183681       0.08409683 </v>
    <v>       0.40256842       0.09816319       0.08409683 </v>
    <v>       0.90256842       0.90183681       0.08409683 </v>
    <v>       0.09743158       0.09816319       0.08409683 </v>
    <v>       0.75000000       0.72510087       0.12525298 </v>
    <v>       0.25000000       0.27489913       0.04294069 </v>
    <v>       0.75000000       0.72510087       0.04294069 </v>
    <v>       0.25000000       0.27489913       0.12525298 </v>
    <v>       0.25000000       0.52188105       0.08409683 </v>
    <v>       0.75000000       0.47811892       0.08409683 </v>
   </varray>
  </structure>
  <varray name="forces" >
   <v>       0.38123120       0.19908747      -0.00000000 </v>
   <v>      -0.38123120      -0.19908747      -0.00000000 </v>
   <v>      -0.38123120       0.19908747      -0.00000000 </v>
   <v>       0.38123120      -0.19908747      -0.00000000 </v>
   <v>      -0.14161115       0.06637711      -0.00000000 </v>
   <v>       0.14161115      -0.06637711      -0.00000000 </v>
   <v>       0.14161115       0.06637711      -0.00000000 </v>
   <v>      -0.14161115      -0.06637711      -0.00000000 </v>
   <v>       0.00000000      -0.23980031       0.03540593 </v>
   <v>       0.00000000       0.23980031      -0.03540593 </v>
   <v>       0.00000000      -0.23980031      -0.03540593 </v>
   <v>       0.00000000       0.23980031       0.03540593 </v>
   <v>       0.00000000      -0.66828772      -0.00000000 </v>
   <v>       0.00000000       0.66828772      -0.00000000 </v>
  </varray>
  <varray name="stress" >
   <v>      -6.57745874       0.00000000       0.00000000 </v>
   <v>       0.00000000      -2.65265292       0.00000000 </v>
   <v>       0.00000000       0.00000000       0.07619689 </v>
  </varray>
  <energy>
   <i name="e_fr_energy">    -86.45599706 </i>
   <i name="e_wo_entrp">    -86.43648229 </i>
   <i name="e_0_energy">    -86.44623967 </i>
  </energy>
  <time name="totalsc">    9.04    9.09</time>
 </calculation>
 <calculation>
  <scstep>
   <time name="dav">    0.93    0.93</time>
   <time name="total">    1.05    1.05</time>
   <dipole>
    <v name="dipole">      0.00000000       0.00000000      -0.00000741 </v>
    <i name="Tr[quadrupol]">   -267.98045108 </i>
    <i name="Echarged">      0.00000000 </i>
    <i name="Edipol_quadrupol">      0.00000000 </i>
    <i name="Eion">      0.00000000 </i>
   </dipole>
   <energy>
    <i name="alphaZ">     15.52176032 </i>
    <i name="ewald">   6336.82604601 </i>
    <i name="hartreedc">  -7116.03593621 </i>
    <i name="XCdc">    100.29531740 </i>
    <i name="pawpsdc">   3677.75405438 </i>
    <i name="pawaedc">  -3666.89809119 </i>
    <i name="eentropy">     -0.01944889 </i>
    <i name="bandstr">   -429.09964207 </i>
    <i name="atom">    996.37441054 </i>
    <i name="e_fr_energy">    -85.28152970 </i>
    <i name="e_wo_entrp">    -85.26208081 </i>
    <i name="e_0_energy">    -85.27180525 </i>
   </energy>
  </scstep>
  <scstep>
   <time name="dav">    1.35    1.35</time>
   <time name="total">    1.47    1.48</time>
   <dipole>
    <v name="dipole">      0.00000000       0.00000000      -0.00000563 </v>
    <i name="Tr[quadrupol]">   -267.98805285 </i>
    <i name="Echarged">      0.00000000 </i>
    <i name="Edipol_quadrupol">      0.00000000 </i>
    <i name="Eion">      0.00000000 </i>
   </dipole>
   <energy>
    <i name="e_fr_energy">    -85.28058509 </i>
    <i name="e_wo_entrp">    -85.26114332 </i>
    <i name="e_0_energy">    -85.27086420 </i>
   </energy>
  </scstep>
  <scstep>
   <time name="dav">    1.28    1.28</time>
   <time name="total">    1.40    1.41</time>
   <dipole>
    <v name="dipole">      0.00000000       0.00000000      -0.00000421 </v>
    <i name="Tr[quadrupol]">   -267.99279693 </i>
    <i name="Echarged">      0.00000000 </i>
    <i name="Edipol_quadrupol">      0.00000000 </i>
    <i name="Eion">      0.00000000 </i>
   </dipole>
   <energy>
    <i name="e_fr_energy">    -85.28035537 </i>
    <i name="e_wo_entrp">    -85.26092768 </i>
    <i name="e_0_energy">    -85.27064153 </i>
   </energy>
  </scstep>
  <scstep>
   <time name="dav">    1.59    1.60</time>
   <time name="total">    1.71    1.72</time>
   <dipole>
    <v name="dipole">      0.00000000       0.00000000      -0.00000345 </v>
    <i name="Tr[quadrupol]">   -267.99344297 </i>
    <i name="Echarged">      0.00000000 </i>
    <i name="Edipol_quadrupol">      0.00000000 </i>
    <i name="Eion">      0.00000000 </i>
   </dipole>
   <energy>
    <i name="e_fr_energy">    -85.28035062 </i>
    <i name="e_wo_entrp">    -85.26094551 </i>
    <i name="e_0_energy">    -85.27064807 </i>
   </energy>
  </scstep>
  <scstep>
   <time name="dav">    1.55    1.55</time>
   <time name="total">    1.67    1.68</time>
   <dipole>
    <v name="dipole">      0.00000000       0.00000000      -0.00000251 </v>
    <i name="Tr[quadrupol]">   -267.99509326 </i>
    <i name="Echarged">      0.00000000 </i>
    <i name="Edipol_quadrupol">      0.00000000 </i>
    <i name="Eion">      0.00000000 </i>
   </dipole>
   <energy>
    <i name="e_fr_energy">    -85.28035201 </i>
    <i name="e_wo_entrp">    -85.26094618 </i>
    <i name="e_0_energy">    -85.27064910 </i>
   </energy>
  </scstep>
  <scstep>
   <time name="dav">    1.35    1.36</time>
   <time name="total">    1.39    1.40</time>
   <dipole>
    <v name="dipole">      0.00000000       0.00000000      -0.00000179 </v>
    <i name="Tr[quadrupol]">   -267.99594165 </i>
    <i name="Echarged">      0.00000000 </i>
    <i name="Edipol_quadrupol">      0.00000000 </i>
    <i name="Eion">      0.00000000 </i>
   </dipole>
   <energy>
    <i name="alphaZ">     15.52175942 </i>
    <i name="ewald">   6336.82604601 </i>
    <i name="hartreedc">  -7116.42273347 </i>
    <i name="XCdc">    100.30302672 </i>
    <i name="pawpsdc">   3720.20501191 </i>
    <i name="pawaedc">  -3709.36697321 </i>
    <i name="eentropy">     -0.01940636 </i>
    <i name="bandstr">   -428.70149401 </i>
    <i name="atom">    996.37441054 </i>
    <i name="e_fr_energy">    -85.28035245 </i>
    <i name="e_wo_entrp">    -85.26094609 </i>
    <i name="e_0_energy">    -85.27064927 </i>
   </energy>
  </scstep>
  <structure>
   <crystal>
    <varray name="basis" >
     <v>       5.75322319      -0.00000000       0.00000000 </v>
     <v>      -0.00000000       6.27991295       0.00000000 </v>
     <v>       0.00000000       0.00000000      24.04405832 </v>
    </varray>
    <i name="volume">    868.70559580 </i>
    <varray name="rec_basis" >
     <v>       0.17381561       0.00000000       0.00000000 </v>
     <v>       0.00000000       0.15923788       0.00000000 </v>
     <v>       0.00000000       0.00000000       0.04159032 </v>
    </varray>
   </crystal>
   <varray name="positions" >
    <v>       0.51634597       0.63944476       0.08409683 </v>
    <v>       0.48365403       0.36055524       0.08409683 </v>
    <v>       0.98365403       0.63944476       0.08409683 </v>
    <v>       0.01634597       0.36055524       0.08409683 </v>
    <v>       0.59686783       0.90186044       0.08409683 </v>
    <v>       0.40313217       0.09813956       0.08409683 </v>
    <v>       0.90313217       0.90186044       0.08409683 </v>
    <v>       0.09686783       0.09813956       0.08409683 </v>
    <v>       0.75000000       0.72582585       0.12540124 </v>
    <v>       0.25000000       0.27417415       0.04279243 </v>
    <v>       0.75000000       0.72582585       0.04279243 </v>
    <v>       0.25000000       0.27417415       0.12540124 </v>
    <v>       0.25000000       0.52219563       0.08409683 </v>
    <v>       0.75000000       0.47780434       0.08409683 </v>
   </varray>
  </structure>
  <varray name="forces" >
   <v>       0.08061379       0.19776675      -0.00000000 </v>
   <v>      -0.08061379      -0.19776675      -0.00000000 </v>
[...]
       <r>   -4.5164    1.0000 </r>
       <r>   -4.2005    0.0000 </r>
       <r>   -1.1469    0.0000 </r>
       <r>   -0.9714    0.0000 </r>
       <r>   -0.5544    0.0000 </r>
       <r>   -0.5095    0.0000 </r>
       <r>    0.2310    0.0000 </r>
       <r>    0.6834    0.0000 </r>
       <r>    0.9619    0.0000 </r>
       <r>    1.1506    0.0000 </r>
       <r>    1.5201    0.0000 </r>
       <r>    2.0645    0.0000 </r>
       <r>    2.2109    0.0000 </r>
       <r>    2.4513    0.0000 </r>
       <r>    2.4590    0.0000 </r>
      </set>
      <set comment="kpoint 24">
       <r>  -19.7129    1.0000 </r>
       <r>  -19.4265    1.0000 </r>
       <r>  -15.5347    1.0000 </r>
       <r>  -15.3432    1.0000 </r>
       <r>  -12.7605    1.0000 </r>
       <r>  -12.4742    1.0000 </r>
       <r>  -11.3028    1.0000 </r>
       <r>  -10.7738    1.0000 </r>
       <r>  -10.5257    1.0000 </r>
       <r>  -10.2901    1.0000 </r>
       <r>   -9.1969    1.0000 </r>
       <r>   -8.4439    1.0000 </r>
       <r>   -7.8993    1.0000 </r>
       <r>   -7.6849    1.0000 </r>
       <r>   -7.5722    1.0000 </r>
       <r>   -7.5595    1.0000 </r>
       <r>   -6.9620    1.0000 </r>
       <r>   -5.6076    1.0000 </r>
       <r>   -5.5486    1.0000 </r>
       <r>   -5.3812    1.0000 </r>
       <r>   -4.4762    0.9997 </r>
       <r>   -4.2799    0.0184 </r>
       <r>   -1.1814    0.0000 </r>
       <r>   -0.9415    0.0000 </r>
       <r>   -0.3310    0.0000 </r>
       <r>   -0.0463    0.0000 </r>
       <r>    0.2578    0.0000 </r>
       <r>    0.6189    0.0000 </r>
       <r>    0.8857    0.0000 </r>
       <r>    1.2058    0.0000 </r>
       <r>    1.3960    0.0000 </r>
       <r>    2.1831    0.0000 </r>
       <r>    2.3693    0.0000 </r>
       <r>    2.4518    0.0000 </r>
       <r>    2.5020    0.0000 </r>
      </set>
      <set comment="kpoint 25">
       <r>  -19.6190    1.0000 </r>
       <r>  -19.5200    1.0000 </r>
       <r>  -15.5288    1.0000 </r>
       <r>  -15.4598    1.0000 </r>
       <r>  -12.4705    1.0000 </r>
       <r>  -12.3479    1.0000 </r>
       <r>  -11.3109    1.0000 </r>
       <r>  -10.9893    1.0000 </r>
       <r>  -10.6060    1.0000 </r>
       <r>  -10.4356    1.0000 </r>
       <r>   -8.9244    1.0000 </r>
       <r>   -8.6392    1.0000 </r>
       <r>   -7.9004    1.0000 </r>
       <r>   -7.7830    1.0000 </r>
       <r>   -7.3921    1.0000 </r>
       <r>   -7.1532    1.0000 </r>
       <r>   -7.0290    1.0000 </r>
       <r>   -6.3664    1.0000 </r>
       <r>   -5.3690    1.0000 </r>
       <r>   -5.3089    1.0000 </r>
       <r>   -4.4172    0.9636 </r>
       <r>   -4.3482    0.4381 </r>
       <r>   -1.1614    0.0000 </r>
       <r>   -1.0678    0.0000 </r>
       <r>    0.0566    0.0000 </r>
       <r>    0.2377    0.0000 </r>
       <r>    0.2460    0.0000 </r>
       <r>    0.4304    0.0000 </r>
       <r>    1.0218    0.0000 </r>
       <r>    1.2758    0.0000 </r>
       <r>    1.3131    0.0000 </r>
       <r>    1.5184    0.0000 </r>
       <r>    2.5519    0.0000 </r>
       <r>    2.5609    0.0000 </r>
       <r>    2.6730    0.0000 </r>
      </set>
     </set>
    </set>
   </array>
  </eigenvalues>
  <separator name="orbital magnetization" >
   <v name="MAGDIPOLOUT">      0.00000000      0.00000000      0.00000000</v>
  </separator>
  <dos>
   <i name="efermi">     -4.35374252 </i>
   <total>
    <array>
     <dimension dim="1">gridpoints</dimension>
     <dimension dim="2">spin</dimension>
     <field>energy</field>
     <field>total</field>
     <field>integrated</field>
     <set>
      <set comment="spin 1">
       <r>   -21.0888     0.0000     0.0000 </r>
       <r>   -21.0057     0.0000     0.0000 </r>
       <r>   -20.9225     0.0000     0.0000 </r>
       <r>   -20.8394     0.0000     0.0000 </r>
       <r>   -20.7562     0.0000     0.0000 </r>
       <r>   -20.6731     0.0000     0.0000 </r>
       <r>   -20.5899     0.0000     0.0000 </r>
       <r>   -20.5068     0.0000     0.0000 </r>
       <r>   -20.4236     0.0000     0.0000 </r>
       <r>   -20.3404     0.0000     0.0000 </r>
       <r>   -20.2573     0.0000     0.0000 </r>
       <r>   -20.1741     0.0000     0.0000 </r>
       <r>   -20.0910     0.0001     0.0000 </r>
       <r>   -20.0078     0.1008     0.0084 </r>
       <r>   -19.9247     2.9442     0.2532 </r>
       <r>   -19.8415     7.1924     0.8513 </r>
       <r>   -19.7583     5.3120     1.2930 </r>
       <r>   -19.6752     3.9987     1.6256 </r>
       <r>   -19.5920     3.9529     1.9543 </r>
       <r>   -19.5089     3.5664     2.2508 </r>
       <r>   -19.4257     3.4376     2.5367 </r>
       <r>   -19.3426     4.4295     2.9050 </r>
       <r>   -19.2594     5.9807     3.4024 </r>
       <r>   -19.1762     5.4511     3.8557 </r>
       <r>   -19.0931     1.6914     3.9963 </r>
       <r>   -19.0099     0.0445     4.0000 </r>
       <r>   -18.9268     0.0000     4.0000 </r>
       <r>   -18.8436     0.0000     4.0000 </r>
       <r>   -18.7605     0.0000     4.0000 </r>
       <r>   -18.6773     0.0000     4.0000 </r>
       <r>   -18.5942     0.0000     4.0000 </r>
       <r>   -18.5110     0.0000     4.0000 </r>
       <r>   -18.4278     0.0000     4.0000 </r>
       <r>   -18.3447     0.0000     4.0000 </r>
       <r>   -18.2615     0.0000     4.0000 </r>
       <r>   -18.1784     0.0000     4.0000 </r>
       <r>   -18.0952     0.0000     4.0000 </r>
       <r>   -18.0121     0.0000     4.0000 </r>
       <r>   -17.9289     0.0000     4.0000 </r>
       <r>   -17.8457     0.0000     4.0000 </r>
       <r>   -17.7626     0.0000     4.0000 </r>
       <r>   -17.6794     0.0000     4.0000 </r>
       <r>   -17.5963     0.0000     4.0000 </r>
       <r>   -17.5131     0.0000     4.0000 </r>
       <r>   -17.4300     0.0000     4.0000 </r>
       <r>   -17.3468     0.0000     4.0000 </r>
       <r>   -17.2637     0.0000     4.0000 </r>
       <r>   -17.1805     0.0000     4.0000 </r>
       <r>   -17.0973     0.0000     4.0000 </r>
       <r>   -17.0142     0.0000     4.0000 </r>
       <r>   -16.9310     0.0000     4.0000 </r>
       <r>   -16.8479     0.0000     4.0000 </r>
       <r>   -16.7647     0.0000     4.0000 </r>
       <r>   -16.6816     0.0000     4.0000 </r>
       <r>   -16.5984     0.0000     4.0000 </r>
       <r>   -16.5152     0.0000     4.0000 </r>
       <r>   -16.4321     0.0000     4.0000 </r>
       <r>   -16.3489     0.0000     4.0000 </r>
       <r>   -16.2658     0.0000     4.0000 </r>
       <r>   -16.1826     0.0000     4.0000 </r>
       <r>   -16.0995     0.0000     4.0000 </r>
       <r>   -16.0163     0.0000     4.0000 </r>
       <r>   -15.9332     0.0000     4.0000 </r>
       <r>   -15.8500     0.0000     4.0000 </r>
       <r>   -15.7668     0.0000     4.0000 </r>
       <r>   -15.6837     0.0000     4.0000 </r>
       <r>   -15.6005     0.0605     4.0050 </r>
       <r>   -15.5174     2.1661     4.1852 </r>
       <r>   -15.4342     6.1396     4.6957 </r>
       <r>   -15.3511     8.4494     5.3983 </r>
       <r>   -15.2679    11.2238     6.3317 </r>
       <r>   -15.1847     9.8630     7.1518 </r>
       <r>   -15.1016     6.2680     7.6731 </r>
       <r>   -15.0184     3.0982     7.9307 </r>
       <r>   -14.9353     0.8107     7.9981 </r>
       <r>   -14.8521     0.0227     8.0000 </r>
       <r>   -14.7690     0.0000     8.0000 </r>
       <r>   -14.6858     0.0000     8.0000 </r>
       <r>   -14.6026     0.0000     8.0000 </r>
       <r>   -14.5195     0.0000     8.0000 </r>
       <r>   -14.4363     0.0000     8.0000 </r>
       <r>   -14.3532     0.0000     8.0000 </r>
       <r>   -14.2700     0.0000     8.0000 </r>
       <r>   -14.1869     0.0000     8.0000 </r>
       <r>   -14.1037     0.0000     8.0000 </r>
       <r>   -14.0206     0.0000     8.0000 </r>
       <r>   -13.9374     0.0000     8.0000 </r>
       <r>   -13.8542     0.0003     8.0000 </r>
       <r>   -13.7711     0.1356     8.0113 </r>
       <r>   -13.6879     0.8142     8.0790 </r>
       <r>   -13.6048     0.4166     8.1136 </r>
       <r>   -13.5216     1.0706     8.2027 </r>
       <r>   -13.4385     1.5020     8.3276 </r>
       <r>   -13.3553     1.0792     8.4173 </r>
       <r>   -13.2721     3.0121     8.6678 </r>
       <r>   -13.1890     4.9939     9.0831 </r>
       <r>   -13.1058     4.1485     9.4280 </r>
       <r>   -13.0227     3.3564     9.7071 </r>
       <r>   -12.9395     3.3744     9.9878 </r>
       <r>   -12.8564     2.8769    10.2270 </r>
       <r>   -12.7732     3.1889    10.4922 </r>
       <r>   -12.6901     4.6805    10.8814 </r>
       <r>   -12.6069     3.3626    11.1610 </r>
       <r>   -12.5237     4.2682    11.5159 </r>
       <r>   -12.4406     3.5719    11.8130 </r>
       <r>   -12.3574     1.5599    11.9427 </r>
       <r>   -12.2743     0.6695    11.9983 </r>
       <r>   -12.1911     0.0200    12.0000 </r>
       <r>   -12.1080     0.0000    12.0000 </r>
       <r>   -12.0248     0.0000    12.0000 </r>
       <r>   -11.9416     0.0000    12.0000 </r>
       <r>   -11.8585     0.0000    12.0000 </r>
       <r>   -11.7753     0.0000    12.0000 </r>
       <r>   -11.6922     0.0000    12.0000 </r>
       <r>   -11.6090     0.0000    12.0000 </r>
       <r>   -11.5259     0.0590    12.0049 </r>
       <r>   -11.4427     1.7378    12.1494 </r>
       <r>   -11.3595     3.9796    12.4803 </r>
       <r>   -11.2764     5.8264    12.9648 </r>
       <r>   -11.1932     4.6824    13.3542 </r>
       <r>   -11.1101     5.2707    13.7925 </r>
       <r>   -11.0269     7.8535    14.4456 </r>
       <r>   -10.9438     4.9352    14.8560 </r>
       <r>   -10.8606     3.8859    15.1791 </r>
       <r>   -10.7775     4.6920    15.5693 </r>
       <r>   -10.6943     4.3419    15.9303 </r>
       <r>   -10.6111     4.0874    16.2702 </r>
       <r>   -10.5280     2.3484    16.4655 </r>
       <r>   -10.4448     4.7593    16.8613 </r>
       <r>   -10.3617     3.4709    17.1499 </r>
       <r>   -10.2785     2.8158    17.3841 </r>
       <r>   -10.1954     5.9842    17.8817 </r>
       <r>   -10.1122     5.3177    18.3239 </r>
       <r>   -10.0290     5.1772    18.7544 </r>
       <r>    -9.9459     5.0416    19.1737 </r>
       <r>    -9.8627     5.1248    19.5998 </r>
       <r>    -9.7796     4.2536    19.9535 </r>
       <r>    -9.6964     4.1841    20.3015 </r>
       <r>    -9.6133     2.6902    20.5252 </r>
       <r>    -9.5301     4.2363    20.8774 </r>
       <r>    -9.4470     3.4839    21.1671 </r>
       <r>    -9.3638     3.1287    21.4273 </r>
       <r>    -9.2806     1.9979    21.5935 </r>
       <r>    -9.1975     1.3667    21.7071 </r>
       <r>    -9.1143     1.5517    21.8361 </r>
       <r>    -9.0312     1.5636    21.9662 </r>
       <r>    -8.9480     2.3846    22.1645 </r>
       <r>    -8.8649     1.5065    22.2897 </r>
       <r>    -8.7817     1.3114    22.3988 </r>
       <r>    -8.6985     2.3540    22.5945 </r>
       <r>    -8.6154     3.8435    22.9142 </r>
       <r>    -8.5322     4.4513    23.2843 </r>
       <r>    -8.4491     2.3086    23.4763 </r>
       <r>    -8.3659     3.4191    23.7606 </r>
       <r>    -8.2828     0.7452    23.8226 </r>
       <r>    -8.1996     0.7730    23.8869 </r>
       <r>    -8.1164     1.6172    24.0213 </r>
       <r>    -8.0333     2.8726    24.2602 </r>
       <r>    -7.9501     2.5764    24.4744 </r>
       <r>    -7.8670     4.2847    24.8307 </r>
       <r>    -7.7838     6.5628    25.3765 </r>
       <r>    -7.7007     8.9047    26.1170 </r>
       <r>    -7.6175     8.9471    26.8610 </r>
       <r>    -7.5344    10.6031    27.7427 </r>
       <r>    -7.4512     9.2316    28.5104 </r>
       <r>    -7.3680     6.7774    29.0739 </r>
       <r>    -7.2849     7.0689    29.6618 </r>
       <r>    -7.2017     8.9346    30.4047 </r>
       <r>    -7.1186     8.0399    31.0733 </r>
       <r>    -7.0354     6.5034    31.6141 </r>
       <r>    -6.9523     5.2292    32.0489 </r>
       <r>    -6.8691     4.1962    32.3979 </r>
       <r>    -6.7859     2.5526    32.6101 </r>
       <r>    -6.7028     2.3966    32.8094 </r>
       <r>    -6.6196     1.9335    32.9702 </r>
       <r>    -6.5365     1.2655    33.0754 </r>
       <r>    -6.4533     4.2737    33.4308 </r>
       <r>    -6.3702     3.3531    33.7097 </r>
       <r>    -6.2870     3.0347    33.9620 </r>
       <r>    -6.2039     4.7049    34.3533 </r>
       <r>    -6.1207     7.5132    34.9780 </r>
       <r>    -6.0375     4.9858    35.3926 </r>
       <r>    -5.9544     4.1642    35.7389 </r>
       <r>    -5.8712     3.4356    36.0246 </r>
       <r>    -5.7881     5.6974    36.4984 </r>
       <r>    -5.7049     4.2319    36.8503 </r>
       <r>    -5.6218     5.1081    37.2750 </r>
       <r>    -5.5386     5.8706    37.7632 </r>
       <r>    -5.4554     4.8075    38.1630 </r>
       <r>    -5.3723     4.8928    38.5699 </r>
       <r>    -5.2891     2.4554    38.7740 </r>
       <r>    -5.2060     0.6942    38.8318 </r>
       <r>    -5.1228     0.1705    38.8460 </r>
       <r>    -5.0397     0.7800    38.9108 </r>
       <r>    -4.9565     0.8568    38.9821 </r>
       <r>    -4.8733     0.7875    39.0475 </r>
       <r>    -4.7902     2.3329    39.2415 </r>
       <r>    -4.7070     1.5254    39.3684 </r>
       <r>    -4.6239     1.2473    39.4721 </r>
       <r>    -4.5407     6.6562    40.0256 </r>
       <r>    -4.4576     9.9589    40.8538 </r>
       <r>    -4.3744    10.0516    41.6896 </r>
       <r>    -4.2913    14.4261    42.8892 </r>
       <r>    -4.2081     6.3584    43.4180 </r>
       <r>    -4.1249     1.6196    43.5527 </r>
       <r>    -4.0418     0.0375    43.5558 </r>
       <r>    -3.9586     0.5145    43.5986 </r>
       <r>    -3.8755     1.6367    43.7347 </r>
       <r>    -3.7923     0.9272    43.8118 </r>
       <r>    -3.7092     0.1254    43.8222 </r>
       <r>    -3.6260     0.0002    43.8222 </r>
       <r>    -3.5428     0.0008    43.8223 </r>
       <r>    -3.4597     0.2193    43.8405 </r>
       <r>    -3.3765     0.7816    43.9055 </r>
       <r>    -3.2934     0.0673    43.9111 </r>
       <r>    -3.2102     0.1062    43.9200 </r>
       <r>    -3.1271     0.8099    43.9873 </r>
       <r>    -3.0439     0.1524    44.0000 </r>
       <r>    -2.9608     0.0003    44.0000 </r>
       <r>    -2.8776     0.0000    44.0000 </r>
       <r>    -2.7944     0.0000    44.0000 </r>
       <r>    -2.7113     0.0000    44.0000 </r>
       <r>    -2.6281     0.0000    44.0000 </r>
       <r>    -2.5450     0.0000    44.0000 </r>
       <r>    -2.4618     0.0000    44.0000 </r>
       <r>    -2.3787     0.0000    44.0000 </r>
       <r>    -2.2955     0.0000    44.0000 </r>
       <r>    -2.2123     0.0000    44.0000 </r>
       <r>    -2.1292     0.0000    44.0000 </r>
       <r>    -2.0460     0.0000    44.0000 </r>
       <r>    -1.9629     0.0000    44.0000 </r>
       <r>    -1.8797     0.0001    44.0000 </r>
       <r>    -1.7966     0.0796    44.0066 </r>
       <r>    -1.7134     0.7966    44.0729 </r>
       <r>    -1.6303     0.4893    44.1135 </r>
       <r>    -1.5471     1.5102    44.2391 </r>
       <r>    -1.4639     2.8253    44.4741 </r>
       <r>    -1.3808     5.1191    44.8997 </r>
       <r>    -1.2976     5.6365    45.3685 </r>
       <r>    -1.2145     7.4573    45.9886 </r>
       <r>    -1.1313     7.9032    46.6458 </r>
       <r>    -1.0482     7.8724    47.3004 </r>
       <r>    -0.9650     5.7857    47.7815 </r>
       <r>    -0.8818     7.0945    48.3715 </r>
       <r>    -0.7987     3.7837    48.6861 </r>
       <r>    -0.7155     4.1448    49.0308 </r>
       <r>    -0.6324     5.1696    49.4607 </r>
       <r>    -0.5492     4.8219    49.8617 </r>
       <r>    -0.4661     6.9570    50.4402 </r>
       <r>    -0.3829     5.8762    50.9288 </r>
       <r>    -0.2997     4.3753    51.2927 </r>
       <r>    -0.2166     5.1762    51.7231 </r>
       <r>    -0.1334     3.9534    52.0519 </r>
       <r>    -0.0503     4.6812    52.4411 </r>
       <r>     0.0329     6.0722    52.9461 </r>
       <r>     0.1160     5.8328    53.4311 </r>
       <r>     0.1992     3.8647    53.7525 </r>
       <r>     0.2823     9.3167    54.5272 </r>
       <r>     0.3655     2.8497    54.7642 </r>
       <r>     0.4487     4.2833    55.1204 </r>
       <r>     0.5318     3.4089    55.4038 </r>
       <r>     0.6150     1.6756    55.5432 </r>
       <r>     0.6981     2.0814    55.7163 </r>
       <r>     0.7813     2.6909    55.9400 </r>
       <r>     0.8644     3.8531    56.2604 </r>
       <r>     0.9476     2.8526    56.4977 </r>
       <r>     1.0308     4.2377    56.8501 </r>
       <r>     1.1139     4.9676    57.2631 </r>
       <r>     1.1971     9.5865    58.0603 </r>
       <r>     1.2802     8.7076    58.7844 </r>
       <r>     1.3634     7.6755    59.4227 </r>
       <r>     1.4465    10.0418    60.2577 </r>
       <r>     1.5297     9.2973    61.0309 </r>
       <r>     1.6128     6.9834    61.6116 </r>
       <r>     1.6960     7.5125    62.2363 </r>
       <r>     1.7792     5.9252    62.7290 </r>
       <r>     1.8623     8.0881    63.4016 </r>
       <r>     1.9455     9.0299    64.1525 </r>
       <r>     2.0286     7.8703    64.8069 </r>
       <r>     2.1118    13.2381    65.9078 </r>
       <r>     2.1949    11.3217    66.8492 </r>
       <r>     2.2781    11.9170    67.8402 </r>
       <r>     2.3613     6.8390    68.4089 </r>
       <r>     2.4444     7.5933    69.0403 </r>
       <r>     2.5276     4.5935    69.4223 </r>
       <r>     2.6107     3.4148    69.7063 </r>
       <r>     2.6939     1.7092    69.8484 </r>
       <r>     2.7770     1.7112    69.9907 </r>
       <r>     2.8602     0.1115    70.0000 </r>
       <r>     2.9434     0.0001    70.0000 </r>
       <r>     3.0265     0.0000    70.0000 </r>
       <r>     3.1097     0.0000    70.0000 </r>
       <r>     3.1928     0.0000    70.0000 </r>
       <r>     3.2760     0.0000    70.0000 </r>
       <r>     3.3591     0.0000    70.0000 </r>
       <r>     3.4423     0.0000    70.0000 </r>
       <r>     3.5254     0.0000    70.0000 </r>
       <r>     3.6086     0.0000    70.0000 </r>
       <r>     3.6918     0.0000    70.0000 </r>
       <r>     3.7749     0.0000    70.0000 </r>
       <r>     3.8581     0.0000    70.0000 </r>
      </set>
     </set>
    </array>
   </total>
  </dos>
 </calculation>
 <structure name="finalpos" >
  <crystal>
   <varray name="basis" >
    <v>       5.69975798      -0.00000000       0.00000000 </v>
    <v>      -0.00000000       6.31413378       0.00000000 </v>
    <v>       0.00000000       0.00000000      24.04405832 </v>
   </varray>
   <i name="volume">    865.32244126 </i>
   <varray name="rec_basis" >
    <v>       0.17544605       0.00000000       0.00000000 </v>
    <v>       0.00000000       0.15837485       0.00000000 </v>
    <v>       0.00000000       0.00000000       0.04159032 </v>
   </varray>
  </crystal>
  <varray name="positions" >
   <v>       0.51382229       0.64076397       0.08409683 </v>
   <v>       0.48617771       0.35923603       0.08409683 </v>
   <v>       0.98617771       0.64076397       0.08409683 </v>
   <v>       0.01382229       0.35923603       0.08409683 </v>
   <v>       0.59609086       0.90122213       0.08409683 </v>
   <v>       0.40390914       0.09877786       0.08409683 </v>
   <v>       0.90390914       0.90122213       0.08409683 </v>
   <v>       0.09609086       0.09877786       0.08409683 </v>
   <v>       0.75000000       0.72378395       0.12541800 </v>
   <v>       0.25000000       0.27621605       0.04277567 </v>
   <v>       0.75000000       0.72378395       0.04277567 </v>
   <v>       0.25000000       0.27621605       0.12541800 </v>
   <v>       0.25000000       0.51648766       0.08409683 </v>
   <v>       0.75000000       0.48351231       0.08409683 </v>
  </varray>
 </structure>
</modeling>
