Parameters                              
           1
     5.700971    0.000000    0.000000
     0.000000    6.201871    0.000000
     0.000000    0.000000   24.044058
   B 
    14
Direct configuration=     1
   0.52128989  0.63795769  0.08409683
   0.47871011  0.36204231  0.08409683
   0.97871011  0.63795769  0.08409683
   0.02128989  0.36204231  0.08409683
   0.59744966  0.89986831  0.08409683
   0.40255034  0.10013168  0.08409683
   0.90255034  0.89986831  0.08409683
   0.09744966  0.10013168  0.08409683
   0.75000000  0.72957939  0.13313621
   0.25000000  0.27042061  0.03505746
   0.75000000  0.72957939  0.03505746
   0.25000000  0.27042061  0.13313621
   0.25000000  0.52399302  0.08409683
   0.75000000  0.47600695  0.08409683
Parameters                              
           1
     5.720806    0.000000    0.000000
    -0.000000    6.227042    0.000000
     0.000000    0.000000   24.044058
   B 
    14
Direct configuration=     2
   0.52093660  0.63825115  0.08409683
   0.47906340  0.36174885  0.08409683
   0.97906340  0.63825115  0.08409683
   0.02093660  0.36174885  0.08409683
   0.59588146  0.90144892  0.08409683
   0.40411854  0.09855107  0.08409683
   0.90411854  0.90144892  0.08409683
   0.09588146  0.09855107  0.08409683
   0.75000000  0.72813850  0.12747959
   0.25000000  0.27186150  0.04071408
   0.75000000  0.72813850  0.04071408
   0.25000000  0.27186150  0.12747959
   0.25000000  0.52323796  0.08409683
   0.75000000  0.47676201  0.08409683
Parameters                              
           1
     5.727229    0.000000    0.000000
    -0.000000    6.235192    0.000000
     0.000000    0.000000   24.044058
   B 
    14
Direct configuration=     3
   0.52082261  0.63834579  0.08409683
   0.47917739  0.36165421  0.08409683
   0.97917739  0.63834579  0.08409683
   0.02082261  0.36165421  0.08409683
   0.59537545  0.90195865  0.08409683
   0.40462455  0.09804135  0.08409683
   0.90462455  0.90195865  0.08409683
   0.09537545  0.09804135  0.08409683
   0.75000000  0.72767383  0.12564802
   0.25000000  0.27232617  0.04254565
   0.75000000  0.72767383  0.04254565
   0.25000000  0.27232617  0.12564802
   0.25000000  0.52299447  0.08409683
   0.75000000  0.47700550  0.08409683
Parameters                              
           1
     5.726763    0.000000    0.000000
    -0.000000    6.234601    0.000000
     0.000000    0.000000   24.044058
   B 
    14
Direct configuration=     4
   0.52083086  0.63833894  0.08409683
   0.47916914  0.36166106  0.08409683
   0.97916914  0.63833894  0.08409683
   0.02083086  0.36166106  0.08409683
   0.59541207  0.90192177  0.08409683
   0.40458793  0.09807823  0.08409683
   0.90458793  0.90192177  0.08409683
   0.09541207  0.09807823  0.08409683
   0.75000000  0.72770745  0.12578071
   0.25000000  0.27229255  0.04241296
   0.75000000  0.72770745  0.04241296
   0.25000000  0.27229255  0.12578071
   0.25000000  0.52301209  0.08409683
   0.75000000  0.47698788  0.08409683
Parameters                              
           1
     5.763561   -0.000000    0.000000
    -0.000000    6.297617    0.000000
     0.000000    0.000000   24.044058
   B 
    14
Direct configuration=     5
   0.51460919  0.63987082  0.08409683
   0.48539081  0.36012918  0.08409683
   0.98539081  0.63987082  0.08409683
   0.01460919  0.36012918  0.08409683
   0.59743158  0.90183681  0.08409683
   0.40256842  0.09816319  0.08409683
   0.90256842  0.90183681  0.08409683
   0.09743158  0.09816319  0.08409683
   0.75000000  0.72510087  0.12525298
   0.25000000  0.27489913  0.04294069
   0.75000000  0.72510087  0.04294069
   0.25000000  0.27489913  0.12525298
   0.25000000  0.52188105  0.08409683
   0.75000000  0.47811892  0.08409683
Parameters                              
           1
     5.753223   -0.000000    0.000000
    -0.000000    6.279913    0.000000
     0.000000    0.000000   24.044058
   B 
    14
Direct configuration=     6
   0.51634597  0.63944476  0.08409683
   0.48365403  0.36055524  0.08409683
   0.98365403  0.63944476  0.08409683
   0.01634597  0.36055524  0.08409683
   0.59686783  0.90186044  0.08409683
   0.40313217  0.09813956  0.08409683
   0.90313217  0.90186044  0.08409683
   0.09686783  0.09813956  0.08409683
   0.75000000  0.72582585  0.12540124
   0.25000000  0.27417415  0.04279243
   0.75000000  0.72582585  0.04279243
   0.25000000  0.27417415  0.12540124
   0.25000000  0.52219563  0.08409683
   0.75000000  0.47780434  0.08409683
Parameters                              
           1
     5.723275   -0.000000    0.000000
    -0.000000    6.298794    0.000000
     0.000000    0.000000   24.044058
   B 
    14
Direct configuration=     7
   0.51471313  0.64153184  0.08409683
   0.48528687  0.35846816  0.08409683
   0.98528687  0.64153184  0.08409683
   0.01471313  0.35846816  0.08409683
   0.59735539  0.90224946  0.08409683
   0.40264461  0.09775053  0.08409683
   0.90264461  0.90224946  0.08409683
   0.09735539  0.09775053  0.08409683
   0.75000000  0.72288019  0.12524842
   0.25000000  0.27711981  0.04294525
   0.75000000  0.72288019  0.04294525
   0.25000000  0.27711981  0.12524842
   0.25000000  0.51774978  0.08409683
   0.75000000  0.48225019  0.08409683
Parameters                              
           1
     5.726469   -0.000000    0.000000
    -0.000000    6.296780    0.000000
     0.000000    0.000000   24.044058
   B 
    14
Direct configuration=     8
   0.51488823  0.64130986  0.08409683
   0.48511177  0.35869014  0.08409683
   0.98511177  0.64130986  0.08409683
   0.01488823  0.35869014  0.08409683
   0.59730311  0.90220809  0.08409683
   0.40269689  0.09779190  0.08409683
   0.90269689  0.90220809  0.08409683
   0.09730311  0.09779190  0.08409683
   0.75000000  0.72319349  0.12526472
   0.25000000  0.27680651  0.04292895
   0.75000000  0.72319349  0.04292895
   0.25000000  0.27680651  0.12526472
   0.25000000  0.51822263  0.08409683
   0.75000000  0.48177734  0.08409683
Parameters                              
           1
     5.704552   -0.000000    0.000000
    -0.000000    6.296460    0.000000
     0.000000    0.000000   24.044058
   B 
    14
Direct configuration=     9
   0.51392772  0.64063964  0.08409683
   0.48607228  0.35936036  0.08409683
   0.98607228  0.64063964  0.08409683
   0.01392772  0.35936036  0.08409683
   0.59703031  0.90201137  0.08409683
   0.40296969  0.09798863  0.08409683
   0.90296969  0.90201137  0.08409683
   0.09703031  0.09798863  0.08409683
   0.75000000  0.72321301  0.12539894
   0.25000000  0.27678699  0.04279473
   0.75000000  0.72321301  0.04279473
   0.25000000  0.27678699  0.12539894
   0.25000000  0.51721085  0.08409683
   0.75000000  0.48278912  0.08409683
Parameters                              
           1
     5.708100   -0.000000    0.000000
    -0.000000    6.296512    0.000000
     0.000000    0.000000   24.044058
   B 
    14
Direct configuration=    10
   0.51408380  0.64074813  0.08409683
   0.48591620  0.35925187  0.08409683
   0.98591620  0.64074813  0.08409683
   0.01408380  0.35925187  0.08409683
   0.59707464  0.90204321  0.08409683
   0.40292536  0.09795678  0.08409683
   0.90292536  0.90204321  0.08409683
   0.09707464  0.09795678  0.08409683
   0.75000000  0.72320985  0.12537722
   0.25000000  0.27679015  0.04281645
   0.75000000  0.72320985  0.04281645
   0.25000000  0.27679015  0.12537722
   0.25000000  0.51737464  0.08409683
   0.75000000  0.48262533  0.08409683
Parameters                              
           1
     5.701380   -0.000000    0.000000
    -0.000000    6.305084    0.000000
     0.000000    0.000000   24.044058
   B 
    14
Direct configuration=    11
   0.51393310  0.64090318  0.08409683
   0.48606690  0.35909682  0.08409683
   0.98606690  0.64090318  0.08409683
   0.01393310  0.35909682  0.08409683
   0.59645681  0.90149190  0.08409683
   0.40354319  0.09850809  0.08409683
   0.90354319  0.90149190  0.08409683
   0.09645681  0.09850809  0.08409683
   0.75000000  0.72353927  0.12546063
   0.25000000  0.27646073  0.04273303
   0.75000000  0.72353927  0.04273303
   0.25000000  0.27646073  0.12546063
   0.25000000  0.51688940  0.08409683
   0.75000000  0.48311057  0.08409683
Parameters                              
           1
     5.699411   -0.000000    0.000000
    -0.000000    6.307595    0.000000
     0.000000    0.000000   24.044058
   B 
    14
Direct configuration=    12
   0.51388890  0.64094854  0.08409683
   0.48611110  0.35905146  0.08409683
   0.98611110  0.64094854  0.08409683
   0.01388890  0.35905146  0.08409683
   0.59627559  0.90133060  0.08409683
   0.40372441  0.09866939  0.08409683
   0.90372441  0.90133060  0.08409683
   0.09627559  0.09866939  0.08409683
   0.75000000  0.72363564  0.12548507
   0.25000000  0.27636436  0.04270860
   0.75000000  0.72363564  0.04270860
   0.25000000  0.27636436  0.12548507
   0.25000000  0.51674744  0.08409683
   0.75000000  0.48325253  0.08409683
Parameters                              
           1
     5.700377   -0.000000    0.000000
    -0.000000    6.314958    0.000000
     0.000000    0.000000   24.044058
   B 
    14
Direct configuration=    13
   0.51376974  0.64074441  0.08409683
   0.48623026  0.35925559  0.08409683
   0.98623026  0.64074441  0.08409683
   0.01376974  0.35925559  0.08409683
   0.59602579  0.90129282  0.08409683
   0.40397421  0.09870717  0.08409683
   0.90397421  0.90129282  0.08409683
   0.09602579  0.09870717  0.08409683
   0.75000000  0.72378408  0.12544071
   0.25000000  0.27621592  0.04275296
   0.75000000  0.72378408  0.04275296
   0.25000000  0.27621592  0.12544071
   0.25000000  0.51655681  0.08409683
   0.75000000  0.48344316  0.08409683
Parameters                              
           1
     5.700148   -0.000000    0.000000
    -0.000000    6.313211    0.000000
     0.000000    0.000000   24.044058
   B 
    14
Direct configuration=    14
   0.51379800  0.64079279  0.08409683
   0.48620200  0.35920721  0.08409683
   0.98620200  0.64079279  0.08409683
   0.01379800  0.35920721  0.08409683
   0.59608504  0.90130178  0.08409683
   0.40391496  0.09869822  0.08409683
   0.90391496  0.90130178  0.08409683
   0.09608504  0.09869822  0.08409683
   0.75000000  0.72374891  0.12545123
   0.25000000  0.27625109  0.04274244
   0.75000000  0.72374891  0.04274244
   0.25000000  0.27625109  0.12545123
   0.25000000  0.51660199  0.08409683
   0.75000000  0.48339798  0.08409683
Parameters                              
           1
     5.699440   -0.000000    0.000000
    -0.000000    6.314887    0.000000
     0.000000    0.000000   24.044058
   B 
    14
Direct configuration=    15
   0.51384211  0.64074047  0.08409683
   0.48615789  0.35925953  0.08409683
   0.98615789  0.64074047  0.08409683
   0.01384211  0.35925953  0.08409683
   0.59609561  0.90115718  0.08409683
   0.40390439  0.09884281  0.08409683
   0.90390439  0.90115718  0.08409683
   0.09609561  0.09884281  0.08409683
   0.75000000  0.72381252  0.12539088
   0.25000000  0.27618748  0.04280279
   0.75000000  0.72381252  0.04280279
   0.25000000  0.27618748  0.12539088
   0.25000000  0.51639441  0.08409683
   0.75000000  0.48360556  0.08409683
Parameters                              
           1
     5.699758   -0.000000    0.000000
    -0.000000    6.314134    0.000000
     0.000000    0.000000   24.044058
   B 
    14
Direct configuration=    16
   0.51382229  0.64076397  0.08409683
   0.48617771  0.35923603  0.08409683
   0.98617771  0.64076397  0.08409683
   0.01382229  0.35923603  0.08409683
   0.59609086  0.90122213  0.08409683
   0.40390914  0.09877786  0.08409683
   0.90390914  0.90122213  0.08409683
   0.09609086  0.09877786  0.08409683
   0.75000000  0.72378395  0.12541800
   0.25000000  0.27621605  0.04277567
   0.75000000  0.72378395  0.04277567
   0.25000000  0.27621605  0.12541800
   0.25000000  0.51648766  0.08409683
   0.75000000  0.48351231  0.08409683
