       N       E                     dE             d eps       ncg     rms          rms(c)
DAV:   1     0.112995765654E+03    0.11300E+03   -0.23185E+04120960   0.106E+03
DAV:   2    -0.901698201145E+02   -0.20317E+03   -0.18921E+03163656   0.188E+02
DAV:   3    -0.976023016770E+02   -0.74325E+01   -0.73763E+01179976   0.318E+01
DAV:   4    -0.976471429972E+02   -0.44841E-01   -0.44839E-01138432   0.286E+00
DAV:   5    -0.976476196820E+02   -0.47668E-03   -0.47667E-03180264   0.280E-01    0.123E+01
DAV:   6    -0.922334104656E+02    0.54142E+01   -0.39476E+00174912   0.658E+00    0.679E+00
