   1   1   0   0
  0.3373988E+04  0.1499850E-08  0.1249875E-08  0.1799820E-08  0.5000000E-15
  1.000000000000000E-004
  CAR 
 Convergence                             
      2.49417496     -9.97675737  301     -3.60719041      1.00000000
     -9.977  0.0000E+00  0.0000E+00
     -9.935  0.0000E+00  0.0000E+00
     -9.894  0.0000E+00  0.0000E+00
     -9.852  0.0000E+00  0.0000E+00
     -9.810  0.0000E+00  0.0000E+00
     -9.769  0.0000E+00  0.0000E+00
     -9.727  0.0000E+00  0.0000E+00
     -9.686  0.1469E-12  0.6106E-14
     -9.644  0.8235E-09  0.3424E-10
     -9.603  0.1202E-05  0.5000E-07
     -9.561  0.4575E-03  0.1907E-04
     -9.519  0.4613E-01  0.1937E-02
     -9.478  0.1261E+01  0.5435E-01
     -9.436  0.9622E+01  0.4543E+00
     -9.395  0.2109E+02  0.1331E+01
     -9.353  0.1347E+02  0.1891E+01
     -9.312  0.2488E+01  0.1995E+01
     -9.270  0.1293E+00  0.2000E+01
     -9.229  0.1835E-02  0.2000E+01
     -9.187  0.6940E-05  0.2000E+01
     -9.145  0.6869E-08  0.2000E+01
     -9.104  0.1761E-11  0.2000E+01
     -9.062  0.0000E+00  0.2000E+01
     -9.021  0.0000E+00  0.2000E+01
     -8.979  0.0000E+00  0.2000E+01
     -8.938  0.0000E+00  0.2000E+01
     -8.896  0.0000E+00  0.2000E+01
     -8.854  0.0000E+00  0.2000E+01
     -8.813  0.0000E+00  0.2000E+01
     -8.771  0.0000E+00  0.2000E+01
     -8.730  0.0000E+00  0.2000E+01
     -8.688  0.0000E+00  0.2000E+01
     -8.647  0.0000E+00  0.2000E+01
     -8.605  0.0000E+00  0.2000E+01
     -8.563  0.0000E+00  0.2000E+01
     -8.522  0.0000E+00  0.2000E+01
     -8.480  0.0000E+00  0.2000E+01
     -8.439  0.0000E+00  0.2000E+01
     -8.397  0.0000E+00  0.2000E+01
     -8.356  0.0000E+00  0.2000E+01
     -8.314  0.0000E+00  0.2000E+01
     -8.272  0.0000E+00  0.2000E+01
     -8.231  0.0000E+00  0.2000E+01
     -8.189  0.0000E+00  0.2000E+01
     -8.148  0.0000E+00  0.2000E+01
     -8.106  0.0000E+00  0.2000E+01
     -8.065  0.0000E+00  0.2000E+01
     -8.023  0.0000E+00  0.2000E+01
     -7.981  0.0000E+00  0.2000E+01
     -7.940  0.0000E+00  0.2000E+01
     -7.898  0.0000E+00  0.2000E+01
     -7.857  0.0000E+00  0.2000E+01
     -7.815  0.0000E+00  0.2000E+01
     -7.774  0.0000E+00  0.2000E+01
     -7.732  0.0000E+00  0.2000E+01
     -7.690  0.0000E+00  0.2000E+01
     -7.649  0.0000E+00  0.2000E+01
     -7.607  0.0000E+00  0.2000E+01
     -7.566  0.0000E+00  0.2000E+01
     -7.524  0.0000E+00  0.2000E+01
     -7.483  0.0000E+00  0.2000E+01
     -7.441  0.0000E+00  0.2000E+01
     -7.399  0.0000E+00  0.2000E+01
     -7.358  0.0000E+00  0.2000E+01
     -7.316  0.0000E+00  0.2000E+01
     -7.275  0.0000E+00  0.2000E+01
     -7.233  0.0000E+00  0.2000E+01
     -7.192  0.0000E+00  0.2000E+01
     -7.150  0.0000E+00  0.2000E+01
     -7.108  0.0000E+00  0.2000E+01
     -7.067  0.0000E+00  0.2000E+01
     -7.025  0.0000E+00  0.2000E+01
     -6.984  0.0000E+00  0.2000E+01
     -6.942  0.0000E+00  0.2000E+01
     -6.901  0.0000E+00  0.2000E+01
     -6.859  0.0000E+00  0.2000E+01
     -6.817  0.0000E+00  0.2000E+01
     -6.776  0.0000E+00  0.2000E+01
     -6.734  0.0000E+00  0.2000E+01
     -6.693  0.0000E+00  0.2000E+01
     -6.651  0.0000E+00  0.2000E+01
     -6.610  0.0000E+00  0.2000E+01
     -6.568  0.0000E+00  0.2000E+01
     -6.526  0.0000E+00  0.2000E+01
     -6.485  0.0000E+00  0.2000E+01
     -6.443  0.0000E+00  0.2000E+01
     -6.402  0.0000E+00  0.2000E+01
     -6.360  0.0000E+00  0.2000E+01
     -6.319  0.0000E+00  0.2000E+01
     -6.277  0.0000E+00  0.2000E+01
     -6.235  0.0000E+00  0.2000E+01
     -6.194  0.0000E+00  0.2000E+01
     -6.152  0.0000E+00  0.2000E+01
     -6.111  0.0000E+00  0.2000E+01
     -6.069  0.0000E+00  0.2000E+01
     -6.028  0.0000E+00  0.2000E+01
     -5.986  0.0000E+00  0.2000E+01
     -5.944  0.0000E+00  0.2000E+01
     -5.903  0.0000E+00  0.2000E+01
     -5.861  0.0000E+00  0.2000E+01
     -5.820  0.0000E+00  0.2000E+01
     -5.778  0.0000E+00  0.2000E+01
     -5.737  0.0000E+00  0.2000E+01
     -5.695  0.0000E+00  0.2000E+01
     -5.654  0.0000E+00  0.2000E+01
     -5.612  0.0000E+00  0.2000E+01
     -5.570  0.0000E+00  0.2000E+01
     -5.529  0.0000E+00  0.2000E+01
     -5.487  0.0000E+00  0.2000E+01
     -5.446  0.0000E+00  0.2000E+01
     -5.404  0.0000E+00  0.2000E+01
     -5.363  0.0000E+00  0.2000E+01
     -5.321  0.0000E+00  0.2000E+01
     -5.279  0.0000E+00  0.2000E+01
     -5.238  0.0000E+00  0.2000E+01
     -5.196  0.0000E+00  0.2000E+01
     -5.155  0.0000E+00  0.2000E+01
     -5.113  0.0000E+00  0.2000E+01
     -5.072  0.0000E+00  0.2000E+01
     -5.030  0.0000E+00  0.2000E+01
     -4.988  0.0000E+00  0.2000E+01
     -4.947  0.0000E+00  0.2000E+01
     -4.905  0.0000E+00  0.2000E+01
     -4.864  0.0000E+00  0.2000E+01
     -4.822  0.0000E+00  0.2000E+01
     -4.781  0.0000E+00  0.2000E+01
     -4.739  0.0000E+00  0.2000E+01
     -4.697  0.0000E+00  0.2000E+01
     -4.656  0.0000E+00  0.2000E+01
     -4.614  0.0000E+00  0.2000E+01
     -4.573  0.0000E+00  0.2000E+01
     -4.531  0.0000E+00  0.2000E+01
     -4.490  0.0000E+00  0.2000E+01
     -4.448  0.0000E+00  0.2000E+01
     -4.406  0.0000E+00  0.2000E+01
     -4.365  0.0000E+00  0.2000E+01
     -4.323  0.0000E+00  0.2000E+01
     -4.282  0.0000E+00  0.2000E+01
     -4.240  0.0000E+00  0.2000E+01
     -4.199  0.0000E+00  0.2000E+01
     -4.157  0.0000E+00  0.2000E+01
     -4.115  0.0000E+00  0.2000E+01
     -4.074  0.0000E+00  0.2000E+01
     -4.032  0.0000E+00  0.2000E+01
     -3.991  0.0000E+00  0.2000E+01
     -3.949  0.0000E+00  0.2000E+01
     -3.908  0.0000E+00  0.2000E+01
     -3.866  0.8012E-14  0.2000E+01
     -3.824  0.8259E-10  0.2000E+01
     -3.783  0.2105E-06  0.2000E+01
     -3.741  0.1393E-03  0.2000E+01
     -3.700  0.2422E-01  0.2001E+01
     -3.658  0.1131E+01  0.2048E+01
     -3.617  0.1455E+02  0.2653E+01
     -3.575  0.5317E+02  0.4863E+01
     -3.533  0.5646E+02  0.7210E+01
     -3.492  0.1743E+02  0.7935E+01
     -3.450  0.1534E+01  0.7998E+01
     -3.409  0.3731E-01  0.8000E+01
     -3.367  0.2441E-03  0.8000E+01
     -3.326  0.4205E-06  0.8000E+01
     -3.284  0.1882E-09  0.8000E+01
     -3.242  0.3205E-13  0.8000E+01
     -3.201  0.0000E+00  0.8000E+01
     -3.159  0.0000E+00  0.8000E+01
     -3.118  0.0000E+00  0.8000E+01
     -3.076  0.0000E+00  0.8000E+01
     -3.035  0.0000E+00  0.8000E+01
     -2.993  0.0000E+00  0.8000E+01
     -2.951  0.0000E+00  0.8000E+01
     -2.910  0.0000E+00  0.8000E+01
     -2.868  0.0000E+00  0.8000E+01
     -2.827  0.0000E+00  0.8000E+01
     -2.785  0.0000E+00  0.8000E+01
     -2.744  0.0000E+00  0.8000E+01
     -2.702  0.0000E+00  0.8000E+01
     -2.660  0.0000E+00  0.8000E+01
     -2.619  0.0000E+00  0.8000E+01
     -2.577  0.0000E+00  0.8000E+01
     -2.536  0.0000E+00  0.8000E+01
     -2.494  0.0000E+00  0.8000E+01
     -2.453  0.0000E+00  0.8000E+01
     -2.411  0.0000E+00  0.8000E+01
     -2.369  0.0000E+00  0.8000E+01
     -2.328  0.0000E+00  0.8000E+01
     -2.286  0.0000E+00  0.8000E+01
     -2.245  0.0000E+00  0.8000E+01
     -2.203  0.0000E+00  0.8000E+01
     -2.162  0.0000E+00  0.8000E+01
     -2.120  0.0000E+00  0.8000E+01
     -2.079  0.0000E+00  0.8000E+01
     -2.037  0.0000E+00  0.8000E+01
     -1.995  0.0000E+00  0.8000E+01
     -1.954  0.0000E+00  0.8000E+01
     -1.912  0.0000E+00  0.8000E+01
     -1.871  0.0000E+00  0.8000E+01
     -1.829  0.0000E+00  0.8000E+01
     -1.788  0.0000E+00  0.8000E+01
     -1.746  0.0000E+00  0.8000E+01
     -1.704  0.0000E+00  0.8000E+01
     -1.663  0.0000E+00  0.8000E+01
     -1.621  0.0000E+00  0.8000E+01
     -1.580  0.0000E+00  0.8000E+01
     -1.538  0.0000E+00  0.8000E+01
     -1.497  0.0000E+00  0.8000E+01
     -1.455  0.0000E+00  0.8000E+01
     -1.413  0.0000E+00  0.8000E+01
     -1.372  0.0000E+00  0.8000E+01
     -1.330  0.0000E+00  0.8000E+01
     -1.289  0.0000E+00  0.8000E+01
     -1.247  0.0000E+00  0.8000E+01
     -1.206  0.0000E+00  0.8000E+01
     -1.164  0.0000E+00  0.8000E+01
     -1.122  0.0000E+00  0.8000E+01
     -1.081  0.0000E+00  0.8000E+01
     -1.039  0.0000E+00  0.8000E+01
     -0.998  0.0000E+00  0.8000E+01
     -0.956  0.0000E+00  0.8000E+01
     -0.915  0.0000E+00  0.8000E+01
     -0.873  0.0000E+00  0.8000E+01
     -0.831  0.0000E+00  0.8000E+01
     -0.790  0.0000E+00  0.8000E+01
     -0.748  0.0000E+00  0.8000E+01
     -0.707  0.0000E+00  0.8000E+01
     -0.665  0.0000E+00  0.8000E+01
     -0.624  0.0000E+00  0.8000E+01
     -0.582  0.0000E+00  0.8000E+01
     -0.540  0.6698E-15  0.8000E+01
     -0.499  0.4964E-11  0.8000E+01
     -0.457  0.9592E-08  0.8000E+01
     -0.416  0.5104E-05  0.8000E+01
     -0.374  0.7768E-03  0.8000E+01
     -0.333  0.3580E-01  0.8002E+01
     -0.291  0.5435E+00  0.8024E+01
     -0.249  0.3076E+01  0.8152E+01
     -0.208  0.7732E+01  0.8473E+01
     -0.166  0.1072E+02  0.8919E+01
     -0.125  0.1040E+02  0.9351E+01
     -0.083  0.8479E+01  0.9704E+01
     -0.042  0.5122E+01  0.9917E+01
     -0.000  0.1764E+01  0.9990E+01
      0.042  0.6629E+00  0.1002E+02
      0.083  0.2108E+01  0.1011E+02
      0.125  0.5769E+01  0.1035E+02
      0.166  0.1039E+02  0.1078E+02
      0.208  0.1400E+02  0.1136E+02
      0.249  0.1562E+02  0.1201E+02
      0.291  0.1578E+02  0.1266E+02
      0.333  0.1592E+02  0.1333E+02
      0.374  0.1620E+02  0.1400E+02
      0.416  0.1651E+02  0.1469E+02
      0.457  0.1758E+02  0.1542E+02
      0.499  0.1848E+02  0.1619E+02
      0.540  0.1848E+02  0.1695E+02
      0.582  0.1898E+02  0.1774E+02
      0.624  0.1990E+02  0.1857E+02
      0.665  0.2036E+02  0.1942E+02
      0.707  0.2101E+02  0.2029E+02
      0.748  0.2241E+02  0.2122E+02
      0.790  0.2241E+02  0.2215E+02
      0.831  0.2187E+02  0.2306E+02
      0.873  0.2334E+02  0.2403E+02
      0.915  0.2453E+02  0.2505E+02
      0.956  0.2422E+02  0.2606E+02
      0.998  0.2486E+02  0.2709E+02
      1.039  0.2590E+02  0.2817E+02
      1.081  0.2600E+02  0.2925E+02
      1.122  0.2607E+02  0.3033E+02
      1.164  0.2683E+02  0.3145E+02
      1.206  0.2771E+02  0.3260E+02
      1.247  0.2732E+02  0.3374E+02
      1.289  0.2749E+02  0.3488E+02
      1.330  0.2856E+02  0.3607E+02
      1.372  0.2861E+02  0.3726E+02
      1.413  0.2831E+02  0.3843E+02
      1.455  0.2934E+02  0.3965E+02
      1.497  0.3089E+02  0.4094E+02
      1.538  0.3003E+02  0.4219E+02
      1.580  0.2957E+02  0.4341E+02
      1.621  0.3008E+02  0.4466E+02
      1.663  0.2771E+02  0.4582E+02
      1.704  0.2123E+02  0.4670E+02
      1.746  0.1407E+02  0.4728E+02
      1.787  0.8334E+01  0.4763E+02
      1.829  0.4802E+01  0.4783E+02
      1.871  0.2574E+01  0.4794E+02
      1.912  0.1091E+01  0.4798E+02
      1.954  0.3461E+00  0.4800E+02
      1.995  0.7300E-01  0.4800E+02
      2.037  0.7060E-02  0.4800E+02
      2.078  0.2255E-03  0.4800E+02
      2.120  0.2058E-05  0.4800E+02
      2.162  0.5076E-08  0.4800E+02
      2.203  0.3303E-11  0.4800E+02
      2.245  0.5765E-15  0.4800E+02
      2.286  0.0000E+00  0.4800E+02
      2.328  0.0000E+00  0.4800E+02
      2.369  0.0000E+00  0.4800E+02
      2.411  0.0000E+00  0.4800E+02
      2.453  0.0000E+00  0.4800E+02
      2.494  0.0000E+00  0.4800E+02
