 running   24 mpi-ranks, with    1 threads/rank, on    1 nodes
 distrk:  each k-point on   24 cores,    1 groups
 distr:  one band on    1 cores,   24 groups
 vasp.6.4.3 19Mar24 (build May 31 2024 16:31:43) complex                        
  
 POSCAR found type information on POSCAR B 
 POSCAR found :  1 types and       1 ions
 Reading from existing POTCAR
 scaLAPACK will be used
 Reading from existing POTCAR
 LDA part: xc-table for (Slater+PW92), standard interpolation
 POSCAR, INCAR and KPOINTS ok, starting setup
 FFT: planning ... GRIDC
 FFT: planning ... GRID_SOFT
 FFT: planning ... GRID
 WAVECAR not read
 entering main loop
       N       E                     dE             d eps       ncg     rms          rms(c)
DAV:   1     0.801494218801E+01    0.80149E+01   -0.35452E+02  8400   0.404E+01
DAV:   2     0.112985511293E+00   -0.79020E+01   -0.78698E+01 16416   0.569E+00
DAV:   3    -0.548354438634E-01   -0.16782E+00   -0.14635E+00  8592   0.148E+00
DAV:   4    -0.582136694213E-01   -0.33782E-02   -0.32127E-02  9576   0.179E-01
DAV:   5    -0.582522220641E-01   -0.38553E-04   -0.38535E-04 13392   0.215E-02    0.848E-03
DAV:   6    -0.582525241474E-01   -0.30208E-06   -0.27067E-06 11256   0.339E-03
   1 F= -.58252524E-01 E0= -.31751854E-01  d E =-.530013E-01
