<?xml version="1.0" encoding="ISO-8859-1"?>
<modeling>
 <generator>
  <i name="program" type="string">vasp </i>
  <i name="version" type="string">6.4.3  </i>
  <i name="subversion" type="string">19Mar24 (build May 31 2024 16:31:43) complex                          parallel </i>
  <i name="platform" type="string">LinuxIFC </i>
  <i name="date" type="string">2024 10 30 </i>
  <i name="time" type="string">19:25:41 </i>
 </generator>
 <incar>
  <i type="string" name="SYSTEM">Kpoints</i>
  <i type="int" name="ISTART">     0</i>
  <i type="string" name="PREC">Accurate</i>
  <i type="string" name="ALGO">Normal</i>
  <i type="int" name="ISPIN">     1</i>
  <i type="int" name="ICHARG">     2</i>
  <i type="int" name="NELM">   100</i>
  <i type="int" name="IBRION">    -1</i>
  <i name="EDIFF">      0.00000100</i>
  <i name="EDIFFG">     -0.00100000</i>
  <i type="int" name="NSW">     0</i>
  <i type="int" name="ISIF">     2</i>
  <i name="ENCUT">    340.00000000</i>
  <i name="POTIM">      0.50000000</i>
  <i type="int" name="ISMEAR">     0</i>
  <i name="SIGMA">      0.05000000</i>
  <i type="logical" name="LWAVE"> F  </i>
  <i type="logical" name="LCHARG"> F  </i>
  <i type="string" name="GGA">PE</i>
 </incar>
 <primitive_cell>
  <structure name="primitive_cell" >
   <crystal>
    <varray name="basis" >
     <v>       5.69700000       0.00000000       0.00000000 </v>
     <v>       0.00000000       4.04790000       0.00000000 </v>
     <v>       0.00000000       0.00000000       6.20420000 </v>
    </varray>
    <i name="volume">    143.07435078 </i>
    <varray name="rec_basis" >
     <v>       0.17553098       0.00000000       0.00000000 </v>
     <v>       0.00000000       0.24704168       0.00000000 </v>
     <v>       0.00000000       0.00000000       0.16118114 </v>
    </varray>
   </crystal>
   <varray name="positions" >
    <v>       0.52123000       0.50000000       0.63796000 </v>
    <v>       0.47877000       0.50000000       0.36204000 </v>
    <v>       0.97877000       0.50000000       0.63796000 </v>
    <v>       0.02123000       0.50000000       0.36204000 </v>
    <v>       0.60090000       0.50000000       0.89991000 </v>
    <v>       0.39910000       0.50000000       0.10009000 </v>
    <v>       0.89910000       0.50000000       0.89991000 </v>
    <v>       0.10090000       0.50000000       0.10009000 </v>
    <v>       0.75000000       0.79171000       0.72973000 </v>
    <v>       0.25000000       0.20829000       0.27027000 </v>
    <v>       0.75000000       0.20829000       0.72973000 </v>
    <v>       0.25000000       0.79171000       0.27027000 </v>
    <v>       0.25000000       0.50000000       0.52367000 </v>
    <v>       0.75000000       0.50000000       0.47633000 </v>
   </varray>
  </structure>
  <varray name="primitive_index" >
   <v type="int" >        1 </v>
   <v type="int" >        2 </v>
   <v type="int" >        3 </v>
   <v type="int" >        4 </v>
   <v type="int" >        5 </v>
   <v type="int" >        6 </v>
   <v type="int" >        7 </v>
   <v type="int" >        8 </v>
   <v type="int" >        9 </v>
   <v type="int" >       10 </v>
   <v type="int" >       11 </v>
   <v type="int" >       12 </v>
   <v type="int" >       13 </v>
   <v type="int" >       14 </v>
  </varray>
 </primitive_cell>
 <kpoints>
  <generation param="Monkhorst-Pack">
   <v type="int" name="divisions">      10       14        9 </v>
   <v name="usershift">      0.00000000       0.00000000       0.00000000 </v>
   <v name="genvec1">      0.10000000       0.00000000       0.00000000 </v>
   <v name="genvec2">      0.00000000       0.07142857       0.00000000 </v>
   <v name="genvec3">      0.00000000       0.00000000       0.11111111 </v>
   <v name="shift">      0.50000000       0.50000000       0.00000000 </v>
  </generation>
  <varray name="kpointlist" >
   <v>       0.05000000       0.03571429       0.00000000 </v>
   <v>       0.15000000       0.03571429       0.00000000 </v>
   <v>       0.25000000       0.03571429       0.00000000 </v>
   <v>       0.35000000       0.03571429       0.00000000 </v>
   <v>       0.45000000       0.03571429       0.00000000 </v>
   <v>       0.05000000       0.10714286       0.00000000 </v>
   <v>       0.15000000       0.10714286       0.00000000 </v>
   <v>       0.25000000       0.10714286       0.00000000 </v>
   <v>       0.35000000       0.10714286       0.00000000 </v>
   <v>       0.45000000       0.10714286       0.00000000 </v>
   <v>       0.05000000       0.17857143       0.00000000 </v>
   <v>       0.15000000       0.17857143       0.00000000 </v>
   <v>       0.25000000       0.17857143       0.00000000 </v>
   <v>       0.35000000       0.17857143       0.00000000 </v>
   <v>       0.45000000       0.17857143       0.00000000 </v>
   <v>       0.05000000       0.25000000       0.00000000 </v>
   <v>       0.15000000       0.25000000       0.00000000 </v>
   <v>       0.25000000       0.25000000       0.00000000 </v>
   <v>       0.35000000       0.25000000       0.00000000 </v>
   <v>       0.45000000       0.25000000       0.00000000 </v>
   <v>       0.05000000       0.32142857       0.00000000 </v>
   <v>       0.15000000       0.32142857       0.00000000 </v>
   <v>       0.25000000       0.32142857       0.00000000 </v>
   <v>       0.35000000       0.32142857       0.00000000 </v>
   <v>       0.45000000       0.32142857       0.00000000 </v>
   <v>       0.05000000       0.39285714       0.00000000 </v>
   <v>       0.15000000       0.39285714       0.00000000 </v>
   <v>       0.25000000       0.39285714       0.00000000 </v>
   <v>       0.35000000       0.39285714       0.00000000 </v>
   <v>       0.45000000       0.39285714       0.00000000 </v>
   <v>       0.05000000       0.46428571       0.00000000 </v>
   <v>       0.15000000       0.46428571       0.00000000 </v>
   <v>       0.25000000       0.46428571       0.00000000 </v>
   <v>       0.35000000       0.46428571       0.00000000 </v>
   <v>       0.45000000       0.46428571       0.00000000 </v>
   <v>       0.05000000       0.03571429       0.11111111 </v>
   <v>       0.15000000       0.03571429       0.11111111 </v>
   <v>       0.25000000       0.03571429       0.11111111 </v>
   <v>       0.35000000       0.03571429       0.11111111 </v>
   <v>       0.45000000       0.03571429       0.11111111 </v>
   <v>       0.05000000       0.10714286       0.11111111 </v>
   <v>       0.15000000       0.10714286       0.11111111 </v>
   <v>       0.25000000       0.10714286       0.11111111 </v>
   <v>       0.35000000       0.10714286       0.11111111 </v>
   <v>       0.45000000       0.10714286       0.11111111 </v>
   <v>       0.05000000       0.17857143       0.11111111 </v>
   <v>       0.15000000       0.17857143       0.11111111 </v>
   <v>       0.25000000       0.17857143       0.11111111 </v>
   <v>       0.35000000       0.17857143       0.11111111 </v>
   <v>       0.45000000       0.17857143       0.11111111 </v>
   <v>       0.05000000       0.25000000       0.11111111 </v>
   <v>       0.15000000       0.25000000       0.11111111 </v>
   <v>       0.25000000       0.25000000       0.11111111 </v>
   <v>       0.35000000       0.25000000       0.11111111 </v>
   <v>       0.45000000       0.25000000       0.11111111 </v>
   <v>       0.05000000       0.32142857       0.11111111 </v>
   <v>       0.15000000       0.32142857       0.11111111 </v>
   <v>       0.25000000       0.32142857       0.11111111 </v>
   <v>       0.35000000       0.32142857       0.11111111 </v>
   <v>       0.45000000       0.32142857       0.11111111 </v>
   <v>       0.05000000       0.39285714       0.11111111 </v>
   <v>       0.15000000       0.39285714       0.11111111 </v>
   <v>       0.25000000       0.39285714       0.11111111 </v>
   <v>       0.35000000       0.39285714       0.11111111 </v>
   <v>       0.45000000       0.39285714       0.11111111 </v>
   <v>       0.05000000       0.46428571       0.11111111 </v>
   <v>       0.15000000       0.46428571       0.11111111 </v>
   <v>       0.25000000       0.46428571       0.11111111 </v>
   <v>       0.35000000       0.46428571       0.11111111 </v>
   <v>       0.45000000       0.46428571       0.11111111 </v>
   <v>       0.05000000       0.03571429       0.22222222 </v>
   <v>       0.15000000       0.03571429       0.22222222 </v>
   <v>       0.25000000       0.03571429       0.22222222 </v>
   <v>       0.35000000       0.03571429       0.22222222 </v>
   <v>       0.45000000       0.03571429       0.22222222 </v>
   <v>       0.05000000       0.10714286       0.22222222 </v>
   <v>       0.15000000       0.10714286       0.22222222 </v>
   <v>       0.25000000       0.10714286       0.22222222 </v>
   <v>       0.35000000       0.10714286       0.22222222 </v>
   <v>       0.45000000       0.10714286       0.22222222 </v>
   <v>       0.05000000       0.17857143       0.22222222 </v>
   <v>       0.15000000       0.17857143       0.22222222 </v>
   <v>       0.25000000       0.17857143       0.22222222 </v>
   <v>       0.35000000       0.17857143       0.22222222 </v>
   <v>       0.45000000       0.17857143       0.22222222 </v>
   <v>       0.05000000       0.25000000       0.22222222 </v>
   <v>       0.15000000       0.25000000       0.22222222 </v>
   <v>       0.25000000       0.25000000       0.22222222 </v>
   <v>       0.35000000       0.25000000       0.22222222 </v>
   <v>       0.45000000       0.25000000       0.22222222 </v>
   <v>       0.05000000       0.32142857       0.22222222 </v>
   <v>       0.15000000       0.32142857       0.22222222 </v>
   <v>       0.25000000       0.32142857       0.22222222 </v>
   <v>       0.35000000       0.32142857       0.22222222 </v>
   <v>       0.45000000       0.32142857       0.22222222 </v>
   <v>       0.05000000       0.39285714       0.22222222 </v>
   <v>       0.15000000       0.39285714       0.22222222 </v>
   <v>       0.25000000       0.39285714       0.22222222 </v>
   <v>       0.35000000       0.39285714       0.22222222 </v>
   <v>       0.45000000       0.39285714       0.22222222 </v>
   <v>       0.05000000       0.46428571       0.22222222 </v>
   <v>       0.15000000       0.46428571       0.22222222 </v>
   <v>       0.25000000       0.46428571       0.22222222 </v>
   <v>       0.35000000       0.46428571       0.22222222 </v>
   <v>       0.45000000       0.46428571       0.22222222 </v>
   <v>       0.05000000       0.03571429       0.33333333 </v>
   <v>       0.15000000       0.03571429       0.33333333 </v>
   <v>       0.25000000       0.03571429       0.33333333 </v>
   <v>       0.35000000       0.03571429       0.33333333 </v>
   <v>       0.45000000       0.03571429       0.33333333 </v>
   <v>       0.05000000       0.10714286       0.33333333 </v>
   <v>       0.15000000       0.10714286       0.33333333 </v>
   <v>       0.25000000       0.10714286       0.33333333 </v>
   <v>       0.35000000       0.10714286       0.33333333 </v>
   <v>       0.45000000       0.10714286       0.33333333 </v>
   <v>       0.05000000       0.17857143       0.33333333 </v>
   <v>       0.15000000       0.17857143       0.33333333 </v>
   <v>       0.25000000       0.17857143       0.33333333 </v>
   <v>       0.35000000       0.17857143       0.33333333 </v>
   <v>       0.45000000       0.17857143       0.33333333 </v>
   <v>       0.05000000       0.25000000       0.33333333 </v>
   <v>       0.15000000       0.25000000       0.33333333 </v>
   <v>       0.25000000       0.25000000       0.33333333 </v>
   <v>       0.35000000       0.25000000       0.33333333 </v>
   <v>       0.45000000       0.25000000       0.33333333 </v>
   <v>       0.05000000       0.32142857       0.33333333 </v>
   <v>       0.15000000       0.32142857       0.33333333 </v>
   <v>       0.25000000       0.32142857       0.33333333 </v>
   <v>       0.35000000       0.32142857       0.33333333 </v>
   <v>       0.45000000       0.32142857       0.33333333 </v>
   <v>       0.05000000       0.39285714       0.33333333 </v>
   <v>       0.15000000       0.39285714       0.33333333 </v>
   <v>       0.25000000       0.39285714       0.33333333 </v>
   <v>       0.35000000       0.39285714       0.33333333 </v>
   <v>       0.45000000       0.39285714       0.33333333 </v>
   <v>       0.05000000       0.46428571       0.33333333 </v>
   <v>       0.15000000       0.46428571       0.33333333 </v>
   <v>       0.25000000       0.46428571       0.33333333 </v>
   <v>       0.35000000       0.46428571       0.33333333 </v>
   <v>       0.45000000       0.46428571       0.33333333 </v>
   <v>       0.05000000       0.03571429       0.44444444 </v>
   <v>       0.15000000       0.03571429       0.44444444 </v>
   <v>       0.25000000       0.03571429       0.44444444 </v>
   <v>       0.35000000       0.03571429       0.44444444 </v>
   <v>       0.45000000       0.03571429       0.44444444 </v>
   <v>       0.05000000       0.10714286       0.44444444 </v>
   <v>       0.15000000       0.10714286       0.44444444 </v>
   <v>       0.25000000       0.10714286       0.44444444 </v>
   <v>       0.35000000       0.10714286       0.44444444 </v>
   <v>       0.45000000       0.10714286       0.44444444 </v>
   <v>       0.05000000       0.17857143       0.44444444 </v>
   <v>       0.15000000       0.17857143       0.44444444 </v>
   <v>       0.25000000       0.17857143       0.44444444 </v>
   <v>       0.35000000       0.17857143       0.44444444 </v>
   <v>       0.45000000       0.17857143       0.44444444 </v>
   <v>       0.05000000       0.25000000       0.44444444 </v>
   <v>       0.15000000       0.25000000       0.44444444 </v>
   <v>       0.25000000       0.25000000       0.44444444 </v>
   <v>       0.35000000       0.25000000       0.44444444 </v>
   <v>       0.45000000       0.25000000       0.44444444 </v>
   <v>       0.05000000       0.32142857       0.44444444 </v>
   <v>       0.15000000       0.32142857       0.44444444 </v>
   <v>       0.25000000       0.32142857       0.44444444 </v>
   <v>       0.35000000       0.32142857       0.44444444 </v>
   <v>       0.45000000       0.32142857       0.44444444 </v>
   <v>       0.05000000       0.39285714       0.44444444 </v>
   <v>       0.15000000       0.39285714       0.44444444 </v>
   <v>       0.25000000       0.39285714       0.44444444 </v>
   <v>       0.35000000       0.39285714       0.44444444 </v>
   <v>       0.45000000       0.39285714       0.44444444 </v>
   <v>       0.05000000       0.46428571       0.44444444 </v>
   <v>       0.15000000       0.46428571       0.44444444 </v>
   <v>       0.25000000       0.46428571       0.44444444 </v>
   <v>       0.35000000       0.46428571       0.44444444 </v>
   <v>       0.45000000       0.46428571       0.44444444 </v>
  </varray>
  <varray name="weights" >
   <v>       0.00317460 </v>
   <v>       0.00317460 </v>
   <v>       0.00317460 </v>
   <v>       0.00317460 </v>
   <v>       0.00317460 </v>
   <v>       0.00317460 </v>
   <v>       0.00317460 </v>
   <v>       0.00317460 </v>
   <v>       0.00317460 </v>
   <v>       0.00317460 </v>
   <v>       0.00317460 </v>
   <v>       0.00317460 </v>
   <v>       0.00317460 </v>
   <v>       0.00317460 </v>
   <v>       0.00317460 </v>
   <v>       0.00317460 </v>
   <v>       0.00317460 </v>
   <v>       0.00317460 </v>
   <v>       0.00317460 </v>
   <v>       0.00317460 </v>
   <v>       0.00317460 </v>
   <v>       0.00317460 </v>
   <v>       0.00317460 </v>
   <v>       0.00317460 </v>
   <v>       0.00317460 </v>
   <v>       0.00317460 </v>
   <v>       0.00317460 </v>
   <v>       0.00317460 </v>
   <v>       0.00317460 </v>
   <v>       0.00317460 </v>
   <v>       0.00317460 </v>
   <v>       0.00317460 </v>
   <v>       0.00317460 </v>
   <v>       0.00317460 </v>
   <v>       0.00317460 </v>
   <v>       0.00634921 </v>
   <v>       0.00634921 </v>
   <v>       0.00634921 </v>
   <v>       0.00634921 </v>
   <v>       0.00634921 </v>
   <v>       0.00634921 </v>
   <v>       0.00634921 </v>
   <v>       0.00634921 </v>
   <v>       0.00634921 </v>
   <v>       0.00634921 </v>
   <v>       0.00634921 </v>
   <v>       0.00634921 </v>
   <v>       0.00634921 </v>
   <v>       0.00634921 </v>
   <v>       0.00634921 </v>
   <v>       0.00634921 </v>
   <v>       0.00634921 </v>
   <v>       0.00634921 </v>
   <v>       0.00634921 </v>
   <v>       0.00634921 </v>
   <v>       0.00634921 </v>
   <v>       0.00634921 </v>
   <v>       0.00634921 </v>
   <v>       0.00634921 </v>
   <v>       0.00634921 </v>
   <v>       0.00634921 </v>
   <v>       0.00634921 </v>
   <v>       0.00634921 </v>
   <v>       0.00634921 </v>
   <v>       0.00634921 </v>
   <v>       0.00634921 </v>
   <v>       0.00634921 </v>
   <v>       0.00634921 </v>
   <v>       0.00634921 </v>
   <v>       0.00634921 </v>
   <v>       0.00634921 </v>
   <v>       0.00634921 </v>
   <v>       0.00634921 </v>
   <v>       0.00634921 </v>
   <v>       0.00634921 </v>
   <v>       0.00634921 </v>
   <v>       0.00634921 </v>
   <v>       0.00634921 </v>
   <v>       0.00634921 </v>
   <v>       0.00634921 </v>
   <v>       0.00634921 </v>
   <v>       0.00634921 </v>
   <v>       0.00634921 </v>
   <v>       0.00634921 </v>
   <v>       0.00634921 </v>
   <v>       0.00634921 </v>
   <v>       0.00634921 </v>
   <v>       0.00634921 </v>
   <v>       0.00634921 </v>
   <v>       0.00634921 </v>
   <v>       0.00634921 </v>
   <v>       0.00634921 </v>
   <v>       0.00634921 </v>
   <v>       0.00634921 </v>
   <v>       0.00634921 </v>
   <v>       0.00634921 </v>
   <v>       0.00634921 </v>
   <v>       0.00634921 </v>
   <v>       0.00634921 </v>
   <v>       0.00634921 </v>
   <v>       0.00634921 </v>
   <v>       0.00634921 </v>
   <v>       0.00634921 </v>
   <v>       0.00634921 </v>
   <v>       0.00634921 </v>
   <v>       0.00634921 </v>
   <v>       0.00634921 </v>
   <v>       0.00634921 </v>
   <v>       0.00634921 </v>
   <v>       0.00634921 </v>
   <v>       0.00634921 </v>
   <v>       0.00634921 </v>
   <v>       0.00634921 </v>
   <v>       0.00634921 </v>
   <v>       0.00634921 </v>
   <v>       0.00634921 </v>
   <v>       0.00634921 </v>
   <v>       0.00634921 </v>
   <v>       0.00634921 </v>
   <v>       0.00634921 </v>
   <v>       0.00634921 </v>
   <v>       0.00634921 </v>
   <v>       0.00634921 </v>
   <v>       0.00634921 </v>
   <v>       0.00634921 </v>
   <v>       0.00634921 </v>
   <v>       0.00634921 </v>
   <v>       0.00634921 </v>
   <v>       0.00634921 </v>
   <v>       0.00634921 </v>
   <v>       0.00634921 </v>
   <v>       0.00634921 </v>
   <v>       0.00634921 </v>
   <v>       0.00634921 </v>
   <v>       0.00634921 </v>
   <v>       0.00634921 </v>
   <v>       0.00634921 </v>
   <v>       0.00634921 </v>
   <v>       0.00634921 </v>
   <v>       0.00634921 </v>
   <v>       0.00634921 </v>
   <v>       0.00634921 </v>
   <v>       0.00634921 </v>
   <v>       0.00634921 </v>
   <v>       0.00634921 </v>
   <v>       0.00634921 </v>
   <v>       0.00634921 </v>
   <v>       0.00634921 </v>
   <v>       0.00634921 </v>
   <v>       0.00634921 </v>
   <v>       0.00634921 </v>
   <v>       0.00634921 </v>
   <v>       0.00634921 </v>
   <v>       0.00634921 </v>
   <v>       0.00634921 </v>
   <v>       0.00634921 </v>
   <v>       0.00634921 </v>
   <v>       0.00634921 </v>
   <v>       0.00634921 </v>
   <v>       0.00634921 </v>
   <v>       0.00634921 </v>
   <v>       0.00634921 </v>
   <v>       0.00634921 </v>
   <v>       0.00634921 </v>
   <v>       0.00634921 </v>
   <v>       0.00634921 </v>
   <v>       0.00634921 </v>
   <v>       0.00634921 </v>
   <v>       0.00634921 </v>
   <v>       0.00634921 </v>
   <v>       0.00634921 </v>
   <v>       0.00634921 </v>
   <v>       0.00634921 </v>
   <v>       0.00634921 </v>
   <v>       0.00634921 </v>
  </varray>
 </kpoints>
 <parameters>
  <separator name="general" >
   <i type="string" name="SYSTEM">Kpoints</i>
   <i type="logical" name="LCOMPAT"> F  </i>
  </separator>
  <separator name="electronic" >
   <i type="string" name="PREC">accura</i>
   <i name="ENMAX">    340.00000000</i>
   <i name="ENAUG">    535.51400000</i>
   <i name="EDIFF">      0.00000100</i>
   <i type="int" name="IALGO">    38</i>
   <i type="int" name="IWAVPR">    10</i>
   <i type="int" name="NBANDS">    48</i>
   <i type="int" name="NBANDSLOW">    -1</i>
   <i type="int" name="NBANDSHIGH">    -1</i>
   <i name="NELECT">     42.00000000</i>
   <i type="int" name="TURBO">     0</i>
   <i type="int" name="IRESTART">     0</i>
   <i type="int" name="NREBOOT">     0</i>
   <i type="int" name="NMIN">     0</i>
   <i name="EREF">      0.00000000</i>
   <separator name="electronic smearing" >
    <i type="int" name="ISMEAR">     0</i>
    <i name="SIGMA">      0.05000000</i>
    <i name="KSPACING">      0.50000000</i>
    <i type="logical" name="KGAMMA"> T  </i>
    <i type="logical" name="KBLOWUP"> T  </i>
   </separator>
   <separator name="electronic projectors" >
    <i type="logical" name="LREAL"> F  </i>
    <v name="ROPT">      0.00000000</v>
    <i type="int" name="LMAXPAW">  -100</i>
    <i type="int" name="LMAXMIX">     2</i>
    <i type="logical" name="NLSPLINE"> F  </i>
   </separator>
   <separator name="electronic startup" >
    <i type="int" name="ISTART">     0</i>
    <i type="int" name="ICHARG">     2</i>
    <i type="int" name="INIWAV">     1</i>
   </separator>
   <separator name="electronic spin" >
    <i type="int" name="ISPIN">     1</i>
    <i type="logical" name="LNONCOLLINEAR"> F  </i>
    <v name="MAGMOM">      1.00000000      1.00000000      1.00000000      1.00000000      1.00000000      1.00000000      1.00000000      1.00000000      1.00000000      1.00000000      1.00000000      1.00000000      1.00000000      1.00000000</v>
    <i name="NUPDOWN">     -1.00000000</i>
    <i type="logical" name="LSORBIT"> F  </i>
    <v name="SAXIS">      0.00000000      0.00000000      1.00000000</v>
    <i type="logical" name="LSPIRAL"> F  </i>
    <v name="QSPIRAL">      0.00000000      0.00000000      0.00000000</v>
    <i type="logical" name="LZEROZ"> F  </i>
   </separator>
   <separator name="electronic exchange-correlation" >
    <i type="logical" name="LASPH"> F  </i>
   </separator>
   <separator name="electronic convergence" >
    <i type="int" name="NELM">   100</i>
    <i type="int" name="NELMDL">    -5</i>
    <i type="int" name="NELMIN">     2</i>
    <i name="ENINI">    340.00000000</i>
    <separator name="electronic convergence detail" >
     <i type="logical" name="LDIAG"> T  </i>
     <i type="logical" name="LSUBROT"> F  </i>
     <i name="WEIMIN">      0.00000000</i>
     <i name="EBREAK">      0.00000001</i>
     <i name="DEPER">      0.30000000</i>
     <i type="int" name="NRMM">     4</i>
     <i name="TIME">      0.40000000</i>
    </separator>
   </separator>
   <separator name="electronic mixer" >
    <i name="AMIX">      0.40000000</i>
    <i name="BMIX">      1.00000000</i>
    <i name="AMIN">      0.10000000</i>
    <i name="AMIX_MAG">      1.60000000</i>
    <i name="BMIX_MAG">      1.00000000</i>
    <separator name="electronic mixer details" >
     <i type="int" name="IMIX">     4</i>
     <i type="logical" name="MIXFIRST"> F  </i>
     <i type="int" name="MAXMIX">   -45</i>
     <i name="WC">    100.00000000</i>
     <i type="int" name="INIMIX">     1</i>
     <i type="int" name="MIXPRE">     1</i>
     <i type="int" name="MREMOVE">     5</i>
    </separator>
   </separator>
   <separator name="electronic dipolcorrection" >
    <i type="logical" name="LDIPOL"> F  </i>
    <i type="logical" name="LMONO"> F  </i>
    <i type="int" name="IDIPOL">     0</i>
    <i name="EPSILON">      1.00000000</i>
    <v name="DIPOL">   -100.00000000   -100.00000000   -100.00000000</v>
    <i name="EFIELD">      0.00000000</i>
    <i type="logical" name="LVACPOTAV"> F  </i>
   </separator>
  </separator>
  <separator name="grids" >
   <i type="int" name="NGX">    36</i>
   <i type="int" name="NGY">    24</i>
   <i type="int" name="NGZ">    40</i>
   <i type="int" name="NGXF">    72</i>
   <i type="int" name="NGYF">    48</i>
   <i type="int" name="NGZF">    80</i>
   <i type="logical" name="ADDGRID"> F  </i>
  </separator>
  <separator name="ionic" >
   <i type="int" name="NSW">     0</i>
   <i type="int" name="IBRION">    -1</i>
   <i type="int" name="MDALGO">     0</i>
   <i type="int" name="ISIF">     2</i>
   <i name="PSTRESS">      0.00000000</i>
   <i name="EDIFFG">     -0.00100000</i>
   <i type="int" name="NFREE">     0</i>
   <i name="POTIM">      0.50000000</i>
   <i name="SMASS">     -3.00000000</i>
   <i name="SCALEE">      1.00000000</i>
  </separator>
  <separator name="ionic md" >
   <i name="TEBEG">      0.00010000</i>
   <i name="TEEND">      0.00010000</i>
   <i type="int" name="NBLOCK">     1</i>
   <i type="int" name="KBLOCK">     1</i>
   <i type="int" name="NPACO">   256</i>
   <i name="APACO">     10.00000000</i>
  </separator>
  <separator name="symmetry" >
   <i type="int" name="ISYM">     2</i>
   <i name="SYMPREC">      0.00001000</i>
  </separator>
  <separator name="dos" >
   <i type="int" name="LORBIT">     0</i>
   <v name="RWIGS">     -1.00000000</v>
   <i type="int" name="NEDOS">   301</i>
   <i name="EMIN">     10.00000000</i>
   <i name="EMAX">    -10.00000000</i>
   <i name="EFERMI">      0.00000000</i>
  </separator>
  <separator name="writing" >
   <i type="int" name="NWRITE">     2</i>
   <i type="logical" name="LWAVE"> F  </i>
   <i type="logical" name="LDOWNSAMPLE"> F  </i>
   <i type="logical" name="LCHARG"> F  </i>
   <i type="logical" name="LPARD"> F  </i>
   <i type="logical" name="LVTOT"> F  </i>
   <i type="logical" name="LVHAR"> F  </i>
   <i type="logical" name="LELF"> F  </i>
   <i type="logical" name="LOPTICS"> F  </i>
   <v name="STM">      0.00000000      0.00000000      0.00000000      0.00000000      0.00000000      0.00000000      0.00000000</v>
  </separator>
  <separator name="performance" >
   <i type="int" name="NPAR">    24</i>
   <i type="int" name="NSIM">     4</i>
   <i type="int" name="NBLK">    -1</i>
   <i type="logical" name="LPLANE"> T  </i>
   <i type="logical" name="LSCALAPACK"> T  </i>
   <i type="logical" name="LSCAAWARE"> F  </i>
   <i type="logical" name="LSCALU"> F  </i>
   <i type="logical" name="LASYNC"> F  </i>
   <i type="logical" name="LORBITALREAL"> F  </i>
  </separator>
  <separator name="miscellaneous" >
   <i type="int" name="IDIOT">     3</i>
   <i type="int" name="PHON_NSTRUCT">    -1</i>
   <i type="logical" name="LMUSIC"> F  </i>
   <v name="POMASS">     10.81100000</v>
   <v name="DARWINR">      0.00000000</v>
   <v name="DARWINV">      1.00000000</v>
   <i type="logical" name="LCORR"> T  </i>
  </separator>
  <i type="logical" name="GGA_COMPAT"> T  </i>
  <i type="logical" name="LBERRY"> F  </i>
  <i type="int" name="ICORELEVEL">     0</i>
  <i type="logical" name="LDAU"> F  </i>
  <i type="int" name="I_CONSTRAINED_M">     0</i>
  <separator name="electronic exchange-correlation" >
   <i type="string" name="GGA    ">PE</i>
   <i type="string" name="XC_C">1</i>
   <i type="int" name="VOSKOWN">     0</i>
   <i type="logical" name="LHFCALC"> F  </i>
   <i type="string" name="PRECFOCK"></i>
   <i type="logical" name="LSYMGRAD"> F  </i>
   <i type="logical" name="LHFONE"> F  </i>
   <i type="logical" name="LRHFCALC"> F  </i>
   <i type="logical" name="LTHOMAS"> F  </i>
   <i type="logical" name="LMODELHF"> F  </i>
   <i type="logical" name="LFOCKACE"> F  </i>
   <i name="ENCUT4O">     -1.00000000</i>
   <i type="int" name="EXXOEP">     0</i>
   <i type="int" name="FOURORBIT">     0</i>
   <i name="AEXX">      0.00000000</i>
   <i name="HFALPHA">      0.00000000</i>
   <i name="MCALPHA">      0.00000000</i>
   <i name="ALDAX">      1.00000000</i>
   <i name="AGGAX">      1.00000000</i>
   <i name="AMGGAX">      1.00000000</i>
   <i name="ALDAC">      1.00000000</i>
   <i name="AGGAC">      1.00000000</i>
   <i name="AMGGAC">      1.00000000</i>
   <i type="int" name="NKREDX">     1</i>
   <i type="int" name="NKREDY">     1</i>
   <i type="int" name="NKREDZ">     1</i>
   <i type="logical" name="SHIFTRED"> F  </i>
   <i type="logical" name="ODDONLY"> F  </i>
   <i type="logical" name="EVENONLY"> F  </i>
   <i type="int" name="LMAXFOCK">     0</i>
   <i type="int" name="NMAXFOCKAE">     0</i>
   <i type="logical" name="LFOCKAEDFT"> F  </i>
   <i name="HFSCREEN">      0.00000000</i>
   <i name="HFSCREENC">      0.00000000</i>
   <i type="int" name="NBANDSGWLOW">     0</i>
  </separator>
  <separator name="vdW DFT" >
   <i type="logical" name="LUSE_VDW"> F  </i>
   <i type="int" name="IVDW_NL">    -1</i>
   <i type="logical" name="LSPIN_VDW"> F  </i>
   <i name="ZAB_VDW">     -0.84910000</i>
   <i name="GAMMA_VDW">      1.39626340</i>
   <i name="ALPHA_VDW">      0.00000000</i>
   <i name="PARAM1">      0.12340000</i>
   <i name="PARAM2">      1.00000000</i>
   <i name="BPARAM">      6.30000000</i>
   <i name="CPARAM">      0.00930000</i>
  </separator>
  <separator name="model GW" >
   <i type="int" name="MODEL_GW">     0</i>
   <i name="MODEL_EPS0">      6.13175789</i>
   <i name="MODEL_ALPHA">      1.00000000</i>
  </separator>
  <separator name="linear response parameters" >
   <i type="logical" name="LEPSILON"> F  </i>
   <i type="logical" name="LRPA"> F  </i>
   <i type="logical" name="LNABLA"> F  </i>
   <i type="logical" name="LVEL"> F  </i>
   <i name="CSHIFT">      0.10000000</i>
   <i name="OMEGAMAX">     -1.00000000</i>
   <i name="DEG_THRESHOLD">      0.00200000</i>
   <i name="RTIME">     -0.10000000</i>
   <i name="WPLASMAI">      0.00000000</i>
   <v name="DFIELD">      0.00000000      0.00000000      0.00000000</v>
   <v name="WPLASMA">      0.00000000      0.00000000      0.00000000      0.00000000      0.00000000      0.00000000      0.00000000      0.00000000      0.00000000</v>
  </separator>
  <separator name="orbital magnetization" >
   <i type="logical" name="NUCIND"> F  </i>
   <v name="MAGPOS">      0.00000000      0.00000000      0.00000000</v>
   <i type="logical" name="LNICSALL"> T  </i>
   <i type="logical" name="ORBITALMAG"> F  </i>
   <i type="logical" name="LMAGBLOCH"> F  </i>
   <i type="logical" name="LCHIMAG"> F  </i>
   <i type="logical" name="LGAUGE"> T  </i>
   <i type="int" name="MAGATOM">     0</i>
   <v name="MAGDIPOL">      0.00000000      0.00000000      0.00000000</v>
   <v name="AVECCONST">      0.00000000      0.00000000      0.00000000</v>
  </separator>
  <separator name="response functions" >
   <i type="logical" name="LALL_IN_ONE"> F  </i>
   <i type="int" name="IALL_IN_ONE">    -1</i>
   <i type="int" name="NBANDS_WAVE">    -1</i>
   <i type="logical" name="LFINITE_TEMPERATURE"> F  </i>
   <i type="logical" name="LADDER"> F  </i>
   <i type="logical" name="LRPAFORCE"> F  </i>
   <i type="logical" name="LFXC"> F  </i>
   <i type="logical" name="LHARTREE"> T  </i>
   <i type="int" name="IBSE">     0</i>
   <v type="int" name="KPOINT">    -1     0     0     0</v>
   <i type="logical" name="LTCTC"> F  </i>
   <i type="logical" name="LTCTE"> F  </i>
   <i type="logical" name="LTETE"> F  </i>
   <i type="logical" name="LTRIPLET"> F  </i>
   <i type="logical" name="LFXCEPS"> F  </i>
   <i type="logical" name="LFXHEG"> F  </i>
   <i type="int" name="NATURALO">     2</i>
   <i type="logical" name="LHOLEGF"> F  </i>
   <i type="logical" name="L2ORDER"> F  </i>
   <i type="logical" name="LDMP1"> F  </i>
   <i type="logical" name="LMP2LT"> F  </i>
   <i type="logical" name="LSMP2LT"> F  </i>
   <i type="logical" name="LGWLF"> F  </i>
   <i name="ENCUTGW">     -1.60000002</i>
   <i name="ENCUTGWSOFT">     -1.60000002</i>
   <i name="ENCUTLF">     -1.00000000</i>
   <i type="logical" name="ESF_SPLINES"> F  </i>
   <i name="ESF_CONV">      0.01000000</i>
   <i type="int" name="ESF_NINTER">    15</i>
   <i type="int" name="LMAXMP2">    -1</i>
   <i name="SCISSOR">      0.00000000</i>
   <i type="int" name="NOMEGA">     0</i>
   <i type="int" name="NOMEGAR">     0</i>
   <i type="int" name="NBANDSGW">    -1</i>
   <i type="int" name="NBANDSO">    -1</i>
   <i type="int" name="NBANDSV">    -1</i>
   <i type="int" name="NELMGW">     1</i>
   <i type="int" name="NELMHF">     1</i>
   <i type="int" name="DIM">     3</i>
   <i type="int" name="IESPILON">     4</i>
   <i type="int" name="ANTIRES">     0</i>
   <i name="OMEGAMAX">    -30.00000000</i>
   <i name="OMEGAMIN">    -30.00000000</i>
   <i name="OMEGATL">   -200.00000000</i>
   <i type="int" name="OMEGAGRID">     0</i>
   <i name="CSHIFT">     -0.10000000</i>
   <i type="logical" name="LSELFENERGY"> F  </i>
   <i type="logical" name="LSPECTRAL"> F  </i>
   <i type="logical" name="LSPECTRALGW"> F  </i>
   <i type="logical" name="LSINGLES"> F  </i>
   <i type="logical" name="LFERMIGW"> F  </i>
   <i type="logical" name="ODDONLYGW"> F  </i>
   <i type="logical" name="EVENONLYGW"> F  </i>
   <i type="int" name="NKREDLFX">     1</i>
   <i type="int" name="NKREDLFY">     1</i>
   <i type="int" name="NKREDLFZ">     1</i>
   <i type="int" name="MAXMEM">  2800</i>
   <i type="int" name="TELESCOPE">     0</i>
   <i type="int" name="NTAUPAR">    -1</i>
   <i type="int" name="NOMEGAPAR">    -1</i>
   <i name="DAMP_NEWTON">      0.80000001</i>
   <i name="LAMBDA">      1.00000000</i>
  </separator>
  <separator name="External order field" >
   <i name="OFIELD_KAPPA">      0.00000000</i>
   <v name="OFIELD_K">      0.00000000      0.00000000      0.00000000</v>
   <i name="OFIELD_Q6_NEAR">      0.00000000</i>
   <i name="OFIELD_Q6_FAR">      0.00000000</i>
   <i name="OFIELD_A">      0.00000000</i>
  </separator>
  <separator name="optional k-points parameters" >
   <i type="int" name="KPOINTS_OPT_MODE">     1</i>
   <i type="logical" name="LKPOINTS_OPT"> F  </i>
  </separator>
 </parameters>
 <atominfo>
  <atoms>      14 </atoms>
  <types>       1 </types>
  <array name="atoms" >
   <dimension dim="1">ion</dimension>
   <field type="string">element</field>
   <field type="int">atomtype</field>
   <set>
    <rc><c>B </c><c>   1</c></rc>
    <rc><c>B </c><c>   1</c></rc>
    <rc><c>B </c><c>   1</c></rc>
    <rc><c>B </c><c>   1</c></rc>
    <rc><c>B </c><c>   1</c></rc>
    <rc><c>B </c><c>   1</c></rc>
    <rc><c>B </c><c>   1</c></rc>
    <rc><c>B </c><c>   1</c></rc>
    <rc><c>B </c><c>   1</c></rc>
    <rc><c>B </c><c>   1</c></rc>
    <rc><c>B </c><c>   1</c></rc>
    <rc><c>B </c><c>   1</c></rc>
    <rc><c>B </c><c>   1</c></rc>
    <rc><c>B </c><c>   1</c></rc>
   </set>
  </array>
  <array name="atomtypes" >
   <dimension dim="1">type</dimension>
   <field type="int">atomspertype</field>
   <field type="string">element</field>
   <field>mass</field>
   <field>valence</field>
   <field type="string">pseudopotential</field>
   <set>
    <rc><c>  14</c><c>B </c><c>     10.81100000</c><c>      3.00000000</c><c>  PAW_PBE B 06Sep2000                   </c></rc>
   </set>
  </array>
 </atominfo>
 <structure name="initialpos" >
  <crystal>
   <varray name="basis" >
    <v>       5.69700000       0.00000000       0.00000000 </v>
    <v>       0.00000000       4.04790000       0.00000000 </v>
    <v>       0.00000000       0.00000000       6.20420000 </v>
   </varray>
   <i name="volume">    143.07435078 </i>
   <varray name="rec_basis" >
    <v>       0.17553098       0.00000000       0.00000000 </v>
    <v>       0.00000000       0.24704168       0.00000000 </v>
    <v>       0.00000000       0.00000000       0.16118114 </v>
   </varray>
  </crystal>
  <varray name="positions" >
   <v>       0.52123000       0.50000000       0.63796000 </v>
   <v>       0.47877000       0.50000000       0.36204000 </v>
   <v>       0.97877000       0.50000000       0.63796000 </v>
   <v>       0.02123000       0.50000000       0.36204000 </v>
   <v>       0.60090000       0.50000000       0.89991000 </v>
   <v>       0.39910000       0.50000000       0.10009000 </v>
   <v>       0.89910000       0.50000000       0.89991000 </v>
   <v>       0.10090000       0.50000000       0.10009000 </v>
   <v>       0.75000000       0.79171000       0.72973000 </v>
   <v>       0.25000000       0.20829000       0.27027000 </v>
   <v>       0.75000000       0.20829000       0.72973000 </v>
   <v>       0.25000000       0.79171000       0.27027000 </v>
   <v>       0.25000000       0.50000000       0.52367000 </v>
   <v>       0.75000000       0.50000000       0.47633000 </v>
  </varray>
 </structure>
 <calculation>
  <scstep>
   <time name="dav">    2.96    3.02</time>
   <time name="total">    2.97    3.04</time>
   <energy>
    <i name="alphaZ">     94.24357992 </i>
    <i name="ewald">   -795.76658092 </i>
    <i name="hartreedc">   -271.33601302 </i>
    <i name="XCdc">     97.50108304 </i>
    <i name="pawpsdc">    608.99811708 </i>
    <i name="pawaedc">   -597.02363782 </i>
    <i name="eentropy">     -0.00220053 </i>
    <i name="bandstr">   -112.38669075 </i>
    <i name="atom">    996.32205449 </i>
    <i name="e_fr_energy">     20.54971149 </i>
    <i name="e_wo_entrp">     20.55191201 </i>
    <i name="e_0_energy">     20.55081175 </i>
   </energy>
  </scstep>
  <scstep>
   <time name="dav">    4.10    4.14</time>
   <time name="total">    4.11    4.14</time>
   <energy>
    <i name="e_fr_energy">    -94.23737005 </i>
    <i name="e_wo_entrp">    -94.23418294 </i>
    <i name="e_0_energy">    -94.23577650 </i>
   </energy>
  </scstep>
  <scstep>
   <time name="dav">    4.15    4.18</time>
   <time name="total">    4.15    4.18</time>
   <energy>
    <i name="e_fr_energy">    -97.55453533 </i>
    <i name="e_wo_entrp">    -97.55087931 </i>
    <i name="e_0_energy">    -97.55270732 </i>
   </energy>
  </scstep>
  <scstep>
   <time name="dav">    3.72    3.75</time>
   <time name="total">    3.73    3.76</time>
   <energy>
    <i name="e_fr_energy">    -97.57357394 </i>
    <i name="e_wo_entrp">    -97.56991757 </i>
    <i name="e_0_energy">    -97.57174575 </i>
   </energy>
  </scstep>
  <scstep>
   <time name="dav">    4.11    4.14</time>
   <time name="total">    4.15    4.18</time>
   <energy>
    <i name="e_fr_energy">    -97.57379994 </i>
    <i name="e_wo_entrp">    -97.57014352 </i>
    <i name="e_0_energy">    -97.57197173 </i>
   </energy>
  </scstep>
  <scstep>
   <time name="dav">    4.15    4.18</time>
   <time name="total">    4.19    4.23</time>
   <energy>
    <i name="e_fr_energy">    -92.16742584 </i>
    <i name="e_wo_entrp">    -92.16399295 </i>
    <i name="e_0_energy">    -92.16570939 </i>
   </energy>
  </scstep>
  <scstep>
   <time name="dav">    4.42    4.45</time>
   <time name="total">    4.46    4.50</time>
   <energy>
    <i name="e_fr_energy">    -90.51713003 </i>
    <i name="e_wo_entrp">    -90.51399536 </i>
    <i name="e_0_energy">    -90.51556269 </i>
   </energy>
  </scstep>
  <scstep>
   <time name="dav">    3.14    3.16</time>
   <time name="total">    3.18    3.21</time>
   <energy>
    <i name="e_fr_energy">    -90.52937442 </i>
    <i name="e_wo_entrp">    -90.52619644 </i>
    <i name="e_0_energy">    -90.52778543 </i>
   </energy>
  </scstep>
  <scstep>
   <time name="dav">    4.06    4.08</time>
   <time name="total">    4.10    4.13</time>
   <energy>
    <i name="e_fr_energy">    -90.54361173 </i>
    <i name="e_wo_entrp">    -90.54034713 </i>
    <i name="e_0_energy">    -90.54197943 </i>
   </energy>
  </scstep>
  <scstep>
   <time name="dav">    3.27    3.29</time>
   <time name="total">    3.32    3.34</time>
   <energy>
    <i name="e_fr_energy">    -90.54755676 </i>
    <i name="e_wo_entrp">    -90.54433857 </i>
    <i name="e_0_energy">    -90.54594767 </i>
   </energy>
  </scstep>
  <scstep>
   <time name="dav">    3.57    3.60</time>
   <time name="total">    3.62    3.64</time>
   <energy>
    <i name="e_fr_energy">    -90.54865870 </i>
    <i name="e_wo_entrp">    -90.54545153 </i>
    <i name="e_0_energy">    -90.54705511 </i>
   </energy>
  </scstep>
  <scstep>
   <time name="dav">    3.61    3.63</time>
   <time name="total">    3.65    3.68</time>
   <energy>
    <i name="e_fr_energy">    -90.54877394 </i>
    <i name="e_wo_entrp">    -90.54556062 </i>
    <i name="e_0_energy">    -90.54716728 </i>
   </energy>
  </scstep>
  <scstep>
   <time name="dav">    4.01    4.10</time>
   <time name="total">    4.05    4.14</time>
   <energy>
    <i name="e_fr_energy">    -90.54877872 </i>
    <i name="e_wo_entrp">    -90.54556511 </i>
    <i name="e_0_energy">    -90.54717191 </i>
   </energy>
  </scstep>
  <scstep>
   <time name="dav">    3.64    3.67</time>
   <time name="total">    3.65    3.68</time>
   <energy>
    <i name="alphaZ">     94.24357992 </i>
    <i name="ewald">   -795.76658092 </i>
    <i name="hartreedc">   -349.07497473 </i>
    <i name="XCdc">    101.61389044 </i>
    <i name="pawpsdc">   3827.88475673 </i>
    <i name="pawaedc">  -3817.06618137 </i>
    <i name="eentropy">     -0.00321373 </i>
    <i name="bandstr">   -148.70211018 </i>
    <i name="atom">    996.32205449 </i>
    <i name="e_fr_energy">    -90.54877937 </i>
    <i name="e_wo_entrp">    -90.54556564 </i>
    <i name="e_0_energy">    -90.54717251 </i>
   </energy>
  </scstep>
  <structure>
   <crystal>
    <varray name="basis" >
     <v>       5.69700000       0.00000000       0.00000000 </v>
     <v>       0.00000000       4.04790000       0.00000000 </v>
     <v>       0.00000000       0.00000000       6.20420000 </v>
    </varray>
    <i name="volume">    143.07435078 </i>
    <varray name="rec_basis" >
     <v>       0.17553098       0.00000000       0.00000000 </v>
     <v>       0.00000000       0.24704168       0.00000000 </v>
     <v>       0.00000000       0.00000000       0.16118114 </v>
    </varray>
   </crystal>
   <varray name="positions" >
    <v>       0.52123000       0.50000000       0.63796000 </v>
    <v>       0.47877000       0.50000000       0.36204000 </v>
    <v>       0.97877000       0.50000000       0.63796000 </v>
    <v>       0.02123000       0.50000000       0.36204000 </v>
    <v>       0.60090000       0.50000000       0.89991000 </v>
    <v>       0.39910000       0.50000000       0.10009000 </v>
    <v>       0.89910000       0.50000000       0.89991000 </v>
    <v>       0.10090000       0.50000000       0.10009000 </v>
    <v>       0.75000000       0.79171000       0.72973000 </v>
    <v>       0.25000000       0.20829000       0.27027000 </v>
    <v>       0.75000000       0.20829000       0.72973000 </v>
    <v>       0.25000000       0.79171000       0.27027000 </v>
    <v>       0.25000000       0.50000000       0.52367000 </v>
    <v>       0.75000000       0.50000000       0.47633000 </v>
   </varray>
  </structure>
  <varray name="forces" >
   <v>      -0.00807814      -0.00000000       0.05166744 </v>
   <v>       0.00807814       0.00000000      -0.05166744 </v>
   <v>       0.00807814      -0.00000000       0.05166744 </v>
   <v>      -0.00807814      -0.00000000      -0.05166744 </v>
   <v>      -0.83535682       0.00000000       0.28142049 </v>
   <v>       0.83535682       0.00000000      -0.28142049 </v>
   <v>       0.83535682       0.00000000       0.28142049 </v>
   <v>      -0.83535682       0.00000000      -0.28142049 </v>
   <v>       0.00000000       0.06765865      -0.07744573 </v>
   <v>       0.00000000      -0.06765865       0.07744573 </v>
   <v>       0.00000000      -0.06765865      -0.07744573 </v>
   <v>       0.00000000       0.06765865       0.07744573 </v>
   <v>       0.00000000       0.00000000       0.07823687 </v>
   <v>       0.00000000      -0.00000000      -0.07823687 </v>
  </varray>
  <varray name="stress" >
   <v>       7.44578108       0.00000000       0.00000000 </v>
   <v>       0.00000000      -5.61294842       0.00000000 </v>
   <v>       0.00000000       0.00000000     -13.39126140 </v>
  </varray>
  <energy>
   <i name="e_fr_energy">    -90.54877937 </i>
   <i name="e_wo_entrp">    -90.54556564 </i>
   <i name="e_0_energy">    -90.54717251 </i>
  </energy>
  <time name="totalsc">   55.46   55.98</time>
  <eigenvalues>
   <array>
    <dimension dim="1">band</dimension>
    <dimension dim="2">kpoint</dimension>
    <dimension dim="3">spin</dimension>
    <field>eigene</field>
    <field>occ</field>
    <set>
     <set comment="spin 1">
      <set comment="kpoint 1">
       <r>  -12.7252    1.0000 </r>
       <r>  -11.5827    1.0000 </r>
       <r>   -8.6575    1.0000 </r>
       <r>   -8.4207    1.0000 </r>
       <r>   -6.0631    1.0000 </r>
       <r>   -5.1290    1.0000 </r>
       <r>   -4.6649    1.0000 </r>
       <r>   -4.2736    1.0000 </r>
       <r>   -4.0320    1.0000 </r>
       <r>   -3.5424    1.0000 </r>
       <r>   -2.5922    1.0000 </r>
       <r>   -2.3231    1.0000 </r>
       <r>   -1.8319    1.0000 </r>
       <r>   -1.0937    1.0000 </r>
       <r>   -0.0682    1.0000 </r>
       <r>   -0.0377    1.0000 </r>
       <r>    0.1585    1.0000 </r>
       <r>    0.1803    1.0000 </r>
       <r>    0.5681    1.0000 </r>
       <r>    2.0213    0.0001 </r>
       <r>    2.0841    0.0000 </r>
       <r>    2.2189    0.0000 </r>
       <r>    5.4596    0.0000 </r>
       <r>    5.7513    0.0000 </r>
       <r>    5.8403    0.0000 </r>
       <r>    5.9618    0.0000 </r>
       <r>    6.8162    0.0000 </r>
       <r>    7.5506    0.0000 </r>
       <r>    7.8800    0.0000 </r>
       <r>    8.5367    0.0000 </r>
       <r>    8.8030    0.0000 </r>
       <r>    8.9506    0.0000 </r>
       <r>    9.0527    0.0000 </r>
       <r>   10.1250    0.0000 </r>
       <r>   11.1856    0.0000 </r>
       <r>   11.3378    0.0000 </r>
       <r>   11.6685    0.0000 </r>
       <r>   11.7831    0.0000 </r>
       <r>   11.9427    0.0000 </r>
       <r>   12.4055    0.0000 </r>
       <r>   12.8698    0.0000 </r>
       <r>   13.4549    0.0000 </r>
       <r>   13.4818    0.0000 </r>
       <r>   15.3837    0.0000 </r>
       <r>   15.5729    0.0000 </r>
       <r>   16.0648    0.0000 </r>
       <r>   16.3357    0.0000 </r>
       <r>   16.3588    0.0000 </r>
      </set>
      <set comment="kpoint 2">
       <r>  -12.6815    1.0000 </r>
       <r>  -11.6568    1.0000 </r>
       <r>   -8.6365    1.0000 </r>
       <r>   -8.4094    1.0000 </r>
       <r>   -5.9949    1.0000 </r>
       <r>   -5.4704    1.0000 </r>
       <r>   -4.7874    1.0000 </r>
       <r>   -4.0084    1.0000 </r>
       <r>   -3.7907    1.0000 </r>
       <r>   -3.2050    1.0000 </r>
       <r>   -2.6625    1.0000 </r>
       <r>   -2.3030    1.0000 </r>
       <r>   -1.9106    1.0000 </r>
       <r>   -1.4005    1.0000 </r>
       <r>   -0.0279    1.0000 </r>
       <r>   -0.0161    1.0000 </r>
       <r>    0.0960    1.0000 </r>
       <r>    0.2005    1.0000 </r>
       <r>    0.4727    1.0000 </r>
       <r>    1.9351    0.0833 </r>
       <r>    2.0062    0.0003 </r>
       <r>    2.0977    0.0000 </r>
       <r>    5.5484    0.0000 </r>
       <r>    5.7594    0.0000 </r>
       <r>    5.8682    0.0000 </r>
       <r>    6.3075    0.0000 </r>
       <r>    6.7307    0.0000 </r>
       <r>    7.1887    0.0000 </r>
       <r>    8.0898    0.0000 </r>
       <r>    8.6732    0.0000 </r>
       <r>    9.0599    0.0000 </r>
       <r>    9.1322    0.0000 </r>
       <r>    9.2052    0.0000 </r>
       <r>   10.2375    0.0000 </r>
       <r>   10.9452    0.0000 </r>
       <r>   11.1336    0.0000 </r>
       <r>   11.2587    0.0000 </r>
       <r>   11.7003    0.0000 </r>
       <r>   12.1600    0.0000 </r>
       <r>   12.4949    0.0000 </r>
       <r>   13.1232    0.0000 </r>
       <r>   13.1297    0.0000 </r>
       <r>   14.0140    0.0000 </r>
       <r>   14.8717    0.0000 </r>
       <r>   15.7527    0.0000 </r>
       <r>   15.8318    0.0000 </r>
       <r>   16.2293    0.0000 </r>
       <r>   16.5162    0.0000 </r>
      </set>
      <set comment="kpoint 3">
       <r>  -12.5958    1.0000 </r>
       <r>  -11.7898    1.0000 </r>
       <r>   -8.5928    1.0000 </r>
       <r>   -8.3946    1.0000 </r>
       <r>   -5.9732    1.0000 </r>
       <r>   -5.7971    1.0000 </r>
       <r>   -4.7412    1.0000 </r>
       <r>   -3.8811    1.0000 </r>
       <r>   -3.2794    1.0000 </r>
       <r>   -2.8314    1.0000 </r>
       <r>   -2.7123    1.0000 </r>
       <r>   -2.2626    1.0000 </r>
       <r>   -2.0212    1.0000 </r>
       <r>   -1.9046    1.0000 </r>
       <r>   -0.2170    1.0000 </r>
       <r>    0.0159    1.0000 </r>
       <r>    0.1458    1.0000 </r>
       <r>    0.1591    1.0000 </r>
       <r>    0.4427    1.0000 </r>
       <r>    1.7872    0.9974 </r>
       <r>    1.8682    0.6945 </r>
       <r>    1.8735    0.6404 </r>
       <r>    5.6694    0.0000 </r>
       <r>    5.7160    0.0000 </r>
       <r>    6.1774    0.0000 </r>
       <r>    6.6048    0.0000 </r>
       <r>    6.7658    0.0000 </r>
       <r>    6.9342    0.0000 </r>
       <r>    8.2406    0.0000 </r>
       <r>    8.8220    0.0000 </r>
       <r>    9.0017    0.0000 </r>
       <r>    9.5765    0.0000 </r>
       <r>    9.6493    0.0000 </r>
       <r>   10.2836    0.0000 </r>
       <r>   10.4880    0.0000 </r>
       <r>   10.6276    0.0000 </r>
       <r>   11.3794    0.0000 </r>
       <r>   11.8426    0.0000 </r>
       <r>   12.3951    0.0000 </r>
       <r>   12.5680    0.0000 </r>
       <r>   12.7954    0.0000 </r>
       <r>   12.9208    0.0000 </r>
       <r>   14.6396    0.0000 </r>
       <r>   14.9206    0.0000 </r>
       <r>   15.2285    0.0000 </r>
       <r>   15.9857    0.0000 </r>
       <r>   16.0045    0.0000 </r>
       <r>   16.2939    0.0000 </r>
      </set>
      <set comment="kpoint 4">
       <r>  -12.4723    1.0000 </r>
       <r>  -11.9592    1.0000 </r>
       <r>   -8.5310    1.0000 </r>
       <r>   -8.3914    1.0000 </r>
       <r>   -6.0539    1.0000 </r>
       <r>   -6.0301    1.0000 </r>
       <r>   -4.4136    1.0000 </r>
       <r>   -3.7121    1.0000 </r>
       <r>   -3.0256    1.0000 </r>
       <r>   -2.8947    1.0000 </r>
       <r>   -2.4418    1.0000 </r>
       <r>   -2.2506    1.0000 </r>
       <r>   -2.1441    1.0000 </r>
       <r>   -2.1223    1.0000 </r>
       <r>   -0.5163    1.0000 </r>
       <r>   -0.2429    1.0000 </r>
       <r>    0.1745    1.0000 </r>
       <r>    0.2504    1.0000 </r>
       <r>    0.6159    1.0000 </r>
       <r>    1.5324    1.0000 </r>
       <r>    1.6645    1.0000 </r>
       <r>    1.7252    1.0000 </r>
       <r>    5.7006    0.0000 </r>
       <r>    5.7547    0.0000 </r>
       <r>    6.5033    0.0000 </r>
       <r>    6.6751    0.0000 </r>
       <r>    6.7018    0.0000 </r>
       <r>    7.4158    0.0000 </r>
       <r>    8.3649    0.0000 </r>
       <r>    8.6918    0.0000 </r>
       <r>    8.8109    0.0000 </r>
       <r>    9.5379    0.0000 </r>
       <r>   10.0576    0.0000 </r>
       <r>   10.1202    0.0000 </r>
       <r>   10.4003    0.0000 </r>
       <r>   11.1502    0.0000 </r>
       <r>   11.4072    0.0000 </r>
       <r>   11.9481    0.0000 </r>
       <r>   12.2064    0.0000 </r>
       <r>   12.2778    0.0000 </r>
       <r>   12.5233    0.0000 </r>
       <r>   13.2600    0.0000 </r>
       <r>   14.7161    0.0000 </r>
       <r>   14.9797    0.0000 </r>
       <r>   15.2662    0.0000 </r>
       <r>   15.3775    0.0000 </r>
       <r>   15.5766    0.0000 </r>
       <r>   16.3807    0.0000 </r>
      </set>
      <set comment="kpoint 5">
       <r>  -12.3175    1.0000 </r>
       <r>  -12.1416    1.0000 </r>
       <r>   -8.4648    1.0000 </r>
       <r>   -8.4139    1.0000 </r>
       <r>   -6.1437    1.0000 </r>
       <r>   -6.1394    1.0000 </r>
       <r>   -3.8978    1.0000 </r>
       <r>   -3.5028    1.0000 </r>
       <r>   -3.2984    1.0000 </r>
       <r>   -3.2647    1.0000 </r>
       <r>   -2.3595    1.0000 </r>
       <r>   -2.2311    1.0000 </r>
       <r>   -1.9595    1.0000 </r>
       <r>   -1.9062    1.0000 </r>
       <r>   -0.7367    1.0000 </r>
       <r>   -0.6012    1.0000 </r>
       <r>    0.2581    1.0000 </r>
       <r>    0.2918    1.0000 </r>
       <r>    0.8767    1.0000 </r>
       <r>    1.1939    1.0000 </r>
       <r>    1.5840    1.0000 </r>
       <r>    1.6114    1.0000 </r>
       <r>    5.7288    0.0000 </r>
       <r>    5.7662    0.0000 </r>
       <r>    6.4820    0.0000 </r>
       <r>    6.5459    0.0000 </r>
       <r>    7.3715    0.0000 </r>
       <r>    8.0771    0.0000 </r>
       <r>    8.0991    0.0000 </r>
       <r>    8.4825    0.0000 </r>
       <r>    8.6209    0.0000 </r>
       <r>    8.7927    0.0000 </r>
       <r>   10.5036    0.0000 </r>
       <r>   10.5199    0.0000 </r>
       <r>   10.7630    0.0000 </r>
       <r>   11.2214    0.0000 </r>
       <r>   11.4059    0.0000 </r>
       <r>   11.6019    0.0000 </r>
       <r>   11.9352    0.0000 </r>
       <r>   12.4846    0.0000 </r>
       <r>   12.7190    0.0000 </r>
       <r>   13.2553    0.0000 </r>
       <r>   14.5937    0.0000 </r>
       <r>   14.7382    0.0000 </r>
       <r>   14.8720    0.0000 </r>
       <r>   14.9314    0.0000 </r>
       <r>   16.1067    0.0000 </r>
       <r>   16.4512    0.0000 </r>
      </set>
      <set comment="kpoint 6">
       <r>  -12.7012    1.0000 </r>
       <r>  -11.5612    1.0000 </r>
       <r>   -8.6387    1.0000 </r>
       <r>   -8.3976    1.0000 </r>
       <r>   -6.0364    1.0000 </r>
       <r>   -5.0953    1.0000 </r>
       <r>   -4.6427    1.0000 </r>
       <r>   -4.5719    1.0000 </r>
       <r>   -4.1761    1.0000 </r>
       <r>   -3.5197    1.0000 </r>
       <r>   -3.2857    1.0000 </r>
       <r>   -1.7923    1.0000 </r>
       <r>   -1.0892    1.0000 </r>
       <r>   -1.0327    1.0000 </r>
       <r>   -0.3020    1.0000 </r>
       <r>   -0.2736    1.0000 </r>
       <r>    0.1720    1.0000 </r>
       <r>    0.2503    1.0000 </r>
       <r>    0.6463    1.0000 </r>
       <r>    1.7533    0.9999 </r>
       <r>    1.8332    0.9330 </r>
       <r>    2.2710    0.0000 </r>
       <r>    5.5784    0.0000 </r>
       <r>    5.7096    0.0000 </r>
       <r>    5.7438    0.0000 </r>
       <r>    6.0090    0.0000 </r>
       <r>    7.1024    0.0000 </r>
       <r>    7.8361    0.0000 </r>
       <r>    8.0784    0.0000 </r>
       <r>    8.1905    0.0000 </r>
       <r>    8.8072    0.0000 </r>
       <r>    9.1000    0.0000 </r>
       <r>    9.1512    0.0000 </r>
       <r>   10.5776    0.0000 </r>
       <r>   11.2686    0.0000 </r>
       <r>   11.4007    0.0000 </r>
       <r>   11.6013    0.0000 </r>
       <r>   11.8860    0.0000 </r>
       <r>   12.0535    0.0000 </r>
       <r>   12.6858    0.0000 </r>
       <r>   12.8700    0.0000 </r>
       <r>   13.1912    0.0000 </r>
       <r>   13.1976    0.0000 </r>
       <r>   15.3330    0.0000 </r>
       <r>   15.3829    0.0000 </r>
       <r>   15.8604    0.0000 </r>
       <r>   15.8713    0.0000 </r>
       <r>   16.2229    0.0000 </r>
      </set>
      <set comment="kpoint 7">
       <r>  -12.6575    1.0000 </r>
       <r>  -11.6349    1.0000 </r>
       <r>   -8.6174    1.0000 </r>
       <r>   -8.3865    1.0000 </r>
       <r>   -5.9663    1.0000 </r>
       <r>   -5.4401    1.0000 </r>
       <r>   -4.7671    1.0000 </r>
       <r>   -4.4892    1.0000 </r>
       <r>   -3.7514    1.0000 </r>
       <r>   -3.3665    1.0000 </r>
       <r>   -3.1667    1.0000 </r>
       <r>   -1.7706    1.0000 </r>
       <r>   -1.3949    1.0000 </r>
       <r>   -1.1520    1.0000 </r>
       <r>   -0.2628    1.0000 </r>
       <r>   -0.1928    1.0000 </r>
       <r>    0.1396    1.0000 </r>
       <r>    0.2221    1.0000 </r>
       <r>    0.5435    1.0000 </r>
       <r>    1.6728    1.0000 </r>
       <r>    1.7570    0.9999 </r>
       <r>    2.1404    0.0000 </r>
       <r>    5.6542    0.0000 </r>
       <r>    5.8083    0.0000 </r>
       <r>    5.9373    0.0000 </r>
       <r>    6.1143    0.0000 </r>
       <r>    7.0191    0.0000 </r>
       <r>    7.5110    0.0000 </r>
       <r>    8.2244    0.0000 </r>
       <r>    8.3611    0.0000 </r>
       <r>    9.1311    0.0000 </r>
       <r>    9.1617    0.0000 </r>
       <r>    9.4171    0.0000 </r>
       <r>   10.5026    0.0000 </r>
       <r>   10.8759    0.0000 </r>
       <r>   11.0856    0.0000 </r>
       <r>   11.4555    0.0000 </r>
       <r>   11.8734    0.0000 </r>
       <r>   12.2734    0.0000 </r>
       <r>   12.7410    0.0000 </r>
       <r>   12.8691    0.0000 </r>
       <r>   13.1539    0.0000 </r>
       <r>   13.7313    0.0000 </r>
       <r>   14.9567    0.0000 </r>
       <r>   15.4005    0.0000 </r>
       <r>   15.7527    0.0000 </r>
       <r>   15.7982    0.0000 </r>
       <r>   16.4031    0.0000 </r>
      </set>
      <set comment="kpoint 8">
       <r>  -12.5721    1.0000 </r>
       <r>  -11.7678    1.0000 </r>
       <r>   -8.5737    1.0000 </r>
       <r>   -8.3725    1.0000 </r>
       <r>   -5.9419    1.0000 </r>
       <r>   -5.7665    1.0000 </r>
       <r>   -4.7246    1.0000 </r>
       <r>   -4.3806    1.0000 </r>
       <r>   -3.4885    1.0000 </r>
       <r>   -3.2253    1.0000 </r>
       <r>   -2.6999    1.0000 </r>
       <r>   -1.9002    1.0000 </r>
       <r>   -1.7262    1.0000 </r>
       <r>   -1.3156    1.0000 </r>
       <r>   -0.2194    1.0000 </r>
       <r>   -0.2155    1.0000 </r>
       <r>    0.0546    1.0000 </r>
       <r>    0.2091    1.0000 </r>
       <r>    0.4672    1.0000 </r>
       <r>    1.5377    1.0000 </r>
       <r>    1.6265    1.0000 </r>
       <r>    1.8920    0.4341 </r>
       <r>    5.8577    0.0000 </r>
       <r>    5.9361    0.0000 </r>
       <r>    6.0140    0.0000 </r>
       <r>    6.5631    0.0000 </r>
       <r>    6.8982    0.0000 </r>
       <r>    7.2831    0.0000 </r>
       <r>    8.4308    0.0000 </r>
       <r>    8.4939    0.0000 </r>
       <r>    9.1018    0.0000 </r>
       <r>    9.6144    0.0000 </r>
       <r>    9.8752    0.0000 </r>
       <r>   10.1268    0.0000 </r>
       <r>   10.3556    0.0000 </r>
       <r>   10.8243    0.0000 </r>
       <r>   11.5217    0.0000 </r>
       <r>   12.1081    0.0000 </r>
       <r>   12.3103    0.0000 </r>
       <r>   12.5572    0.0000 </r>
       <r>   12.9604    0.0000 </r>
       <r>   13.0256    0.0000 </r>
       <r>   14.3083    0.0000 </r>
       <r>   15.0881    0.0000 </r>
       <r>   15.1644    0.0000 </r>
       <r>   15.6477    0.0000 </r>
       <r>   15.7115    0.0000 </r>
       <r>   16.4233    0.0000 </r>
      </set>
      <set comment="kpoint 9">
       <r>  -12.4488    1.0000 </r>
       <r>  -11.9368    1.0000 </r>
       <r>   -8.5116    1.0000 </r>
       <r>   -8.3702    1.0000 </r>
       <r>   -6.0215    1.0000 </r>
       <r>   -5.9988    1.0000 </r>
       <r>   -4.3990    1.0000 </r>
       <r>   -4.2334    1.0000 </r>
       <r>   -3.6601    1.0000 </r>
       <r>   -2.8451    1.0000 </r>
       <r>   -2.3600    1.0000 </r>
       <r>   -2.2165    1.0000 </r>
       <r>   -1.6619    1.0000 </r>
       <r>   -1.4788    1.0000 </r>
       <r>   -0.4777    1.0000 </r>
       <r>   -0.3058    1.0000 </r>
       <r>    0.0866    1.0000 </r>
       <r>    0.1167    1.0000 </r>
       <r>    0.6265    1.0000 </r>
       <r>    1.3980    1.0000 </r>
       <r>    1.4811    1.0000 </r>
       <r>    1.5681    1.0000 </r>
       <r>    5.8756    0.0000 </r>
       <r>    6.0096    0.0000 </r>
       <r>    6.5196    0.0000 </r>
       <r>    6.8086    0.0000 </r>
       <r>    6.8818    0.0000 </r>
       <r>    7.3743    0.0000 </r>
       <r>    8.4203    0.0000 </r>
       <r>    8.6016    0.0000 </r>
       <r>    8.9409    0.0000 </r>
       <r>    9.3729    0.0000 </r>
       <r>   10.0741    0.0000 </r>
       <r>   10.1001    0.0000 </r>
       <r>   10.4432    0.0000 </r>
       <r>   11.2274    0.0000 </r>
       <r>   11.3661    0.0000 </r>
       <r>   11.8436    0.0000 </r>
       <r>   12.2951    0.0000 </r>
       <r>   12.5479    0.0000 </r>
       <r>   12.7235    0.0000 </r>
       <r>   13.4624    0.0000 </r>
       <r>   14.7685    0.0000 </r>
       <r>   14.7758    0.0000 </r>
       <r>   15.1568    0.0000 </r>
       <r>   15.3099    0.0000 </r>
       <r>   15.6547    0.0000 </r>
       <r>   16.3934    0.0000 </r>
      </set>
      <set comment="kpoint 10">
       <r>  -12.2944    1.0000 </r>
       <r>  -12.1189    1.0000 </r>
       <r>   -8.4452    1.0000 </r>
       <r>   -8.3935    1.0000 </r>
       <r>   -6.1116    1.0000 </r>
       <r>   -6.1067    1.0000 </r>
       <r>   -4.0542    1.0000 </r>
       <r>   -3.8906    1.0000 </r>
       <r>   -3.8500    1.0000 </r>
       <r>   -3.2856    1.0000 </r>
       <r>   -2.1062    1.0000 </r>
       <r>   -1.9122    1.0000 </r>
       <r>   -1.5937    1.0000 </r>
       <r>   -1.5909    1.0000 </r>
       <r>   -0.6985    1.0000 </r>
       <r>   -0.5975    1.0000 </r>
       <r>    0.1197    1.0000 </r>
       <r>    0.1508    1.0000 </r>
       <r>    0.8859    1.0000 </r>
       <r>    1.1999    1.0000 </r>
       <r>    1.3445    1.0000 </r>
       <r>    1.3686    1.0000 </r>
       <r>    5.9268    0.0000 </r>
       <r>    5.9927    0.0000 </r>
       <r>    6.7976    0.0000 </r>
       <r>    6.8482    0.0000 </r>
       <r>    7.1873    0.0000 </r>
       <r>    7.9001    0.0000 </r>
       <r>    7.9449    0.0000 </r>
       <r>    8.6274    0.0000 </r>
       <r>    8.6941    0.0000 </r>
       <r>    8.8068    0.0000 </r>
       <r>   10.3218    0.0000 </r>
       <r>   10.5703    0.0000 </r>
       <r>   10.8074    0.0000 </r>
       <r>   10.9115    0.0000 </r>
       <r>   11.5530    0.0000 </r>
       <r>   11.6609    0.0000 </r>
       <r>   12.0142    0.0000 </r>
       <r>   12.6539    0.0000 </r>
       <r>   13.0279    0.0000 </r>
       <r>   13.4866    0.0000 </r>
       <r>   14.5511    0.0000 </r>
       <r>   14.7358    0.0000 </r>
       <r>   14.8336    0.0000 </r>
       <r>   15.0508    0.0000 </r>
       <r>   16.1299    0.0000 </r>
       <r>   16.4245    0.0000 </r>
      </set>
      <set comment="kpoint 11">
       <r>  -12.6568    1.0000 </r>
       <r>  -11.5216    1.0000 </r>
       <r>   -8.6044    1.0000 </r>
       <r>   -8.3549    1.0000 </r>
       <r>   -5.9868    1.0000 </r>
       <r>   -5.1289    1.0000 </r>
       <r>   -5.0045    1.0000 </r>
       <r>   -4.6008    1.0000 </r>
       <r>   -4.1596    1.0000 </r>
       <r>   -3.9083    1.0000 </r>
       <r>   -3.4665    1.0000 </r>
       <r>   -1.2031    1.0000 </r>
       <r>   -1.0797    1.0000 </r>
       <r>   -0.6457    1.0000 </r>
       <r>   -0.5400    1.0000 </r>
       <r>   -0.1742    1.0000 </r>
       <r>    0.1933    1.0000 </r>
       <r>    0.3033    1.0000 </r>
       <r>    0.7248    1.0000 </r>
       <r>    1.3704    1.0000 </r>
       <r>    1.4341    1.0000 </r>
       <r>    2.3093    0.0000 </r>
       <r>    5.2889    0.0000 </r>
       <r>    5.4548    0.0000 </r>
       <r>    6.1248    0.0000 </r>
       <r>    6.1974    0.0000 </r>
       <r>    7.5378    0.0000 </r>
       <r>    7.6261    0.0000 </r>
       <r>    8.3186    0.0000 </r>
       <r>    8.7282    0.0000 </r>
       <r>    8.8841    0.0000 </r>
       <r>    9.2419    0.0000 </r>
       <r>    9.3718    0.0000 </r>
       <r>   10.8834    0.0000 </r>
       <r>   11.3198    0.0000 </r>
       <r>   11.5737    0.0000 </r>
       <r>   11.7019    0.0000 </r>
       <r>   12.0868    0.0000 </r>
       <r>   12.2698    0.0000 </r>
       <r>   12.7476    0.0000 </r>
       <r>   12.7613    0.0000 </r>
       <r>   13.0074    0.0000 </r>
       <r>   13.2259    0.0000 </r>
       <r>   14.6765    0.0000 </r>
       <r>   15.1621    0.0000 </r>
       <r>   15.3441    0.0000 </r>
       <r>   15.4320    0.0000 </r>
       <r>   15.9635    0.0000 </r>
      </set>
      <set comment="kpoint 12">
       <r>  -12.6133    1.0000 </r>
       <r>  -11.5949    1.0000 </r>
       <r>   -8.5827    1.0000 </r>
       <r>   -8.3444    1.0000 </r>
       <r>   -5.9133    1.0000 </r>
       <r>   -5.3919    1.0000 </r>
       <r>   -5.0305    1.0000 </r>
       <r>   -4.7294    1.0000 </r>
       <r>   -3.9744    1.0000 </r>
       <r>   -3.7092    1.0000 </r>
       <r>   -3.1273    1.0000 </r>
       <r>   -1.3867    1.0000 </r>
       <r>   -1.1766    1.0000 </r>
       <r>   -0.7528    1.0000 </r>
       <r>   -0.5019    1.0000 </r>
       <r>   -0.0930    1.0000 </r>
       <r>    0.1739    1.0000 </r>
       <r>    0.2472    1.0000 </r>
       <r>    0.6122    1.0000 </r>
       <r>    1.2913    1.0000 </r>
       <r>    1.3643    1.0000 </r>
       <r>    2.1736    0.0000 </r>
       <r>    5.3692    0.0000 </r>
       <r>    5.8008    0.0000 </r>
       <r>    6.1435    0.0000 </r>
       <r>    6.2394    0.0000 </r>
       <r>    7.4572    0.0000 </r>
       <r>    7.7828    0.0000 </r>
       <r>    8.0510    0.0000 </r>
       <r>    8.8194    0.0000 </r>
       <r>    9.2539    0.0000 </r>
       <r>    9.2876    0.0000 </r>
       <r>    9.6565    0.0000 </r>
       <r>   10.5187    0.0000 </r>
       <r>   10.7808    0.0000 </r>
       <r>   11.2769    0.0000 </r>
       <r>   11.7201    0.0000 </r>
       <r>   12.1995    0.0000 </r>
       <r>   12.4324    0.0000 </r>
       <r>   12.5021    0.0000 </r>
       <r>   13.1638    0.0000 </r>
       <r>   13.2745    0.0000 </r>
       <r>   13.4390    0.0000 </r>
       <r>   14.6870    0.0000 </r>
       <r>   14.8237    0.0000 </r>
       <r>   15.2849    0.0000 </r>
       <r>   15.4958    0.0000 </r>
       <r>   15.9894    0.0000 </r>
      </set>
      <set comment="kpoint 13">
       <r>  -12.5282    1.0000 </r>
       <r>  -11.7272    1.0000 </r>
       <r>   -8.5385    1.0000 </r>
       <r>   -8.3318    1.0000 </r>
       <r>   -5.8835    1.0000 </r>
       <r>   -5.7116    1.0000 </r>
       <r>   -4.9388    1.0000 </r>
       <r>   -4.6934    1.0000 </r>
       <r>   -4.0980    1.0000 </r>
       <r>   -3.1749    1.0000 </r>
       <r>   -2.6562    1.0000 </r>
       <r>   -1.8836    1.0000 </r>
       <r>   -1.1360    1.0000 </r>
       <r>   -0.8917    1.0000 </r>
       <r>   -0.4488    1.0000 </r>
       <r>   -0.0838    1.0000 </r>
       <r>    0.0156    1.0000 </r>
       <r>    0.2591    1.0000 </r>
       <r>    0.4971    1.0000 </r>
       <r>    1.1598    1.0000 </r>
       <r>    1.2460    1.0000 </r>
       <r>    1.9170    0.1919 </r>
       <r>    5.6905    0.0000 </r>
       <r>    6.0983    0.0000 </r>
       <r>    6.2773    0.0000 </r>
       <r>    6.3693    0.0000 </r>
       <r>    7.3548    0.0000 </r>
       <r>    7.8617    0.0000 </r>
       <r>    8.0169    0.0000 </r>
       <r>    8.9481    0.0000 </r>
       <r>    9.2479    0.0000 </r>
       <r>    9.7205    0.0000 </r>
       <r>    9.8534    0.0000 </r>
       <r>   10.1392    0.0000 </r>
       <r>   10.2554    0.0000 </r>
       <r>   11.0633    0.0000 </r>
       <r>   11.5883    0.0000 </r>
       <r>   12.1065    0.0000 </r>
       <r>   12.5111    0.0000 </r>
       <r>   12.8028    0.0000 </r>
       <r>   13.0461    0.0000 </r>
       <r>   13.4483    0.0000 </r>
       <r>   13.9616    0.0000 </r>
       <r>   14.5958    0.0000 </r>
       <r>   14.8734    0.0000 </r>
       <r>   15.3049    0.0000 </r>
       <r>   15.5151    0.0000 </r>
       <r>   16.2001    0.0000 </r>
      </set>
      <set comment="kpoint 14">
       <r>  -12.4055    1.0000 </r>
       <r>  -11.8956    1.0000 </r>
       <r>   -8.4760    1.0000 </r>
       <r>   -8.3312    1.0000 </r>
       <r>   -5.9608    1.0000 </r>
       <r>   -5.9411    1.0000 </r>
       <r>   -4.8029    1.0000 </r>
       <r>   -4.3723    1.0000 </r>
       <r>   -4.2626    1.0000 </r>
       <r>   -2.8067    1.0000 </r>
       <r>   -2.3189    1.0000 </r>
       <r>   -2.1754    1.0000 </r>
       <r>   -1.0795    1.0000 </r>
       <r>   -1.0285    1.0000 </r>
       <r>   -0.4541    1.0000 </r>
       <r>   -0.3699    1.0000 </r>
       <r>    0.0595    1.0000 </r>
       <r>    0.0634    1.0000 </r>
       <r>    0.6441    1.0000 </r>
       <r>    1.0300    1.0000 </r>
       <r>    1.1130    1.0000 </r>
       <r>    1.5818    1.0000 </r>
       <r>    6.1095    0.0000 </r>
       <r>    6.2258    0.0000 </r>
       <r>    6.4008    0.0000 </r>
       <r>    6.8043    0.0000 </r>
       <r>    7.2988    0.0000 </r>
       <r>    7.7829    0.0000 </r>
       <r>    8.0725    0.0000 </r>
       <r>    9.0475    0.0000 </r>
       <r>    9.1055    0.0000 </r>
       <r>    9.1779    0.0000 </r>
       <r>    9.8893    0.0000 </r>
       <r>   10.1880    0.0000 </r>
       <r>   10.7028    0.0000 </r>
       <r>   11.0796    0.0000 </r>
       <r>   11.3264    0.0000 </r>
       <r>   11.9527    0.0000 </r>
       <r>   12.3574    0.0000 </r>
       <r>   12.9879    0.0000 </r>
       <r>   13.0382    0.0000 </r>
       <r>   13.7925    0.0000 </r>
       <r>   14.3823    0.0000 </r>
       <r>   14.3985    0.0000 </r>
       <r>   15.0322    0.0000 </r>
       <r>   15.1262    0.0000 </r>
       <r>   15.6159    0.0000 </r>
       <r>   16.3774    0.0000 </r>
      </set>
      <set comment="kpoint 15">
       <r>  -12.2517    1.0000 </r>
       <r>  -12.0769    1.0000 </r>
       <r>   -8.4089    1.0000 </r>
       <r>   -8.3562    1.0000 </r>
       <r>   -6.0520    1.0000 </r>
       <r>   -6.0461    1.0000 </r>
       <r>   -4.6349    1.0000 </r>
       <r>   -4.4490    1.0000 </r>
       <r>   -3.8595    1.0000 </r>
       <r>   -3.2630    1.0000 </r>
       <r>   -2.0371    1.0000 </r>
       <r>   -1.8717    1.0000 </r>
       <r>   -1.1001    1.0000 </r>
       <r>   -1.0388    1.0000 </r>
       <r>   -0.6276    1.0000 </r>
       <r>   -0.6209    1.0000 </r>
       <r>    0.0096    1.0000 </r>
       <r>    0.0533    1.0000 </r>
       <r>    0.9014    1.0000 </r>
       <r>    0.9677    1.0000 </r>
       <r>    1.0084    1.0000 </r>
       <r>    1.2285    1.0000 </r>
       <r>    6.2013    0.0000 </r>
       <r>    6.3196    0.0000 </r>
       <r>    6.8790    0.0000 </r>
       <r>    7.2184    0.0000 </r>
       <r>    7.2770    0.0000 </r>
       <r>    7.6235    0.0000 </r>
       <r>    7.9301    0.0000 </r>
       <r>    8.4414    0.0000 </r>
       <r>    9.1033    0.0000 </r>
       <r>    9.1353    0.0000 </r>
       <r>   10.0129    0.0000 </r>
       <r>   10.4852    0.0000 </r>
       <r>   10.7093    0.0000 </r>
       <r>   10.9799    0.0000 </r>
       <r>   11.7333    0.0000 </r>
       <r>   11.7512    0.0000 </r>
       <r>   12.1351    0.0000 </r>
       <r>   12.9112    0.0000 </r>
       <r>   13.4180    0.0000 </r>
       <r>   13.7651    0.0000 </r>
       <r>   14.2298    0.0000 </r>
       <r>   14.3843    0.0000 </r>
       <r>   14.9960    0.0000 </r>
       <r>   15.1356    0.0000 </r>
       <r>   15.9927    0.0000 </r>
       <r>   16.2970    0.0000 </r>
      </set>
      <set comment="kpoint 16">
       <r>  -12.5993    1.0000 </r>
       <r>  -11.4703    1.0000 </r>
       <r>   -8.5605    1.0000 </r>
       <r>   -8.2998    1.0000 </r>
       <r>   -5.9226    1.0000 </r>
       <r>   -5.6103    1.0000 </r>
       <r>   -4.9342    1.0000 </r>
       <r>   -4.5445    1.0000 </r>
       <r>   -4.4287    1.0000 </r>
       <r>   -4.1204    1.0000 </r>
       <r>   -3.4044    1.0000 </r>
       <r>   -1.2185    1.0000 </r>
       <r>   -1.0655    1.0000 </r>
       <r>   -1.0005    1.0000 </r>
       <r>   -0.1928    1.0000 </r>
       <r>    0.2215    1.0000 </r>
       <r>    0.3465    1.0000 </r>
       <r>    0.5968    1.0000 </r>
       <r>    0.7883    1.0000 </r>
       <r>    0.9850    1.0000 </r>
       <r>    0.9993    1.0000 </r>
       <r>    2.3435    0.0000 </r>
       <r>    4.9451    0.0000 </r>
       <r>    5.1608    0.0000 </r>
       <r>    6.3578    0.0000 </r>
       <r>    6.5871    0.0000 </r>
       <r>    7.2675    0.0000 </r>
       <r>    7.9687    0.0000 </r>
       <r>    8.7017    0.0000 </r>
       <r>    9.0598    0.0000 </r>
       <r>    9.4649    0.0000 </r>
       <r>    9.5814    0.0000 </r>
       <r>    9.6532    0.0000 </r>
       <r>   10.7444    0.0000 </r>
       <r>   11.2703    0.0000 </r>
       <r>   11.9674    0.0000 </r>
       <r>   12.0182    0.0000 </r>
       <r>   12.2958    0.0000 </r>
       <r>   12.4250    0.0000 </r>
       <r>   12.4489    0.0000 </r>
       <r>   12.5661    0.0000 </r>
       <r>   12.9923    0.0000 </r>
       <r>   13.7939    0.0000 </r>
       <r>   13.8814    0.0000 </r>
       <r>   14.4185    0.0000 </r>
       <r>   15.1036    0.0000 </r>
       <r>   15.4045    0.0000 </r>
       <r>   15.8615    0.0000 </r>
      </set>
      <set comment="kpoint 17">
       <r>  -12.5561    1.0000 </r>
       <r>  -11.5432    1.0000 </r>
       <r>   -8.5384    1.0000 </r>
       <r>   -8.2902    1.0000 </r>
       <r>   -5.8445    1.0000 </r>
       <r>   -5.5754    1.0000 </r>
       <r>   -5.2716    1.0000 </r>
       <r>   -4.6795    1.0000 </r>
       <r>   -4.4942    1.0000 </r>
       <r>   -3.6553    1.0000 </r>
       <r>   -3.0658    1.0000 </r>
       <r>   -1.3808    1.0000 </r>
       <r>   -1.1609    1.0000 </r>
       <r>   -1.0150    1.0000 </r>
       <r>   -0.1941    1.0000 </r>
       <r>    0.2066    1.0000 </r>
       <r>    0.2788    1.0000 </r>
       <r>    0.5761    1.0000 </r>
       <r>    0.6670    1.0000 </r>
       <r>    0.9197    1.0000 </r>
       <r>    0.9578    1.0000 </r>
       <r>    2.2058    0.0000 </r>
       <r>    5.0412    0.0000 </r>
       <r>    5.4925    0.0000 </r>
       <r>    6.3040    0.0000 </r>
       <r>    6.7189    0.0000 </r>
       <r>    7.4033    0.0000 </r>
       <r>    7.9264    0.0000 </r>
       <r>    8.6352    0.0000 </r>
       <r>    9.1760    0.0000 </r>
       <r>    9.4292    0.0000 </r>
       <r>    9.7915    0.0000 </r>
       <r>    9.8974    0.0000 </r>
       <r>   10.3365    0.0000 </r>
       <r>   10.7080    0.0000 </r>
       <r>   11.7061    0.0000 </r>
       <r>   11.8863    0.0000 </r>
       <r>   12.2462    0.0000 </r>
       <r>   12.4799    0.0000 </r>
       <r>   12.6432    0.0000 </r>
       <r>   12.9620    0.0000 </r>
       <r>   13.3925    0.0000 </r>
       <r>   13.7920    0.0000 </r>
       <r>   13.9250    0.0000 </r>
       <r>   14.2554    0.0000 </r>
       <r>   15.0782    0.0000 </r>
       <r>   15.4337    0.0000 </r>
       <r>   15.7323    0.0000 </r>
      </set>
      <set comment="kpoint 18">
       <r>  -12.4714    1.0000 </r>
       <r>  -11.6747    1.0000 </r>
       <r>   -8.4935    1.0000 </r>
       <r>   -8.2792    1.0000 </r>
       <r>   -5.8070    1.0000 </r>
       <r>   -5.6594    1.0000 </r>
       <r>   -5.4201    1.0000 </r>
       <r>   -4.6537    1.0000 </r>
       <r>   -4.6166    1.0000 </r>
       <r>   -3.1157    1.0000 </r>
       <r>   -2.5957    1.0000 </r>
       <r>   -1.8647    1.0000 </r>
       <r>   -1.1003    1.0000 </r>
       <r>   -1.0339    1.0000 </r>
       <r>   -0.2122    1.0000 </r>
       <r>   -0.0476    1.0000 </r>
       <r>    0.3172    1.0000 </r>
       <r>    0.5082    1.0000 </r>
       <r>    0.5246    1.0000 </r>
       <r>    0.8312    1.0000 </r>
       <r>    0.8908    1.0000 </r>
       <r>    1.9456    0.0465 </r>
       <r>    5.3669    0.0000 </r>
       <r>    5.9674    0.0000 </r>
       <r>    6.2767    0.0000 </r>
       <r>    6.8320    0.0000 </r>
       <r>    7.5712    0.0000 </r>
       <r>    7.9467    0.0000 </r>
       <r>    8.5609    0.0000 </r>
       <r>    9.3651    0.0000 </r>
       <r>    9.3959    0.0000 </r>
       <r>    9.5929    0.0000 </r>
       <r>   10.0446    0.0000 </r>
       <r>   10.1130    0.0000 </r>
       <r>   10.5604    0.0000 </r>
       <r>   11.3876    0.0000 </r>
       <r>   11.3986    0.0000 </r>
       <r>   12.2397    0.0000 </r>
       <r>   12.7422    0.0000 </r>
       <r>   12.9572    0.0000 </r>
       <r>   13.1814    0.0000 </r>
       <r>   13.5232    0.0000 </r>
       <r>   13.7657    0.0000 </r>
       <r>   14.0175    0.0000 </r>
       <r>   14.3911    0.0000 </r>
       <r>   15.1698    0.0000 </r>
       <r>   15.3601    0.0000 </r>
       <r>   15.9935    0.0000 </r>
      </set>
      <set comment="kpoint 19">
       <r>  -12.3494    1.0000 </r>
       <r>  -11.8423    1.0000 </r>
       <r>   -8.4305    1.0000 </r>
       <r>   -8.2811    1.0000 </r>
       <r>   -5.8812    1.0000 </r>
       <r>   -5.8684    1.0000 </r>
       <r>   -5.3068    1.0000 </r>
       <r>   -4.7811    1.0000 </r>
       <r>   -4.3366    1.0000 </r>
       <r>   -2.7619    1.0000 </r>
       <r>   -2.2766    1.0000 </r>
       <r>   -2.1198    1.0000 </r>
       <r>   -1.0420    1.0000 </r>
       <r>   -1.0155    1.0000 </r>
       <r>   -0.3720    1.0000 </r>
       <r>   -0.3273    1.0000 </r>
       <r>    0.1537    1.0000 </r>
       <r>    0.3774    1.0000 </r>
       <r>    0.6639    1.0000 </r>
       <r>    0.7753    1.0000 </r>
       <r>    0.8245    1.0000 </r>
       <r>    1.6065    1.0000 </r>
       <r>    5.8943    0.0000 </r>
       <r>    6.3086    0.0000 </r>
       <r>    6.5465    0.0000 </r>
       <r>    6.7839    0.0000 </r>
       <r>    7.5709    0.0000 </r>
       <r>    8.0048    0.0000 </r>
       <r>    8.5147    0.0000 </r>
       <r>    8.9162    0.0000 </r>
       <r>    9.2724    0.0000 </r>
       <r>    9.5843    0.0000 </r>
       <r>    9.9052    0.0000 </r>
       <r>   10.3457    0.0000 </r>
       <r>   10.7952    0.0000 </r>
       <r>   11.0940    0.0000 </r>
       <r>   11.4434    0.0000 </r>
       <r>   12.1690    0.0000 </r>
       <r>   12.4230    0.0000 </r>
       <r>   13.1605    0.0000 </r>
       <r>   13.2809    0.0000 </r>
       <r>   13.6608    0.0000 </r>
       <r>   13.9020    0.0000 </r>
       <r>   14.1527    0.0000 </r>
       <r>   14.7592    0.0000 </r>
       <r>   14.9939    0.0000 </r>
       <r>   15.4353    0.0000 </r>
       <r>   16.3287    0.0000 </r>
      </set>
      <set comment="kpoint 20">
       <r>  -12.1964    1.0000 </r>
       <r>  -12.0227    1.0000 </r>
       <r>   -8.3624    1.0000 </r>
       <r>   -8.3083    1.0000 </r>
       <r>   -5.9746    1.0000 </r>
       <r>   -5.9666    1.0000 </r>
       <r>   -5.1455    1.0000 </r>
       <r>   -4.9640    1.0000 </r>
       <r>   -3.8274    1.0000 </r>
       <r>   -3.2326    1.0000 </r>
       <r>   -1.9803    1.0000 </r>
       <r>   -1.8255    1.0000 </r>
       <r>   -0.9787    1.0000 </r>
       <r>   -0.9196    1.0000 </r>
       <r>   -0.6698    1.0000 </r>
       <r>   -0.6267    1.0000 </r>
       <r>    0.1292    1.0000 </r>
       <r>    0.2296    1.0000 </r>
       <r>    0.7598    1.0000 </r>
       <r>    0.7757    1.0000 </r>
       <r>    0.9271    1.0000 </r>
       <r>    1.2501    1.0000 </r>
       <r>    6.4419    0.0000 </r>
       <r>    6.5554    0.0000 </r>
       <r>    6.6212    0.0000 </r>
       <r>    7.1367    0.0000 </r>
       <r>    7.2068    0.0000 </r>
       <r>    7.6937    0.0000 </r>
       <r>    8.5035    0.0000 </r>
       <r>    8.5677    0.0000 </r>
       <r>    9.4666    0.0000 </r>
       <r>    9.6401    0.0000 </r>
       <r>    9.8453    0.0000 </r>
       <r>   10.1420    0.0000 </r>
       <r>   10.8594    0.0000 </r>
       <r>   11.2341    0.0000 </r>
       <r>   11.8702    0.0000 </r>
       <r>   11.9454    0.0000 </r>
       <r>   12.2568    0.0000 </r>
       <r>   13.1478    0.0000 </r>
       <r>   13.4388    0.0000 </r>
       <r>   13.6240    0.0000 </r>
       <r>   13.8403    0.0000 </r>
       <r>   13.9487    0.0000 </r>
       <r>   15.1021    0.0000 </r>
       <r>   15.1193    0.0000 </r>
       <r>   15.6685    0.0000 </r>
       <r>   15.9706    0.0000 </r>
      </set>
      <set comment="kpoint 21">
       <r>  -12.5393    1.0000 </r>
[...]
       <r>   -2.3150    1.0000 </r>
       <r>   -2.1458    1.0000 </r>
       <r>   -1.9816    1.0000 </r>
       <r>   -1.4897    1.0000 </r>
       <r>   -0.7364    1.0000 </r>
       <r>   -0.2002    1.0000 </r>
       <r>    0.1670    1.0000 </r>
       <r>    0.3862    1.0000 </r>
       <r>    0.5149    1.0000 </r>
       <r>    1.5905    1.0000 </r>
       <r>    1.6175    1.0000 </r>
       <r>    1.8730    0.6452 </r>
       <r>    5.5127    0.0000 </r>
       <r>    6.1472    0.0000 </r>
       <r>    6.6679    0.0000 </r>
       <r>    7.2188    0.0000 </r>
       <r>    7.7824    0.0000 </r>
       <r>    8.2256    0.0000 </r>
       <r>    8.9922    0.0000 </r>
       <r>    9.1515    0.0000 </r>
       <r>    9.7210    0.0000 </r>
       <r>    9.9566    0.0000 </r>
       <r>   10.5879    0.0000 </r>
       <r>   11.0315    0.0000 </r>
       <r>   11.2061    0.0000 </r>
       <r>   11.4771    0.0000 </r>
       <r>   11.5669    0.0000 </r>
       <r>   11.9504    0.0000 </r>
       <r>   12.8378    0.0000 </r>
       <r>   13.1441    0.0000 </r>
       <r>   13.3682    0.0000 </r>
       <r>   13.7485    0.0000 </r>
       <r>   13.8723    0.0000 </r>
       <r>   14.1559    0.0000 </r>
       <r>   14.4768    0.0000 </r>
       <r>   14.9670    0.0000 </r>
       <r>   15.0938    0.0000 </r>
       <r>   15.3941    0.0000 </r>
      </set>
      <set comment="kpoint 175">
       <r>  -12.0212    1.0000 </r>
       <r>  -11.8820    1.0000 </r>
       <r>   -8.5469    1.0000 </r>
       <r>   -8.4345    1.0000 </r>
       <r>   -5.9264    1.0000 </r>
       <r>   -5.8203    1.0000 </r>
       <r>   -4.8912    1.0000 </r>
       <r>   -4.5677    1.0000 </r>
       <r>   -4.4128    1.0000 </r>
       <r>   -3.9747    1.0000 </r>
       <r>   -2.1979    1.0000 </r>
       <r>   -2.1362    1.0000 </r>
       <r>   -2.0572    1.0000 </r>
       <r>   -1.7728    1.0000 </r>
       <r>   -0.2182    1.0000 </r>
       <r>   -0.0045    1.0000 </r>
       <r>    0.3892    1.0000 </r>
       <r>    0.4772    1.0000 </r>
       <r>    0.5499    1.0000 </r>
       <r>    0.8759    1.0000 </r>
       <r>    1.6315    1.0000 </r>
       <r>    1.7310    1.0000 </r>
       <r>    5.8596    0.0000 </r>
       <r>    6.0451    0.0000 </r>
       <r>    6.8700    0.0000 </r>
       <r>    7.4072    0.0000 </r>
       <r>    7.4741    0.0000 </r>
       <r>    7.5768    0.0000 </r>
       <r>    9.3969    0.0000 </r>
       <r>    9.5809    0.0000 </r>
       <r>    9.7896    0.0000 </r>
       <r>    9.9673    0.0000 </r>
       <r>   10.4641    0.0000 </r>
       <r>   10.8138    0.0000 </r>
       <r>   11.2359    0.0000 </r>
       <r>   11.5086    0.0000 </r>
       <r>   11.5183    0.0000 </r>
       <r>   11.6123    0.0000 </r>
       <r>   13.0821    0.0000 </r>
       <r>   13.1881    0.0000 </r>
       <r>   13.7202    0.0000 </r>
       <r>   14.0539    0.0000 </r>
       <r>   14.1881    0.0000 </r>
       <r>   14.2903    0.0000 </r>
       <r>   14.5931    0.0000 </r>
       <r>   14.7370    0.0000 </r>
       <r>   14.8853    0.0000 </r>
       <r>   15.0467    0.0000 </r>
      </set>
     </set>
    </set>
   </array>
  </eigenvalues>
  <separator name="orbital magnetization" >
   <v name="MAGDIPOLOUT">      0.00000000      0.00000000      0.00000000</v>
  </separator>
  <dos>
   <i name="efermi">      1.88617203 </i>
   <total>
    <array>
     <dimension dim="1">gridpoints</dimension>
     <dimension dim="2">spin</dimension>
     <field>energy</field>
     <field>total</field>
     <field>integrated</field>
     <set>
      <set comment="spin 1">
       <r>   -14.1872     0.0000     0.0000 </r>
       <r>   -14.0800     0.0000     0.0000 </r>
       <r>   -13.9728     0.0000     0.0000 </r>
       <r>   -13.8656     0.0000     0.0000 </r>
       <r>   -13.7584     0.0000     0.0000 </r>
       <r>   -13.6512     0.0000     0.0000 </r>
       <r>   -13.5439     0.0000     0.0000 </r>
       <r>   -13.4367     0.0000     0.0000 </r>
       <r>   -13.3295     0.0000     0.0000 </r>
       <r>   -13.2223     0.0000     0.0000 </r>
       <r>   -13.1151     0.0000     0.0000 </r>
       <r>   -13.0078     0.0000     0.0000 </r>
       <r>   -12.9006     0.0000     0.0000 </r>
       <r>   -12.7934     0.0038     0.0004 </r>
       <r>   -12.6862     0.5086     0.0549 </r>
       <r>   -12.5790     2.3902     0.3112 </r>
       <r>   -12.4718     3.5647     0.6934 </r>
       <r>   -12.3645     4.3710     1.1621 </r>
       <r>   -12.2573     3.5377     1.5414 </r>
       <r>   -12.1501     2.7344     1.8346 </r>
       <r>   -12.0429     2.7506     2.1295 </r>
       <r>   -11.9357     2.5034     2.3979 </r>
       <r>   -11.8284     2.7705     2.6949 </r>
       <r>   -11.7212     3.4253     3.0622 </r>
       <r>   -11.6140     3.5328     3.4410 </r>
       <r>   -11.5068     3.1156     3.7750 </r>
       <r>   -11.3996     1.6692     3.9540 </r>
       <r>   -11.2924     0.4221     3.9992 </r>
       <r>   -11.1851     0.0073     4.0000 </r>
       <r>   -11.0779     0.0000     4.0000 </r>
       <r>   -10.9707     0.0000     4.0000 </r>
       <r>   -10.8635     0.0000     4.0000 </r>
       <r>   -10.7563     0.0000     4.0000 </r>
       <r>   -10.6490     0.0000     4.0000 </r>
       <r>   -10.5418     0.0000     4.0000 </r>
       <r>   -10.4346     0.0000     4.0000 </r>
       <r>   -10.3274     0.0000     4.0000 </r>
       <r>   -10.2202     0.0000     4.0000 </r>
       <r>   -10.1130     0.0000     4.0000 </r>
       <r>   -10.0057     0.0000     4.0000 </r>
       <r>    -9.8985     0.0000     4.0000 </r>
       <r>    -9.7913     0.0000     4.0000 </r>
       <r>    -9.6841     0.0000     4.0000 </r>
       <r>    -9.5769     0.0000     4.0000 </r>
       <r>    -9.4696     0.0000     4.0000 </r>
       <r>    -9.3624     0.0000     4.0000 </r>
       <r>    -9.2552     0.0000     4.0000 </r>
       <r>    -9.1480     0.0000     4.0000 </r>
       <r>    -9.0408     0.0000     4.0000 </r>
       <r>    -8.9336     0.0006     4.0001 </r>
       <r>    -8.8263     0.2750     4.0296 </r>
       <r>    -8.7191     2.0864     4.2533 </r>
       <r>    -8.6119     5.3245     4.8241 </r>
       <r>    -8.5047     6.9880     5.5734 </r>
       <r>    -8.3975     6.2966     6.2485 </r>
       <r>    -8.2902     5.3246     6.8194 </r>
       <r>    -8.1830     4.8359     7.3379 </r>
       <r>    -8.0758     3.8764     7.7535 </r>
       <r>    -7.9686     1.6674     7.9323 </r>
       <r>    -7.8614     0.5790     7.9944 </r>
       <r>    -7.7542     0.0526     8.0000 </r>
       <r>    -7.6469     0.0000     8.0000 </r>
       <r>    -7.5397     0.0000     8.0000 </r>
       <r>    -7.4325     0.0000     8.0000 </r>
       <r>    -7.3253     0.0000     8.0000 </r>
       <r>    -7.2181     0.0000     8.0000 </r>
       <r>    -7.1108     0.0000     8.0000 </r>
       <r>    -7.0036     0.0004     8.0000 </r>
       <r>    -6.8964     0.1126     8.0121 </r>
       <r>    -6.7892     0.2578     8.0398 </r>
       <r>    -6.6820     0.4256     8.0854 </r>
       <r>    -6.5748     0.7656     8.1675 </r>
       <r>    -6.4675     0.8511     8.2587 </r>
       <r>    -6.3603     1.4450     8.4137 </r>
       <r>    -6.2531     1.9623     8.6241 </r>
       <r>    -6.1459     3.0559     8.9517 </r>
       <r>    -6.0387     3.7834     9.3574 </r>
       <r>    -5.9314     4.1119     9.7982 </r>
       <r>    -5.8242     4.0474    10.2322 </r>
       <r>    -5.7170     3.8609    10.6462 </r>
       <r>    -5.6098     4.0719    11.0827 </r>
       <r>    -5.5026     4.2212    11.5353 </r>
       <r>    -5.3954     4.5423    12.0223 </r>
       <r>    -5.2881     4.5963    12.5151 </r>
       <r>    -5.1809     4.4903    12.9966 </r>
       <r>    -5.0737     3.8688    13.4114 </r>
       <r>    -4.9665     3.2269    13.7574 </r>
       <r>    -4.8593     2.9552    14.0742 </r>
       <r>    -4.7520     2.3313    14.3242 </r>
       <r>    -4.6448     2.8929    14.6344 </r>
       <r>    -4.5376     3.3686    14.9955 </r>
       <r>    -4.4304     3.4654    15.3671 </r>
       <r>    -4.3232     3.3355    15.7247 </r>
       <r>    -4.2160     2.9551    16.0415 </r>
       <r>    -4.1087     2.9053    16.3530 </r>
       <r>    -4.0015     2.9467    16.6690 </r>
       <r>    -3.8943     2.8595    16.9756 </r>
       <r>    -3.7871     3.1145    17.3095 </r>
       <r>    -3.6799     2.8804    17.6183 </r>
       <r>    -3.5726     2.7019    17.9080 </r>
       <r>    -3.4654     3.0662    18.2368 </r>
       <r>    -3.3582     2.6389    18.5197 </r>
       <r>    -3.2510     2.8581    18.8262 </r>
       <r>    -3.1438     2.7485    19.1209 </r>
       <r>    -3.0365     2.7365    19.4143 </r>
       <r>    -2.9293     3.0471    19.7410 </r>
       <r>    -2.8221     2.9735    20.0598 </r>
       <r>    -2.7149     2.4312    20.3204 </r>
       <r>    -2.6077     2.6518    20.6048 </r>
       <r>    -2.5005     3.0168    20.9282 </r>
       <r>    -2.3932     2.9886    21.2487 </r>
       <r>    -2.2860     3.1886    21.5905 </r>
       <r>    -2.1788     4.0093    22.0204 </r>
       <r>    -2.0716     3.6563    22.4124 </r>
       <r>    -1.9644     3.2683    22.7629 </r>
       <r>    -1.8571     5.1078    23.3105 </r>
       <r>    -1.7499     5.5813    23.9089 </r>
       <r>    -1.6427     5.6026    24.5096 </r>
       <r>    -1.5355     6.1731    25.1715 </r>
       <r>    -1.4283     6.1062    25.8262 </r>
       <r>    -1.3211     5.5799    26.4245 </r>
       <r>    -1.2138     4.6855    26.9268 </r>
       <r>    -1.1066     6.4928    27.6230 </r>
       <r>    -0.9994     3.9997    28.0518 </r>
       <r>    -0.8922     2.2680    28.2950 </r>
       <r>    -0.7850     2.6978    28.5842 </r>
       <r>    -0.6777     2.8760    28.8926 </r>
       <r>    -0.5705     4.5068    29.3758 </r>
       <r>    -0.4633     6.8577    30.1111 </r>
       <r>    -0.3561     5.6609    30.7180 </r>
       <r>    -0.2489     6.7047    31.4369 </r>
       <r>    -0.1417     6.3534    32.1181 </r>
       <r>    -0.0344     6.7460    32.8414 </r>
       <r>     0.0728     6.7655    33.5668 </r>
       <r>     0.1800     6.2852    34.2407 </r>
       <r>     0.2872     8.7886    35.1830 </r>
       <r>     0.3944     7.9867    36.0393 </r>
       <r>     0.5017     8.6954    36.9716 </r>
       <r>     0.6089     5.2746    37.5371 </r>
       <r>     0.7161     2.9441    37.8528 </r>
       <r>     0.8233     3.2869    38.2052 </r>
       <r>     0.9305     3.5880    38.5899 </r>
       <r>     1.0377     3.5617    38.9718 </r>
       <r>     1.1450     2.7911    39.2710 </r>
       <r>     1.2522     3.3853    39.6340 </r>
       <r>     1.3594     4.4920    40.1156 </r>
       <r>     1.4666     3.7814    40.5211 </r>
       <r>     1.5738     3.7193    40.9198 </r>
       <r>     1.6811     4.5777    41.4107 </r>
       <r>     1.7883     3.2418    41.7582 </r>
       <r>     1.8955     2.4791    42.0240 </r>
       <r>     2.0027     2.6610    42.3094 </r>
       <r>     2.1099     2.0917    42.5336 </r>
       <r>     2.2171     2.6524    42.8180 </r>
       <r>     2.3244     2.5734    43.0939 </r>
       <r>     2.4316     1.9372    43.3016 </r>
       <r>     2.5388     0.8571    43.3935 </r>
       <r>     2.6460     0.3779    43.4340 </r>
       <r>     2.7532     0.5722    43.4954 </r>
       <r>     2.8605     0.4196    43.5404 </r>
       <r>     2.9677     0.3052    43.5731 </r>
       <r>     3.0749     0.7563    43.6542 </r>
       <r>     3.1821     1.0139    43.7629 </r>
       <r>     3.2893     0.5403    43.8208 </r>
       <r>     3.3965     0.0134    43.8223 </r>
       <r>     3.5038     0.1301    43.8362 </r>
       <r>     3.6110     0.3946    43.8785 </r>
       <r>     3.7182     0.3318    43.9141 </r>
       <r>     3.8254     0.3712    43.9539 </r>
       <r>     3.9326     0.4024    43.9971 </r>
       <r>     4.0399     0.0275    44.0000 </r>
       <r>     4.1471     0.0000    44.0000 </r>
       <r>     4.2543     0.0312    44.0034 </r>
       <r>     4.3615     0.1764    44.0223 </r>
       <r>     4.4687     0.4025    44.0654 </r>
       <r>     4.5759     0.4712    44.1159 </r>
       <r>     4.6832     0.6339    44.1839 </r>
       <r>     4.7904     0.8893    44.2793 </r>
       <r>     4.8976     0.8412    44.3695 </r>
       <r>     5.0048     0.8570    44.4613 </r>
       <r>     5.1120     1.2768    44.5982 </r>
       <r>     5.2193     1.1515    44.7217 </r>
       <r>     5.3265     1.6326    44.8967 </r>
       <r>     5.4337     2.1908    45.1316 </r>
       <r>     5.5409     2.4875    45.3983 </r>
       <r>     5.6481     2.7863    45.6971 </r>
       <r>     5.7553     3.3670    46.0581 </r>
       <r>     5.8626     3.2194    46.4033 </r>
       <r>     5.9698     4.3135    46.8658 </r>
       <r>     6.0770     4.7597    47.3761 </r>
       <r>     6.1842     4.0417    47.8094 </r>
       <r>     6.2914     4.6218    48.3050 </r>
       <r>     6.3987     4.1537    48.7503 </r>
       <r>     6.5059     4.0153    49.1808 </r>
       <r>     6.6131     4.4803    49.6612 </r>
       <r>     6.7203     3.2237    50.0068 </r>
       <r>     6.8275     4.0000    50.4357 </r>
       <r>     6.9347     4.6138    50.9304 </r>
       <r>     7.0420     4.5529    51.4185 </r>
       <r>     7.1492     4.3421    51.8841 </r>
       <r>     7.2564     5.6008    52.4846 </r>
       <r>     7.3636     4.9210    53.0122 </r>
       <r>     7.4708     4.4552    53.4899 </r>
       <r>     7.5781     4.1883    53.9390 </r>
       <r>     7.6853     3.5655    54.3212 </r>
       <r>     7.7925     3.1238    54.6562 </r>
       <r>     7.8997     3.0079    54.9787 </r>
       <r>     8.0069     2.9807    55.2983 </r>
       <r>     8.1141     4.1674    55.7451 </r>
       <r>     8.2214     3.8913    56.1623 </r>
       <r>     8.3286     3.6852    56.5574 </r>
       <r>     8.4358     3.9959    56.9859 </r>
       <r>     8.5430     4.2107    57.4373 </r>
       <r>     8.6502     4.4610    57.9156 </r>
       <r>     8.7575     4.2261    58.3687 </r>
       <r>     8.8647     5.2740    58.9342 </r>
       <r>     8.9719     4.9365    59.4635 </r>
       <r>     9.0791     5.2947    60.0312 </r>
       <r>     9.1863     5.2338    60.5923 </r>
       <r>     9.2935     4.9718    61.1254 </r>
       <r>     9.4008     4.6871    61.6280 </r>
       <r>     9.5080     4.3652    62.0960 </r>
       <r>     9.6152     5.1095    62.6438 </r>
       <r>     9.7224     5.0243    63.1825 </r>
       <r>     9.8296     5.3014    63.7509 </r>
       <r>     9.9369     4.4727    64.2305 </r>
       <r>    10.0441     3.6342    64.6201 </r>
       <r>    10.1513     5.1850    65.1761 </r>
       <r>    10.2585     4.7109    65.6811 </r>
       <r>    10.3657     4.1193    66.1228 </r>
       <r>    10.4729     5.4233    66.7043 </r>
       <r>    10.5802     5.7948    67.3256 </r>
       <r>    10.6874     4.0671    67.7617 </r>
       <r>    10.7946     3.8814    68.1778 </r>
       <r>    10.9018     3.2369    68.5249 </r>
       <r>    11.0090     4.6854    69.0272 </r>
       <r>    11.1163     5.4771    69.6145 </r>
       <r>    11.2235     6.2051    70.2798 </r>
       <r>    11.3307     5.9823    70.9212 </r>
       <r>    11.4379     5.2808    71.4874 </r>
       <r>    11.5451     4.3019    71.9486 </r>
       <r>    11.6523     4.4746    72.4284 </r>
       <r>    11.7596     4.9363    72.9576 </r>
       <r>    11.8668     4.8101    73.4734 </r>
       <r>    11.9740     6.0324    74.1202 </r>
       <r>    12.0812     5.9683    74.7601 </r>
       <r>    12.1884     5.9799    75.4012 </r>
       <r>    12.2957     5.6196    76.0037 </r>
       <r>    12.4029     4.9962    76.5394 </r>
       <r>    12.5101     5.6881    77.1493 </r>
       <r>    12.6173     5.9924    77.7918 </r>
       <r>    12.7245     6.0173    78.4370 </r>
       <r>    12.8317     5.8808    79.0675 </r>
       <r>    12.9390     5.8672    79.6966 </r>
       <r>    13.0462     5.5961    80.2966 </r>
       <r>    13.1534     6.3548    80.9779 </r>
       <r>    13.2606     6.2452    81.6475 </r>
       <r>    13.3678     5.3989    82.2264 </r>
       <r>    13.4751     6.1282    82.8834 </r>
       <r>    13.5823     5.3447    83.4565 </r>
       <r>    13.6895     4.8101    83.9722 </r>
       <r>    13.7967     6.1465    84.6312 </r>
       <r>    13.9039     5.5085    85.2218 </r>
       <r>    14.0111     5.3485    85.7953 </r>
       <r>    14.1184     5.4696    86.3817 </r>
       <r>    14.2256     4.6753    86.8830 </r>
       <r>    14.3328     4.9111    87.4096 </r>
       <r>    14.4400     5.0181    87.9476 </r>
       <r>    14.5472     4.9604    88.4794 </r>
       <r>    14.6545     5.2731    89.0448 </r>
       <r>    14.7617     5.1611    89.5982 </r>
       <r>    14.8689     4.0874    90.0364 </r>
       <r>    14.9761     5.0901    90.5822 </r>
       <r>    15.0833     6.1873    91.2456 </r>
       <r>    15.1905     5.6304    91.8492 </r>
       <r>    15.2978     5.6896    92.4593 </r>
       <r>    15.4050     6.0244    93.1052 </r>
       <r>    15.5122     5.7298    93.7195 </r>
       <r>    15.6194     5.9465    94.3571 </r>
       <r>    15.7266     4.5800    94.8482 </r>
       <r>    15.8339     2.4627    95.1122 </r>
       <r>    15.9411     2.7093    95.4027 </r>
       <r>    16.0483     1.8486    95.6009 </r>
       <r>    16.1555     1.1432    95.7235 </r>
       <r>    16.2627     0.8802    95.8178 </r>
       <r>    16.3699     0.7081    95.8938 </r>
       <r>    16.4772     0.8116    95.9808 </r>
       <r>    16.5844     0.1776    95.9998 </r>
       <r>    16.6916     0.0017    96.0000 </r>
       <r>    16.7988     0.0000    96.0000 </r>
       <r>    16.9060     0.0000    96.0000 </r>
       <r>    17.0133     0.0000    96.0000 </r>
       <r>    17.1205     0.0000    96.0000 </r>
       <r>    17.2277     0.0000    96.0000 </r>
       <r>    17.3349     0.0000    96.0000 </r>
       <r>    17.4421     0.0000    96.0000 </r>
       <r>    17.5494     0.0000    96.0000 </r>
       <r>    17.6566     0.0000    96.0000 </r>
       <r>    17.7638     0.0000    96.0000 </r>
       <r>    17.8710     0.0000    96.0000 </r>
       <r>    17.9782     0.0000    96.0000 </r>
      </set>
     </set>
    </array>
   </total>
  </dos>
 </calculation>
 <structure name="finalpos" >
  <crystal>
   <varray name="basis" >
    <v>       5.69700000       0.00000000       0.00000000 </v>
    <v>       0.00000000       4.04790000       0.00000000 </v>
    <v>       0.00000000       0.00000000       6.20420000 </v>
   </varray>
   <i name="volume">    143.07435078 </i>
   <varray name="rec_basis" >
    <v>       0.17553098       0.00000000       0.00000000 </v>
    <v>       0.00000000       0.24704168       0.00000000 </v>
    <v>       0.00000000       0.00000000       0.16118114 </v>
   </varray>
  </crystal>
  <varray name="positions" >
   <v>       0.52123000       0.50000000       0.63796000 </v>
   <v>       0.47877000       0.50000000       0.36204000 </v>
   <v>       0.97877000       0.50000000       0.63796000 </v>
   <v>       0.02123000       0.50000000       0.36204000 </v>
   <v>       0.60090000       0.50000000       0.89991000 </v>
   <v>       0.39910000       0.50000000       0.10009000 </v>
   <v>       0.89910000       0.50000000       0.89991000 </v>
   <v>       0.10090000       0.50000000       0.10009000 </v>
   <v>       0.75000000       0.79171000       0.72973000 </v>
   <v>       0.25000000       0.20829000       0.27027000 </v>
   <v>       0.75000000       0.20829000       0.72973000 </v>
   <v>       0.25000000       0.79171000       0.27027000 </v>
   <v>       0.25000000       0.50000000       0.52367000 </v>
   <v>       0.75000000       0.50000000       0.47633000 </v>
  </varray>
 </structure>
</modeling>
