<?xml version="1.0" encoding="ISO-8859-1"?>
<modeling>
 <generator>
  <i name="program" type="string">vasp </i>
  <i name="version" type="string">6.4.3  </i>
  <i name="subversion" type="string">19Mar24 (build May 31 2024 16:31:43) complex                          parallel </i>
  <i name="platform" type="string">LinuxIFC </i>
  <i name="date" type="string">2024 10 30 </i>
  <i name="time" type="string">19:31:18 </i>
 </generator>
 <incar>
  <i type="string" name="SYSTEM">Kpoints</i>
  <i type="int" name="ISTART">     0</i>
  <i type="string" name="PREC">Accurate</i>
  <i type="string" name="ALGO">Normal</i>
  <i type="int" name="ISPIN">     1</i>
  <i type="int" name="ICHARG">     2</i>
  <i type="int" name="NELM">   100</i>
  <i type="int" name="IBRION">    -1</i>
  <i name="EDIFF">      0.00000100</i>
  <i name="EDIFFG">     -0.00100000</i>
  <i type="int" name="NSW">     0</i>
  <i type="int" name="ISIF">     2</i>
  <i name="ENCUT">    240.00000000</i>
  <i name="POTIM">      0.50000000</i>
  <i type="int" name="ISMEAR">     0</i>
  <i name="SIGMA">      0.05000000</i>
  <i type="logical" name="LWAVE"> F  </i>
  <i type="logical" name="LCHARG"> F  </i>
  <i type="string" name="GGA">PE</i>
 </incar>
 <primitive_cell>
  <structure name="primitive_cell" >
   <crystal>
    <varray name="basis" >
     <v>       5.69700000       0.00000000       0.00000000 </v>
     <v>       0.00000000       4.04790000       0.00000000 </v>
     <v>       0.00000000       0.00000000       6.20420000 </v>
    </varray>
    <i name="volume">    143.07435078 </i>
    <varray name="rec_basis" >
     <v>       0.17553098       0.00000000       0.00000000 </v>
     <v>       0.00000000       0.24704168       0.00000000 </v>
     <v>       0.00000000       0.00000000       0.16118114 </v>
    </varray>
   </crystal>
   <varray name="positions" >
    <v>       0.52123000       0.50000000       0.63796000 </v>
    <v>       0.47877000       0.50000000       0.36204000 </v>
    <v>       0.97877000       0.50000000       0.63796000 </v>
    <v>       0.02123000       0.50000000       0.36204000 </v>
    <v>       0.60090000       0.50000000       0.89991000 </v>
    <v>       0.39910000       0.50000000       0.10009000 </v>
    <v>       0.89910000       0.50000000       0.89991000 </v>
    <v>       0.10090000       0.50000000       0.10009000 </v>
    <v>       0.75000000       0.79171000       0.72973000 </v>
    <v>       0.25000000       0.20829000       0.27027000 </v>
    <v>       0.75000000       0.20829000       0.72973000 </v>
    <v>       0.25000000       0.79171000       0.27027000 </v>
    <v>       0.25000000       0.50000000       0.52367000 </v>
    <v>       0.75000000       0.50000000       0.47633000 </v>
   </varray>
  </structure>
  <varray name="primitive_index" >
   <v type="int" >        1 </v>
   <v type="int" >        2 </v>
   <v type="int" >        3 </v>
   <v type="int" >        4 </v>
   <v type="int" >        5 </v>
   <v type="int" >        6 </v>
   <v type="int" >        7 </v>
   <v type="int" >        8 </v>
   <v type="int" >        9 </v>
   <v type="int" >       10 </v>
   <v type="int" >       11 </v>
   <v type="int" >       12 </v>
   <v type="int" >       13 </v>
   <v type="int" >       14 </v>
  </varray>
 </primitive_cell>
 <kpoints>
  <generation param="Monkhorst-Pack">
   <v type="int" name="divisions">      10       14        9 </v>
   <v name="usershift">      0.00000000       0.00000000       0.00000000 </v>
   <v name="genvec1">      0.10000000       0.00000000       0.00000000 </v>
   <v name="genvec2">      0.00000000       0.07142857       0.00000000 </v>
   <v name="genvec3">      0.00000000       0.00000000       0.11111111 </v>
   <v name="shift">      0.50000000       0.50000000       0.00000000 </v>
  </generation>
  <varray name="kpointlist" >
   <v>       0.05000000       0.03571429       0.00000000 </v>
   <v>       0.15000000       0.03571429       0.00000000 </v>
   <v>       0.25000000       0.03571429       0.00000000 </v>
   <v>       0.35000000       0.03571429       0.00000000 </v>
   <v>       0.45000000       0.03571429       0.00000000 </v>
   <v>       0.05000000       0.10714286       0.00000000 </v>
   <v>       0.15000000       0.10714286       0.00000000 </v>
   <v>       0.25000000       0.10714286       0.00000000 </v>
   <v>       0.35000000       0.10714286       0.00000000 </v>
   <v>       0.45000000       0.10714286       0.00000000 </v>
   <v>       0.05000000       0.17857143       0.00000000 </v>
   <v>       0.15000000       0.17857143       0.00000000 </v>
   <v>       0.25000000       0.17857143       0.00000000 </v>
   <v>       0.35000000       0.17857143       0.00000000 </v>
   <v>       0.45000000       0.17857143       0.00000000 </v>
   <v>       0.05000000       0.25000000       0.00000000 </v>
   <v>       0.15000000       0.25000000       0.00000000 </v>
   <v>       0.25000000       0.25000000       0.00000000 </v>
   <v>       0.35000000       0.25000000       0.00000000 </v>
   <v>       0.45000000       0.25000000       0.00000000 </v>
   <v>       0.05000000       0.32142857       0.00000000 </v>
   <v>       0.15000000       0.32142857       0.00000000 </v>
   <v>       0.25000000       0.32142857       0.00000000 </v>
   <v>       0.35000000       0.32142857       0.00000000 </v>
   <v>       0.45000000       0.32142857       0.00000000 </v>
   <v>       0.05000000       0.39285714       0.00000000 </v>
   <v>       0.15000000       0.39285714       0.00000000 </v>
   <v>       0.25000000       0.39285714       0.00000000 </v>
   <v>       0.35000000       0.39285714       0.00000000 </v>
   <v>       0.45000000       0.39285714       0.00000000 </v>
   <v>       0.05000000       0.46428571       0.00000000 </v>
   <v>       0.15000000       0.46428571       0.00000000 </v>
   <v>       0.25000000       0.46428571       0.00000000 </v>
   <v>       0.35000000       0.46428571       0.00000000 </v>
   <v>       0.45000000       0.46428571       0.00000000 </v>
   <v>       0.05000000       0.03571429       0.11111111 </v>
   <v>       0.15000000       0.03571429       0.11111111 </v>
   <v>       0.25000000       0.03571429       0.11111111 </v>
   <v>       0.35000000       0.03571429       0.11111111 </v>
   <v>       0.45000000       0.03571429       0.11111111 </v>
   <v>       0.05000000       0.10714286       0.11111111 </v>
   <v>       0.15000000       0.10714286       0.11111111 </v>
   <v>       0.25000000       0.10714286       0.11111111 </v>
   <v>       0.35000000       0.10714286       0.11111111 </v>
   <v>       0.45000000       0.10714286       0.11111111 </v>
   <v>       0.05000000       0.17857143       0.11111111 </v>
   <v>       0.15000000       0.17857143       0.11111111 </v>
   <v>       0.25000000       0.17857143       0.11111111 </v>
   <v>       0.35000000       0.17857143       0.11111111 </v>
   <v>       0.45000000       0.17857143       0.11111111 </v>
   <v>       0.05000000       0.25000000       0.11111111 </v>
   <v>       0.15000000       0.25000000       0.11111111 </v>
   <v>       0.25000000       0.25000000       0.11111111 </v>
   <v>       0.35000000       0.25000000       0.11111111 </v>
   <v>       0.45000000       0.25000000       0.11111111 </v>
   <v>       0.05000000       0.32142857       0.11111111 </v>
   <v>       0.15000000       0.32142857       0.11111111 </v>
   <v>       0.25000000       0.32142857       0.11111111 </v>
   <v>       0.35000000       0.32142857       0.11111111 </v>
   <v>       0.45000000       0.32142857       0.11111111 </v>
   <v>       0.05000000       0.39285714       0.11111111 </v>
   <v>       0.15000000       0.39285714       0.11111111 </v>
   <v>       0.25000000       0.39285714       0.11111111 </v>
   <v>       0.35000000       0.39285714       0.11111111 </v>
   <v>       0.45000000       0.39285714       0.11111111 </v>
   <v>       0.05000000       0.46428571       0.11111111 </v>
   <v>       0.15000000       0.46428571       0.11111111 </v>
   <v>       0.25000000       0.46428571       0.11111111 </v>
   <v>       0.35000000       0.46428571       0.11111111 </v>
   <v>       0.45000000       0.46428571       0.11111111 </v>
   <v>       0.05000000       0.03571429       0.22222222 </v>
   <v>       0.15000000       0.03571429       0.22222222 </v>
   <v>       0.25000000       0.03571429       0.22222222 </v>
   <v>       0.35000000       0.03571429       0.22222222 </v>
   <v>       0.45000000       0.03571429       0.22222222 </v>
   <v>       0.05000000       0.10714286       0.22222222 </v>
   <v>       0.15000000       0.10714286       0.22222222 </v>
   <v>       0.25000000       0.10714286       0.22222222 </v>
   <v>       0.35000000       0.10714286       0.22222222 </v>
   <v>       0.45000000       0.10714286       0.22222222 </v>
   <v>       0.05000000       0.17857143       0.22222222 </v>
   <v>       0.15000000       0.17857143       0.22222222 </v>
   <v>       0.25000000       0.17857143       0.22222222 </v>
   <v>       0.35000000       0.17857143       0.22222222 </v>
   <v>       0.45000000       0.17857143       0.22222222 </v>
   <v>       0.05000000       0.25000000       0.22222222 </v>
   <v>       0.15000000       0.25000000       0.22222222 </v>
   <v>       0.25000000       0.25000000       0.22222222 </v>
   <v>       0.35000000       0.25000000       0.22222222 </v>
   <v>       0.45000000       0.25000000       0.22222222 </v>
   <v>       0.05000000       0.32142857       0.22222222 </v>
   <v>       0.15000000       0.32142857       0.22222222 </v>
   <v>       0.25000000       0.32142857       0.22222222 </v>
   <v>       0.35000000       0.32142857       0.22222222 </v>
   <v>       0.45000000       0.32142857       0.22222222 </v>
   <v>       0.05000000       0.39285714       0.22222222 </v>
   <v>       0.15000000       0.39285714       0.22222222 </v>
   <v>       0.25000000       0.39285714       0.22222222 </v>
   <v>       0.35000000       0.39285714       0.22222222 </v>
   <v>       0.45000000       0.39285714       0.22222222 </v>
   <v>       0.05000000       0.46428571       0.22222222 </v>
   <v>       0.15000000       0.46428571       0.22222222 </v>
   <v>       0.25000000       0.46428571       0.22222222 </v>
   <v>       0.35000000       0.46428571       0.22222222 </v>
   <v>       0.45000000       0.46428571       0.22222222 </v>
   <v>       0.05000000       0.03571429       0.33333333 </v>
   <v>       0.15000000       0.03571429       0.33333333 </v>
   <v>       0.25000000       0.03571429       0.33333333 </v>
   <v>       0.35000000       0.03571429       0.33333333 </v>
   <v>       0.45000000       0.03571429       0.33333333 </v>
   <v>       0.05000000       0.10714286       0.33333333 </v>
   <v>       0.15000000       0.10714286       0.33333333 </v>
   <v>       0.25000000       0.10714286       0.33333333 </v>
   <v>       0.35000000       0.10714286       0.33333333 </v>
   <v>       0.45000000       0.10714286       0.33333333 </v>
   <v>       0.05000000       0.17857143       0.33333333 </v>
   <v>       0.15000000       0.17857143       0.33333333 </v>
   <v>       0.25000000       0.17857143       0.33333333 </v>
   <v>       0.35000000       0.17857143       0.33333333 </v>
   <v>       0.45000000       0.17857143       0.33333333 </v>
   <v>       0.05000000       0.25000000       0.33333333 </v>
   <v>       0.15000000       0.25000000       0.33333333 </v>
   <v>       0.25000000       0.25000000       0.33333333 </v>
   <v>       0.35000000       0.25000000       0.33333333 </v>
   <v>       0.45000000       0.25000000       0.33333333 </v>
   <v>       0.05000000       0.32142857       0.33333333 </v>
   <v>       0.15000000       0.32142857       0.33333333 </v>
   <v>       0.25000000       0.32142857       0.33333333 </v>
   <v>       0.35000000       0.32142857       0.33333333 </v>
   <v>       0.45000000       0.32142857       0.33333333 </v>
   <v>       0.05000000       0.39285714       0.33333333 </v>
   <v>       0.15000000       0.39285714       0.33333333 </v>
   <v>       0.25000000       0.39285714       0.33333333 </v>
   <v>       0.35000000       0.39285714       0.33333333 </v>
   <v>       0.45000000       0.39285714       0.33333333 </v>
   <v>       0.05000000       0.46428571       0.33333333 </v>
   <v>       0.15000000       0.46428571       0.33333333 </v>
   <v>       0.25000000       0.46428571       0.33333333 </v>
   <v>       0.35000000       0.46428571       0.33333333 </v>
   <v>       0.45000000       0.46428571       0.33333333 </v>
   <v>       0.05000000       0.03571429       0.44444444 </v>
   <v>       0.15000000       0.03571429       0.44444444 </v>
   <v>       0.25000000       0.03571429       0.44444444 </v>
   <v>       0.35000000       0.03571429       0.44444444 </v>
   <v>       0.45000000       0.03571429       0.44444444 </v>
   <v>       0.05000000       0.10714286       0.44444444 </v>
   <v>       0.15000000       0.10714286       0.44444444 </v>
   <v>       0.25000000       0.10714286       0.44444444 </v>
   <v>       0.35000000       0.10714286       0.44444444 </v>
   <v>       0.45000000       0.10714286       0.44444444 </v>
   <v>       0.05000000       0.17857143       0.44444444 </v>
   <v>       0.15000000       0.17857143       0.44444444 </v>
   <v>       0.25000000       0.17857143       0.44444444 </v>
   <v>       0.35000000       0.17857143       0.44444444 </v>
   <v>       0.45000000       0.17857143       0.44444444 </v>
   <v>       0.05000000       0.25000000       0.44444444 </v>
   <v>       0.15000000       0.25000000       0.44444444 </v>
   <v>       0.25000000       0.25000000       0.44444444 </v>
   <v>       0.35000000       0.25000000       0.44444444 </v>
   <v>       0.45000000       0.25000000       0.44444444 </v>
   <v>       0.05000000       0.32142857       0.44444444 </v>
   <v>       0.15000000       0.32142857       0.44444444 </v>
   <v>       0.25000000       0.32142857       0.44444444 </v>
   <v>       0.35000000       0.32142857       0.44444444 </v>
   <v>       0.45000000       0.32142857       0.44444444 </v>
   <v>       0.05000000       0.39285714       0.44444444 </v>
   <v>       0.15000000       0.39285714       0.44444444 </v>
   <v>       0.25000000       0.39285714       0.44444444 </v>
   <v>       0.35000000       0.39285714       0.44444444 </v>
   <v>       0.45000000       0.39285714       0.44444444 </v>
   <v>       0.05000000       0.46428571       0.44444444 </v>
   <v>       0.15000000       0.46428571       0.44444444 </v>
   <v>       0.25000000       0.46428571       0.44444444 </v>
   <v>       0.35000000       0.46428571       0.44444444 </v>
   <v>       0.45000000       0.46428571       0.44444444 </v>
  </varray>
  <varray name="weights" >
   <v>       0.00317460 </v>
   <v>       0.00317460 </v>
   <v>       0.00317460 </v>
   <v>       0.00317460 </v>
   <v>       0.00317460 </v>
   <v>       0.00317460 </v>
   <v>       0.00317460 </v>
   <v>       0.00317460 </v>
   <v>       0.00317460 </v>
   <v>       0.00317460 </v>
   <v>       0.00317460 </v>
   <v>       0.00317460 </v>
   <v>       0.00317460 </v>
   <v>       0.00317460 </v>
   <v>       0.00317460 </v>
   <v>       0.00317460 </v>
   <v>       0.00317460 </v>
   <v>       0.00317460 </v>
   <v>       0.00317460 </v>
   <v>       0.00317460 </v>
   <v>       0.00317460 </v>
   <v>       0.00317460 </v>
   <v>       0.00317460 </v>
   <v>       0.00317460 </v>
   <v>       0.00317460 </v>
   <v>       0.00317460 </v>
   <v>       0.00317460 </v>
   <v>       0.00317460 </v>
   <v>       0.00317460 </v>
   <v>       0.00317460 </v>
   <v>       0.00317460 </v>
   <v>       0.00317460 </v>
   <v>       0.00317460 </v>
   <v>       0.00317460 </v>
   <v>       0.00317460 </v>
   <v>       0.00634921 </v>
   <v>       0.00634921 </v>
   <v>       0.00634921 </v>
   <v>       0.00634921 </v>
   <v>       0.00634921 </v>
   <v>       0.00634921 </v>
   <v>       0.00634921 </v>
   <v>       0.00634921 </v>
   <v>       0.00634921 </v>
   <v>       0.00634921 </v>
   <v>       0.00634921 </v>
   <v>       0.00634921 </v>
   <v>       0.00634921 </v>
   <v>       0.00634921 </v>
   <v>       0.00634921 </v>
   <v>       0.00634921 </v>
   <v>       0.00634921 </v>
   <v>       0.00634921 </v>
   <v>       0.00634921 </v>
   <v>       0.00634921 </v>
   <v>       0.00634921 </v>
   <v>       0.00634921 </v>
   <v>       0.00634921 </v>
   <v>       0.00634921 </v>
   <v>       0.00634921 </v>
   <v>       0.00634921 </v>
   <v>       0.00634921 </v>
   <v>       0.00634921 </v>
   <v>       0.00634921 </v>
   <v>       0.00634921 </v>
   <v>       0.00634921 </v>
   <v>       0.00634921 </v>
   <v>       0.00634921 </v>
   <v>       0.00634921 </v>
   <v>       0.00634921 </v>
   <v>       0.00634921 </v>
   <v>       0.00634921 </v>
   <v>       0.00634921 </v>
   <v>       0.00634921 </v>
   <v>       0.00634921 </v>
   <v>       0.00634921 </v>
   <v>       0.00634921 </v>
   <v>       0.00634921 </v>
   <v>       0.00634921 </v>
   <v>       0.00634921 </v>
   <v>       0.00634921 </v>
   <v>       0.00634921 </v>
   <v>       0.00634921 </v>
   <v>       0.00634921 </v>
   <v>       0.00634921 </v>
   <v>       0.00634921 </v>
   <v>       0.00634921 </v>
   <v>       0.00634921 </v>
   <v>       0.00634921 </v>
   <v>       0.00634921 </v>
   <v>       0.00634921 </v>
   <v>       0.00634921 </v>
   <v>       0.00634921 </v>
   <v>       0.00634921 </v>
   <v>       0.00634921 </v>
   <v>       0.00634921 </v>
   <v>       0.00634921 </v>
   <v>       0.00634921 </v>
   <v>       0.00634921 </v>
   <v>       0.00634921 </v>
   <v>       0.00634921 </v>
   <v>       0.00634921 </v>
   <v>       0.00634921 </v>
   <v>       0.00634921 </v>
   <v>       0.00634921 </v>
   <v>       0.00634921 </v>
   <v>       0.00634921 </v>
   <v>       0.00634921 </v>
   <v>       0.00634921 </v>
   <v>       0.00634921 </v>
   <v>       0.00634921 </v>
   <v>       0.00634921 </v>
   <v>       0.00634921 </v>
   <v>       0.00634921 </v>
   <v>       0.00634921 </v>
   <v>       0.00634921 </v>
   <v>       0.00634921 </v>
   <v>       0.00634921 </v>
   <v>       0.00634921 </v>
   <v>       0.00634921 </v>
   <v>       0.00634921 </v>
   <v>       0.00634921 </v>
   <v>       0.00634921 </v>
   <v>       0.00634921 </v>
   <v>       0.00634921 </v>
   <v>       0.00634921 </v>
   <v>       0.00634921 </v>
   <v>       0.00634921 </v>
   <v>       0.00634921 </v>
   <v>       0.00634921 </v>
   <v>       0.00634921 </v>
   <v>       0.00634921 </v>
   <v>       0.00634921 </v>
   <v>       0.00634921 </v>
   <v>       0.00634921 </v>
   <v>       0.00634921 </v>
   <v>       0.00634921 </v>
   <v>       0.00634921 </v>
   <v>       0.00634921 </v>
   <v>       0.00634921 </v>
   <v>       0.00634921 </v>
   <v>       0.00634921 </v>
   <v>       0.00634921 </v>
   <v>       0.00634921 </v>
   <v>       0.00634921 </v>
   <v>       0.00634921 </v>
   <v>       0.00634921 </v>
   <v>       0.00634921 </v>
   <v>       0.00634921 </v>
   <v>       0.00634921 </v>
   <v>       0.00634921 </v>
   <v>       0.00634921 </v>
   <v>       0.00634921 </v>
   <v>       0.00634921 </v>
   <v>       0.00634921 </v>
   <v>       0.00634921 </v>
   <v>       0.00634921 </v>
   <v>       0.00634921 </v>
   <v>       0.00634921 </v>
   <v>       0.00634921 </v>
   <v>       0.00634921 </v>
   <v>       0.00634921 </v>
   <v>       0.00634921 </v>
   <v>       0.00634921 </v>
   <v>       0.00634921 </v>
   <v>       0.00634921 </v>
   <v>       0.00634921 </v>
   <v>       0.00634921 </v>
   <v>       0.00634921 </v>
   <v>       0.00634921 </v>
   <v>       0.00634921 </v>
   <v>       0.00634921 </v>
   <v>       0.00634921 </v>
   <v>       0.00634921 </v>
   <v>       0.00634921 </v>
  </varray>
 </kpoints>
 <parameters>
  <separator name="general" >
   <i type="string" name="SYSTEM">Kpoints</i>
   <i type="logical" name="LCOMPAT"> F  </i>
  </separator>
  <separator name="electronic" >
   <i type="string" name="PREC">accura</i>
   <i name="ENMAX">    240.00000000</i>
   <i name="ENAUG">    535.51400000</i>
   <i name="EDIFF">      0.00000100</i>
   <i type="int" name="IALGO">    38</i>
   <i type="int" name="IWAVPR">    10</i>
   <i type="int" name="NBANDS">    48</i>
   <i type="int" name="NBANDSLOW">    -1</i>
   <i type="int" name="NBANDSHIGH">    -1</i>
   <i name="NELECT">     42.00000000</i>
   <i type="int" name="TURBO">     0</i>
   <i type="int" name="IRESTART">     0</i>
   <i type="int" name="NREBOOT">     0</i>
   <i type="int" name="NMIN">     0</i>
   <i name="EREF">      0.00000000</i>
   <separator name="electronic smearing" >
    <i type="int" name="ISMEAR">     0</i>
    <i name="SIGMA">      0.05000000</i>
    <i name="KSPACING">      0.50000000</i>
    <i type="logical" name="KGAMMA"> T  </i>
    <i type="logical" name="KBLOWUP"> T  </i>
   </separator>
   <separator name="electronic projectors" >
    <i type="logical" name="LREAL"> F  </i>
    <v name="ROPT">      0.00000000</v>
    <i type="int" name="LMAXPAW">  -100</i>
    <i type="int" name="LMAXMIX">     2</i>
    <i type="logical" name="NLSPLINE"> F  </i>
   </separator>
   <separator name="electronic startup" >
    <i type="int" name="ISTART">     0</i>
    <i type="int" name="ICHARG">     2</i>
    <i type="int" name="INIWAV">     1</i>
   </separator>
   <separator name="electronic spin" >
    <i type="int" name="ISPIN">     1</i>
    <i type="logical" name="LNONCOLLINEAR"> F  </i>
    <v name="MAGMOM">      1.00000000      1.00000000      1.00000000      1.00000000      1.00000000      1.00000000      1.00000000      1.00000000      1.00000000      1.00000000      1.00000000      1.00000000      1.00000000      1.00000000</v>
    <i name="NUPDOWN">     -1.00000000</i>
    <i type="logical" name="LSORBIT"> F  </i>
    <v name="SAXIS">      0.00000000      0.00000000      1.00000000</v>
    <i type="logical" name="LSPIRAL"> F  </i>
    <v name="QSPIRAL">      0.00000000      0.00000000      0.00000000</v>
    <i type="logical" name="LZEROZ"> F  </i>
   </separator>
   <separator name="electronic exchange-correlation" >
    <i type="logical" name="LASPH"> F  </i>
   </separator>
   <separator name="electronic convergence" >
    <i type="int" name="NELM">   100</i>
    <i type="int" name="NELMDL">    -5</i>
    <i type="int" name="NELMIN">     2</i>
    <i name="ENINI">    240.00000000</i>
    <separator name="electronic convergence detail" >
     <i type="logical" name="LDIAG"> T  </i>
     <i type="logical" name="LSUBROT"> F  </i>
     <i name="WEIMIN">      0.00000000</i>
     <i name="EBREAK">      0.00000001</i>
     <i name="DEPER">      0.30000000</i>
     <i type="int" name="NRMM">     4</i>
     <i name="TIME">      0.40000000</i>
    </separator>
   </separator>
   <separator name="electronic mixer" >
    <i name="AMIX">      0.40000000</i>
    <i name="BMIX">      1.00000000</i>
    <i name="AMIN">      0.10000000</i>
    <i name="AMIX_MAG">      1.60000000</i>
    <i name="BMIX_MAG">      1.00000000</i>
    <separator name="electronic mixer details" >
     <i type="int" name="IMIX">     4</i>
     <i type="logical" name="MIXFIRST"> F  </i>
     <i type="int" name="MAXMIX">   -45</i>
     <i name="WC">    100.00000000</i>
     <i type="int" name="INIMIX">     1</i>
     <i type="int" name="MIXPRE">     1</i>
     <i type="int" name="MREMOVE">     5</i>
    </separator>
   </separator>
   <separator name="electronic dipolcorrection" >
    <i type="logical" name="LDIPOL"> F  </i>
    <i type="logical" name="LMONO"> F  </i>
    <i type="int" name="IDIPOL">     0</i>
    <i name="EPSILON">      1.00000000</i>
    <v name="DIPOL">   -100.00000000   -100.00000000   -100.00000000</v>
    <i name="EFIELD">      0.00000000</i>
    <i type="logical" name="LVACPOTAV"> F  </i>
   </separator>
  </separator>
  <separator name="grids" >
   <i type="int" name="NGX">    30</i>
   <i type="int" name="NGY">    20</i>
   <i type="int" name="NGZ">    32</i>
   <i type="int" name="NGXF">    60</i>
   <i type="int" name="NGYF">    40</i>
   <i type="int" name="NGZF">    64</i>
   <i type="logical" name="ADDGRID"> F  </i>
  </separator>
  <separator name="ionic" >
   <i type="int" name="NSW">     0</i>
   <i type="int" name="IBRION">    -1</i>
   <i type="int" name="MDALGO">     0</i>
   <i type="int" name="ISIF">     2</i>
   <i name="PSTRESS">      0.00000000</i>
   <i name="EDIFFG">     -0.00100000</i>
   <i type="int" name="NFREE">     0</i>
   <i name="POTIM">      0.50000000</i>
   <i name="SMASS">     -3.00000000</i>
   <i name="SCALEE">      1.00000000</i>
  </separator>
  <separator name="ionic md" >
   <i name="TEBEG">      0.00010000</i>
   <i name="TEEND">      0.00010000</i>
   <i type="int" name="NBLOCK">     1</i>
   <i type="int" name="KBLOCK">     1</i>
   <i type="int" name="NPACO">   256</i>
   <i name="APACO">     10.00000000</i>
  </separator>
  <separator name="symmetry" >
   <i type="int" name="ISYM">     2</i>
   <i name="SYMPREC">      0.00001000</i>
  </separator>
  <separator name="dos" >
   <i type="int" name="LORBIT">     0</i>
   <v name="RWIGS">     -1.00000000</v>
   <i type="int" name="NEDOS">   301</i>
   <i name="EMIN">     10.00000000</i>
   <i name="EMAX">    -10.00000000</i>
   <i name="EFERMI">      0.00000000</i>
  </separator>
  <separator name="writing" >
   <i type="int" name="NWRITE">     2</i>
   <i type="logical" name="LWAVE"> F  </i>
   <i type="logical" name="LDOWNSAMPLE"> F  </i>
   <i type="logical" name="LCHARG"> F  </i>
   <i type="logical" name="LPARD"> F  </i>
   <i type="logical" name="LVTOT"> F  </i>
   <i type="logical" name="LVHAR"> F  </i>
   <i type="logical" name="LELF"> F  </i>
   <i type="logical" name="LOPTICS"> F  </i>
   <v name="STM">      0.00000000      0.00000000      0.00000000      0.00000000      0.00000000      0.00000000      0.00000000</v>
  </separator>
  <separator name="performance" >
   <i type="int" name="NPAR">    24</i>
   <i type="int" name="NSIM">     4</i>
   <i type="int" name="NBLK">    -1</i>
   <i type="logical" name="LPLANE"> T  </i>
   <i type="logical" name="LSCALAPACK"> T  </i>
   <i type="logical" name="LSCAAWARE"> F  </i>
   <i type="logical" name="LSCALU"> F  </i>
   <i type="logical" name="LASYNC"> F  </i>
   <i type="logical" name="LORBITALREAL"> F  </i>
  </separator>
  <separator name="miscellaneous" >
   <i type="int" name="IDIOT">     3</i>
   <i type="int" name="PHON_NSTRUCT">    -1</i>
   <i type="logical" name="LMUSIC"> F  </i>
   <v name="POMASS">     10.81100000</v>
   <v name="DARWINR">      0.00000000</v>
   <v name="DARWINV">      1.00000000</v>
   <i type="logical" name="LCORR"> T  </i>
  </separator>
  <i type="logical" name="GGA_COMPAT"> T  </i>
  <i type="logical" name="LBERRY"> F  </i>
  <i type="int" name="ICORELEVEL">     0</i>
  <i type="logical" name="LDAU"> F  </i>
  <i type="int" name="I_CONSTRAINED_M">     0</i>
  <separator name="electronic exchange-correlation" >
   <i type="string" name="GGA    ">PE</i>
   <i type="string" name="XC_C">1</i>
   <i type="int" name="VOSKOWN">     0</i>
   <i type="logical" name="LHFCALC"> F  </i>
   <i type="string" name="PRECFOCK"></i>
   <i type="logical" name="LSYMGRAD"> F  </i>
   <i type="logical" name="LHFONE"> F  </i>
   <i type="logical" name="LRHFCALC"> F  </i>
   <i type="logical" name="LTHOMAS"> F  </i>
   <i type="logical" name="LMODELHF"> F  </i>
   <i type="logical" name="LFOCKACE"> F  </i>
   <i name="ENCUT4O">     -1.00000000</i>
   <i type="int" name="EXXOEP">     0</i>
   <i type="int" name="FOURORBIT">     0</i>
   <i name="AEXX">      0.00000000</i>
   <i name="HFALPHA">      0.00000000</i>
   <i name="MCALPHA">      0.00000000</i>
   <i name="ALDAX">      1.00000000</i>
   <i name="AGGAX">      1.00000000</i>
   <i name="AMGGAX">      1.00000000</i>
   <i name="ALDAC">      1.00000000</i>
   <i name="AGGAC">      1.00000000</i>
   <i name="AMGGAC">      1.00000000</i>
   <i type="int" name="NKREDX">     1</i>
   <i type="int" name="NKREDY">     1</i>
   <i type="int" name="NKREDZ">     1</i>
   <i type="logical" name="SHIFTRED"> F  </i>
   <i type="logical" name="ODDONLY"> F  </i>
   <i type="logical" name="EVENONLY"> F  </i>
   <i type="int" name="LMAXFOCK">     0</i>
   <i type="int" name="NMAXFOCKAE">     0</i>
   <i type="logical" name="LFOCKAEDFT"> F  </i>
   <i name="HFSCREEN">      0.00000000</i>
   <i name="HFSCREENC">      0.00000000</i>
   <i type="int" name="NBANDSGWLOW">     0</i>
  </separator>
  <separator name="vdW DFT" >
   <i type="logical" name="LUSE_VDW"> F  </i>
   <i type="int" name="IVDW_NL">    -1</i>
   <i type="logical" name="LSPIN_VDW"> F  </i>
   <i name="ZAB_VDW">     -0.84910000</i>
   <i name="GAMMA_VDW">      1.39626340</i>
   <i name="ALPHA_VDW">      0.00000000</i>
   <i name="PARAM1">      0.12340000</i>
   <i name="PARAM2">      1.00000000</i>
   <i name="BPARAM">      6.30000000</i>
   <i name="CPARAM">      0.00930000</i>
  </separator>
  <separator name="model GW" >
   <i type="int" name="MODEL_GW">     0</i>
   <i name="MODEL_EPS0">      6.13175789</i>
   <i name="MODEL_ALPHA">      1.00000000</i>
  </separator>
  <separator name="linear response parameters" >
   <i type="logical" name="LEPSILON"> F  </i>
   <i type="logical" name="LRPA"> F  </i>
   <i type="logical" name="LNABLA"> F  </i>
   <i type="logical" name="LVEL"> F  </i>
   <i name="CSHIFT">      0.10000000</i>
   <i name="OMEGAMAX">     -1.00000000</i>
   <i name="DEG_THRESHOLD">      0.00200000</i>
   <i name="RTIME">     -0.10000000</i>
   <i name="WPLASMAI">      0.00000000</i>
   <v name="DFIELD">      0.00000000      0.00000000      0.00000000</v>
   <v name="WPLASMA">      0.00000000      0.00000000      0.00000000      0.00000000      0.00000000      0.00000000      0.00000000      0.00000000      0.00000000</v>
  </separator>
  <separator name="orbital magnetization" >
   <i type="logical" name="NUCIND"> F  </i>
   <v name="MAGPOS">      0.00000000      0.00000000      0.00000000</v>
   <i type="logical" name="LNICSALL"> T  </i>
   <i type="logical" name="ORBITALMAG"> F  </i>
   <i type="logical" name="LMAGBLOCH"> F  </i>
   <i type="logical" name="LCHIMAG"> F  </i>
   <i type="logical" name="LGAUGE"> T  </i>
   <i type="int" name="MAGATOM">     0</i>
   <v name="MAGDIPOL">      0.00000000      0.00000000      0.00000000</v>
   <v name="AVECCONST">      0.00000000      0.00000000      0.00000000</v>
  </separator>
  <separator name="response functions" >
   <i type="logical" name="LALL_IN_ONE"> F  </i>
   <i type="int" name="IALL_IN_ONE">    -1</i>
   <i type="int" name="NBANDS_WAVE">    -1</i>
   <i type="logical" name="LFINITE_TEMPERATURE"> F  </i>
   <i type="logical" name="LADDER"> F  </i>
   <i type="logical" name="LRPAFORCE"> F  </i>
   <i type="logical" name="LFXC"> F  </i>
   <i type="logical" name="LHARTREE"> T  </i>
   <i type="int" name="IBSE">     0</i>
   <v type="int" name="KPOINT">    -1     0     0     0</v>
   <i type="logical" name="LTCTC"> F  </i>
   <i type="logical" name="LTCTE"> F  </i>
   <i type="logical" name="LTETE"> F  </i>
   <i type="logical" name="LTRIPLET"> F  </i>
   <i type="logical" name="LFXCEPS"> F  </i>
   <i type="logical" name="LFXHEG"> F  </i>
   <i type="int" name="NATURALO">     2</i>
   <i type="logical" name="LHOLEGF"> F  </i>
   <i type="logical" name="L2ORDER"> F  </i>
   <i type="logical" name="LDMP1"> F  </i>
   <i type="logical" name="LMP2LT"> F  </i>
   <i type="logical" name="LSMP2LT"> F  </i>
   <i type="logical" name="LGWLF"> F  </i>
   <i name="ENCUTGW">     -1.60000002</i>
   <i name="ENCUTGWSOFT">     -1.60000002</i>
   <i name="ENCUTLF">     -1.00000000</i>
   <i type="logical" name="ESF_SPLINES"> F  </i>
   <i name="ESF_CONV">      0.01000000</i>
   <i type="int" name="ESF_NINTER">    15</i>
   <i type="int" name="LMAXMP2">    -1</i>
   <i name="SCISSOR">      0.00000000</i>
   <i type="int" name="NOMEGA">     0</i>
   <i type="int" name="NOMEGAR">     0</i>
   <i type="int" name="NBANDSGW">    -1</i>
   <i type="int" name="NBANDSO">    -1</i>
   <i type="int" name="NBANDSV">    -1</i>
   <i type="int" name="NELMGW">     1</i>
   <i type="int" name="NELMHF">     1</i>
   <i type="int" name="DIM">     3</i>
   <i type="int" name="IESPILON">     4</i>
   <i type="int" name="ANTIRES">     0</i>
   <i name="OMEGAMAX">    -30.00000000</i>
   <i name="OMEGAMIN">    -30.00000000</i>
   <i name="OMEGATL">   -200.00000000</i>
   <i type="int" name="OMEGAGRID">     0</i>
   <i name="CSHIFT">     -0.10000000</i>
   <i type="logical" name="LSELFENERGY"> F  </i>
   <i type="logical" name="LSPECTRAL"> F  </i>
   <i type="logical" name="LSPECTRALGW"> F  </i>
   <i type="logical" name="LSINGLES"> F  </i>
   <i type="logical" name="LFERMIGW"> F  </i>
   <i type="logical" name="ODDONLYGW"> F  </i>
   <i type="logical" name="EVENONLYGW"> F  </i>
   <i type="int" name="NKREDLFX">     1</i>
   <i type="int" name="NKREDLFY">     1</i>
   <i type="int" name="NKREDLFZ">     1</i>
   <i type="int" name="MAXMEM">  2800</i>
   <i type="int" name="TELESCOPE">     0</i>
   <i type="int" name="NTAUPAR">    -1</i>
   <i type="int" name="NOMEGAPAR">    -1</i>
   <i name="DAMP_NEWTON">      0.80000001</i>
   <i name="LAMBDA">      1.00000000</i>
  </separator>
  <separator name="External order field" >
   <i name="OFIELD_KAPPA">      0.00000000</i>
   <v name="OFIELD_K">      0.00000000      0.00000000      0.00000000</v>
   <i name="OFIELD_Q6_NEAR">      0.00000000</i>
   <i name="OFIELD_Q6_FAR">      0.00000000</i>
   <i name="OFIELD_A">      0.00000000</i>
  </separator>
  <separator name="optional k-points parameters" >
   <i type="int" name="KPOINTS_OPT_MODE">     1</i>
   <i type="logical" name="LKPOINTS_OPT"> F  </i>
  </separator>
 </parameters>
 <atominfo>
  <atoms>      14 </atoms>
  <types>       1 </types>
  <array name="atoms" >
   <dimension dim="1">ion</dimension>
   <field type="string">element</field>
   <field type="int">atomtype</field>
   <set>
    <rc><c>B </c><c>   1</c></rc>
    <rc><c>B </c><c>   1</c></rc>
    <rc><c>B </c><c>   1</c></rc>
    <rc><c>B </c><c>   1</c></rc>
    <rc><c>B </c><c>   1</c></rc>
    <rc><c>B </c><c>   1</c></rc>
    <rc><c>B </c><c>   1</c></rc>
    <rc><c>B </c><c>   1</c></rc>
    <rc><c>B </c><c>   1</c></rc>
    <rc><c>B </c><c>   1</c></rc>
    <rc><c>B </c><c>   1</c></rc>
    <rc><c>B </c><c>   1</c></rc>
    <rc><c>B </c><c>   1</c></rc>
    <rc><c>B </c><c>   1</c></rc>
   </set>
  </array>
  <array name="atomtypes" >
   <dimension dim="1">type</dimension>
   <field type="int">atomspertype</field>
   <field type="string">element</field>
   <field>mass</field>
   <field>valence</field>
   <field type="string">pseudopotential</field>
   <set>
    <rc><c>  14</c><c>B </c><c>     10.81100000</c><c>      3.00000000</c><c>  PAW_PBE B 06Sep2000                   </c></rc>
   </set>
  </array>
 </atominfo>
 <structure name="initialpos" >
  <crystal>
   <varray name="basis" >
    <v>       5.69700000       0.00000000       0.00000000 </v>
    <v>       0.00000000       4.04790000       0.00000000 </v>
    <v>       0.00000000       0.00000000       6.20420000 </v>
   </varray>
   <i name="volume">    143.07435078 </i>
   <varray name="rec_basis" >
    <v>       0.17553098       0.00000000       0.00000000 </v>
    <v>       0.00000000       0.24704168       0.00000000 </v>
    <v>       0.00000000       0.00000000       0.16118114 </v>
   </varray>
  </crystal>
  <varray name="positions" >
   <v>       0.52123000       0.50000000       0.63796000 </v>
   <v>       0.47877000       0.50000000       0.36204000 </v>
   <v>       0.97877000       0.50000000       0.63796000 </v>
   <v>       0.02123000       0.50000000       0.36204000 </v>
   <v>       0.60090000       0.50000000       0.89991000 </v>
   <v>       0.39910000       0.50000000       0.10009000 </v>
   <v>       0.89910000       0.50000000       0.89991000 </v>
   <v>       0.10090000       0.50000000       0.10009000 </v>
   <v>       0.75000000       0.79171000       0.72973000 </v>
   <v>       0.25000000       0.20829000       0.27027000 </v>
   <v>       0.75000000       0.20829000       0.72973000 </v>
   <v>       0.25000000       0.79171000       0.27027000 </v>
   <v>       0.25000000       0.50000000       0.52367000 </v>
   <v>       0.75000000       0.50000000       0.47633000 </v>
  </varray>
 </structure>
 <calculation>
  <scstep>
   <time name="dav">    2.14    2.15</time>
   <time name="total">    2.14    2.16</time>
   <energy>
    <i name="alphaZ">     94.24357992 </i>
    <i name="ewald">   -795.76658092 </i>
    <i name="hartreedc">   -271.33601302 </i>
    <i name="XCdc">     97.50108138 </i>
    <i name="pawpsdc">    608.99811708 </i>
    <i name="pawaedc">   -597.02363782 </i>
    <i name="eentropy">     -0.00230620 </i>
    <i name="bandstr">   -135.02784820 </i>
    <i name="atom">    995.66459618 </i>
    <i name="e_fr_energy">     -2.74901160 </i>
    <i name="e_wo_entrp">     -2.74670540 </i>
    <i name="e_0_energy">     -2.74785850 </i>
   </energy>
  </scstep>
  <scstep>
   <time name="dav">    3.22    3.26</time>
   <time name="total">    3.22    3.26</time>
   <energy>
    <i name="e_fr_energy">    -94.17695974 </i>
    <i name="e_wo_entrp">    -94.17336879 </i>
    <i name="e_0_energy">    -94.17516427 </i>
   </energy>
  </scstep>
  <scstep>
   <time name="dav">    3.03    3.06</time>
   <time name="total">    3.03    3.06</time>
   <energy>
    <i name="e_fr_energy">    -96.64074942 </i>
    <i name="e_wo_entrp">    -96.63705015 </i>
    <i name="e_0_energy">    -96.63889978 </i>
   </energy>
  </scstep>
  <scstep>
   <time name="dav">    3.00    3.02</time>
   <time name="total">    3.00    3.02</time>
   <energy>
    <i name="e_fr_energy">    -96.65505122 </i>
    <i name="e_wo_entrp">    -96.65135547 </i>
    <i name="e_0_energy">    -96.65320335 </i>
   </energy>
  </scstep>
  <scstep>
   <time name="dav">    2.92    2.96</time>
   <time name="total">    2.96    3.00</time>
   <energy>
    <i name="e_fr_energy">    -96.65522515 </i>
    <i name="e_wo_entrp">    -96.65152944 </i>
    <i name="e_0_energy">    -96.65337730 </i>
   </energy>
  </scstep>
  <scstep>
   <time name="dav">    3.20    3.22</time>
   <time name="total">    3.23    3.26</time>
   <energy>
    <i name="e_fr_energy">    -91.37925221 </i>
    <i name="e_wo_entrp">    -91.37581292 </i>
    <i name="e_0_energy">    -91.37753256 </i>
   </energy>
  </scstep>
  <scstep>
   <time name="dav">    3.37    3.41</time>
   <time name="total">    3.40    3.45</time>
   <energy>
    <i name="e_fr_energy">    -89.75534470 </i>
    <i name="e_wo_entrp">    -89.75220619 </i>
    <i name="e_0_energy">    -89.75377545 </i>
   </energy>
  </scstep>
  <scstep>
   <time name="dav">    2.33    2.35</time>
   <time name="total">    2.37    2.38</time>
   <energy>
    <i name="e_fr_energy">    -89.76691720 </i>
    <i name="e_wo_entrp">    -89.76371572 </i>
    <i name="e_0_energy">    -89.76531646 </i>
   </energy>
  </scstep>
  <scstep>
   <time name="dav">    3.06    3.09</time>
   <time name="total">    3.09    3.13</time>
   <energy>
    <i name="e_fr_energy">    -89.78058442 </i>
    <i name="e_wo_entrp">    -89.77729235 </i>
    <i name="e_0_energy">    -89.77893838 </i>
   </energy>
  </scstep>
  <scstep>
   <time name="dav">    2.42    2.44</time>
   <time name="total">    2.45    2.48</time>
   <energy>
    <i name="e_fr_energy">    -89.78427562 </i>
    <i name="e_wo_entrp">    -89.78103488 </i>
    <i name="e_0_energy">    -89.78265525 </i>
   </energy>
  </scstep>
  <scstep>
   <time name="dav">    2.83    2.86</time>
   <time name="total">    2.86    2.90</time>
   <energy>
    <i name="e_fr_energy">    -89.78534078 </i>
    <i name="e_wo_entrp">    -89.78211079 </i>
    <i name="e_0_energy">    -89.78372578 </i>
   </energy>
  </scstep>
  <scstep>
   <time name="dav">    2.77    2.81</time>
   <time name="total">    2.81    2.84</time>
   <energy>
    <i name="e_fr_energy">    -89.78544270 </i>
    <i name="e_wo_entrp">    -89.78220625 </i>
    <i name="e_0_energy">    -89.78382447 </i>
   </energy>
  </scstep>
  <scstep>
   <time name="dav">    3.08    3.10</time>
   <time name="total">    3.11    3.14</time>
   <energy>
    <i name="e_fr_energy">    -89.78544613 </i>
    <i name="e_wo_entrp">    -89.78220941 </i>
    <i name="e_0_energy">    -89.78382777 </i>
   </energy>
  </scstep>
  <scstep>
   <time name="dav">    2.66    2.69</time>
   <time name="total">    2.67    2.70</time>
   <energy>
    <i name="alphaZ">     94.24357992 </i>
    <i name="ewald">   -795.76658092 </i>
    <i name="hartreedc">   -348.51855151 </i>
    <i name="XCdc">    101.78910283 </i>
    <i name="pawpsdc">   4698.84170332 </i>
    <i name="pawaedc">  -4687.88527839 </i>
    <i name="eentropy">     -0.00323686 </i>
    <i name="bandstr">   -148.15078116 </i>
    <i name="atom">    995.66459618 </i>
    <i name="e_fr_energy">    -89.78544659 </i>
    <i name="e_wo_entrp">    -89.78220973 </i>
    <i name="e_0_energy">    -89.78382816 </i>
   </energy>
  </scstep>
  <structure>
   <crystal>
    <varray name="basis" >
     <v>       5.69700000       0.00000000       0.00000000 </v>
     <v>       0.00000000       4.04790000       0.00000000 </v>
     <v>       0.00000000       0.00000000       6.20420000 </v>
    </varray>
    <i name="volume">    143.07435078 </i>
    <varray name="rec_basis" >
     <v>       0.17553098       0.00000000       0.00000000 </v>
     <v>       0.00000000       0.24704168       0.00000000 </v>
     <v>       0.00000000       0.00000000       0.16118114 </v>
    </varray>
   </crystal>
   <varray name="positions" >
    <v>       0.52123000       0.50000000       0.63796000 </v>
    <v>       0.47877000       0.50000000       0.36204000 </v>
    <v>       0.97877000       0.50000000       0.63796000 </v>
    <v>       0.02123000       0.50000000       0.36204000 </v>
    <v>       0.60090000       0.50000000       0.89991000 </v>
    <v>       0.39910000       0.50000000       0.10009000 </v>
    <v>       0.89910000       0.50000000       0.89991000 </v>
    <v>       0.10090000       0.50000000       0.10009000 </v>
    <v>       0.75000000       0.79171000       0.72973000 </v>
    <v>       0.25000000       0.20829000       0.27027000 </v>
    <v>       0.75000000       0.20829000       0.72973000 </v>
    <v>       0.25000000       0.79171000       0.27027000 </v>
    <v>       0.25000000       0.50000000       0.52367000 </v>
    <v>       0.75000000       0.50000000       0.47633000 </v>
   </varray>
  </structure>
  <varray name="forces" >
   <v>       0.01637764      -0.00000000       0.10095644 </v>
   <v>      -0.01637764       0.00000000      -0.10095644 </v>
   <v>      -0.01637764       0.00000000       0.10095644 </v>
   <v>       0.01637764      -0.00000000      -0.10095644 </v>
   <v>      -0.78324821      -0.00000000       0.24475404 </v>
   <v>       0.78324821      -0.00000000      -0.24475404 </v>
   <v>       0.78324821       0.00000000       0.24475404 </v>
   <v>      -0.78324821       0.00000000      -0.24475404 </v>
   <v>       0.00000000      -0.08258588      -0.08157563 </v>
   <v>      -0.00000000       0.08258588       0.08157563 </v>
   <v>       0.00000000       0.08258588      -0.08157563 </v>
   <v>       0.00000000      -0.08258588       0.08157563 </v>
   <v>       0.00000000       0.00000000       0.09128089 </v>
   <v>      -0.00000000      -0.00000000      -0.09128089 </v>
  </varray>
  <varray name="stress" >
   <v>     -47.41303015       0.00000000       0.00000000 </v>
   <v>       0.00000000     -72.86409682       0.00000000 </v>
   <v>       0.00000000       0.00000000     -68.96675713 </v>
  </varray>
  <energy>
   <i name="e_fr_energy">    -89.78544659 </i>
   <i name="e_wo_entrp">    -89.78220973 </i>
   <i name="e_0_energy">    -89.78382816 </i>
  </energy>
  <time name="totalsc">   41.59   42.04</time>
  <eigenvalues>
   <array>
    <dimension dim="1">band</dimension>
    <dimension dim="2">kpoint</dimension>
    <dimension dim="3">spin</dimension>
    <field>eigene</field>
    <field>occ</field>
    <set>
     <set comment="spin 1">
      <set comment="kpoint 1">
       <r>  -12.7377    1.0000 </r>
       <r>  -11.5833    1.0000 </r>
       <r>   -8.6603    1.0000 </r>
       <r>   -8.4235    1.0000 </r>
       <r>   -6.0633    1.0000 </r>
       <r>   -5.1262    1.0000 </r>
       <r>   -4.6588    1.0000 </r>
       <r>   -4.2586    1.0000 </r>
       <r>   -4.0265    1.0000 </r>
       <r>   -3.5320    1.0000 </r>
       <r>   -2.5873    1.0000 </r>
       <r>   -2.3233    1.0000 </r>
       <r>   -1.8234    1.0000 </r>
       <r>   -1.0610    1.0000 </r>
       <r>   -0.0370    1.0000 </r>
       <r>   -0.0049    1.0000 </r>
       <r>    0.1830    1.0000 </r>
       <r>    0.2031    1.0000 </r>
       <r>    0.5988    1.0000 </r>
       <r>    2.0622    0.0001 </r>
       <r>    2.1304    0.0000 </r>
       <r>    2.2510    0.0000 </r>
       <r>    5.4823    0.0000 </r>
       <r>    5.7991    0.0000 </r>
       <r>    5.8846    0.0000 </r>
       <r>    6.0123    0.0000 </r>
       <r>    6.8636    0.0000 </r>
       <r>    7.5826    0.0000 </r>
       <r>    7.9134    0.0000 </r>
       <r>    8.5487    0.0000 </r>
       <r>    8.7985    0.0000 </r>
       <r>    8.9483    0.0000 </r>
       <r>    9.0432    0.0000 </r>
       <r>   10.1329    0.0000 </r>
       <r>   11.1982    0.0000 </r>
       <r>   11.4300    0.0000 </r>
       <r>   11.7583    0.0000 </r>
       <r>   11.8139    0.0000 </r>
       <r>   11.9685    0.0000 </r>
       <r>   12.4270    0.0000 </r>
       <r>   12.8893    0.0000 </r>
       <r>   13.5228    0.0000 </r>
       <r>   13.5405    0.0000 </r>
       <r>   15.4150    0.0000 </r>
       <r>   15.6295    0.0000 </r>
       <r>   16.1052    0.0000 </r>
       <r>   16.3836    0.0000 </r>
       <r>   16.4239    0.0000 </r>
      </set>
      <set comment="kpoint 2">
       <r>  -12.6936    1.0000 </r>
       <r>  -11.6578    1.0000 </r>
       <r>   -8.6386    1.0000 </r>
       <r>   -8.4118    1.0000 </r>
       <r>   -5.9944    1.0000 </r>
       <r>   -5.4649    1.0000 </r>
       <r>   -4.7825    1.0000 </r>
       <r>   -4.0016    1.0000 </r>
       <r>   -3.7773    1.0000 </r>
       <r>   -3.1939    1.0000 </r>
       <r>   -2.6573    1.0000 </r>
       <r>   -2.3036    1.0000 </r>
       <r>   -1.9005    1.0000 </r>
       <r>   -1.3707    1.0000 </r>
       <r>    0.0025    1.0000 </r>
       <r>    0.0097    1.0000 </r>
       <r>    0.1252    1.0000 </r>
       <r>    0.2265    1.0000 </r>
       <r>    0.5018    1.0000 </r>
       <r>    1.9761    0.0784 </r>
       <r>    2.0514    0.0002 </r>
       <r>    2.1316    0.0000 </r>
       <r>    5.5714    0.0000 </r>
       <r>    5.7961    0.0000 </r>
       <r>    5.9198    0.0000 </r>
       <r>    6.3606    0.0000 </r>
       <r>    6.7746    0.0000 </r>
       <r>    7.2173    0.0000 </r>
       <r>    8.1190    0.0000 </r>
       <r>    8.6882    0.0000 </r>
       <r>    9.0564    0.0000 </r>
       <r>    9.1342    0.0000 </r>
       <r>    9.2056    0.0000 </r>
       <r>   10.2469    0.0000 </r>
       <r>   11.0290    0.0000 </r>
       <r>   11.2126    0.0000 </r>
       <r>   11.2741    0.0000 </r>
       <r>   11.7218    0.0000 </r>
       <r>   12.1887    0.0000 </r>
       <r>   12.5184    0.0000 </r>
       <r>   13.1609    0.0000 </r>
       <r>   13.1786    0.0000 </r>
       <r>   14.0873    0.0000 </r>
       <r>   14.9005    0.0000 </r>
       <r>   15.7987    0.0000 </r>
       <r>   15.8830    0.0000 </r>
       <r>   16.2688    0.0000 </r>
       <r>   16.5750    0.0000 </r>
      </set>
      <set comment="kpoint 3">
       <r>  -12.6074    1.0000 </r>
       <r>  -11.7916    1.0000 </r>
       <r>   -8.5949    1.0000 </r>
       <r>   -8.3972    1.0000 </r>
       <r>   -5.9703    1.0000 </r>
       <r>   -5.7912    1.0000 </r>
       <r>   -4.7362    1.0000 </r>
       <r>   -3.8765    1.0000 </r>
       <r>   -3.2641    1.0000 </r>
       <r>   -2.8244    1.0000 </r>
       <r>   -2.7004    1.0000 </r>
       <r>   -2.2637    1.0000 </r>
       <r>   -2.0095    1.0000 </r>
       <r>   -1.8851    1.0000 </r>
       <r>   -0.1963    1.0000 </r>
       <r>    0.0447    1.0000 </r>
       <r>    0.1747    1.0000 </r>
       <r>    0.1912    1.0000 </r>
       <r>    0.4671    1.0000 </r>
       <r>    1.8253    0.9978 </r>
       <r>    1.9033    0.7402 </r>
       <r>    1.9150    0.6224 </r>
       <r>    5.6950    0.0000 </r>
       <r>    5.7495    0.0000 </r>
       <r>    6.2331    0.0000 </r>
       <r>    6.6422    0.0000 </r>
       <r>    6.8099    0.0000 </r>
       <r>    6.9652    0.0000 </r>
       <r>    8.2677    0.0000 </r>
       <r>    8.8420    0.0000 </r>
       <r>    9.0131    0.0000 </r>
       <r>    9.5800    0.0000 </r>
       <r>    9.6555    0.0000 </r>
       <r>   10.3514    0.0000 </r>
       <r>   10.5231    0.0000 </r>
       <r>   10.6717    0.0000 </r>
       <r>   11.3999    0.0000 </r>
       <r>   11.8592    0.0000 </r>
       <r>   12.4230    0.0000 </r>
       <r>   12.6084    0.0000 </r>
       <r>   12.8293    0.0000 </r>
       <r>   12.9452    0.0000 </r>
       <r>   14.7012    0.0000 </r>
       <r>   14.9696    0.0000 </r>
       <r>   15.2627    0.0000 </r>
       <r>   16.0400    0.0000 </r>
       <r>   16.0436    0.0000 </r>
       <r>   16.3489    0.0000 </r>
      </set>
      <set comment="kpoint 4">
       <r>  -12.4831    1.0000 </r>
       <r>  -11.9631    1.0000 </r>
       <r>   -8.5336    1.0000 </r>
       <r>   -8.3948    1.0000 </r>
       <r>   -6.0508    1.0000 </r>
       <r>   -6.0250    1.0000 </r>
       <r>   -4.4065    1.0000 </r>
       <r>   -3.7066    1.0000 </r>
       <r>   -3.0198    1.0000 </r>
       <r>   -2.8804    1.0000 </r>
       <r>   -2.4266    1.0000 </r>
       <r>   -2.2393    1.0000 </r>
       <r>   -2.1446    1.0000 </r>
       <r>   -2.1074    1.0000 </r>
       <r>   -0.4976    1.0000 </r>
       <r>   -0.2180    1.0000 </r>
       <r>    0.2012    1.0000 </r>
       <r>    0.2795    1.0000 </r>
       <r>    0.6407    1.0000 </r>
       <r>    1.5665    1.0000 </r>
       <r>    1.7058    1.0000 </r>
       <r>    1.7634    1.0000 </r>
       <r>    5.7310    0.0000 </r>
       <r>    5.7839    0.0000 </r>
       <r>    6.5324    0.0000 </r>
       <r>    6.6955    0.0000 </r>
       <r>    6.7584    0.0000 </r>
       <r>    7.4668    0.0000 </r>
       <r>    8.3853    0.0000 </r>
       <r>    8.7337    0.0000 </r>
       <r>    8.8276    0.0000 </r>
       <r>    9.6005    0.0000 </r>
       <r>   10.0622    0.0000 </r>
       <r>   10.1367    0.0000 </r>
       <r>   10.4384    0.0000 </r>
       <r>   11.1591    0.0000 </r>
       <r>   11.4356    0.0000 </r>
       <r>   11.9858    0.0000 </r>
       <r>   12.2247    0.0000 </r>
       <r>   12.2931    0.0000 </r>
       <r>   12.5433    0.0000 </r>
       <r>   13.2993    0.0000 </r>
       <r>   14.7466    0.0000 </r>
       <r>   15.0222    0.0000 </r>
       <r>   15.3140    0.0000 </r>
       <r>   15.4241    0.0000 </r>
       <r>   15.6451    0.0000 </r>
       <r>   16.4379    0.0000 </r>
      </set>
      <set comment="kpoint 5">
       <r>  -12.3271    1.0000 </r>
       <r>  -12.1482    1.0000 </r>
       <r>   -8.4683    1.0000 </r>
       <r>   -8.4173    1.0000 </r>
       <r>   -6.1390    1.0000 </r>
       <r>   -6.1362    1.0000 </r>
       <r>   -3.8922    1.0000 </r>
       <r>   -3.4982    1.0000 </r>
       <r>   -3.2914    1.0000 </r>
       <r>   -3.2584    1.0000 </r>
       <r>   -2.3443    1.0000 </r>
       <r>   -2.2184    1.0000 </r>
       <r>   -1.9555    1.0000 </r>
       <r>   -1.8924    1.0000 </r>
       <r>   -0.7254    1.0000 </r>
       <r>   -0.5852    1.0000 </r>
       <r>    0.2848    1.0000 </r>
       <r>    0.3186    1.0000 </r>
       <r>    0.9021    1.0000 </r>
       <r>    1.2216    1.0000 </r>
       <r>    1.6253    1.0000 </r>
       <r>    1.6509    1.0000 </r>
       <r>    5.7549    0.0000 </r>
       <r>    5.7934    0.0000 </r>
       <r>    6.5017    0.0000 </r>
       <r>    6.5636    0.0000 </r>
       <r>    7.4251    0.0000 </r>
       <r>    8.1311    0.0000 </r>
       <r>    8.1565    0.0000 </r>
       <r>    8.4966    0.0000 </r>
       <r>    8.6305    0.0000 </r>
       <r>    8.8516    0.0000 </r>
       <r>   10.5248    0.0000 </r>
       <r>   10.5282    0.0000 </r>
       <r>   10.7940    0.0000 </r>
       <r>   11.2487    0.0000 </r>
       <r>   11.4290    0.0000 </r>
       <r>   11.6083    0.0000 </r>
       <r>   11.9444    0.0000 </r>
       <r>   12.4995    0.0000 </r>
       <r>   12.7480    0.0000 </r>
       <r>   13.2884    0.0000 </r>
       <r>   14.6230    0.0000 </r>
       <r>   14.7780    0.0000 </r>
       <r>   14.9011    0.0000 </r>
       <r>   14.9680    0.0000 </r>
       <r>   16.1917    0.0000 </r>
       <r>   16.5212    0.0000 </r>
      </set>
      <set comment="kpoint 6">
       <r>  -12.7139    1.0000 </r>
       <r>  -11.5614    1.0000 </r>
       <r>   -8.6416    1.0000 </r>
       <r>   -8.4017    1.0000 </r>
       <r>   -6.0371    1.0000 </r>
       <r>   -5.0922    1.0000 </r>
       <r>   -4.6380    1.0000 </r>
       <r>   -4.5661    1.0000 </r>
       <r>   -4.1672    1.0000 </r>
       <r>   -3.5099    1.0000 </r>
       <r>   -3.2816    1.0000 </r>
       <r>   -1.7863    1.0000 </r>
       <r>   -1.0557    1.0000 </r>
       <r>   -1.0140    1.0000 </r>
       <r>   -0.2696    1.0000 </r>
       <r>   -0.2380    1.0000 </r>
       <r>    0.1938    1.0000 </r>
       <r>    0.2734    1.0000 </r>
       <r>    0.6764    1.0000 </r>
       <r>    1.7879    1.0000 </r>
       <r>    1.8726    0.9348 </r>
       <r>    2.3001    0.0000 </r>
       <r>    5.6240    0.0000 </r>
       <r>    5.7341    0.0000 </r>
       <r>    5.7889    0.0000 </r>
       <r>    6.0523    0.0000 </r>
       <r>    7.1504    0.0000 </r>
       <r>    7.8665    0.0000 </r>
       <r>    8.0815    0.0000 </r>
       <r>    8.2261    0.0000 </r>
       <r>    8.8051    0.0000 </r>
       <r>    9.0935    0.0000 </r>
       <r>    9.1455    0.0000 </r>
       <r>   10.5975    0.0000 </r>
       <r>   11.3406    0.0000 </r>
       <r>   11.4159    0.0000 </r>
       <r>   11.6778    0.0000 </r>
       <r>   11.9163    0.0000 </r>
       <r>   12.0792    0.0000 </r>
       <r>   12.7104    0.0000 </r>
       <r>   12.8929    0.0000 </r>
       <r>   13.2462    0.0000 </r>
       <r>   13.2527    0.0000 </r>
       <r>   15.3663    0.0000 </r>
       <r>   15.4135    0.0000 </r>
       <r>   15.9055    0.0000 </r>
       <r>   15.9178    0.0000 </r>
       <r>   16.2758    0.0000 </r>
      </set>
      <set comment="kpoint 7">
       <r>  -12.6699    1.0000 </r>
       <r>  -11.6362    1.0000 </r>
       <r>   -8.6199    1.0000 </r>
       <r>   -8.3908    1.0000 </r>
       <r>   -5.9664    1.0000 </r>
       <r>   -5.4350    1.0000 </r>
       <r>   -4.7622    1.0000 </r>
       <r>   -4.4863    1.0000 </r>
       <r>   -3.7408    1.0000 </r>
       <r>   -3.3649    1.0000 </r>
       <r>   -3.1569    1.0000 </r>
       <r>   -1.7654    1.0000 </r>
       <r>   -1.3692    1.0000 </r>
       <r>   -1.1318    1.0000 </r>
       <r>   -0.2337    1.0000 </r>
       <r>   -0.1640    1.0000 </r>
       <r>    0.1644    1.0000 </r>
       <r>    0.2447    1.0000 </r>
       <r>    0.5720    1.0000 </r>
       <r>    1.7078    1.0000 </r>
       <r>    1.7961    0.9999 </r>
       <r>    2.1699    0.0000 </r>
       <r>    5.6972    0.0000 </r>
       <r>    5.8335    0.0000 </r>
       <r>    5.9739    0.0000 </r>
       <r>    6.1603    0.0000 </r>
       <r>    7.0626    0.0000 </r>
       <r>    7.5378    0.0000 </r>
       <r>    8.2300    0.0000 </r>
       <r>    8.3899    0.0000 </r>
       <r>    9.1284    0.0000 </r>
       <r>    9.1667    0.0000 </r>
       <r>    9.4159    0.0000 </r>
       <r>   10.5276    0.0000 </r>
       <r>   10.9329    0.0000 </r>
       <r>   11.1430    0.0000 </r>
       <r>   11.4722    0.0000 </r>
       <r>   11.8980    0.0000 </r>
       <r>   12.3030    0.0000 </r>
       <r>   12.7715    0.0000 </r>
       <r>   12.9099    0.0000 </r>
       <r>   13.1848    0.0000 </r>
       <r>   13.7981    0.0000 </r>
       <r>   14.9843    0.0000 </r>
       <r>   15.4341    0.0000 </r>
       <r>   15.8106    0.0000 </r>
       <r>   15.8278    0.0000 </r>
       <r>   16.4570    0.0000 </r>
      </set>
      <set comment="kpoint 8">
       <r>  -12.5835    1.0000 </r>
       <r>  -11.7705    1.0000 </r>
       <r>   -8.5766    1.0000 </r>
       <r>   -8.3765    1.0000 </r>
       <r>   -5.9394    1.0000 </r>
       <r>   -5.7605    1.0000 </r>
       <r>   -4.7201    1.0000 </r>
       <r>   -4.3775    1.0000 </r>
       <r>   -3.4875    1.0000 </r>
       <r>   -3.2150    1.0000 </r>
       <r>   -2.6893    1.0000 </r>
       <r>   -1.8831    1.0000 </r>
       <r>   -1.7187    1.0000 </r>
       <r>   -1.2932    1.0000 </r>
       <r>   -0.2010    1.0000 </r>
       <r>   -0.1873    1.0000 </r>
       <r>    0.0834    1.0000 </r>
       <r>    0.2365    1.0000 </r>
       <r>    0.4910    1.0000 </r>
       <r>    1.5738    1.0000 </r>
       <r>    1.6622    1.0000 </r>
       <r>    1.9248    0.5137 </r>
       <r>    5.8903    0.0000 </r>
       <r>    5.9639    0.0000 </r>
       <r>    6.0560    0.0000 </r>
       <r>    6.6080    0.0000 </r>
       <r>    6.9345    0.0000 </r>
       <r>    7.3055    0.0000 </r>
       <r>    8.4447    0.0000 </r>
       <r>    8.5186    0.0000 </r>
       <r>    9.1083    0.0000 </r>
       <r>    9.6187    0.0000 </r>
       <r>    9.8832    0.0000 </r>
       <r>   10.1733    0.0000 </r>
       <r>   10.4041    0.0000 </r>
       <r>   10.8417    0.0000 </r>
       <r>   11.5479    0.0000 </r>
       <r>   12.1309    0.0000 </r>
       <r>   12.3447    0.0000 </r>
       <r>   12.5868    0.0000 </r>
       <r>   12.9823    0.0000 </r>
       <r>   13.0557    0.0000 </r>
       <r>   14.3690    0.0000 </r>
       <r>   15.1231    0.0000 </r>
       <r>   15.2034    0.0000 </r>
       <r>   15.6749    0.0000 </r>
       <r>   15.7637    0.0000 </r>
       <r>   16.4640    0.0000 </r>
      </set>
      <set comment="kpoint 9">
       <r>  -12.4587    1.0000 </r>
       <r>  -11.9409    1.0000 </r>
       <r>   -8.5148    1.0000 </r>
       <r>   -8.3735    1.0000 </r>
       <r>   -6.0190    1.0000 </r>
       <r>   -5.9929    1.0000 </r>
       <r>   -4.3923    1.0000 </r>
       <r>   -4.2276    1.0000 </r>
       <r>   -3.6573    1.0000 </r>
       <r>   -2.8336    1.0000 </r>
       <r>   -2.3445    1.0000 </r>
       <r>   -2.2030    1.0000 </r>
       <r>   -1.6471    1.0000 </r>
       <r>   -1.4559    1.0000 </r>
       <r>   -0.4618    1.0000 </r>
       <r>   -0.2811    1.0000 </r>
       <r>    0.1172    1.0000 </r>
       <r>    0.1461    1.0000 </r>
       <r>    0.6507    1.0000 </r>
       <r>    1.4340    1.0000 </r>
       <r>    1.5184    1.0000 </r>
       <r>    1.6026    1.0000 </r>
       <r>    5.9090    0.0000 </r>
       <r>    6.0423    0.0000 </r>
       <r>    6.5650    0.0000 </r>
       <r>    6.8403    0.0000 </r>
       <r>    6.9125    0.0000 </r>
       <r>    7.4103    0.0000 </r>
       <r>    8.4538    0.0000 </r>
       <r>    8.6247    0.0000 </r>
       <r>    8.9527    0.0000 </r>
       <r>    9.4233    0.0000 </r>
       <r>   10.1054    0.0000 </r>
       <r>   10.1122    0.0000 </r>
       <r>   10.4551    0.0000 </r>
       <r>   11.2366    0.0000 </r>
       <r>   11.3988    0.0000 </r>
       <r>   11.8686    0.0000 </r>
       <r>   12.3082    0.0000 </r>
       <r>   12.5811    0.0000 </r>
       <r>   12.7484    0.0000 </r>
       <r>   13.5027    0.0000 </r>
       <r>   14.8134    0.0000 </r>
       <r>   14.8250    0.0000 </r>
       <r>   15.2115    0.0000 </r>
       <r>   15.3429    0.0000 </r>
       <r>   15.7076    0.0000 </r>
       <r>   16.4409    0.0000 </r>
      </set>
      <set comment="kpoint 10">
       <r>  -12.3026    1.0000 </r>
       <r>  -12.1253    1.0000 </r>
       <r>   -8.4487    1.0000 </r>
       <r>   -8.3974    1.0000 </r>
       <r>   -6.1051    1.0000 </r>
       <r>   -6.1034    1.0000 </r>
       <r>   -4.0497    1.0000 </r>
       <r>   -3.8825    1.0000 </r>
       <r>   -3.8468    1.0000 </r>
       <r>   -3.2770    1.0000 </r>
       <r>   -2.0864    1.0000 </r>
       <r>   -1.8938    1.0000 </r>
       <r>   -1.5783    1.0000 </r>
       <r>   -1.5708    1.0000 </r>
       <r>   -0.6856    1.0000 </r>
       <r>   -0.5798    1.0000 </r>
       <r>    0.1503    1.0000 </r>
       <r>    0.1813    1.0000 </r>
       <r>    0.9126    1.0000 </r>
       <r>    1.2286    1.0000 </r>
       <r>    1.3810    1.0000 </r>
       <r>    1.4063    1.0000 </r>
       <r>    5.9566    0.0000 </r>
       <r>    6.0227    0.0000 </r>
       <r>    6.8230    0.0000 </r>
       <r>    6.8712    0.0000 </r>
       <r>    7.2344    0.0000 </r>
       <r>    7.9459    0.0000 </r>
       <r>    7.9888    0.0000 </r>
       <r>    8.6720    0.0000 </r>
       <r>    8.7132    0.0000 </r>
       <r>    8.8208    0.0000 </r>
       <r>   10.3519    0.0000 </r>
       <r>   10.5823    0.0000 </r>
       <r>   10.8192    0.0000 </r>
       <r>   10.9363    0.0000 </r>
       <r>   11.5721    0.0000 </r>
       <r>   11.6719    0.0000 </r>
       <r>   12.0239    0.0000 </r>
       <r>   12.6737    0.0000 </r>
       <r>   13.0617    0.0000 </r>
       <r>   13.5253    0.0000 </r>
       <r>   14.5824    0.0000 </r>
       <r>   14.7757    0.0000 </r>
       <r>   14.8853    0.0000 </r>
       <r>   15.0939    0.0000 </r>
       <r>   16.2024    0.0000 </r>
       <r>   16.4947    0.0000 </r>
      </set>
      <set comment="kpoint 11">
       <r>  -12.6690    1.0000 </r>
       <r>  -11.5225    1.0000 </r>
       <r>   -8.6075    1.0000 </r>
       <r>   -8.3590    1.0000 </r>
       <r>   -5.9865    1.0000 </r>
       <r>   -5.1224    1.0000 </r>
       <r>   -5.0026    1.0000 </r>
       <r>   -4.5966    1.0000 </r>
       <r>   -4.1502    1.0000 </r>
       <r>   -3.9106    1.0000 </r>
       <r>   -3.4553    1.0000 </r>
       <r>   -1.1832    1.0000 </r>
       <r>   -1.0489    1.0000 </r>
       <r>   -0.6149    1.0000 </r>
       <r>   -0.5143    1.0000 </r>
       <r>   -0.1516    1.0000 </r>
       <r>    0.2142    1.0000 </r>
       <r>    0.3262    1.0000 </r>
       <r>    0.7554    1.0000 </r>
       <r>    1.4077    1.0000 </r>
       <r>    1.4686    1.0000 </r>
       <r>    2.3366    0.0000 </r>
       <r>    5.3260    0.0000 </r>
       <r>    5.4930    0.0000 </r>
       <r>    6.1512    0.0000 </r>
       <r>    6.2458    0.0000 </r>
       <r>    7.5827    0.0000 </r>
       <r>    7.6301    0.0000 </r>
       <r>    8.3482    0.0000 </r>
       <r>    8.7390    0.0000 </r>
       <r>    8.9104    0.0000 </r>
       <r>    9.2388    0.0000 </r>
       <r>    9.3700    0.0000 </r>
       <r>   10.9338    0.0000 </r>
       <r>   11.3609    0.0000 </r>
       <r>   11.6241    0.0000 </r>
       <r>   11.7219    0.0000 </r>
       <r>   12.1210    0.0000 </r>
       <r>   12.2985    0.0000 </r>
       <r>   12.7898    0.0000 </r>
       <r>   12.8157    0.0000 </r>
       <r>   13.0385    0.0000 </r>
       <r>   13.2587    0.0000 </r>
       <r>   14.7000    0.0000 </r>
       <r>   15.1855    0.0000 </r>
       <r>   15.3729    0.0000 </r>
       <r>   15.4696    0.0000 </r>
       <r>   16.0165    0.0000 </r>
      </set>
      <set comment="kpoint 12">
       <r>  -12.6252    1.0000 </r>
       <r>  -11.5965    1.0000 </r>
       <r>   -8.5860    1.0000 </r>
       <r>   -8.3497    1.0000 </r>
       <r>   -5.9131    1.0000 </r>
       <r>   -5.3865    1.0000 </r>
       <r>   -5.0272    1.0000 </r>
       <r>   -4.7259    1.0000 </r>
       <r>   -3.9767    1.0000 </r>
       <r>   -3.7006    1.0000 </r>
       <r>   -3.1178    1.0000 </r>
       <r>   -1.3661    1.0000 </r>
       <r>   -1.1575    1.0000 </r>
       <r>   -0.7219    1.0000 </r>
       <r>   -0.4740    1.0000 </r>
       <r>   -0.0717    1.0000 </r>
       <r>    0.1932    1.0000 </r>
       <r>    0.2675    1.0000 </r>
       <r>    0.6389    1.0000 </r>
       <r>    1.3264    1.0000 </r>
       <r>    1.3980    1.0000 </r>
       <r>    2.2017    0.0000 </r>
       <r>    5.4056    0.0000 </r>
       <r>    5.8386    0.0000 </r>
       <r>    6.1830    0.0000 </r>
       <r>    6.2685    0.0000 </r>
       <r>    7.4969    0.0000 </r>
       <r>    7.7868    0.0000 </r>
       <r>    8.0765    0.0000 </r>
       <r>    8.8374    0.0000 </r>
       <r>    9.2546    0.0000 </r>
       <r>    9.3078    0.0000 </r>
       <r>    9.6564    0.0000 </r>
       <r>   10.5647    0.0000 </r>
       <r>   10.8229    0.0000 </r>
       <r>   11.3026    0.0000 </r>
       <r>   11.7424    0.0000 </r>
       <r>   12.2295    0.0000 </r>
       <r>   12.4708    0.0000 </r>
       <r>   12.5329    0.0000 </r>
       <r>   13.1939    0.0000 </r>
       <r>   13.3025    0.0000 </r>
       <r>   13.4904    0.0000 </r>
       <r>   14.7163    0.0000 </r>
       <r>   14.8463    0.0000 </r>
       <r>   15.3050    0.0000 </r>
       <r>   15.5347    0.0000 </r>
       <r>   16.0375    0.0000 </r>
      </set>
      <set comment="kpoint 13">
       <r>  -12.5392    1.0000 </r>
       <r>  -11.7293    1.0000 </r>
       <r>   -8.5416    1.0000 </r>
       <r>   -8.3366    1.0000 </r>
       <r>   -5.8805    1.0000 </r>
       <r>   -5.7049    1.0000 </r>
       <r>   -4.9359    1.0000 </r>
       <r>   -4.6882    1.0000 </r>
       <r>   -4.0999    1.0000 </r>
       <r>   -3.1647    1.0000 </r>
       <r>   -2.6446    1.0000 </r>
       <r>   -1.8662    1.0000 </r>
       <r>   -1.1154    1.0000 </r>
       <r>   -0.8614    1.0000 </r>
       <r>   -0.4207    1.0000 </r>
       <r>   -0.0645    1.0000 </r>
       <r>    0.0392    1.0000 </r>
       <r>    0.2844    1.0000 </r>
       <r>    0.5194    1.0000 </r>
       <r>    1.1930    1.0000 </r>
       <r>    1.2794    1.0000 </r>
       <r>    1.9468    0.2785 </r>
       <r>    5.7280    0.0000 </r>
       <r>    6.1340    0.0000 </r>
       <r>    6.3194    0.0000 </r>
       <r>    6.4028    0.0000 </r>
       <r>    7.3912    0.0000 </r>
       <r>    7.8868    0.0000 </r>
       <r>    8.0272    0.0000 </r>
       <r>    8.9745    0.0000 </r>
       <r>    9.2610    0.0000 </r>
       <r>    9.7345    0.0000 </r>
       <r>    9.9018    0.0000 </r>
       <r>   10.1521    0.0000 </r>
       <r>   10.2855    0.0000 </r>
       <r>   11.0756    0.0000 </r>
       <r>   11.6217    0.0000 </r>
       <r>   12.1346    0.0000 </r>
       <r>   12.5438    0.0000 </r>
       <r>   12.8375    0.0000 </r>
       <r>   13.0745    0.0000 </r>
       <r>   13.4805    0.0000 </r>
       <r>   14.0154    0.0000 </r>
       <r>   14.6311    0.0000 </r>
       <r>   14.9032    0.0000 </r>
       <r>   15.3327    0.0000 </r>
       <r>   15.5637    0.0000 </r>
       <r>   16.2471    0.0000 </r>
      </set>
      <set comment="kpoint 14">
       <r>  -12.4149    1.0000 </r>
       <r>  -11.8998    1.0000 </r>
       <r>   -8.4788    1.0000 </r>
       <r>   -8.3350    1.0000 </r>
       <r>   -5.9579    1.0000 </r>
       <r>   -5.9343    1.0000 </r>
       <r>   -4.8013    1.0000 </r>
       <r>   -4.3651    1.0000 </r>
       <r>   -4.2644    1.0000 </r>
       <r>   -2.7932    1.0000 </r>
       <r>   -2.3010    1.0000 </r>
       <r>   -2.1597    1.0000 </r>
       <r>   -1.0564    1.0000 </r>
       <r>   -1.0002    1.0000 </r>
       <r>   -0.4280    1.0000 </r>
       <r>   -0.3532    1.0000 </r>
       <r>    0.0822    1.0000 </r>
       <r>    0.0885    1.0000 </r>
       <r>    0.6670    1.0000 </r>
       <r>    1.0635    1.0000 </r>
       <r>    1.1474    1.0000 </r>
       <r>    1.6123    1.0000 </r>
       <r>    6.1444    0.0000 </r>
       <r>    6.2638    0.0000 </r>
       <r>    6.4375    0.0000 </r>
       <r>    6.8480    0.0000 </r>
       <r>    7.3313    0.0000 </r>
       <r>    7.8090    0.0000 </r>
       <r>    8.0996    0.0000 </r>
       <r>    9.0792    0.0000 </r>
       <r>    9.1398    0.0000 </r>
       <r>    9.2026    0.0000 </r>
       <r>    9.9217    0.0000 </r>
       <r>   10.1954    0.0000 </r>
       <r>   10.7129    0.0000 </r>
       <r>   11.1071    0.0000 </r>
       <r>   11.3344    0.0000 </r>
       <r>   11.9791    0.0000 </r>
       <r>   12.3742    0.0000 </r>
       <r>   13.0282    0.0000 </r>
       <r>   13.0665    0.0000 </r>
       <r>   13.8324    0.0000 </r>
       <r>   14.4193    0.0000 </r>
       <r>   14.4481    0.0000 </r>
       <r>   15.0694    0.0000 </r>
       <r>   15.1851    0.0000 </r>
       <r>   15.6654    0.0000 </r>
       <r>   16.4190    0.0000 </r>
      </set>
      <set comment="kpoint 15">
       <r>  -12.2594    1.0000 </r>
       <r>  -12.0831    1.0000 </r>
       <r>   -8.4119    1.0000 </r>
       <r>   -8.3595    1.0000 </r>
       <r>   -6.0464    1.0000 </r>
       <r>   -6.0414    1.0000 </r>
       <r>   -4.6340    1.0000 </r>
       <r>   -4.4488    1.0000 </r>
       <r>   -3.8510    1.0000 </r>
       <r>   -3.2523    1.0000 </r>
       <r>   -2.0188    1.0000 </r>
       <r>   -1.8544    1.0000 </r>
       <r>   -1.0750    1.0000 </r>
       <r>   -1.0140    1.0000 </r>
       <r>   -0.6072    1.0000 </r>
       <r>   -0.6039    1.0000 </r>
       <r>    0.0358    1.0000 </r>
       <r>    0.0789    1.0000 </r>
       <r>    0.9296    1.0000 </r>
       <r>    1.0029    1.0000 </r>
       <r>    1.0427    1.0000 </r>
       <r>    1.2609    1.0000 </r>
       <r>    6.2316    0.0000 </r>
       <r>    6.3509    0.0000 </r>
       <r>    6.9214    0.0000 </r>
       <r>    7.2565    0.0000 </r>
       <r>    7.3095    0.0000 </r>
       <r>    7.6652    0.0000 </r>
       <r>    7.9637    0.0000 </r>
       <r>    8.4804    0.0000 </r>
       <r>    9.1300    0.0000 </r>
       <r>    9.1521    0.0000 </r>
       <r>   10.0386    0.0000 </r>
       <r>   10.5140    0.0000 </r>
       <r>   10.7188    0.0000 </r>
       <r>   10.9942    0.0000 </r>
       <r>   11.7530    0.0000 </r>
       <r>   11.7650    0.0000 </r>
       <r>   12.1473    0.0000 </r>
       <r>   12.9316    0.0000 </r>
       <r>   13.4625    0.0000 </r>
       <r>   13.8100    0.0000 </r>
       <r>   14.2629    0.0000 </r>
       <r>   14.4242    0.0000 </r>
       <r>   15.0529    0.0000 </r>
       <r>   15.1860    0.0000 </r>
       <r>   16.0537    0.0000 </r>
       <r>   16.3615    0.0000 </r>
      </set>
      <set comment="kpoint 16">
       <r>  -12.6110    1.0000 </r>
       <r>  -11.4703    1.0000 </r>
       <r>   -8.5638    1.0000 </r>
       <r>   -8.3042    1.0000 </r>
       <r>   -5.9230    1.0000 </r>
       <r>   -5.6061    1.0000 </r>
       <r>   -4.9317    1.0000 </r>
       <r>   -4.5399    1.0000 </r>
       <r>   -4.4331    1.0000 </r>
       <r>   -4.1108    1.0000 </r>
       <r>   -3.3935    1.0000 </r>
       <r>   -1.1891    1.0000 </r>
       <r>   -1.0418    1.0000 </r>
       <r>   -0.9693    1.0000 </r>
       <r>   -0.1633    1.0000 </r>
       <r>    0.2414    1.0000 </r>
       <r>    0.3713    1.0000 </r>
       <r>    0.6233    1.0000 </r>
       <r>    0.8175    1.0000 </r>
       <r>    1.0227    1.0000 </r>
       <r>    1.0297    1.0000 </r>
       <r>    2.3719    0.0000 </r>
       <r>    4.9793    0.0000 </r>
       <r>    5.1982    0.0000 </r>
       <r>    6.4083    0.0000 </r>
       <r>    6.6132    0.0000 </r>
       <r>    7.2680    0.0000 </r>
       <r>    8.0097    0.0000 </r>
       <r>    8.7038    0.0000 </r>
       <r>    9.0934    0.0000 </r>
       <r>    9.4737    0.0000 </r>
       <r>    9.6216    0.0000 </r>
       <r>    9.6614    0.0000 </r>
       <r>   10.7959    0.0000 </r>
       <r>   11.3272    0.0000 </r>
       <r>   12.0060    0.0000 </r>
       <r>   12.0410    0.0000 </r>
       <r>   12.3356    0.0000 </r>
       <r>   12.4707    0.0000 </r>
       <r>   12.4822    0.0000 </r>
       <r>   12.6016    0.0000 </r>
       <r>   13.0215    0.0000 </r>
       <r>   13.8114    0.0000 </r>
       <r>   13.9168    0.0000 </r>
       <r>   14.4340    0.0000 </r>
       <r>   15.1416    0.0000 </r>
       <r>   15.4413    0.0000 </r>
       <r>   15.9023    0.0000 </r>
      </set>
      <set comment="kpoint 17">
       <r>  -12.5673    1.0000 </r>
       <r>  -11.5439    1.0000 </r>
       <r>   -8.5415    1.0000 </r>
       <r>   -8.2949    1.0000 </r>
       <r>   -5.8439    1.0000 </r>
       <r>   -5.5717    1.0000 </r>
       <r>   -5.2675    1.0000 </r>
       <r>   -4.6735    1.0000 </r>
       <r>   -4.4998    1.0000 </r>
       <r>   -3.6443    1.0000 </r>
       <r>   -3.0527    1.0000 </r>
       <r>   -1.3588    1.0000 </r>
       <r>   -1.1331    1.0000 </r>
       <r>   -0.9850    1.0000 </r>
       <r>   -0.1680    1.0000 </r>
       <r>    0.2295    1.0000 </r>
       <r>    0.3008    1.0000 </r>
       <r>    0.6024    1.0000 </r>
       <r>    0.6962    1.0000 </r>
       <r>    0.9560    1.0000 </r>
       <r>    0.9902    1.0000 </r>
       <r>    2.2358    0.0000 </r>
       <r>    5.0747    0.0000 </r>
       <r>    5.5262    0.0000 </r>
       <r>    6.3472    0.0000 </r>
       <r>    6.7510    0.0000 </r>
       <r>    7.4070    0.0000 </r>
       <r>    7.9609    0.0000 </r>
       <r>    8.6545    0.0000 </r>
       <r>    9.1900    0.0000 </r>
       <r>    9.4429    0.0000 </r>
       <r>    9.8353    0.0000 </r>
       <r>    9.9103    0.0000 </r>
       <r>   10.3799    0.0000 </r>
       <r>   10.7508    0.0000 </r>
       <r>   11.7301    0.0000 </r>
       <r>   11.9157    0.0000 </r>
       <r>   12.2758    0.0000 </r>
       <r>   12.5174    0.0000 </r>
       <r>   12.6761    0.0000 </r>
       <r>   13.0096    0.0000 </r>
       <r>   13.4333    0.0000 </r>
       <r>   13.8184    0.0000 </r>
       <r>   13.9549    0.0000 </r>
       <r>   14.2737    0.0000 </r>
       <r>   15.1033    0.0000 </r>
       <r>   15.4701    0.0000 </r>
       <r>   15.7720    0.0000 </r>
      </set>
      <set comment="kpoint 18">
       <r>  -12.4816    1.0000 </r>
       <r>  -11.6769    1.0000 </r>
       <r>   -8.4957    1.0000 </r>
       <r>   -8.2835    1.0000 </r>
       <r>   -5.8050    1.0000 </r>
       <r>   -5.6516    1.0000 </r>
       <r>   -5.4196    1.0000 </r>
       <r>   -4.6470    1.0000 </r>
       <r>   -4.6201    1.0000 </r>
       <r>   -3.1018    1.0000 </r>
       <r>   -2.5807    1.0000 </r>
       <r>   -1.8441    1.0000 </r>
       <r>   -1.0723    1.0000 </r>
       <r>   -1.0034    1.0000 </r>
       <r>   -0.1851    1.0000 </r>
       <r>   -0.0270    1.0000 </r>
       <r>    0.3410    1.0000 </r>
       <r>    0.5350    1.0000 </r>
       <r>    0.5484    1.0000 </r>
       <r>    0.8650    1.0000 </r>
       <r>    0.9228    1.0000 </r>
       <r>    1.9759    0.0790 </r>
       <r>    5.4014    0.0000 </r>
       <r>    6.0042    0.0000 </r>
       <r>    6.3120    0.0000 </r>
       <r>    6.8686    0.0000 </r>
       <r>    7.5879    0.0000 </r>
       <r>    7.9728    0.0000 </r>
       <r>    8.5876    0.0000 </r>
       <r>    9.3866    0.0000 </r>
       <r>    9.4124    0.0000 </r>
       <r>    9.6405    0.0000 </r>
       <r>   10.0831    0.0000 </r>
       <r>   10.1410    0.0000 </r>
       <r>   10.5711    0.0000 </r>
       <r>   11.4033    0.0000 </r>
       <r>   11.4250    0.0000 </r>
       <r>   12.2670    0.0000 </r>
       <r>   12.7717    0.0000 </r>
       <r>   12.9955    0.0000 </r>
       <r>   13.2183    0.0000 </r>
       <r>   13.5747    0.0000 </r>
       <r>   13.7940    0.0000 </r>
       <r>   14.0492    0.0000 </r>
       <r>   14.4230    0.0000 </r>
       <r>   15.2045    0.0000 </r>
       <r>   15.4072    0.0000 </r>
       <r>   16.0256    0.0000 </r>
      </set>
      <set comment="kpoint 19">
       <r>  -12.3585    1.0000 </r>
       <r>  -11.8466    1.0000 </r>
       <r>   -8.4335    1.0000 </r>
       <r>   -8.2851    1.0000 </r>
       <r>   -5.8790    1.0000 </r>
       <r>   -5.8628    1.0000 </r>
       <r>   -5.3075    1.0000 </r>
       <r>   -4.7853    1.0000 </r>
       <r>   -4.3302    1.0000 </r>
       <r>   -2.7495    1.0000 </r>
       <r>   -2.2590    1.0000 </r>
       <r>   -2.1046    1.0000 </r>
       <r>   -1.0137    1.0000 </r>
       <r>   -0.9892    1.0000 </r>
       <r>   -0.3563    1.0000 </r>
       <r>   -0.3023    1.0000 </r>
       <r>    0.1776    1.0000 </r>
       <r>    0.4039    1.0000 </r>
       <r>    0.6859    1.0000 </r>
       <r>    0.8052    1.0000 </r>
       <r>    0.8536    1.0000 </r>
       <r>    1.6349    1.0000 </r>
       <r>    5.9274    0.0000 </r>
       <r>    6.3430    0.0000 </r>
       <r>    6.5807    0.0000 </r>
       <r>    6.8176    0.0000 </r>
       <r>    7.6012    0.0000 </r>
       <r>    8.0343    0.0000 </r>
       <r>    8.5436    0.0000 </r>
       <r>    8.9528    0.0000 </r>
       <r>    9.2899    0.0000 </r>
       <r>    9.6145    0.0000 </r>
       <r>    9.9316    0.0000 </r>
       <r>   10.3661    0.0000 </r>
       <r>   10.8125    0.0000 </r>
       <r>   11.1065    0.0000 </r>
       <r>   11.4511    0.0000 </r>
       <r>   12.1969    0.0000 </r>
       <r>   12.4393    0.0000 </r>
       <r>   13.1957    0.0000 </r>
       <r>   13.3134    0.0000 </r>
       <r>   13.6857    0.0000 </r>
       <r>   13.9453    0.0000 </r>
       <r>   14.1886    0.0000 </r>
       <r>   14.7960    0.0000 </r>
       <r>   15.0464    0.0000 </r>
       <r>   15.4788    0.0000 </r>
       <r>   16.3826    0.0000 </r>
      </set>
      <set comment="kpoint 20">
       <r>  -12.2041    1.0000 </r>
       <r>  -12.0288    1.0000 </r>
       <r>   -8.3652    1.0000 </r>
       <r>   -8.3122    1.0000 </r>
       <r>   -5.9698    1.0000 </r>
       <r>   -5.9628    1.0000 </r>
       <r>   -5.1473    1.0000 </r>
       <r>   -4.9672    1.0000 </r>
       <r>   -3.8183    1.0000 </r>
       <r>   -3.2215    1.0000 </r>
       <r>   -1.9620    1.0000 </r>
       <r>   -1.8075    1.0000 </r>
       <r>   -0.9526    1.0000 </r>
       <r>   -0.8962    1.0000 </r>
       <r>   -0.6540    1.0000 </r>
       <r>   -0.6059    1.0000 </r>
       <r>    0.1549    1.0000 </r>
       <r>    0.2557    1.0000 </r>
       <r>    0.7900    1.0000 </r>
       <r>    0.8042    1.0000 </r>
       <r>    0.9526    1.0000 </r>
       <r>    1.2756    1.0000 </r>
       <r>    6.4711    0.0000 </r>
       <r>    6.5908    0.0000 </r>
       <r>    6.6498    0.0000 </r>
       <r>    7.1745    0.0000 </r>
       <r>    7.2405    0.0000 </r>
       <r>    7.7349    0.0000 </r>
       <r>    8.5328    0.0000 </r>
       <r>    8.5936    0.0000 </r>
       <r>    9.4814    0.0000 </r>
       <r>    9.6715    0.0000 </r>
       <r>    9.8727    0.0000 </r>
       <r>   10.1632    0.0000 </r>
       <r>   10.8702    0.0000 </r>
       <r>   11.2504    0.0000 </r>
       <r>   11.8849    0.0000 </r>
       <r>   11.9659    0.0000 </r>
       <r>   12.2685    0.0000 </r>
       <r>   13.1685    0.0000 </r>
       <r>   13.4705    0.0000 </r>
       <r>   13.6490    0.0000 </r>
       <r>   13.8878    0.0000 </r>
       <r>   13.9889    0.0000 </r>
       <r>   15.1555    0.0000 </r>
       <r>   15.1643    0.0000 </r>
       <r>   15.7152    0.0000 </r>
       <r>   16.0200    0.0000 </r>
      </set>
      <set comment="kpoint 21">
       <r>  -12.5507    1.0000 </r>
[...]
       <r>   -2.3106    1.0000 </r>
       <r>   -2.1208    1.0000 </r>
       <r>   -1.9577    1.0000 </r>
       <r>   -1.4733    1.0000 </r>
       <r>   -0.7147    1.0000 </r>
       <r>   -0.1807    1.0000 </r>
       <r>    0.1971    1.0000 </r>
       <r>    0.4172    1.0000 </r>
       <r>    0.5336    1.0000 </r>
       <r>    1.6210    1.0000 </r>
       <r>    1.6598    1.0000 </r>
       <r>    1.9138    0.6357 </r>
       <r>    5.5401    0.0000 </r>
       <r>    6.1673    0.0000 </r>
       <r>    6.6897    0.0000 </r>
       <r>    7.2467    0.0000 </r>
       <r>    7.7976    0.0000 </r>
       <r>    8.2579    0.0000 </r>
       <r>    9.0220    0.0000 </r>
       <r>    9.1748    0.0000 </r>
       <r>    9.7609    0.0000 </r>
       <r>    9.9904    0.0000 </r>
       <r>   10.6267    0.0000 </r>
       <r>   11.0549    0.0000 </r>
       <r>   11.2165    0.0000 </r>
       <r>   11.4708    0.0000 </r>
       <r>   11.5905    0.0000 </r>
       <r>   11.9894    0.0000 </r>
       <r>   12.8738    0.0000 </r>
       <r>   13.1602    0.0000 </r>
       <r>   13.3947    0.0000 </r>
       <r>   13.7945    0.0000 </r>
       <r>   13.8954    0.0000 </r>
       <r>   14.2012    0.0000 </r>
       <r>   14.5261    0.0000 </r>
       <r>   14.9927    0.0000 </r>
       <r>   15.1345    0.0000 </r>
       <r>   15.4213    0.0000 </r>
      </set>
      <set comment="kpoint 175">
       <r>  -12.0277    1.0000 </r>
       <r>  -11.8874    1.0000 </r>
       <r>   -8.5520    1.0000 </r>
       <r>   -8.4397    1.0000 </r>
       <r>   -5.9309    1.0000 </r>
       <r>   -5.8254    1.0000 </r>
       <r>   -4.8844    1.0000 </r>
       <r>   -4.5602    1.0000 </r>
       <r>   -4.4048    1.0000 </r>
       <r>   -3.9636    1.0000 </r>
       <r>   -2.1731    1.0000 </r>
       <r>   -2.1102    1.0000 </r>
       <r>   -2.0498    1.0000 </r>
       <r>   -1.7616    1.0000 </r>
       <r>   -0.1962    1.0000 </r>
       <r>    0.0173    1.0000 </r>
       <r>    0.4212    1.0000 </r>
       <r>    0.5088    1.0000 </r>
       <r>    0.5724    1.0000 </r>
       <r>    0.9032    1.0000 </r>
       <r>    1.6750    1.0000 </r>
       <r>    1.7735    1.0000 </r>
       <r>    5.8841    0.0000 </r>
       <r>    6.0669    0.0000 </r>
       <r>    6.8928    0.0000 </r>
       <r>    7.4277    0.0000 </r>
       <r>    7.5014    0.0000 </r>
       <r>    7.5922    0.0000 </r>
       <r>    9.4390    0.0000 </r>
       <r>    9.6222    0.0000 </r>
       <r>    9.8277    0.0000 </r>
       <r>   10.0076    0.0000 </r>
       <r>   10.4953    0.0000 </r>
       <r>   10.8407    0.0000 </r>
       <r>   11.2655    0.0000 </r>
       <r>   11.5157    0.0000 </r>
       <r>   11.5225    0.0000 </r>
       <r>   11.6352    0.0000 </r>
       <r>   13.1165    0.0000 </r>
       <r>   13.2198    0.0000 </r>
       <r>   13.7334    0.0000 </r>
       <r>   14.0957    0.0000 </r>
       <r>   14.2259    0.0000 </r>
       <r>   14.3168    0.0000 </r>
       <r>   14.6311    0.0000 </r>
       <r>   14.7619    0.0000 </r>
       <r>   14.9131    0.0000 </r>
       <r>   15.0990    0.0000 </r>
      </set>
     </set>
    </set>
   </array>
  </eigenvalues>
  <separator name="orbital magnetization" >
   <v name="MAGDIPOLOUT">      0.00000000      0.00000000      0.00000000</v>
  </separator>
  <dos>
   <i name="efermi">      1.92602313 </i>
   <total>
    <array>
     <dimension dim="1">gridpoints</dimension>
     <dimension dim="2">spin</dimension>
     <field>energy</field>
     <field>total</field>
     <field>integrated</field>
     <set>
      <set comment="spin 1">
       <r>   -14.2034     0.0000     0.0000 </r>
       <r>   -14.0959     0.0000     0.0000 </r>
       <r>   -13.9884     0.0000     0.0000 </r>
       <r>   -13.8809     0.0000     0.0000 </r>
       <r>   -13.7735     0.0000     0.0000 </r>
       <r>   -13.6660     0.0000     0.0000 </r>
       <r>   -13.5585     0.0000     0.0000 </r>
       <r>   -13.4510     0.0000     0.0000 </r>
       <r>   -13.3435     0.0000     0.0000 </r>
       <r>   -13.2361     0.0000     0.0000 </r>
       <r>   -13.1286     0.0000     0.0000 </r>
       <r>   -13.0211     0.0000     0.0000 </r>
       <r>   -12.9136     0.0000     0.0000 </r>
       <r>   -12.8061     0.0038     0.0004 </r>
       <r>   -12.6987     0.5048     0.0547 </r>
       <r>   -12.5912     2.3607     0.3084 </r>
       <r>   -12.4837     3.5249     0.6872 </r>
       <r>   -12.3762     4.3385     1.1535 </r>
       <r>   -12.2687     3.5146     1.5313 </r>
       <r>   -12.1613     2.7195     1.8236 </r>
       <r>   -12.0538     2.7425     2.1184 </r>
       <r>   -11.9463     2.4523     2.3819 </r>
       <r>   -11.8388     2.7614     2.6787 </r>
       <r>   -11.7313     3.3359     3.0373 </r>
       <r>   -11.6239     3.5111     3.4146 </r>
       <r>   -11.5164     3.1750     3.7559 </r>
       <r>   -11.4089     1.7542     3.9444 </r>
       <r>   -11.3014     0.5039     3.9986 </r>
       <r>   -11.1939     0.0131     4.0000 </r>
       <r>   -11.0865     0.0000     4.0000 </r>
       <r>   -10.9790     0.0000     4.0000 </r>
       <r>   -10.8715     0.0000     4.0000 </r>
       <r>   -10.7640     0.0000     4.0000 </r>
       <r>   -10.6565     0.0000     4.0000 </r>
       <r>   -10.5491     0.0000     4.0000 </r>
       <r>   -10.4416     0.0000     4.0000 </r>
       <r>   -10.3341     0.0000     4.0000 </r>
       <r>   -10.2266     0.0000     4.0000 </r>
       <r>   -10.1191     0.0000     4.0000 </r>
       <r>   -10.0117     0.0000     4.0000 </r>
       <r>    -9.9042     0.0000     4.0000 </r>
       <r>    -9.7967     0.0000     4.0000 </r>
       <r>    -9.6892     0.0000     4.0000 </r>
       <r>    -9.5817     0.0000     4.0000 </r>
       <r>    -9.4743     0.0000     4.0000 </r>
       <r>    -9.3668     0.0000     4.0000 </r>
       <r>    -9.2593     0.0000     4.0000 </r>
       <r>    -9.1518     0.0000     4.0000 </r>
       <r>    -9.0443     0.0000     4.0000 </r>
       <r>    -8.9369     0.0007     4.0001 </r>
       <r>    -8.8294     0.2870     4.0309 </r>
       <r>    -8.7219     2.1106     4.2578 </r>
       <r>    -8.6144     5.3499     4.8328 </r>
       <r>    -8.5069     6.9988     5.5850 </r>
       <r>    -8.3995     6.2528     6.2571 </r>
       <r>    -8.2920     5.3035     6.8271 </r>
       <r>    -8.1845     4.8149     7.3446 </r>
       <r>    -8.0770     3.8129     7.7544 </r>
       <r>    -7.9695     1.6474     7.9315 </r>
       <r>    -7.8621     0.5819     7.9940 </r>
       <r>    -7.7546     0.0556     8.0000 </r>
       <r>    -7.6471     0.0000     8.0000 </r>
       <r>    -7.5396     0.0000     8.0000 </r>
       <r>    -7.4321     0.0000     8.0000 </r>
       <r>    -7.3247     0.0000     8.0000 </r>
       <r>    -7.2172     0.0000     8.0000 </r>
       <r>    -7.1097     0.0000     8.0000 </r>
       <r>    -7.0022     0.0004     8.0000 </r>
       <r>    -6.8947     0.1122     8.0121 </r>
       <r>    -6.7873     0.2590     8.0399 </r>
       <r>    -6.6798     0.4284     8.0860 </r>
       <r>    -6.5723     0.7705     8.1688 </r>
       <r>    -6.4648     0.8579     8.2610 </r>
       <r>    -6.3573     1.4512     8.4170 </r>
       <r>    -6.2498     1.9848     8.6303 </r>
       <r>    -6.1424     3.0641     8.9596 </r>
       <r>    -6.0349     3.7822     9.3661 </r>
       <r>    -5.9274     4.1188     9.8088 </r>
       <r>    -5.8199     4.0845    10.2478 </r>
       <r>    -5.7124     3.8417    10.6607 </r>
       <r>    -5.6050     4.0911    11.1004 </r>
       <r>    -5.4975     4.2804    11.5605 </r>
       <r>    -5.3900     4.5474    12.0493 </r>
       <r>    -5.2825     4.5599    12.5394 </r>
       <r>    -5.1750     4.4584    13.0185 </r>
       <r>    -5.0676     3.7843    13.4253 </r>
       <r>    -4.9601     3.2266    13.7721 </r>
       <r>    -4.8526     2.9135    14.0852 </r>
       <r>    -4.7451     2.3192    14.3345 </r>
       <r>    -4.6376     2.8782    14.6438 </r>
       <r>    -4.5302     3.3267    15.0014 </r>
       <r>    -4.4227     3.4770    15.3751 </r>
       <r>    -4.3152     3.3173    15.7316 </r>
       <r>    -4.2077     2.9310    16.0467 </r>
       <r>    -4.1002     2.8877    16.3570 </r>
       <r>    -3.9928     2.9407    16.6731 </r>
       <r>    -3.8853     2.8486    16.9793 </r>
       <r>    -3.7778     3.0774    17.3100 </r>
       <r>    -3.6703     2.9049    17.6223 </r>
       <r>    -3.5628     2.6737    17.9096 </r>
       <r>    -3.4554     3.0588    18.2384 </r>
       <r>    -3.3479     2.6363    18.5217 </r>
       <r>    -3.2404     2.8539    18.8285 </r>
       <r>    -3.1329     2.7251    19.1214 </r>
       <r>    -3.0254     2.7446    19.4164 </r>
       <r>    -2.9180     3.0771    19.7471 </r>
       <r>    -2.8105     2.9567    20.0649 </r>
       <r>    -2.7030     2.4134    20.3243 </r>
       <r>    -2.5955     2.5903    20.6027 </r>
       <r>    -2.4880     2.9869    20.9237 </r>
       <r>    -2.3806     2.9921    21.2453 </r>
       <r>    -2.2731     3.3329    21.6035 </r>
       <r>    -2.1656     3.8991    22.0226 </r>
       <r>    -2.0581     3.5992    22.4094 </r>
       <r>    -1.9506     3.1604    22.7491 </r>
       <r>    -1.8432     4.9055    23.2764 </r>
       <r>    -1.7357     5.5638    23.8743 </r>
       <r>    -1.6282     5.5721    24.4732 </r>
       <r>    -1.5207     6.0313    25.1215 </r>
       <r>    -1.4132     6.0835    25.7753 </r>
       <r>    -1.3058     5.6595    26.3836 </r>
       <r>    -1.1983     4.6850    26.8872 </r>
       <r>    -1.0908     6.3728    27.5721 </r>
       <r>    -0.9833     4.2182    28.0255 </r>
       <r>    -0.8758     2.3155    28.2744 </r>
       <r>    -0.7684     2.7132    28.5660 </r>
       <r>    -0.6609     2.8769    28.8752 </r>
       <r>    -0.5534     4.4281    29.3511 </r>
       <r>    -0.4459     6.7685    30.0786 </r>
       <r>    -0.3384     5.6064    30.6812 </r>
       <r>    -0.2310     6.5340    31.3835 </r>
       <r>    -0.1235     6.3621    32.0673 </r>
       <r>    -0.0160     6.7196    32.7895 </r>
       <r>     0.0915     6.8015    33.5205 </r>
       <r>     0.1990     6.1533    34.1819 </r>
       <r>     0.3064     8.8329    35.1312 </r>
       <r>     0.4139     8.1092    36.0028 </r>
       <r>     0.5214     8.6473    36.9322 </r>
       <r>     0.6289     5.3615    37.5085 </r>
       <r>     0.7364     3.0051    37.8315 </r>
       <r>     0.8438     3.1467    38.1697 </r>
       <r>     0.9513     3.5764    38.5541 </r>
       <r>     1.0588     3.5521    38.9358 </r>
       <r>     1.1663     2.7907    39.2358 </r>
       <r>     1.2738     3.2649    39.5867 </r>
       <r>     1.3812     4.3163    40.0506 </r>
       <r>     1.4887     3.8698    40.4666 </r>
       <r>     1.5962     3.6565    40.8596 </r>
       <r>     1.7037     4.5649    41.3502 </r>
       <r>     1.8112     3.4474    41.7207 </r>
       <r>     1.9186     2.4210    41.9809 </r>
       <r>     2.0261     2.6878    42.2698 </r>
       <r>     2.1336     2.1149    42.4971 </r>
       <r>     2.2411     2.6181    42.7785 </r>
       <r>     2.3486     2.6645    43.0649 </r>
       <r>     2.4561     2.0554    43.2858 </r>
       <r>     2.5635     0.9680    43.3899 </r>
       <r>     2.6710     0.3904    43.4318 </r>
       <r>     2.7785     0.5502    43.4910 </r>
       <r>     2.8860     0.4396    43.5382 </r>
       <r>     2.9935     0.2765    43.5679 </r>
       <r>     3.1009     0.6887    43.6420 </r>
       <r>     3.2084     1.0602    43.7559 </r>
       <r>     3.3159     0.5916    43.8195 </r>
       <r>     3.4234     0.0255    43.8222 </r>
       <r>     3.5309     0.0908    43.8320 </r>
       <r>     3.6383     0.3944    43.8744 </r>
       <r>     3.7458     0.3481    43.9118 </r>
       <r>     3.8533     0.3325    43.9475 </r>
       <r>     3.9608     0.4406    43.9949 </r>
       <r>     4.0683     0.0474    44.0000 </r>
       <r>     4.1757     0.0001    44.0000 </r>
       <r>     4.2832     0.0425    44.0046 </r>
       <r>     4.3907     0.1837    44.0243 </r>
       <r>     4.4982     0.4061    44.0680 </r>
       <r>     4.6057     0.4806    44.1196 </r>
       <r>     4.7131     0.6340    44.1878 </r>
       <r>     4.8206     0.8933    44.2838 </r>
       <r>     4.9281     0.8338    44.3734 </r>
       <r>     5.0356     0.8372    44.4634 </r>
       <r>     5.1431     1.2469    44.5974 </r>
       <r>     5.2505     1.1513    44.7211 </r>
       <r>     5.3580     1.6138    44.8946 </r>
       <r>     5.4655     2.1965    45.1307 </r>
       <r>     5.5730     2.4717    45.3963 </r>
       <r>     5.6805     2.7146    45.6881 </r>
       <r>     5.7879     3.3590    46.0491 </r>
       <r>     5.8954     3.2553    46.3990 </r>
       <r>     6.0029     4.2959    46.8607 </r>
       <r>     6.1104     4.7620    47.3726 </r>
       <r>     6.2179     3.9980    47.8023 </r>
       <r>     6.3253     4.5861    48.2952 </r>
       <r>     6.4328     4.1888    48.7454 </r>
       <r>     6.5403     4.0690    49.1827 </r>
       <r>     6.6478     4.4924    49.6656 </r>
       <r>     6.7553     3.1571    50.0049 </r>
       <r>     6.8627     4.0771    50.4431 </r>
       <r>     6.9702     4.7047    50.9488 </r>
       <r>     7.0777     4.6017    51.4434 </r>
       <r>     7.1852     4.3827    51.9144 </r>
       <r>     7.2927     5.6949    52.5265 </r>
       <r>     7.4001     4.8113    53.0436 </r>
       <r>     7.5076     4.5000    53.5273 </r>
       <r>     7.6151     4.0917    53.9671 </r>
       <r>     7.7226     3.5740    54.3512 </r>
       <r>     7.8301     3.0898    54.6833 </r>
       <r>     7.9375     2.9210    54.9972 </r>
       <r>     8.0450     3.1342    55.3341 </r>
       <r>     8.1525     4.1495    55.7801 </r>
       <r>     8.2600     3.9656    56.2063 </r>
       <r>     8.3675     3.6203    56.5954 </r>
       <r>     8.4749     4.2295    57.0500 </r>
       <r>     8.5824     4.0339    57.4836 </r>
       <r>     8.6899     4.6352    57.9818 </r>
       <r>     8.7974     4.5707    58.4730 </r>
       <r>     8.9049     5.4101    59.0545 </r>
       <r>     9.0123     4.5496    59.5435 </r>
       <r>     9.1198     5.3905    60.1229 </r>
       <r>     9.2273     5.1383    60.6751 </r>
       <r>     9.3348     4.8592    61.1974 </r>
       <r>     9.4423     4.7347    61.7063 </r>
       <r>     9.5497     4.3363    62.1724 </r>
       <r>     9.6572     5.1439    62.7252 </r>
       <r>     9.7647     4.8703    63.2487 </r>
       <r>     9.8722     5.3173    63.8202 </r>
       <r>     9.9797     4.1391    64.2651 </r>
       <r>    10.0871     3.8664    64.6806 </r>
       <r>    10.1946     5.4404    65.2654 </r>
       <r>    10.3021     4.4691    65.7457 </r>
       <r>    10.4096     4.2052    66.1977 </r>
       <r>    10.5171     5.8938    66.8311 </r>
       <r>    10.6245     5.1355    67.3831 </r>
       <r>    10.7320     4.2409    67.8389 </r>
       <r>    10.8395     3.6311    68.2292 </r>
       <r>    10.9470     3.3943    68.5940 </r>
       <r>    11.0545     5.1623    69.1489 </r>
       <r>    11.1620     5.3199    69.7206 </r>
       <r>    11.2694     6.6174    70.4319 </r>
       <r>    11.3769     5.5550    71.0289 </r>
       <r>    11.4844     5.2374    71.5919 </r>
       <r>    11.5919     4.3477    72.0591 </r>
       <r>    11.6994     4.4957    72.5423 </r>
       <r>    11.8068     5.0299    73.0830 </r>
       <r>    11.9143     4.9942    73.6197 </r>
       <r>    12.0218     5.8057    74.2437 </r>
       <r>    12.1293     6.3635    74.9277 </r>
       <r>    12.2368     5.5324    75.5223 </r>
       <r>    12.3442     5.6614    76.1308 </r>
       <r>    12.4517     4.9005    76.6575 </r>
       <r>    12.5592     5.5300    77.2519 </r>
       <r>    12.6667     6.1473    77.9126 </r>
       <r>    12.7742     5.8929    78.5460 </r>
       <r>    12.8816     5.6871    79.1572 </r>
       <r>    12.9891     5.9622    79.7980 </r>
       <r>    13.0966     5.6600    80.4064 </r>
       <r>    13.2041     6.4021    81.0945 </r>
       <r>    13.3116     5.9117    81.7298 </r>
       <r>    13.4190     5.6846    82.3408 </r>
       <r>    13.5265     5.9449    82.9798 </r>
       <r>    13.6340     5.2553    83.5446 </r>
       <r>    13.7415     4.7929    84.0598 </r>
       <r>    13.8490     6.5258    84.7612 </r>
       <r>    13.9564     5.1444    85.3141 </r>
       <r>    14.0639     5.4680    85.9018 </r>
       <r>    14.1714     5.3102    86.4725 </r>
       <r>    14.2789     4.3358    86.9385 </r>
       <r>    14.3864     4.9954    87.4754 </r>
       <r>    14.4938     5.1398    88.0279 </r>
       <r>    14.6013     4.9587    88.5608 </r>
       <r>    14.7088     5.1451    89.1138 </r>
       <r>    14.8163     5.1768    89.6702 </r>
       <r>    14.9238     4.0055    90.1007 </r>
       <r>    15.0312     5.2228    90.6621 </r>
       <r>    15.1387     6.3392    91.3434 </r>
       <r>    15.2462     5.3721    91.9208 </r>
       <r>    15.3537     6.0591    92.5720 </r>
       <r>    15.4612     5.8627    93.2022 </r>
       <r>    15.5686     5.6434    93.8087 </r>
       <r>    15.6761     5.7627    94.4281 </r>
       <r>    15.7836     4.3048    94.8908 </r>
       <r>    15.8911     2.3411    95.1424 </r>
       <r>    15.9986     2.7203    95.4348 </r>
       <r>    16.1060     1.6546    95.6126 </r>
       <r>    16.2135     1.0737    95.7280 </r>
       <r>    16.3210     0.8729    95.8218 </r>
       <r>    16.4285     0.7096    95.8981 </r>
       <r>    16.5360     0.7673    95.9806 </r>
       <r>    16.6434     0.1790    95.9998 </r>
       <r>    16.7509     0.0017    96.0000 </r>
       <r>    16.8584     0.0000    96.0000 </r>
       <r>    16.9659     0.0000    96.0000 </r>
       <r>    17.0734     0.0000    96.0000 </r>
       <r>    17.1808     0.0000    96.0000 </r>
       <r>    17.2883     0.0000    96.0000 </r>
       <r>    17.3958     0.0000    96.0000 </r>
       <r>    17.5033     0.0000    96.0000 </r>
       <r>    17.6108     0.0000    96.0000 </r>
       <r>    17.7182     0.0000    96.0000 </r>
       <r>    17.8257     0.0000    96.0000 </r>
       <r>    17.9332     0.0000    96.0000 </r>
       <r>    18.0407     0.0000    96.0000 </r>
      </set>
     </set>
    </array>
   </total>
  </dos>
 </calculation>
 <structure name="finalpos" >
  <crystal>
   <varray name="basis" >
    <v>       5.69700000       0.00000000       0.00000000 </v>
    <v>       0.00000000       4.04790000       0.00000000 </v>
    <v>       0.00000000       0.00000000       6.20420000 </v>
   </varray>
   <i name="volume">    143.07435078 </i>
   <varray name="rec_basis" >
    <v>       0.17553098       0.00000000       0.00000000 </v>
    <v>       0.00000000       0.24704168       0.00000000 </v>
    <v>       0.00000000       0.00000000       0.16118114 </v>
   </varray>
  </crystal>
  <varray name="positions" >
   <v>       0.52123000       0.50000000       0.63796000 </v>
   <v>       0.47877000       0.50000000       0.36204000 </v>
   <v>       0.97877000       0.50000000       0.63796000 </v>
   <v>       0.02123000       0.50000000       0.36204000 </v>
   <v>       0.60090000       0.50000000       0.89991000 </v>
   <v>       0.39910000       0.50000000       0.10009000 </v>
   <v>       0.89910000       0.50000000       0.89991000 </v>
   <v>       0.10090000       0.50000000       0.10009000 </v>
   <v>       0.75000000       0.79171000       0.72973000 </v>
   <v>       0.25000000       0.20829000       0.27027000 </v>
   <v>       0.75000000       0.20829000       0.72973000 </v>
   <v>       0.25000000       0.79171000       0.27027000 </v>
   <v>       0.25000000       0.50000000       0.52367000 </v>
   <v>       0.75000000       0.50000000       0.47633000 </v>
  </varray>
 </structure>
</modeling>
