   14   14    1    1
  0.1021960E+02  0.5697000E-09  0.4047900E-09  0.6204200E-09  0.5000000E-15
  1.000000000000000E-004
  CAR 
 Kpoints                                 
     42   1260     48
 
  0.0000000E+00  0.0000000E+00  0.0000000E+00  0.1146657E-03
      1        -12.733317   1.000000
      2        -11.576218   1.000000
      3         -8.662002   1.000000
      4         -8.424745   1.000000
      5         -6.077298   1.000000
      6         -5.059220   1.000000
      7         -4.638095   1.000000
      8         -4.349334   1.000000
      9         -3.973319   1.000000
     10         -3.598426   1.000000
     11         -2.421784   1.000000
     12         -2.242309   1.000000
     13         -2.182988   1.000000
     14         -1.052401   1.000000
     15         -0.036888   1.000000
     16         -0.002992   1.000000
     17          0.149889   1.000000
     18          0.173346   1.000000
     19          0.565167   1.000000
     20          2.080158   0.000000
     21          2.126391   0.000000
     22          2.215184   0.000000
     23          5.411947   0.000000
     24          5.802244   0.000000
     25          5.817780   0.000000
     26          5.911183   0.000000
     27          6.786343   0.000000
     28          7.673307   0.000000
     29          7.701757   0.000000
     30          8.634552   0.000000
     31          8.753129   0.000000
     32          8.853392   0.000000
     33          9.041197   0.000000
     34         10.029601   0.000000
     35         11.144346   0.000000
     36         11.400194   0.000000
     37         11.770057   0.000000
     38         11.802593   0.000000
     39         11.899573   0.000000
     40         12.354921   0.000000
     41         12.804995   0.000000
     42         13.395376   0.000000
     43         13.574365   0.000000
     44         15.554973   0.000000
     45         15.567989   0.000000
     46         15.942384   0.000000
     47         16.359165   0.000000
     48         16.599381   0.000000
 
  0.5263158E-01  0.0000000E+00  0.0000000E+00  0.2293315E-03
      1        -12.727215   1.000000
      2        -11.586858   1.000000
      3         -8.659181   1.000000
      4         -8.422929   1.000000
      5         -6.064445   1.000000
      6         -5.141201   1.000000
      7         -4.669925   1.000000
      8         -4.252574   1.000000
      9         -3.964763   1.000000
     10         -3.539248   1.000000
     11         -2.419161   1.000000
     12         -2.244015   1.000000
     13         -2.202951   1.000000
     14         -1.098516   1.000000
     15         -0.030775   1.000000
     16          0.007178   1.000000
     17          0.154618   1.000000
     18          0.157051   1.000000
     19          0.551137   1.000000
     20          2.067217   0.000000
     21          2.114950   0.000000
     22          2.198720   0.000000
     23          5.425863   0.000000
     24          5.794309   0.000000
     25          5.797697   0.000000
     26          5.992450   0.000000
     27          6.773098   0.000000
     28          7.497668   0.000000
     29          7.847382   0.000000
     30          8.654867   0.000000
     31          8.808839   0.000000
     32          8.890272   0.000000
     33          9.044128   0.000000
     34         10.047934   0.000000
     35         11.154659   0.000000
     36         11.340380   0.000000
     37         11.665440   0.000000
     38         11.767009   0.000000
     39         11.932398   0.000000
     40         12.367120   0.000000
     41         12.874677   0.000000
     42         13.504300   0.000000
     43         13.517076   0.000000
     44         15.363381   0.000000
     45         15.602664   0.000000
     46         16.080540   0.000000
     47         16.345564   0.000000
     48         16.375098   0.000000
 
  0.1052632E+00  0.0000000E+00  0.0000000E+00  0.2293315E-03
      1        -12.708965   1.000000
      2        -11.618130   1.000000
      3         -8.650543   1.000000
      4         -8.417804   1.000000
      5         -6.031061   1.000000
      6         -5.313528   1.000000
      7         -4.738801   1.000000
      8         -4.036264   1.000000
      9         -3.939182   1.000000
     10         -3.384463   1.000000
     11         -2.411204   1.000000
     12         -2.260790   1.000000
     13         -2.249093   1.000000
     14         -1.231202   1.000000
     15         -0.012667   1.000000
     16          0.036178   1.000000
     17          0.099215   1.000000
     18          0.176431   1.000000
     19          0.509624   1.000000
     20          2.029594   0.000010
     21          2.081610   0.000000
     22          2.149206   0.000000
     23          5.464718   0.000000
     24          5.772473   0.000000
     25          5.815005   0.000000
     26          6.156779   0.000000
     27          6.735464   0.000000
     28          7.300342   0.000000
     29          7.969694   0.000000
     30          8.712778   0.000000
     31          8.958051   0.000000
     32          8.995518   0.000000
     33          9.051234   0.000000
     34         10.104223   0.000000
     35         11.169516   0.000000
     36         11.186014   0.000000
     37         11.410944   0.000000
     38         11.704109   0.000000
     39         12.027558   0.000000
     40         12.403236   0.000000
     41         13.024887   0.000000
     42         13.357882   0.000000
     43         13.772097   0.000000
     44         15.059584   0.000000
     45         15.696161   0.000000
     46         16.064006   0.000000
     47         16.246600   0.000000
     48         16.421189   0.000000
 
  0.1578947E+00  0.0000000E+00  0.0000000E+00  0.2293315E-03
      1        -12.678780   1.000000
      2        -11.668216   1.000000
      3         -8.635749   1.000000
      4         -8.410350   1.000000
      5         -5.992623   1.000000
      6         -5.502281   1.000000
      7         -4.794761   1.000000
      8         -3.896781   1.000000
      9         -3.775855   1.000000
     10         -3.172406   1.000000
     11         -2.397597   1.000000
     12         -2.351048   1.000000
     13         -2.257392   1.000000
     14         -1.435753   1.000000
     15          0.009603   1.000000
     16          0.016686   1.000000
     17          0.079839   1.000000
     18          0.196749   1.000000
     19          0.449311   1.000000
     20          1.970939   0.004487
     21          2.029188   0.000010
     22          2.066713   0.000000
     23          5.521016   0.000000
     24          5.742303   0.000000
     25          5.897711   0.000000
     26          6.370278   0.000000
     27          6.679297   0.000000
     28          7.114311   0.000000
     29          8.066631   0.000000
     30          8.797950   0.000000
     31          9.031493   0.000000
     32          9.162839   0.000000
     33          9.180610   0.000000
     34         10.204394   0.000000
     35         10.909508   0.000000
     36         11.093449   0.000000
     37         11.238189   0.000000
     38         11.678752   0.000000
     39         12.168226   0.000000
     40         12.469602   0.000000
     41         13.123910   0.000000
     42         13.134389   0.000000
     43         14.115218   0.000000
     44         14.820208   0.000000
     45         15.758337   0.000000
     46         15.827411   0.000000
     47         16.321474   0.000000
     48         16.493438   0.000000
 
  0.2105263E+00  0.0000000E+00  0.0000000E+00  0.2293315E-03
      1        -12.637023   1.000000
      2        -11.734374   1.000000
      3         -8.614617   1.000000
      4         -8.402152   1.000000
      5         -5.971360   1.000000
      6         -5.680649   1.000000
      7         -4.794839   1.000000
      8         -3.837930   1.000000
      9         -3.501680   1.000000
     10         -2.929997   1.000000
     11         -2.466448   1.000000
     12         -2.377829   1.000000
     13         -2.268545   1.000000
     14         -1.692861   1.000000
     15         -0.110286   1.000000
     16          0.055968   1.000000
     17          0.132534   1.000000
     18          0.173038   1.000000
     19          0.414520   1.000000
     20          1.897281   0.298163
     21          1.952687   0.018005
     22          1.962012   0.009124
     23          5.584811   0.000000
     24          5.711406   0.000000
     25          6.046976   0.000000
     26          6.612872   0.000000
     27          6.622741   0.000000
     28          6.950444   0.000000
     29          8.149825   0.000000
     30          8.887719   0.000000
     31          8.996325   0.000000
     32          9.392601   0.000000
     33          9.407883   0.000000
     34         10.361141   0.000000
     35         10.584644   0.000000
     36         10.774324   0.000000
     37         11.305403   0.000000
     38         11.723318   0.000000
     39         12.303702   0.000000
     40         12.601576   0.000000
     41         12.840609   0.000000
     42         13.080369   0.000000
     43         14.488356   0.000000
     44         14.747570   0.000000
     45         15.442247   0.000000
     46         15.978715   0.000000
     47         16.216916   0.000000
     48         16.491244   0.000000
 
  0.2631579E+00  0.0000000E+00  0.0000000E+00  0.2293315E-03
      1        -12.584226   1.000000
      2        -11.813285   1.000000
      3         -8.587518   1.000000
      4         -8.395326   1.000000
      5         -5.982990   1.000000
      6         -5.837562   1.000000
      7         -4.714394   1.000000
      8         -3.763183   1.000000
      9         -3.233420   1.000000
     10         -2.675477   1.000000
     11         -2.599493   1.000000
     12         -2.353029   1.000000
     13         -2.281233   1.000000
     14         -1.978158   1.000000
     15         -0.254695   1.000000
     16          0.058798   1.000000
     17          0.103130   1.000000
     18          0.188065   1.000000
     19          0.454694   1.000000
     20          1.810959   0.972053
     21          1.816596   0.960150
     22          1.885587   0.421163
     23          5.645909   0.000000
     24          5.687154   0.000000
     25          6.258618   0.000000
     26          6.545677   0.000000
     27          6.812071   0.000000
     28          6.906877   0.000000
     29          8.224346   0.000000
     30          8.930303   0.000000
     31          8.935966   0.000000
     32          9.633805   0.000000
     33          9.668487   0.000000
     34         10.214073   0.000000
     35         10.517993   0.000000
     36         10.589620   0.000000
     37         11.370131   0.000000
     38         11.841722   0.000000
     39         12.390826   0.000000
     40         12.526677   0.000000
     41         12.824483   0.000000
     42         12.842394   0.000000
     43         14.832625   0.000000
     44         14.869225   0.000000
     45         15.129533   0.000000
     46         15.967440   0.000000
     47         16.095834   0.000000
     48         16.137244   0.000000
 
  0.3157895E+00  0.0000000E+00  0.0000000E+00  0.2293315E-03
      1        -12.521076   1.000000
      2        -11.901383   1.000000
      3         -8.555542   1.000000
      4         -8.392295   1.000000
      5         -6.023741   1.000000
      6         -5.966743   1.000000
      7         -4.554052   1.000000
      8         -3.673245   1.000000
      9         -3.002460   1.000000
     10         -2.743265   1.000000
     11         -2.434203   1.000000
     12         -2.371790   1.000000
     13         -2.284392   1.000000
     14         -2.207151   1.000000
     15         -0.414787   1.000000
     16         -0.111868   1.000000
     17          0.155157   1.000000
     18          0.239935   1.000000
     19          0.542531   1.000000
     20          1.647971   1.000000
     21          1.738269   0.999964
     22          1.806367   0.979412
     23          5.674661   0.000000
     24          5.695252   0.000000
     25          6.487725   0.000000
     26          6.525707   0.000000
     27          6.698196   0.000000
     28          7.216970   0.000000
     29          8.291935   0.000000
     30          8.842224   0.000000
     31          8.870721   0.000000
     32          9.819812   0.000000
     33          9.884499   0.000000
     34          9.937085   0.000000
     35         10.398441   0.000000
     36         10.897817   0.000000
     37         11.404294   0.000000
     38         12.022608   0.000000
     39         12.195460   0.000000
     40         12.456384   0.000000
     41         12.503434   0.000000
     42         13.083036   0.000000
     43         14.841026   0.000000
     44         14.954962   0.000000
     45         15.244378   0.000000
     46         15.603034   0.000000
     47         15.659510   0.000000
     48         16.289422   0.000000
 
  0.3684211E+00  0.0000000E+00  0.0000000E+00  0.2293315E-03
      1        -12.448496   1.000000
      2        -11.995170   1.000000
      3         -8.520614   1.000000
      4         -8.395396   1.000000
      5         -6.076514   1.000000
      6         -6.064113   1.000000
      7         -4.330289   1.000000
      8         -3.569116   1.000000
      9         -2.919881   1.000000
     10         -2.891921   1.000000
     11         -2.525369   1.000000
     12         -2.348860   1.000000
     13         -2.177106   1.000000
     14         -2.154003   1.000000
     15         -0.574741   1.000000
     16         -0.307715   1.000000
     17          0.207805   1.000000
     18          0.281422   1.000000
     19          0.657504   1.000000
     20          1.471919   1.000000
     21          1.672281   1.000000
     22          1.731566   0.999984
     23          5.675603   0.000000
     24          5.725956   0.000000
     25          6.448241   0.000000
     26          6.606159   0.000000
     27          6.839606   0.000000
     28          7.548355   0.000000
     29          8.355004   0.000000
     30          8.653716   0.000000
     31          8.744823   0.000000
     32          9.420073   0.000000
     33         10.143564   0.000000
     34         10.192674   0.000000
     35         10.451554   0.000000
     36         11.276212   0.000000
     37         11.387065   0.000000
     38         11.857205   0.000000
     39         12.130513   0.000000
     40         12.253864   0.000000
     41         12.510410   0.000000
     42         13.289257   0.000000
     43         14.618506   0.000000
     44         15.013672   0.000000
     45         15.137227   0.000000
     46         15.334475   0.000000
     47         15.602816   0.000000
     48         16.413052   0.000000
 
  0.4210526E+00  0.0000000E+00  0.0000000E+00  0.2293315E-03
      1        -12.367633   1.000000
      2        -12.091392   1.000000
      3         -8.485369   1.000000
      4         -8.406362   1.000000
      5         -6.127382   1.000000
      6         -6.124042   1.000000
      7         -4.061045   1.000000
      8         -3.452005   1.000000
      9         -3.133573   1.000000
     10         -3.040648   1.000000
     11         -2.503443   1.000000
     12         -2.367415   1.000000
     13         -2.058056   1.000000
     14         -1.974765   1.000000
     15         -0.703094   1.000000
     16         -0.504960   1.000000
     17          0.255498   1.000000
     18          0.306157   1.000000
     19          0.793324   1.000000
     20          1.291417   1.000000
     21          1.628040   1.000000
     22          1.669135   1.000000
     23          5.688257   0.000000
     24          5.735288   0.000000
     25          6.433568   0.000000
     26          6.533506   0.000000
     27          7.190436   0.000000
     28          7.897414   0.000000
     29          8.328237   0.000000
     30          8.417787   0.000000
     31          8.649207   0.000000
     32          9.024594   0.000000
     33         10.395881   0.000000
     34         10.417128   0.000000
     35         10.635424   0.000000
     36         11.332202   0.000000
     37         11.520943   0.000000
     38         11.683194   0.000000
     39         11.784159   0.000000
     40         12.510124   0.000000
     41         12.514366   0.000000
     42         13.312016   0.000000
     43         14.540636   0.000000
     44         14.816545   0.000000
     45         14.972668   0.000000
     46         15.027803   0.000000
     47         15.931941   0.000000
     48         16.468424   0.000000
 
  0.4736842E+00  0.0000000E+00  0.0000000E+00  0.2293315E-03
      1        -12.279940   1.000000
      2        -12.187156   1.000000
      3         -8.452809   1.000000
      4         -8.425781   1.000000
      5         -6.156414   1.000000
      6         -6.153551   1.000000
      7         -3.761239   1.000000
      8         -3.444704   1.000000
      9         -3.323471   1.000000
     10         -3.185527   1.000000
     11         -2.443748   1.000000
     12         -2.399544   1.000000
     13         -1.934725   1.000000
     14         -1.890244   1.000000
     15         -0.746454   1.000000
     16         -0.669078   1.000000
     17          0.291574   1.000000
     18          0.309707   1.000000
     19          0.946700   1.000000
     20          1.114259   1.000000
     21          1.612323   1.000000
     22          1.627113   1.000000
     23          5.707746   0.000000
     24          5.726494   0.000000
     25          6.444862   0.000000
     26          6.479279   0.000000
     27          7.566692   0.000000
     28          7.953362   0.000000
     29          8.261247   0.000000
     30          8.485365   0.000000
     31          8.561948   0.000000
     32          8.637604   0.000000
     33         10.574405   0.000000
     34         10.577197   0.000000
     35         10.894742   0.000000
     36         11.196093   0.000000
     37         11.317487   0.000000
     38         11.470347   0.000000
     39         12.093470   0.000000
     40         12.382276   0.000000
     41         12.803169   0.000000
     42         13.102112   0.000000
     43         14.621943   0.000000
     44         14.737781   0.000000
     45         14.779987   0.000000
     46         14.852245   0.000000
     47         16.211549   0.000000
     48         16.404445   0.000000
 
  0.0000000E+00  0.3703704E-01  0.0000000E+00  0.2293315E-03
      1        -12.730000   1.000000
      2        -11.573241   1.000000
      3         -8.659397   1.000000
      4         -8.421526   1.000000
      5         -6.073622   1.000000
      6         -5.054086   1.000000
      7         -4.635052   1.000000
      8         -4.358829   1.000000
      9         -4.049274   1.000000
     10         -3.594992   1.000000
     11         -2.600731   1.000000
     12         -2.323821   1.000000
     13         -1.809545   1.000000
     14         -1.051764   1.000000
     15         -0.077150   1.000000
     16         -0.050537   1.000000
     17          0.152343   1.000000
     18          0.195963   1.000000
     19          0.581337   1.000000
     20          2.027670   0.000012
     21          2.089127   0.000000
     22          2.235981   0.000000
     23          5.447878   0.000000
     24          5.760105   0.000000
     25          5.861446   0.000000
     26          5.878156   0.000000
     27          6.829063   0.000000
     28          7.728883   0.000000
     29          7.729858   0.000000
     30          8.509439   0.000000
     31          8.752893   0.000000
     32          8.921235   0.000000
     33          9.049397   0.000000
     34         10.115466   0.000000
     35         11.178016   0.000000
     36         11.388559   0.000000
     37         11.758885   0.000000
     38         11.817970   0.000000
     39         11.913713   0.000000
     40         12.394846   0.000000
     41         12.806538   0.000000
     42         13.349629   0.000000
     43         13.527056   0.000000
     44         15.539083   0.000000
     45         15.549760   0.000000
     46         15.953844   0.000000
     47         16.332691   0.000000
     48         16.484270   0.000000
 
  0.5263158E-01  0.3703704E-01  0.0000000E+00  0.4586630E-03
      1        -12.723897   1.000000
      2        -11.583874   1.000000
      3         -8.656574   1.000000
      4         -8.419722   1.000000
      5         -6.060737   1.000000
      6         -5.136474   1.000000
      7         -4.666908   1.000000
      8         -4.266424   1.000000
      9         -4.036097   1.000000
     10         -3.535867   1.000000
     11         -2.610245   1.000000
     12         -2.321064   1.000000
     13         -1.822186   1.000000
     14         -1.097891   1.000000
     15         -0.071217   1.000000
     16         -0.041782   1.000000
     17          0.159693   1.000000
     18          0.179115   1.000000
     19          0.567234   1.000000
     20          2.015033   0.000057
     21          2.077704   0.000000
     22          2.219100   0.000000
     23          5.462023   0.000000
     24          5.747561   0.000000
     25          5.839951   0.000000
     26          5.965163   0.000000
     27          6.815860   0.000000
     28          7.541292   0.000000
     29          7.887331   0.000000
     30          8.530796   0.000000
     31          8.809297   0.000000
     32          8.957567   0.000000
     33          9.053606   0.000000
     34         10.130036   0.000000
     35         11.187955   0.000000
     36         11.328836   0.000000
     37         11.655224   0.000000
     38         11.781040   0.000000
     39         11.946614   0.000000
     40         12.406870   0.000000
     41         12.876457   0.000000
     42         13.459180   0.000000
     43         13.470023   0.000000
     44         15.368806   0.000000
     45         15.572436   0.000000
     46         16.068289   0.000000
     47         16.316943   0.000000
     48         16.357120   0.000000
 
  0.1052632E+00  0.3703704E-01  0.0000000E+00  0.4586630E-03
      1        -12.705653   1.000000
      2        -11.615138   1.000000
      3         -8.647930   1.000000
      4         -8.414624   1.000000
      5         -6.027258   1.000000
      6         -5.309192   1.000000
      7         -4.735895   1.000000
      8         -4.093066   1.000000
      9         -3.967625   1.000000
     10         -3.381319   1.000000
     11         -2.639057   1.000000
     12         -2.312734   1.000000
     13         -1.857459   1.000000
     14         -1.230539   1.000000
     15         -0.053920   1.000000
     16         -0.021125   1.000000
     17          0.133237   1.000000
     18          0.179983   1.000000
     19          0.525538   1.000000
     20          1.978188   0.002416
     21          2.044404   0.000001
     22          2.168487   0.000000
     23          5.501572   0.000000
     24          5.754698   0.000000
     25          5.829557   0.000000
     26          6.127241   0.000000
     27          6.778332   0.000000
     28          7.345807   0.000000
     29          8.008153   0.000000
     30          8.591361   0.000000
     31          8.960058   0.000000
     32          9.058301   0.000000
     33          9.068042   0.000000
     34         10.174701   0.000000
     35         11.158136   0.000000
     36         11.218218   0.000000
     37         11.399258   0.000000
     38         11.721290   0.000000
     39         12.041980   0.000000
     40         12.442514   0.000000
     41         13.027513   0.000000
     42         13.311570   0.000000
     43         13.725559   0.000000
     44         15.074117   0.000000
     45         15.661142   0.000000
     46         16.056771   0.000000
     47         16.185833   0.000000
     48         16.432106   0.000000
 
  0.1578947E+00  0.3703704E-01  0.0000000E+00  0.4586630E-03
      1        -12.675475   1.000000
      2        -11.665209   1.000000
      3         -8.633120   1.000000
      4         -8.407200   1.000000
      5         -5.988648   1.000000
      6         -5.498070   1.000000
      7         -4.792046   1.000000
      8         -4.006970   1.000000
      9         -3.751351   1.000000
     10         -3.170083   1.000000
     11         -2.687475   1.000000
     12         -2.298638   1.000000
     13         -1.908607   1.000000
     14         -1.434976   1.000000
     15         -0.027094   1.000000
     16         -0.025911   1.000000
     17          0.093591   1.000000
     18          0.203860   1.000000
     19          0.464094   1.000000
     20          1.920294   0.118883
     21          1.992043   0.000664
     22          2.084783   0.000000
     23          5.558774   0.000000
     24          5.756752   0.000000
     25          5.880860   0.000000
     26          6.337815   0.000000
     27          6.722337   0.000000
     28          7.163521   0.000000
     29          8.103505   0.000000
     30          8.679538   0.000000
     31          9.059520   0.000000
     32          9.166240   0.000000
     33          9.238345   0.000000
     34         10.254603   0.000000
     35         10.898654   0.000000
     36         11.081495   0.000000
     37         11.268556   0.000000
     38         11.702650   0.000000
     39         12.183377   0.000000
     40         12.507548   0.000000
     41         13.078820   0.000000
     42         13.138379   0.000000
     43         14.059348   0.000000
     44         14.847637   0.000000
     45         15.736555   0.000000
     46         15.814488   0.000000
     47         16.220463   0.000000
     48         16.528086   0.000000
 
  0.2105263E+00  0.3703704E-01  0.0000000E+00  0.4586630E-03
      1        -12.633729   1.000000
      2        -11.731348   1.000000
      3         -8.611977   1.000000
      4         -8.399047   1.000000
      5         -5.967174   1.000000
      6         -5.676452   1.000000
      7         -4.792371   1.000000
      8         -3.943321   1.000000
      9         -3.482416   1.000000
     10         -2.933561   1.000000
     11         -2.751152   1.000000
     12         -2.278590   1.000000
     13         -1.967476   1.000000
     14         -1.691918   1.000000
     15         -0.117075   1.000000
     16          0.003603   1.000000
     17          0.119074   1.000000
     18          0.194437   1.000000
     19          0.423492   1.000000
     20          1.846321   0.819028
     21          1.924968   0.094626
     22          1.970512   0.004648
     23          5.623375   0.000000
     24          5.733536   0.000000
     25          6.023124   0.000000
     26          6.582794   0.000000
     27          6.656137   0.000000
     28          7.008601   0.000000
     29          8.185425   0.000000
     30          8.771011   0.000000
     31          9.036684   0.000000
     32          9.396889   0.000000
     33          9.463338   0.000000
     34         10.373037   0.000000
     35         10.581617   0.000000
     36         10.769269   0.000000
     37         11.332856   0.000000
     38         11.755443   0.000000
     39         12.322777   0.000000
     40         12.633053   0.000000
     41         12.799378   0.000000
     42         13.085334   0.000000
     43         14.402322   0.000000
     44         14.808200   0.000000
     45         15.453946   0.000000
     46         15.925046   0.000000
     47         16.144976   0.000000
     48         16.502111   0.000000
 
  0.2631579E+00  0.3703704E-01  0.0000000E+00  0.4586630E-03
      1        -12.580947   1.000000
      2        -11.810236   1.000000
      3         -8.584858   1.000000
      4         -8.392281   1.000000
      5         -5.978639   1.000000
      6         -5.833331   1.000000
      7         -4.712151   1.000000
      8         -3.869725   1.000000
      9         -3.212828   1.000000
     10         -2.862202   1.000000
     11         -2.655533   1.000000
     12         -2.254871   1.000000
     13         -2.027318   1.000000
     14         -1.976362   1.000000
     15         -0.254463   1.000000
     16          0.002183   1.000000
     17          0.134129   1.000000
     18          0.168823   1.000000
     19          0.458316   1.000000
     20          1.760015   0.999600
     21          1.833831   0.897053
     22          1.848672   0.800995
     23          5.684855   0.000000
     24          5.711995   0.000000
     25          6.232881   0.000000
     26          6.589292   0.000000
     27          6.790880   0.000000
     28          6.947860   0.000000
     29          8.258814   0.000000
     30          8.820204   0.000000
     31          8.987813   0.000000
     32          9.638668   0.000000
     33          9.716525   0.000000
     34         10.188343   0.000000
     35         10.462037   0.000000
     36         10.653767   0.000000
     37         11.392838   0.000000
     38         11.881527   0.000000
     39         12.413949   0.000000
     40         12.484637   0.000000
     41         12.847953   0.000000
     42         12.855884   0.000000
     43         14.696705   0.000000
     44         14.983099   0.000000
     45         15.150875   0.000000
     46         15.938248   0.000000
     47         15.950437   0.000000
     48         16.251521   0.000000
 
  0.3157895E+00  0.3703704E-01  0.0000000E+00  0.4586630E-03
      1        -12.517818   1.000000
      2        -11.898310   1.000000
      3         -8.552863   1.000000
      4         -8.389314   1.000000
      5         -6.019278   1.000000
      6         -5.962451   1.000000
      7         -4.551971   1.000000
      8         -3.783493   1.000000