       N       E                     dE             d eps       ncg     rms          rms(c)
DAV:   1     0.668484417036E+02    0.66848E+02   -0.18847E+04120960   0.794E+02
DAV:   2    -0.923384588405E+02   -0.15919E+03   -0.14949E+03167184   0.159E+02
DAV:   3    -0.975934654554E+02   -0.52550E+01   -0.52260E+01177168   0.258E+01
DAV:   4    -0.976242198648E+02   -0.30754E-01   -0.30753E-01146352   0.228E+00
DAV:   5    -0.976245675762E+02   -0.34771E-03   -0.34770E-03176808   0.232E-01    0.123E+01
DAV:   6    -0.922109215339E+02    0.54136E+01   -0.39464E+00175200   0.658E+00    0.679E+00
DAV:   7    -0.905601581212E+02    0.16508E+01   -0.32068E+00180648   0.585E+00    0.172E+00
DAV:   8    -0.905711917054E+02   -0.11034E-01   -0.22893E-01133008   0.164E+00    0.752E-01
DAV:   9    -0.905858644052E+02   -0.14673E-01   -0.17538E-02170976   0.456E-01    0.206E-01
