 vasp.6.4.3 19Mar24 (build May 31 2024 16:31:43) complex                        
  
 executed on             LinuxIFC date 2024.10.31  01:08:11
 running   24 mpi-ranks, with    1 threads/rank, on    1 nodes
 distrk:  each k-point on   24 cores,    1 groups
 distr:  one band on NCORE=   1 cores,   24 groups


--------------------------------------------------------------------------------------------------------


 INCAR:
   SYSTEM = Kpoints
   ISTART = 0
   ICHARG = 2
   PREC = Accurate
   ENCUT = 540
   LCHARG = .FALSE.
   LWAVE = .FALSE.
   ALGO = Normal
   NELM = 100
   EDIFF = 1E-6
   EDIFFG = -1E-3
   SIGMA = 0.05
   ISMEAR = 0
   ISPIN = 1
   NSW = 0
   IBRION = -1
   POTIM = .5
   ISIF = 2
   GGA = PE

 POTCAR:    PAW_PBE B 06Sep2000                   
 POTCAR:    PAW_PBE B 06Sep2000                   
   SHA256 =  a32ced30f5ae56fd4d10b4325ff17eb3e4e38ee0f4288bc219fb012fddfa6e97 B/POTCAR              
   COPYR  = (c) Copyright 06Sep2000 Georg Kresse                                                    
   COPYR  = This file is part of the software VASP. Any use, copying, and all other rights are regul
   COPYR  = If you do not have a valid VASP license, you may not use, copy or distribute this file. 
   VRHFIN =B: s2p1                                                                                  
   LEXCH  = PE                                                                                      
   EATOM  =    71.1703 eV,    5.2309 Ry                                                             
                                                                                                    
   TITEL  = PAW_PBE B 06Sep2000                                                                     
   LULTRA =        F    use ultrasoft PP ?                                                          
   IUNSCR =        1    unscreen: 0-lin 1-nonlin 2-no                                               
   RPACOR =    1.200    partial core radius                                                         
   POMASS =   10.811; ZVAL   =    3.000    mass and valenz                                          
   RCORE  =    1.700    outmost cutoff radius                                                       
   RWIGS  =    1.710; RWIGS  =    0.905    wigner-seitz radius (au A)                               
   ENMAX  =  318.614; ENMIN  =  238.960 eV                                                          
   ICORE  =        2    local potential                                                             
   LCOR   =        T    correct aug charges                                                         
   LPAW   =        T    paw PP                                                                      
   EAUG   =  535.514                                                                                
   DEXC   =    0.000                                                                                
   RMAX   =    1.732    core radius for proj-oper                                                   
   RAUG   =    1.300    factor for augmentation sphere                                              
   RDEP   =    1.757    radius for radial grids                                                     
   RDEPT  =    1.436    core radius for aug-charge                                                  
                                                                                                    
   Atomic configuration                                                                             
    4 entries                                                                                       
     n  l   j            E        occ.                                                              
     1  0  0.50      -180.5896   2.0000                                                             
     2  0  0.50        -9.4431   2.0000                                                             
     2  1  0.50        -3.6068   1.0000                                                             
     3  2  1.50        -4.0817   0.0000                                                             
   Description                                                                                      
     l       E           TYP  RCUT    TYP  RCUT                                                     
     0     -9.4430752     23  1.500                                                                 
     0      0.8675899     23  1.500                                                                 
     1     -3.6067955     23  1.700                                                                 
     1      6.1086146     23  1.700                                                                 
     2     -4.0817478      7  1.700                                                                 
  local pseudopotential read in
  partial core-charges read in
  partial kinetic energy density read in
  atomic valenz-charges read in
  non local Contribution for L=           0  read in
    real space projection operators read in
  non local Contribution for L=           0  read in
    real space projection operators read in
  non local Contribution for L=           1  read in
    real space projection operators read in
  non local Contribution for L=           1  read in
    real space projection operators read in
    PAW grid and wavefunctions read in
 
   number of l-projection  operators is LMAX  =           4
   number of lm-projection operators is LMMAX =           8
 
  PAW_PBE B 06Sep2000                   :
 energy of atom  1       EATOM=  -71.1703
 kinetic energy error for atom=    0.0010 (will be added to EATOM!!)
 
 
 POSCAR: o-B14
  positions in direct lattice
  No initial velocities read in


 exchange-correlation table for PE
   RHO(1)=    0.500       N(1)  =     2000
   RHO(2)=  100.500       N(2)  =     4000
 


--------------------------------------------------------------------------------------------------------


 ion  position               nearest neighbor table
   1  0.521  0.500  0.638-  14 1.64   5 1.69  13 1.70   2 1.73   9 1.85  11 1.85
   2  0.479  0.500  0.362-  13 1.64   6 1.69  14 1.70   1 1.73  10 1.85  12 1.85
   3  0.979  0.500  0.638-  14 1.64   7 1.69  13 1.70   4 1.73   9 1.85  11 1.85
   4  0.021  0.500  0.362-  13 1.64   8 1.69  14 1.70   3 1.73  10 1.85  12 1.85
   5  0.601  0.500  0.900-   1 1.69   6 1.69   7 1.70   9 1.80  11 1.80
   6  0.399  0.500  0.100-   2 1.69   5 1.69   8 1.70  10 1.80  12 1.80
   7  0.899  0.500  0.900-   3 1.69   8 1.69   5 1.70   9 1.80  11 1.80
   8  0.101  0.500  0.100-   4 1.69   7 1.69   6 1.70  10 1.80  12 1.80
   9  0.750  0.792  0.730-  11 1.69   7 1.80   5 1.80   3 1.85   1 1.85  14 1.97
  10  0.250  0.208  0.270-  12 1.69   8 1.80   6 1.80   4 1.85   2 1.85  13 1.97
  11  0.750  0.208  0.730-   9 1.69   7 1.80   5 1.80   3 1.85   1 1.85  14 1.97
  12  0.250  0.792  0.270-  10 1.69   8 1.80   6 1.80   4 1.85   2 1.85  13 1.97
  13  0.250  0.500  0.524-   2 1.64   4 1.64   3 1.70   1 1.70  10 1.97  12 1.97
  14  0.750  0.500  0.476-   1 1.64   3 1.64   2 1.70   4 1.70   9 1.97  11 1.97
 
  LATTYP: Found a simple orthorhombic cell.
 ALAT       =     4.0479000000
 B/A-ratio  =     1.4073964278
 C/A-ratio  =     1.5326959658
  
  Lattice vectors:
  
 A1 = (   0.0000000000,  -4.0479000000,   0.0000000000)
 A2 = (   5.6970000000,   0.0000000000,   0.0000000000)
 A3 = (   0.0000000000,   0.0000000000,   6.2042000000)


Analysis of symmetry for initial positions (statically):
=====================================================================
 Subroutine PRICEL returns:
 Original cell was already a primitive cell.
 

 Routine SETGRP: Setting up the symmetry group for a 
 simple orthorhombic supercell.


 Subroutine GETGRP returns: Found  8 space group operations
 (whereof  4 operations were pure point group operations)
 out of a pool of  8 trial point group operations.


The static configuration has the point symmetry C_2h.
 The point group associated with its full space group is D_2h.


Analysis of symmetry for dynamics (positions and initial velocities):
=====================================================================
 Subroutine PRICEL returns:
 Original cell was already a primitive cell.
 

 Routine SETGRP: Setting up the symmetry group for a 
 simple orthorhombic supercell.


 Subroutine GETGRP returns: Found  8 space group operations
 (whereof  4 operations were pure point group operations)
 out of a pool of  8 trial point group operations.


The dynamic configuration has the point symmetry C_2h.
 The point group associated with its full space group is D_2h.


 Subroutine INISYM returns: Found  8 space group operations
 (whereof  4 operations are pure point group operations),
 and found     1 'primitive' translations


----------------------------------------------------------------------------------------

                                     Primitive cell                                     

  volume of cell :     143.0744

  direct lattice vectors                    reciprocal lattice vectors
     5.697000000  0.000000000  0.000000000     0.175530981  0.000000000  0.000000000
     0.000000000  4.047900000  0.000000000     0.000000000  0.247041676  0.000000000
     0.000000000  0.000000000  6.204200000     0.000000000  0.000000000  0.161181135

  length of vectors
     5.697000000  4.047900000  6.204200000     0.175530981  0.247041676  0.161181135

  position of ions in fractional coordinates (direct lattice)
     0.521230000  0.500000000  0.637960000
     0.478770000  0.500000000  0.362040000
     0.978770000  0.500000000  0.637960000
     0.021230000  0.500000000  0.362040000
     0.600900000  0.500000000  0.899910000
     0.399100000  0.500000000  0.100090000
     0.899100000  0.500000000  0.899910000
     0.100900000  0.500000000  0.100090000
     0.750000000  0.791710000  0.729730000
     0.250000000  0.208290000  0.270270000
     0.750000000  0.208290000  0.729730000
     0.250000000  0.791710000  0.270270000
     0.250000000  0.500000000  0.523670000
     0.750000000  0.500000000  0.476330000

  ion indices of the primitive-cell ions
   primitive index   ion index
                 1           1
                 2           2
                 3           3
                 4           4
                 5           5
                 6           6
                 7           7
                 8           8
                 9           9
                10          10
                11          11
                12          12
                13          13
                14          14

----------------------------------------------------------------------------------------

 
 
 KPOINTS: k-points                                

Automatic generation of k-mesh.
 Grid dimensions read from file:
 generate k-points for:   19   27   17

 Generating k-lattice:

  Cartesian coordinates                     Fractional coordinates (reciprocal lattice)
     0.009238473  0.000000000  0.000000000     0.052631579  0.000000000  0.000000000
     0.000000000  0.009149692  0.000000000     0.000000000  0.037037037  0.000000000
     0.000000000  0.000000000  0.009481243     0.000000000  0.000000000  0.058823529

  Length of vectors
     0.009238473  0.009149692  0.009481243

  Shift w.r.t. Gamma in fractional coordinates (k-lattice)
     0.000000000  0.000000000  0.000000000

 
 Subroutine IBZKPT returns following result:
 ===========================================
 
 Found   1260 irreducible k-points:
 
 Following reciprocal coordinates:
            Coordinates               Weight
  0.000000  0.000000  0.000000      1.000000
  0.052632  0.000000  0.000000      2.000000
  0.105263  0.000000  0.000000      2.000000
  0.157895  0.000000  0.000000      2.000000
  0.210526  0.000000  0.000000      2.000000
  0.263158  0.000000  0.000000      2.000000
  0.315789  0.000000  0.000000      2.000000
  0.368421  0.000000  0.000000      2.000000
  0.421053  0.000000  0.000000      2.000000
  0.473684  0.000000  0.000000      2.000000
  0.000000  0.037037  0.000000      2.000000
  0.052632  0.037037  0.000000      4.000000
  0.105263  0.037037  0.000000      4.000000
  0.157895  0.037037  0.000000      4.000000
  0.210526  0.037037  0.000000      4.000000
  0.263158  0.037037  0.000000      4.000000
  0.315789  0.037037  0.000000      4.000000
  0.368421  0.037037  0.000000      4.000000
  0.421053  0.037037  0.000000      4.000000
  0.473684  0.037037  0.000000      4.000000
  0.000000  0.074074  0.000000      2.000000
  0.052632  0.074074  0.000000      4.000000
  0.105263  0.074074  0.000000      4.000000
  0.157895  0.074074  0.000000      4.000000
  0.210526  0.074074  0.000000      4.000000
  0.263158  0.074074  0.000000      4.000000
  0.315789  0.074074  0.000000      4.000000
  0.368421  0.074074  0.000000      4.000000
  0.421053  0.074074  0.000000      4.000000
  0.473684  0.074074  0.000000      4.000000
  0.000000  0.111111  0.000000      2.000000
  0.052632  0.111111  0.000000      4.000000
  0.105263  0.111111  0.000000      4.000000
  0.157895  0.111111  0.000000      4.000000
  0.210526  0.111111  0.000000      4.000000
  0.263158  0.111111  0.000000      4.000000
  0.315789  0.111111  0.000000      4.000000
  0.368421  0.111111  0.000000      4.000000
  0.421053  0.111111  0.000000      4.000000
  0.473684  0.111111  0.000000      4.000000
  0.000000  0.148148  0.000000      2.000000
  0.052632  0.148148  0.000000      4.000000
  0.105263  0.148148  0.000000      4.000000
  0.157895  0.148148  0.000000      4.000000
  0.210526  0.148148  0.000000      4.000000
  0.263158  0.148148  0.000000      4.000000
  0.315789  0.148148  0.000000      4.000000
  0.368421  0.148148  0.000000      4.000000
  0.421053  0.148148  0.000000      4.000000
  0.473684  0.148148  0.000000      4.000000
  0.000000  0.185185  0.000000      2.000000
  0.052632  0.185185  0.000000      4.000000
  0.105263  0.185185  0.000000      4.000000
  0.157895  0.185185  0.000000      4.000000
  0.210526  0.185185  0.000000      4.000000
  0.263158  0.185185  0.000000      4.000000
  0.315789  0.185185  0.000000      4.000000
  0.368421  0.185185  0.000000      4.000000
  0.421053  0.185185  0.000000      4.000000
  0.473684  0.185185  0.000000      4.000000
  0.000000  0.222222  0.000000      2.000000
  0.052632  0.222222  0.000000      4.000000
  0.105263  0.222222  0.000000      4.000000
  0.157895  0.222222  0.000000      4.000000
  0.210526  0.222222  0.000000      4.000000
  0.263158  0.222222  0.000000      4.000000
  0.315789  0.222222  0.000000      4.000000
  0.368421  0.222222  0.000000      4.000000
  0.421053  0.222222  0.000000      4.000000
  0.473684  0.222222  0.000000      4.000000
  0.000000  0.259259  0.000000      2.000000
  0.052632  0.259259  0.000000      4.000000
  0.105263  0.259259  0.000000      4.000000
  0.157895  0.259259  0.000000      4.000000
  0.210526  0.259259  0.000000      4.000000
  0.263158  0.259259  0.000000      4.000000
  0.315789  0.259259  0.000000      4.000000
  0.368421  0.259259  0.000000      4.000000
  0.421053  0.259259  0.000000      4.000000
  0.473684  0.259259  0.000000      4.000000
  0.000000  0.296296  0.000000      2.000000
  0.052632  0.296296  0.000000      4.000000
  0.105263  0.296296  0.000000      4.000000
  0.157895  0.296296  0.000000      4.000000
  0.210526  0.296296  0.000000      4.000000
  0.263158  0.296296  0.000000      4.000000
  0.315789  0.296296  0.000000      4.000000
  0.368421  0.296296  0.000000      4.000000
  0.421053  0.296296  0.000000      4.000000
  0.473684  0.296296  0.000000      4.000000
  0.000000  0.333333  0.000000      2.000000
  0.052632  0.333333  0.000000      4.000000
  0.105263  0.333333  0.000000      4.000000
  0.157895  0.333333  0.000000      4.000000
  0.210526  0.333333  0.000000      4.000000
  0.263158  0.333333  0.000000      4.000000
  0.315789  0.333333  0.000000      4.000000
  0.368421  0.333333  0.000000      4.000000
  0.421053  0.333333  0.000000      4.000000
  0.473684  0.333333  0.000000      4.000000
  0.000000  0.370370  0.000000      2.000000
  0.052632  0.370370  0.000000      4.000000
  0.105263  0.370370  0.000000      4.000000
  0.157895  0.370370  0.000000      4.000000
  0.210526  0.370370  0.000000      4.000000
  0.263158  0.370370  0.000000      4.000000
  0.315789  0.370370  0.000000      4.000000
  0.368421  0.370370  0.000000      4.000000
  0.421053  0.370370  0.000000      4.000000
  0.473684  0.370370  0.000000      4.000000
  0.000000  0.407407  0.000000      2.000000
  0.052632  0.407407  0.000000      4.000000
  0.105263  0.407407  0.000000      4.000000
  0.157895  0.407407  0.000000      4.000000
  0.210526  0.407407  0.000000      4.000000
  0.263158  0.407407  0.000000      4.000000
  0.315789  0.407407  0.000000      4.000000
  0.368421  0.407407  0.000000      4.000000
  0.421053  0.407407  0.000000      4.000000
  0.473684  0.407407  0.000000      4.000000
  0.000000  0.444444  0.000000      2.000000
  0.052632  0.444444  0.000000      4.000000
  0.105263  0.444444  0.000000      4.000000
  0.157895  0.444444  0.000000      4.000000
  0.210526  0.444444  0.000000      4.000000
  0.263158  0.444444  0.000000      4.000000
  0.315789  0.444444  0.000000      4.000000
  0.368421  0.444444  0.000000      4.000000
  0.421053  0.444444  0.000000      4.000000
  0.473684  0.444444  0.000000      4.000000
  0.000000  0.481481  0.000000      2.000000
  0.052632  0.481481  0.000000      4.000000
  0.105263  0.481481  0.000000      4.000000
  0.157895  0.481481  0.000000      4.000000
  0.210526  0.481481  0.000000      4.000000
  0.263158  0.481481  0.000000      4.000000
  0.315789  0.481481  0.000000      4.000000
  0.368421  0.481481  0.000000      4.000000
  0.421053  0.481481  0.000000      4.000000
  0.473684  0.481481  0.000000      4.000000
  0.000000  0.000000  0.058824      2.000000
  0.052632  0.000000  0.058824      4.000000
  0.105263  0.000000  0.058824      4.000000
  0.157895  0.000000  0.058824      4.000000
  0.210526  0.000000  0.058824      4.000000
  0.263158  0.000000  0.058824      4.000000
  0.315789  0.000000  0.058824      4.000000
  0.368421  0.000000  0.058824      4.000000
  0.421053  0.000000  0.058824      4.000000
  0.473684  0.000000  0.058824      4.000000
  0.000000  0.037037  0.058824      4.000000
  0.052632  0.037037  0.058824      8.000000
  0.105263  0.037037  0.058824      8.000000
  0.157895  0.037037  0.058824      8.000000
  0.210526  0.037037  0.058824      8.000000
  0.263158  0.037037  0.058824      8.000000
  0.315789  0.037037  0.058824      8.000000
  0.368421  0.037037  0.058824      8.000000
  0.421053  0.037037  0.058824      8.000000
  0.473684  0.037037  0.058824      8.000000
  0.000000  0.074074  0.058824      4.000000
  0.052632  0.074074  0.058824      8.000000
  0.105263  0.074074  0.058824      8.000000
  0.157895  0.074074  0.058824      8.000000
  0.210526  0.074074  0.058824      8.000000
  0.263158  0.074074  0.058824      8.000000
  0.315789  0.074074  0.058824      8.000000
  0.368421  0.074074  0.058824      8.000000
  0.421053  0.074074  0.058824      8.000000
  0.473684  0.074074  0.058824      8.000000
  0.000000  0.111111  0.058824      4.000000
  0.052632  0.111111  0.058824      8.000000
  0.105263  0.111111  0.058824      8.000000
  0.157895  0.111111  0.058824      8.000000
  0.210526  0.111111  0.058824      8.000000
  0.263158  0.111111  0.058824      8.000000
  0.315789  0.111111  0.058824      8.000000
  0.368421  0.111111  0.058824      8.000000
  0.421053  0.111111  0.058824      8.000000
  0.473684  0.111111  0.058824      8.000000
  0.000000  0.148148  0.058824      4.000000
  0.052632  0.148148  0.058824      8.000000
  0.105263  0.148148  0.058824      8.000000
  0.157895  0.148148  0.058824      8.000000
  0.210526  0.148148  0.058824      8.000000
  0.263158  0.148148  0.058824      8.000000
  0.315789  0.148148  0.058824      8.000000
  0.368421  0.148148  0.058824      8.000000
  0.421053  0.148148  0.058824      8.000000
  0.473684  0.148148  0.058824      8.000000
  0.000000  0.185185  0.058824      4.000000
  0.052632  0.185185  0.058824      8.000000
  0.105263  0.185185  0.058824      8.000000
  0.157895  0.185185  0.058824      8.000000
  0.210526  0.185185  0.058824      8.000000
  0.263158  0.185185  0.058824      8.000000
  0.315789  0.185185  0.058824      8.000000
  0.368421  0.185185  0.058824      8.000000
  0.421053  0.185185  0.058824      8.000000
  0.473684  0.185185  0.058824      8.000000
  0.000000  0.222222  0.058824      4.000000
  0.052632  0.222222  0.058824      8.000000
  0.105263  0.222222  0.058824      8.000000
  0.157895  0.222222  0.058824      8.000000
  0.210526  0.222222  0.058824      8.000000
  0.263158  0.222222  0.058824      8.000000
  0.315789  0.222222  0.058824      8.000000
  0.368421  0.222222  0.058824      8.000000
  0.421053  0.222222  0.058824      8.000000
  0.473684  0.222222  0.058824      8.000000
  0.000000  0.259259  0.058824      4.000000
  0.052632  0.259259  0.058824      8.000000
  0.105263  0.259259  0.058824      8.000000
  0.157895  0.259259  0.058824      8.000000
  0.210526  0.259259  0.058824      8.000000
  0.263158  0.259259  0.058824      8.000000
  0.315789  0.259259  0.058824      8.000000
  0.368421  0.259259  0.058824      8.000000
  0.421053  0.259259  0.058824      8.000000
  0.473684  0.259259  0.058824      8.000000
  0.000000  0.296296  0.058824      4.000000
  0.052632  0.296296  0.058824      8.000000
  0.105263  0.296296  0.058824      8.000000
  0.157895  0.296296  0.058824      8.000000
  0.210526  0.296296  0.058824      8.000000
  0.263158  0.296296  0.058824      8.000000
  0.315789  0.296296  0.058824      8.000000
  0.368421  0.296296  0.058824      8.000000
  0.421053  0.296296  0.058824      8.000000
  0.473684  0.296296  0.058824      8.000000
  0.000000  0.333333  0.058824      4.000000
  0.052632  0.333333  0.058824      8.000000
  0.105263  0.333333  0.058824      8.000000
  0.157895  0.333333  0.058824      8.000000
  0.210526  0.333333  0.058824      8.000000
  0.263158  0.333333  0.058824      8.000000
  0.315789  0.333333  0.058824      8.000000
  0.368421  0.333333  0.058824      8.000000
  0.421053  0.333333  0.058824      8.000000
  0.473684  0.333333  0.058824      8.000000
  0.000000  0.370370  0.058824      4.000000
  0.052632  0.370370  0.058824      8.000000
  0.105263  0.370370  0.058824      8.000000
  0.157895  0.370370  0.058824      8.000000
  0.210526  0.370370  0.058824      8.000000
  0.263158  0.370370  0.058824      8.000000
  0.315789  0.370370  0.058824      8.000000
  0.368421  0.370370  0.058824      8.000000
  0.421053  0.370370  0.058824      8.000000
  0.473684  0.370370  0.058824      8.000000
  0.000000  0.407407  0.058824      4.000000
  0.052632  0.407407  0.058824      8.000000
  0.105263  0.407407  0.058824      8.000000
  0.157895  0.407407  0.058824      8.000000
  0.210526  0.407407  0.058824      8.000000
  0.263158  0.407407  0.058824      8.000000
  0.315789  0.407407  0.058824      8.000000
  0.368421  0.407407  0.058824      8.000000
  0.421053  0.407407  0.058824      8.000000
  0.473684  0.407407  0.058824      8.000000
  0.000000  0.444444  0.058824      4.000000
  0.052632  0.444444  0.058824      8.000000
  0.105263  0.444444  0.058824      8.000000
  0.157895  0.444444  0.058824      8.000000
  0.210526  0.444444  0.058824      8.000000
  0.263158  0.444444  0.058824      8.000000
  0.315789  0.444444  0.058824      8.000000
  0.368421  0.444444  0.058824      8.000000
  0.421053  0.444444  0.058824      8.000000
  0.473684  0.444444  0.058824      8.000000
  0.000000  0.481481  0.058824      4.000000
  0.052632  0.481481  0.058824      8.000000
  0.105263  0.481481  0.058824      8.000000
  0.157895  0.481481  0.058824      8.000000
  0.210526  0.481481  0.058824      8.000000
  0.263158  0.481481  0.058824      8.000000
  0.315789  0.481481  0.058824      8.000000
  0.368421  0.481481  0.058824      8.000000
  0.421053  0.481481  0.058824      8.000000
  0.473684  0.481481  0.058824      8.000000
  0.000000  0.000000  0.117647      2.000000
  0.052632  0.000000  0.117647      4.000000
  0.105263  0.000000  0.117647      4.000000
  0.157895  0.000000  0.117647      4.000000
  0.210526  0.000000  0.117647      4.000000
  0.263158  0.000000  0.117647      4.000000
  0.315789  0.000000  0.117647      4.000000
  0.368421  0.000000  0.117647      4.000000
  0.421053  0.000000  0.117647      4.000000
  0.473684  0.000000  0.117647      4.000000
  0.000000  0.037037  0.117647      4.000000
  0.052632  0.037037  0.117647      8.000000
  0.105263  0.037037  0.117647      8.000000
  0.157895  0.037037  0.117647      8.000000
  0.210526  0.037037  0.117647      8.000000
  0.263158  0.037037  0.117647      8.000000
  0.315789  0.037037  0.117647      8.000000
  0.368421  0.037037  0.117647      8.000000
  0.421053  0.037037  0.117647      8.000000
  0.473684  0.037037  0.117647      8.000000
  0.000000  0.074074  0.117647      4.000000
  0.052632  0.074074  0.117647      8.000000
  0.105263  0.074074  0.117647      8.000000
  0.157895  0.074074  0.117647      8.000000
  0.210526  0.074074  0.117647      8.000000
  0.263158  0.074074  0.117647      8.000000
  0.315789  0.074074  0.117647      8.000000
  0.368421  0.074074  0.117647      8.000000
  0.421053  0.074074  0.117647      8.000000
  0.473684  0.074074  0.117647      8.000000
  0.000000  0.111111  0.117647      4.000000
  0.052632  0.111111  0.117647      8.000000
  0.105263  0.111111  0.117647      8.000000
  0.157895  0.111111  0.117647      8.000000
  0.210526  0.111111  0.117647      8.000000
  0.263158  0.111111  0.117647      8.000000
  0.315789  0.111111  0.117647      8.000000
  0.368421  0.111111  0.117647      8.000000
  0.421053  0.111111  0.117647      8.000000
  0.473684  0.111111  0.117647      8.000000
  0.000000  0.148148  0.117647      4.000000
  0.052632  0.148148  0.117647      8.000000
  0.105263  0.148148  0.117647      8.000000
  0.157895  0.148148  0.117647      8.000000
  0.210526  0.148148  0.117647      8.000000
  0.263158  0.148148  0.117647      8.000000
  0.315789  0.148148  0.117647      8.000000
  0.368421  0.148148  0.117647      8.000000
  0.421053  0.148148  0.117647      8.000000
  0.473684  0.148148  0.117647      8.000000
  0.000000  0.185185  0.117647      4.000000
  0.052632  0.185185  0.117647      8.000000
  0.105263  0.185185  0.117647      8.000000
  0.157895  0.185185  0.117647      8.000000
  0.210526  0.185185  0.117647      8.000000
  0.263158  0.185185  0.117647      8.000000
  0.315789  0.185185  0.117647      8.000000
  0.368421  0.185185  0.117647      8.000000
  0.421053  0.185185  0.117647      8.000000
  0.473684  0.185185  0.117647      8.000000
  0.000000  0.222222  0.117647      4.000000
  0.052632  0.222222  0.117647      8.000000
  0.105263  0.222222  0.117647      8.000000
  0.157895  0.222222  0.117647      8.000000
  0.210526  0.222222  0.117647      8.000000
  0.263158  0.222222  0.117647      8.000000
  0.315789  0.222222  0.117647      8.000000
  0.368421  0.222222  0.117647      8.000000
  0.421053  0.222222  0.117647      8.000000
  0.473684  0.222222  0.117647      8.000000
  0.000000  0.259259  0.117647      4.000000
  0.052632  0.259259  0.117647      8.000000
  0.105263  0.259259  0.117647      8.000000
  0.157895  0.259259  0.117647      8.000000
  0.210526  0.259259  0.117647      8.000000
  0.263158  0.259259  0.117647      8.000000
  0.315789  0.259259  0.117647      8.000000
  0.368421  0.259259  0.117647      8.000000
  0.421053  0.259259  0.117647      8.000000
  0.473684  0.259259  0.117647      8.000000
  0.000000  0.296296  0.117647      4.000000
  0.052632  0.296296  0.117647      8.000000
  0.105263  0.296296  0.117647      8.000000
  0.157895  0.296296  0.117647      8.000000
  0.210526  0.296296  0.117647      8.000000
  0.263158  0.296296  0.117647      8.000000
  0.315789  0.296296  0.117647      8.000000
  0.368421  0.296296  0.117647      8.000000
  0.421053  0.296296  0.117647      8.000000
  0.473684  0.296296  0.117647      8.000000
  0.000000  0.333333  0.117647      4.000000
  0.052632  0.333333  0.117647      8.000000
  0.105263  0.333333  0.117647      8.000000
  0.157895  0.333333  0.117647      8.000000
  0.210526  0.333333  0.117647      8.000000
  0.263158  0.333333  0.117647      8.000000
  0.315789  0.333333  0.117647      8.000000
  0.368421  0.333333  0.117647      8.000000
  0.421053  0.333333  0.117647      8.000000
  0.473684  0.333333  0.117647      8.000000
  0.000000  0.370370  0.117647      4.000000
  0.052632  0.370370  0.117647      8.000000
  0.105263  0.370370  0.117647      8.000000
  0.157895  0.370370  0.117647      8.000000
  0.210526  0.370370  0.117647      8.000000
  0.263158  0.370370  0.117647      8.000000
  0.315789  0.370370  0.117647      8.000000
  0.368421  0.370370  0.117647      8.000000
  0.421053  0.370370  0.117647      8.000000
  0.473684  0.370370  0.117647      8.000000
  0.000000  0.407407  0.117647      4.000000
  0.052632  0.407407  0.117647      8.000000
  0.105263  0.407407  0.117647      8.000000
  0.157895  0.407407  0.117647      8.000000
  0.210526  0.407407  0.117647      8.000000
  0.263158  0.407407  0.117647      8.000000
  0.315789  0.407407  0.117647      8.000000
  0.368421  0.407407  0.117647      8.000000
  0.421053  0.407407  0.117647      8.000000
  0.473684  0.407407  0.117647      8.000000
  0.000000  0.444444  0.117647      4.000000
  0.052632  0.444444  0.117647      8.000000
  0.105263  0.444444  0.117647      8.000000
  0.157895  0.444444  0.117647      8.000000
  0.210526  0.444444  0.117647      8.000000
  0.263158  0.444444  0.117647      8.000000
  0.315789  0.444444  0.117647      8.000000
  0.368421  0.444444  0.117647      8.000000
  0.421053  0.444444  0.117647      8.000000
  0.473684  0.444444  0.117647      8.000000
  0.000000  0.481481  0.117647      4.000000
  0.052632  0.481481  0.117647      8.000000
  0.105263  0.481481  0.117647      8.000000
  0.157895  0.481481  0.117647      8.000000
  0.210526  0.481481  0.117647      8.000000
  0.263158  0.481481  0.117647      8.000000
  0.315789  0.481481  0.117647      8.000000
  0.368421  0.481481  0.117647      8.000000
  0.421053  0.481481  0.117647      8.000000
  0.473684  0.481481  0.117647      8.000000
  0.000000  0.000000  0.176471      2.000000
  0.052632  0.000000  0.176471      4.000000
  0.105263  0.000000  0.176471      4.000000
  0.157895  0.000000  0.176471      4.000000
  0.210526  0.000000  0.176471      4.000000
  0.263158  0.000000  0.176471      4.000000
  0.315789  0.000000  0.176471      4.000000
  0.368421  0.000000  0.176471      4.000000
  0.421053  0.000000  0.176471      4.000000
  0.473684  0.000000  0.176471      4.000000
  0.000000  0.037037  0.176471      4.000000
  0.052632  0.037037  0.176471      8.000000
  0.105263  0.037037  0.176471      8.000000
  0.157895  0.037037  0.176471      8.000000
  0.210526  0.037037  0.176471      8.000000
  0.263158  0.037037  0.176471      8.000000
  0.315789  0.037037  0.176471      8.000000
  0.368421  0.037037  0.176471      8.000000
  0.421053  0.037037  0.176471      8.000000
  0.473684  0.037037  0.176471      8.000000
  0.000000  0.074074  0.176471      4.000000
  0.052632  0.074074  0.176471      8.000000
  0.105263  0.074074  0.176471      8.000000
  0.157895  0.074074  0.176471      8.000000
  0.210526  0.074074  0.176471      8.000000
  0.263158  0.074074  0.176471      8.000000
  0.315789  0.074074  0.176471      8.000000
  0.368421  0.074074  0.176471      8.000000
  0.421053  0.074074  0.176471      8.000000
  0.473684  0.074074  0.176471      8.000000
  0.000000  0.111111  0.176471      4.000000
  0.052632  0.111111  0.176471      8.000000
  0.105263  0.111111  0.176471      8.000000
  0.157895  0.111111  0.176471      8.000000
  0.210526  0.111111  0.176471      8.000000
  0.263158  0.111111  0.176471      8.000000
  0.315789  0.111111  0.176471      8.000000
  0.368421  0.111111  0.176471      8.000000
  0.421053  0.111111  0.176471      8.000000
  0.473684  0.111111  0.176471      8.000000
  0.000000  0.148148  0.176471      4.000000
  0.052632  0.148148  0.176471      8.000000
  0.105263  0.148148  0.176471      8.000000
  0.157895  0.148148  0.176471      8.000000
  0.210526  0.148148  0.176471      8.000000
  0.263158  0.148148  0.176471      8.000000
  0.315789  0.148148  0.176471      8.000000
  0.368421  0.148148  0.176471      8.000000
  0.421053  0.148148  0.176471      8.000000
  0.473684  0.148148  0.176471      8.000000
  0.000000  0.185185  0.176471      4.000000
  0.052632  0.185185  0.176471      8.000000
  0.105263  0.185185  0.176471      8.000000
  0.157895  0.185185  0.176471      8.000000
  0.210526  0.185185  0.176471      8.000000
  0.263158  0.185185  0.176471      8.000000
  0.315789  0.185185  0.176471      8.000000
  0.368421  0.185185  0.176471      8.000000
  0.421053  0.185185  0.176471      8.000000
  0.473684  0.185185  0.176471      8.000000
  0.000000  0.222222  0.176471      4.000000
  0.052632  0.222222  0.176471      8.000000
  0.105263  0.222222  0.176471      8.000000
  0.157895  0.222222  0.176471      8.000000
  0.210526  0.222222  0.176471      8.000000
  0.263158  0.222222  0.176471      8.000000
  0.315789  0.222222  0.176471      8.000000
  0.368421  0.222222  0.176471      8.000000
  0.421053  0.222222  0.176471      8.000000
  0.473684  0.222222  0.176471      8.000000
  0.000000  0.259259  0.176471      4.000000
  0.052632  0.259259  0.176471      8.000000
  0.105263  0.259259  0.176471      8.000000
  0.157895  0.259259  0.176471      8.000000
  0.210526  0.259259  0.176471      8.000000
  0.263158  0.259259  0.176471      8.000000
  0.315789  0.259259  0.176471      8.000000
  0.368421  0.259259  0.176471      8.000000
  0.421053  0.259259  0.176471      8.000000
  0.473684  0.259259  0.176471      8.000000
  0.000000  0.296296  0.176471      4.000000
  0.052632  0.296296  0.176471      8.000000
  0.105263  0.296296  0.176471      8.000000
  0.157895  0.296296  0.176471      8.000000
  0.210526  0.296296  0.176471      8.000000
  0.263158  0.296296  0.176471      8.000000
  0.315789  0.296296  0.176471      8.000000
  0.368421  0.296296  0.176471      8.000000
  0.421053  0.296296  0.176471      8.000000
  0.473684  0.296296  0.176471      8.000000
  0.000000  0.333333  0.176471      4.000000
  0.052632  0.333333  0.176471      8.000000
  0.105263  0.333333  0.176471      8.000000
  0.157895  0.333333  0.176471      8.000000
  0.210526  0.333333  0.176471      8.000000
  0.263158  0.333333  0.176471      8.000000
  0.315789  0.333333  0.176471      8.000000
  0.368421  0.333333  0.176471      8.000000
  0.421053  0.333333  0.176471      8.000000
  0.473684  0.333333  0.176471      8.000000
  0.000000  0.370370  0.176471      4.000000
  0.052632  0.370370  0.176471      8.000000
  0.105263  0.370370  0.176471      8.000000
  0.157895  0.370370  0.176471      8.000000
  0.210526  0.370370  0.176471      8.000000
  0.263158  0.370370  0.176471      8.000000
  0.315789  0.370370  0.176471      8.000000
  0.368421  0.370370  0.176471      8.000000
  0.421053  0.370370  0.176471      8.000000
  0.473684  0.370370  0.176471      8.000000
  0.000000  0.407407  0.176471      4.000000
  0.052632  0.407407  0.176471      8.000000
  0.105263  0.407407  0.176471      8.000000
  0.157895  0.407407  0.176471      8.000000
  0.210526  0.407407  0.176471      8.000000
  0.263158  0.407407  0.176471      8.000000
  0.315789  0.407407  0.176471      8.000000
  0.368421  0.407407  0.176471      8.000000
  0.421053  0.407407  0.176471      8.000000
  0.473684  0.407407  0.176471      8.000000
  0.000000  0.444444  0.176471      4.000000
  0.052632  0.444444  0.176471      8.000000
  0.105263  0.444444  0.176471      8.000000
  0.157895  0.444444  0.176471      8.000000
  0.210526  0.444444  0.176471      8.000000
  0.263158  0.444444  0.176471      8.000000
  0.315789  0.444444  0.176471      8.000000
  0.368421  0.444444  0.176471      8.000000
  0.421053  0.444444  0.176471      8.000000
  0.473684  0.444444  0.176471      8.000000
  0.000000  0.481481  0.176471      4.000000
  0.052632  0.481481  0.176471      8.000000
  0.105263  0.481481  0.176471      8.000000
  0.157895  0.481481  0.176471      8.000000
  0.210526  0.481481  0.176471      8.000000
  0.263158  0.481481  0.176471      8.000000
  0.315789  0.481481  0.176471      8.000000
  0.368421  0.481481  0.176471      8.000000
  0.421053  0.481481  0.176471      8.000000
  0.473684  0.481481  0.176471      8.000000
  0.000000  0.000000  0.235294      2.000000
  0.052632  0.000000  0.235294      4.000000
  0.105263  0.000000  0.235294      4.000000
  0.157895  0.000000  0.235294      4.000000
  0.210526  0.000000  0.235294      4.000000
  0.263158  0.000000  0.235294      4.000000
  0.315789  0.000000  0.235294      4.000000
  0.368421  0.000000  0.235294      4.000000
  0.421053  0.000000  0.235294      4.000000
  0.473684  0.000000  0.235294      4.000000
  0.000000  0.037037  0.235294      4.000000
  0.052632  0.037037  0.235294      8.000000
  0.105263  0.037037  0.235294      8.000000
  0.157895  0.037037  0.235294      8.000000
  0.210526  0.037037  0.235294      8.000000
  0.263158  0.037037  0.235294      8.000000
  0.315789  0.037037  0.235294      8.000000
  0.368421  0.037037  0.235294      8.000000
  0.421053  0.037037  0.235294      8.000000
  0.473684  0.037037  0.235294      8.000000
  0.000000  0.074074  0.235294      4.000000
  0.052632  0.074074  0.235294      8.000000
  0.105263  0.074074  0.235294      8.000000
  0.157895  0.074074  0.235294      8.000000
  0.210526  0.074074  0.235294      8.000000
  0.263158  0.074074  0.235294      8.000000
  0.315789  0.074074  0.235294      8.000000
  0.368421  0.074074  0.235294      8.000000
  0.421053  0.074074  0.235294      8.000000
  0.473684  0.074074  0.235294      8.000000
  0.000000  0.111111  0.235294      4.000000
  0.052632  0.111111  0.235294      8.000000
  0.105263  0.111111  0.235294      8.000000
  0.157895  0.111111  0.235294      8.000000
  0.210526  0.111111  0.235294      8.000000
  0.263158  0.111111  0.235294      8.000000
  0.315789  0.111111  0.235294      8.000000
  0.368421  0.111111  0.235294      8.000000
  0.421053  0.111111  0.235294      8.000000
  0.473684  0.111111  0.235294      8.000000
  0.000000  0.148148  0.235294      4.000000
  0.052632  0.148148  0.235294      8.000000
  0.105263  0.148148  0.235294      8.000000
  0.157895  0.148148  0.235294      8.000000
  0.210526  0.148148  0.235294      8.000000
  0.263158  0.148148  0.235294      8.000000
  0.315789  0.148148  0.235294      8.000000
  0.368421  0.148148  0.235294      8.000000
  0.421053  0.148148  0.235294      8.000000
  0.473684  0.148148  0.235294      8.000000
  0.000000  0.185185  0.235294      4.000000
  0.052632  0.185185  0.235294      8.000000
  0.105263  0.185185  0.235294      8.000000
  0.157895  0.185185  0.235294      8.000000
  0.210526  0.185185  0.235294      8.000000
  0.263158  0.185185  0.235294      8.000000
  0.315789  0.185185  0.235294      8.000000
  0.368421  0.185185  0.235294      8.000000
  0.421053  0.185185  0.235294      8.000000
  0.473684  0.185185  0.235294      8.000000
  0.000000  0.222222  0.235294      4.000000
  0.052632  0.222222  0.235294      8.000000
  0.105263  0.222222  0.235294      8.000000
  0.157895  0.222222  0.235294      8.000000
  0.210526  0.222222  0.235294      8.000000
  0.263158  0.222222  0.235294      8.000000
  0.315789  0.222222  0.235294      8.000000
  0.368421  0.222222  0.235294      8.000000
  0.421053  0.222222  0.235294      8.000000
  0.473684  0.222222  0.235294      8.000000
  0.000000  0.259259  0.235294      4.000000
  0.052632  0.259259  0.235294      8.000000
  0.105263  0.259259  0.235294      8.000000
  0.157895  0.259259  0.235294      8.000000
  0.210526  0.259259  0.235294      8.000000
  0.263158  0.259259  0.235294      8.000000
  0.315789  0.259259  0.235294      8.000000
  0.368421  0.259259  0.235294      8.000000
  0.421053  0.259259  0.235294      8.000000
  0.473684  0.259259  0.235294      8.000000
  0.000000  0.296296  0.235294      4.000000
  0.052632  0.296296  0.235294      8.000000
  0.105263  0.296296  0.235294      8.000000
  0.157895  0.296296  0.235294      8.000000
  0.210526  0.296296  0.235294      8.000000
  0.263158  0.296296  0.235294      8.000000
  0.315789  0.296296  0.235294      8.000000
  0.368421  0.296296  0.235294      8.000000
  0.421053  0.296296  0.235294      8.000000
  0.473684  0.296296  0.235294      8.000000
  0.000000  0.333333  0.235294      4.000000
  0.052632  0.333333  0.235294      8.000000
  0.105263  0.333333  0.235294      8.000000
  0.157895  0.333333  0.235294      8.000000
  0.210526  0.333333  0.235294      8.000000
  0.263158  0.333333  0.235294      8.000000
  0.315789  0.333333  0.235294      8.000000
  0.368421  0.333333  0.235294      8.000000
  0.421053  0.333333  0.235294      8.000000
  0.473684  0.333333  0.235294      8.000000
  0.000000  0.370370  0.235294      4.000000
  0.052632  0.370370  0.235294      8.000000
  0.105263  0.370370  0.235294      8.000000
  0.157895  0.370370  0.235294      8.000000
  0.210526  0.370370  0.235294      8.000000
  0.263158  0.370370  0.235294      8.000000
  0.315789  0.370370  0.235294      8.000000
  0.368421  0.370370  0.235294      8.000000
  0.421053  0.370370  0.235294      8.000000
  0.473684  0.370370  0.235294      8.000000
  0.000000  0.407407  0.235294      4.000000
  0.052632  0.407407  0.235294      8.000000
  0.105263  0.407407  0.235294      8.000000
  0.157895  0.407407  0.235294      8.000000
  0.210526  0.407407  0.235294      8.000000
  0.263158  0.407407  0.235294      8.000000
  0.315789  0.407407  0.235294      8.000000
  0.368421  0.407407  0.235294      8.000000
  0.421053  0.407407  0.235294      8.000000
  0.473684  0.407407  0.235294      8.000000
  0.000000  0.444444  0.235294      4.000000
  0.052632  0.444444  0.235294      8.000000
  0.105263  0.444444  0.235294      8.000000
  0.157895  0.444444  0.235294      8.000000
  0.210526  0.444444  0.235294      8.000000
  0.263158  0.444444  0.235294      8.000000
  0.315789  0.444444  0.235294      8.000000
  0.368421  0.444444  0.235294      8.000000
  0.421053  0.444444  0.235294      8.000000
  0.473684  0.444444  0.235294      8.000000
  0.000000  0.481481  0.235294      4.000000
  0.052632  0.481481  0.235294      8.000000
  0.105263  0.481481  0.235294      8.000000
  0.157895  0.481481  0.235294      8.000000
  0.210526  0.481481  0.235294      8.000000
  0.263158  0.481481  0.235294      8.000000
  0.315789  0.481481  0.235294      8.000000
  0.368421  0.481481  0.235294      8.000000
  0.421053  0.481481  0.235294      8.000000
  0.473684  0.481481  0.235294      8.000000
  0.000000  0.000000  0.294118      2.000000
  0.052632  0.000000  0.294118      4.000000
  0.105263  0.000000  0.294118      4.000000
  0.157895  0.000000  0.294118      4.000000
  0.210526  0.000000  0.294118      4.000000
  0.263158  0.000000  0.294118      4.000000
  0.315789  0.000000  0.294118      4.000000
  0.368421  0.000000  0.294118      4.000000
  0.421053  0.000000  0.294118      4.000000
  0.473684  0.000000  0.294118      4.000000
  0.000000  0.037037  0.294118      4.000000
  0.052632  0.037037  0.294118      8.000000
  0.105263  0.037037  0.294118      8.000000
  0.157895  0.037037  0.294118      8.000000
  0.210526  0.037037  0.294118      8.000000
  0.263158  0.037037  0.294118      8.000000
  0.315789  0.037037  0.294118      8.000000
  0.368421  0.037037  0.294118      8.000000
  0.421053  0.037037  0.294118      8.000000
  0.473684  0.037037  0.294118      8.000000
  0.000000  0.074074  0.294118      4.000000
  0.052632  0.074074  0.294118      8.000000
  0.105263  0.074074  0.294118      8.000000
  0.157895  0.074074  0.294118      8.000000
  0.210526  0.074074  0.294118      8.000000
  0.263158  0.074074  0.294118      8.000000
  0.315789  0.074074  0.294118      8.000000
  0.368421  0.074074  0.294118      8.000000
  0.421053  0.074074  0.294118      8.000000
  0.473684  0.074074  0.294118      8.000000
  0.000000  0.111111  0.294118      4.000000
  0.052632  0.111111  0.294118      8.000000
  0.105263  0.111111  0.294118      8.000000
  0.157895  0.111111  0.294118      8.000000
  0.210526  0.111111  0.294118      8.000000
  0.263158  0.111111  0.294118      8.000000
  0.315789  0.111111  0.294118      8.000000
  0.368421  0.111111  0.294118      8.000000
  0.421053  0.111111  0.294118      8.000000
  0.473684  0.111111  0.294118      8.000000
  0.000000  0.148148  0.294118      4.000000
  0.052632  0.148148  0.294118      8.000000
  0.105263  0.148148  0.294118      8.000000
  0.157895  0.148148  0.294118      8.000000
  0.210526  0.148148  0.294118      8.000000
  0.263158  0.148148  0.294118      8.000000
  0.315789  0.148148  0.294118      8.000000
  0.368421  0.148148  0.294118      8.000000
  0.421053  0.148148  0.294118      8.000000
  0.473684  0.148148  0.294118      8.000000
  0.000000  0.185185  0.294118      4.000000
  0.052632  0.185185  0.294118      8.000000
  0.105263  0.185185  0.294118      8.000000
  0.157895  0.185185  0.294118      8.000000
  0.210526  0.185185  0.294118      8.000000
  0.263158  0.185185  0.294118      8.000000
  0.315789  0.185185  0.294118      8.000000
  0.368421  0.185185  0.294118      8.000000
  0.421053  0.185185  0.294118      8.000000
  0.473684  0.185185  0.294118      8.000000
  0.000000  0.222222  0.294118      4.000000
  0.052632  0.222222  0.294118      8.000000
  0.105263  0.222222  0.294118      8.000000
  0.157895  0.222222  0.294118      8.000000
  0.210526  0.222222  0.294118      8.000000
  0.263158  0.222222  0.294118      8.000000
  0.315789  0.222222  0.294118      8.000000
  0.368421  0.222222  0.294118      8.000000
  0.421053  0.222222  0.294118      8.000000
  0.473684  0.222222  0.294118      8.000000
  0.000000  0.259259  0.294118      4.000000
  0.052632  0.259259  0.294118      8.000000
  0.105263  0.259259  0.294118      8.000000
  0.157895  0.259259  0.294118      8.000000
  0.210526  0.259259  0.294118      8.000000
  0.263158  0.259259  0.294118      8.000000
  0.315789  0.259259  0.294118      8.000000
  0.368421  0.259259  0.294118      8.000000
  0.421053  0.259259  0.294118      8.000000
  0.473684  0.259259  0.294118      8.000000
  0.000000  0.296296  0.294118      4.000000
  0.052632  0.296296  0.294118      8.000000
  0.105263  0.296296  0.294118      8.000000
  0.157895  0.296296  0.294118      8.000000
  0.210526  0.296296  0.294118      8.000000
  0.263158  0.296296  0.294118      8.000000
  0.315789  0.296296  0.294118      8.000000
  0.368421  0.296296  0.294118      8.000000
  0.421053  0.296296  0.294118      8.000000
  0.473684  0.296296  0.294118      8.000000
  0.000000  0.333333  0.294118      4.000000
  0.052632  0.333333  0.294118      8.000000
  0.105263  0.333333  0.294118      8.000000
  0.157895  0.333333  0.294118      8.000000
  0.210526  0.333333  0.294118      8.000000
  0.263158  0.333333  0.294118      8.000000
  0.315789  0.333333  0.294118      8.000000
  0.368421  0.333333  0.294118      8.000000
  0.421053  0.333333  0.294118      8.000000
  0.473684  0.333333  0.294118      8.000000
  0.000000  0.370370  0.294118      4.000000
  0.052632  0.370370  0.294118      8.000000
  0.105263  0.370370  0.294118      8.000000
  0.157895  0.370370  0.294118      8.000000
  0.210526  0.370370  0.294118      8.000000
  0.263158  0.370370  0.294118      8.000000
  0.315789  0.370370  0.294118      8.000000
  0.368421  0.370370  0.294118      8.000000
  0.421053  0.370370  0.294118      8.000000
  0.473684  0.370370  0.294118      8.000000
  0.000000  0.407407  0.294118      4.000000
  0.052632  0.407407  0.294118      8.000000
  0.105263  0.407407  0.294118      8.000000
  0.157895  0.407407  0.294118      8.000000
  0.210526  0.407407  0.294118      8.000000
  0.263158  0.407407  0.294118      8.000000
  0.315789  0.407407  0.294118      8.000000
  0.368421  0.407407  0.294118      8.000000
  0.421053  0.407407  0.294118      8.000000
  0.473684  0.407407  0.294118      8.000000
  0.000000  0.444444  0.294118      4.000000
  0.052632  0.444444  0.294118      8.000000
  0.105263  0.444444  0.294118      8.000000
  0.157895  0.444444  0.294118      8.000000
  0.210526  0.444444  0.294118      8.000000
  0.263158  0.444444  0.294118      8.000000
  0.315789  0.444444  0.294118      8.000000
  0.368421  0.444444  0.294118      8.000000
  0.421053  0.444444  0.294118      8.000000
  0.473684  0.444444  0.294118      8.000000
  0.000000  0.481481  0.294118      4.000000
  0.052632  0.481481  0.294118      8.000000
  0.105263  0.481481  0.294118      8.000000
  0.157895  0.481481  0.294118      8.000000
  0.210526  0.481481  0.294118      8.000000
  0.263158  0.481481  0.294118      8.000000
  0.315789  0.481481  0.294118      8.000000
  0.368421  0.481481  0.294118      8.000000
  0.421053  0.481481  0.294118      8.000000
  0.473684  0.481481  0.294118      8.000000
  0.000000  0.000000  0.352941      2.000000
  0.052632  0.000000  0.352941      4.000000
  0.105263  0.000000  0.352941      4.000000
  0.157895  0.000000  0.352941      4.000000
  0.210526  0.000000  0.352941      4.000000
  0.263158  0.000000  0.352941      4.000000
  0.315789  0.000000  0.352941      4.000000
  0.368421  0.000000  0.352941      4.000000
  0.421053  0.000000  0.352941      4.000000
  0.473684  0.000000  0.352941      4.000000
  0.000000  0.037037  0.352941      4.000000
  0.052632  0.037037  0.352941      8.000000
  0.105263  0.037037  0.352941      8.000000
  0.157895  0.037037  0.352941      8.000000
  0.210526  0.037037  0.352941      8.000000
  0.263158  0.037037  0.352941      8.000000
  0.315789  0.037037  0.352941      8.000000
  0.368421  0.037037  0.352941      8.000000
  0.421053  0.037037  0.352941      8.000000
  0.473684  0.037037  0.352941      8.000000
  0.000000  0.074074  0.352941      4.000000
  0.052632  0.074074  0.352941      8.000000
  0.105263  0.074074  0.352941      8.000000
  0.157895  0.074074  0.352941      8.000000
  0.210526  0.074074  0.352941      8.000000
  0.263158  0.074074  0.352941      8.000000
  0.315789  0.074074  0.352941      8.000000
  0.368421  0.074074  0.352941      8.000000
  0.421053  0.074074  0.352941      8.000000
  0.473684  0.074074  0.352941      8.000000
  0.000000  0.111111  0.352941      4.000000
  0.052632  0.111111  0.352941      8.000000
  0.105263  0.111111  0.352941      8.000000
  0.157895  0.111111  0.352941      8.000000
  0.210526  0.111111  0.352941      8.000000
  0.263158  0.111111  0.352941      8.000000
  0.315789  0.111111  0.352941      8.000000
  0.368421  0.111111  0.352941      8.000000
  0.421053  0.111111  0.352941      8.000000
  0.473684  0.111111  0.352941      8.000000
  0.000000  0.148148  0.352941      4.000000
  0.052632  0.148148  0.352941      8.000000
  0.105263  0.148148  0.352941      8.000000
  0.157895  0.148148  0.352941      8.000000
  0.210526  0.148148  0.352941      8.000000
  0.263158  0.148148  0.352941      8.000000
  0.315789  0.148148  0.352941      8.000000
  0.368421  0.148148  0.352941      8.000000
  0.421053  0.148148  0.352941      8.000000
  0.473684  0.148148  0.352941      8.000000
  0.000000  0.185185  0.352941      4.000000
  0.052632  0.185185  0.352941      8.000000
  0.105263  0.185185  0.352941      8.000000
  0.157895  0.185185  0.352941      8.000000
  0.210526  0.185185  0.352941      8.000000
  0.263158  0.185185  0.352941      8.000000
  0.315789  0.185185  0.352941      8.000000
  0.368421  0.185185  0.352941      8.000000
  0.421053  0.185185  0.352941      8.000000
  0.473684  0.185185  0.352941      8.000000
  0.000000  0.222222  0.352941      4.000000
  0.052632  0.222222  0.352941      8.000000
  0.105263  0.222222  0.352941      8.000000
  0.157895  0.222222  0.352941      8.000000
  0.210526  0.222222  0.352941      8.000000
  0.263158  0.222222  0.352941      8.000000
  0.315789  0.222222  0.352941      8.000000
  0.368421  0.222222  0.352941      8.000000
  0.421053  0.222222  0.352941      8.000000
  0.473684  0.222222  0.352941      8.000000
  0.000000  0.259259  0.352941      4.000000
  0.052632  0.259259  0.352941      8.000000
  0.105263  0.259259  0.352941      8.000000
  0.157895  0.259259  0.352941      8.000000
  0.210526  0.259259  0.352941      8.000000
  0.263158  0.259259  0.352941      8.000000
  0.315789  0.259259  0.352941      8.000000
  0.368421  0.259259  0.352941      8.000000
  0.421053  0.259259  0.352941      8.000000
  0.473684  0.259259  0.352941      8.000000
  0.000000  0.296296  0.352941      4.000000
  0.052632  0.296296  0.352941      8.000000
  0.105263  0.296296  0.352941      8.000000
  0.157895  0.296296  0.352941      8.000000
  0.210526  0.296296  0.352941      8.000000
  0.263158  0.296296  0.352941      8.000000
  0.315789  0.296296  0.352941      8.000000
  0.368421  0.296296  0.352941      8.000000
  0.421053  0.296296  0.352941      8.000000
  0.473684  0.296296  0.352941      8.000000
  0.000000  0.333333  0.352941      4.000000
  0.052632  0.333333  0.352941      8.000000
  0.105263  0.333333  0.352941      8.000000
  0.157895  0.333333  0.352941      8.000000
  0.210526  0.333333  0.352941      8.000000
  0.263158  0.333333  0.352941      8.000000
  0.315789  0.333333  0.352941      8.000000
  0.368421  0.333333  0.352941      8.000000
  0.421053  0.333333  0.352941      8.000000
  0.473684  0.333333  0.352941      8.000000
  0.000000  0.370370  0.352941      4.000000
  0.052632  0.370370  0.352941      8.000000
  0.105263  0.370370  0.352941      8.000000
  0.157895  0.370370  0.352941      8.000000
  0.210526  0.370370  0.352941      8.000000
  0.263158  0.370370  0.352941      8.000000
  0.315789  0.370370  0.352941      8.000000
  0.368421  0.370370  0.352941      8.000000
  0.421053  0.370370  0.352941      8.000000
  0.473684  0.370370  0.352941      8.000000
  0.000000  0.407407  0.352941      4.000000
  0.052632  0.407407  0.352941      8.000000
  0.105263  0.407407  0.352941      8.000000
  0.157895  0.407407  0.352941      8.000000
  0.210526  0.407407  0.352941      8.000000
  0.263158  0.407407  0.352941      8.000000
  0.315789  0.407407  0.352941      8.000000
  0.368421  0.407407  0.352941      8.000000
  0.421053  0.407407  0.352941      8.000000
  0.473684  0.407407  0.352941      8.000000
  0.000000  0.444444  0.352941      4.000000
  0.052632  0.444444  0.352941      8.000000
  0.105263  0.444444  0.352941      8.000000
  0.157895  0.444444  0.352941      8.000000
  0.210526  0.444444  0.352941      8.000000
  0.263158  0.444444  0.352941      8.000000
  0.315789  0.444444  0.352941      8.000000
  0.368421  0.444444  0.352941      8.000000
  0.421053  0.444444  0.352941      8.000000
  0.473684  0.444444  0.352941      8.000000
  0.000000  0.481481  0.352941      4.000000
  0.052632  0.481481  0.352941      8.000000
  0.105263  0.481481  0.352941      8.000000
  0.157895  0.481481  0.352941      8.000000
  0.210526  0.481481  0.352941      8.000000
  0.263158  0.481481  0.352941      8.000000
  0.315789  0.481481  0.352941      8.000000
  0.368421  0.481481  0.352941      8.000000
  0.421053  0.481481  0.352941      8.000000
  0.473684  0.481481  0.352941      8.000000
  0.000000  0.000000  0.411765      2.000000
  0.052632  0.000000  0.411765      4.000000
  0.105263  0.000000  0.411765      4.000000
  0.157895  0.000000  0.411765      4.000000
  0.210526  0.000000  0.411765      4.000000
  0.263158  0.000000  0.411765      4.000000
  0.315789  0.000000  0.411765      4.000000
  0.368421  0.000000  0.411765      4.000000
  0.421053  0.000000  0.411765      4.000000
  0.473684  0.000000  0.411765      4.000000
  0.000000  0.037037  0.411765      4.000000
  0.052632  0.037037  0.411765      8.000000
  0.105263  0.037037  0.411765      8.000000
  0.157895  0.037037  0.411765      8.000000
  0.210526  0.037037  0.411765      8.000000
  0.263158  0.037037  0.411765      8.000000
  0.315789  0.037037  0.411765      8.000000
  0.368421  0.037037  0.411765      8.000000
  0.421053  0.037037  0.411765      8.000000
  0.473684  0.037037  0.411765      8.000000
  0.000000  0.074074  0.411765      4.000000
  0.052632  0.074074  0.411765      8.000000
  0.105263  0.074074  0.411765      8.000000
  0.157895  0.074074  0.411765      8.000000
  0.210526  0.074074  0.411765      8.000000
  0.263158  0.074074  0.411765      8.000000
  0.315789  0.074074  0.411765      8.000000
  0.368421  0.074074  0.411765      8.000000
  0.421053  0.074074  0.411765      8.000000
  0.473684  0.074074  0.411765      8.000000
  0.000000  0.111111  0.411765      4.000000
  0.052632  0.111111  0.411765      8.000000
  0.105263  0.111111  0.411765      8.000000
  0.157895  0.111111  0.411765      8.000000
  0.210526  0.111111  0.411765      8.000000
  0.263158  0.111111  0.411765      8.000000
  0.315789  0.111111  0.411765      8.000000
  0.368421  0.111111  0.411765      8.000000
  0.421053  0.111111  0.411765      8.000000
  0.473684  0.111111  0.411765      8.000000
  0.000000  0.148148  0.411765      4.000000
  0.052632  0.148148  0.411765      8.000000
  0.105263  0.148148  0.411765      8.000000
  0.157895  0.148148  0.411765      8.000000
  0.210526  0.148148  0.411765      8.000000
  0.263158  0.148148  0.411765      8.000000
  0.315789  0.148148  0.411765      8.000000
  0.368421  0.148148  0.411765      8.000000
  0.421053  0.148148  0.411765      8.000000
  0.473684  0.148148  0.411765      8.000000
  0.000000  0.185185  0.411765      4.000000
  0.052632  0.185185  0.411765      8.000000
  0.105263  0.185185  0.411765      8.000000
  0.157895  0.185185  0.411765      8.000000
  0.210526  0.185185  0.411765      8.000000
  0.263158  0.185185  0.411765      8.000000
  0.315789  0.185185  0.411765      8.000000
  0.368421  0.185185  0.411765      8.000000
  0.421053  0.185185  0.411765      8.000000
  0.473684  0.185185  0.411765      8.000000
  0.000000  0.222222  0.411765      4.000000
  0.052632  0.222222  0.411765      8.000000
  0.105263  0.222222  0.411765      8.000000
  0.157895  0.222222  0.411765      8.000000
  0.210526  0.222222  0.411765      8.000000
  0.263158  0.222222  0.411765      8.000000
  0.315789  0.222222  0.411765      8.000000
  0.368421  0.222222  0.411765      8.000000
  0.421053  0.222222  0.411765      8.000000
  0.473684  0.222222  0.411765      8.000000
  0.000000  0.259259  0.411765      4.000000
  0.052632  0.259259  0.411765      8.000000
  0.105263  0.259259  0.411765      8.000000
  0.157895  0.259259  0.411765      8.000000
  0.210526  0.259259  0.411765      8.000000
  0.263158  0.259259  0.411765      8.000000
  0.315789  0.259259  0.411765      8.000000
  0.368421  0.259259  0.411765      8.000000
  0.421053  0.259259  0.411765      8.000000
  0.473684  0.259259  0.411765      8.000000
  0.000000  0.296296  0.411765      4.000000
  0.052632  0.296296  0.411765      8.000000
  0.105263  0.296296  0.411765      8.000000
  0.157895  0.296296  0.411765      8.000000
  0.210526  0.296296  0.411765      8.000000
  0.263158  0.296296  0.411765      8.000000
  0.315789  0.296296  0.411765      8.000000
  0.368421  0.296296  0.411765      8.000000
  0.421053  0.296296  0.411765      8.000000
  0.473684  0.296296  0.411765      8.000000
  0.000000  0.333333  0.411765      4.000000
  0.052632  0.333333  0.411765      8.000000
  0.105263  0.333333  0.411765      8.000000
  0.157895  0.333333  0.411765      8.000000
  0.210526  0.333333  0.411765      8.000000
  0.263158  0.333333  0.411765      8.000000
  0.315789  0.333333  0.411765      8.000000
  0.368421  0.333333  0.411765      8.000000
  0.421053  0.333333  0.411765      8.000000
  0.473684  0.333333  0.411765      8.000000
  0.000000  0.370370  0.411765      4.000000
  0.052632  0.370370  0.411765      8.000000
  0.105263  0.370370  0.411765      8.000000
  0.157895  0.370370  0.411765      8.000000
  0.210526  0.370370  0.411765      8.000000
  0.263158  0.370370  0.411765      8.000000
  0.315789  0.370370  0.411765      8.000000
  0.368421  0.370370  0.411765      8.000000
  0.421053  0.370370  0.411765      8.000000
  0.473684  0.370370  0.411765      8.000000
  0.000000  0.407407  0.411765      4.000000
  0.052632  0.407407  0.411765      8.000000
  0.105263  0.407407  0.411765      8.000000
  0.157895  0.407407  0.411765      8.000000
  0.210526  0.407407  0.411765      8.000000
  0.263158  0.407407  0.411765      8.000000
  0.315789  0.407407  0.411765      8.000000
  0.368421  0.407407  0.411765      8.000000
  0.421053  0.407407  0.411765      8.000000
  0.473684  0.407407  0.411765      8.000000
  0.000000  0.444444  0.411765      4.000000
  0.052632  0.444444  0.411765      8.000000
  0.105263  0.444444  0.411765      8.000000
  0.157895  0.444444  0.411765      8.000000
  0.210526  0.444444  0.411765      8.000000
  0.263158  0.444444  0.411765      8.000000
  0.315789  0.444444  0.411765      8.000000
  0.368421  0.444444  0.411765      8.000000
  0.421053  0.444444  0.411765      8.000000
  0.473684  0.444444  0.411765      8.000000
  0.000000  0.481481  0.411765      4.000000
  0.052632  0.481481  0.411765      8.000000
  0.105263  0.481481  0.411765      8.000000
  0.157895  0.481481  0.411765      8.000000
  0.210526  0.481481  0.411765      8.000000
  0.263158  0.481481  0.411765      8.000000
  0.315789  0.481481  0.411765      8.000000
  0.368421  0.481481  0.411765      8.000000
  0.421053  0.481481  0.411765      8.000000
  0.473684  0.481481  0.411765      8.000000
  0.000000  0.000000  0.470588      2.000000
  0.052632  0.000000  0.470588      4.000000
  0.105263  0.000000  0.470588      4.000000
  0.157895  0.000000  0.470588      4.000000
  0.210526  0.000000  0.470588      4.000000
  0.263158  0.000000  0.470588      4.000000
  0.315789  0.000000  0.470588      4.000000
  0.368421  0.000000  0.470588      4.000000
  0.421053  0.000000  0.470588      4.000000
  0.473684  0.000000  0.470588      4.000000
  0.000000  0.037037  0.470588      4.000000
  0.052632  0.037037  0.470588      8.000000
  0.105263  0.037037  0.470588      8.000000
  0.157895  0.037037  0.470588      8.000000
  0.210526  0.037037  0.470588      8.000000
  0.263158  0.037037  0.470588      8.000000
  0.315789  0.037037  0.470588      8.000000
  0.368421  0.037037  0.470588      8.000000
  0.421053  0.037037  0.470588      8.000000
  0.473684  0.037037  0.470588      8.000000
  0.000000  0.074074  0.470588      4.000000
  0.052632  0.074074  0.470588      8.000000
  0.105263  0.074074  0.470588      8.000000
  0.157895  0.074074  0.470588      8.000000
  0.210526  0.074074  0.470588      8.000000
  0.263158  0.074074  0.470588      8.000000
  0.315789  0.074074  0.470588      8.000000
  0.368421  0.074074  0.470588      8.000000
  0.421053  0.074074  0.470588      8.000000
  0.473684  0.074074  0.470588      8.000000
  0.000000  0.111111  0.470588      4.000000
  0.052632  0.111111  0.470588      8.000000
  0.105263  0.111111  0.470588      8.000000
  0.157895  0.111111  0.470588      8.000000
  0.210526  0.111111  0.470588      8.000000
  0.263158  0.111111  0.470588      8.000000
  0.315789  0.111111  0.470588      8.000000
  0.368421  0.111111  0.470588      8.000000
  0.421053  0.111111  0.470588      8.000000
  0.473684  0.111111  0.470588      8.000000
  0.000000  0.148148  0.470588      4.000000
  0.052632  0.148148  0.470588      8.000000
  0.105263  0.148148  0.470588      8.000000
  0.157895  0.148148  0.470588      8.000000
  0.210526  0.148148  0.470588      8.000000
  0.263158  0.148148  0.470588      8.000000
  0.315789  0.148148  0.470588      8.000000
  0.368421  0.148148  0.470588      8.000000
  0.421053  0.148148  0.470588      8.000000
  0.473684  0.148148  0.470588      8.000000
  0.000000  0.185185  0.470588      4.000000
  0.052632  0.185185  0.470588      8.000000
  0.105263  0.185185  0.470588      8.000000
  0.157895  0.185185  0.470588      8.000000
  0.210526  0.185185  0.470588      8.000000
  0.263158  0.185185  0.470588      8.000000
  0.315789  0.185185  0.470588      8.000000
  0.368421  0.185185  0.470588      8.000000
  0.421053  0.185185  0.470588      8.000000
  0.473684  0.185185  0.470588      8.000000
  0.000000  0.222222  0.470588      4.000000
  0.052632  0.222222  0.470588      8.000000
  0.105263  0.222222  0.470588      8.000000
  0.157895  0.222222  0.470588      8.000000
  0.210526  0.222222  0.470588      8.000000
  0.263158  0.222222  0.470588      8.000000
  0.315789  0.222222  0.470588      8.000000
  0.368421  0.222222  0.470588      8.000000
  0.421053  0.222222  0.470588      8.000000
  0.473684  0.222222  0.470588      8.000000
  0.000000  0.259259  0.470588      4.000000
  0.052632  0.259259  0.470588      8.000000
  0.105263  0.259259  0.470588      8.000000
  0.157895  0.259259  0.470588      8.000000
  0.210526  0.259259  0.470588      8.000000
  0.263158  0.259259  0.470588      8.000000
  0.315789  0.259259  0.470588      8.000000
  0.368421  0.259259  0.470588      8.000000
  0.421053  0.259259  0.470588      8.000000
  0.473684  0.259259  0.470588      8.000000
  0.000000  0.296296  0.470588      4.000000
  0.052632  0.296296  0.470588      8.000000
  0.105263  0.296296  0.470588      8.000000
  0.157895  0.296296  0.470588      8.000000
  0.210526  0.296296  0.470588      8.000000
  0.263158  0.296296  0.470588      8.000000
  0.315789  0.296296  0.470588      8.000000
  0.368421  0.296296  0.470588      8.000000
  0.421053  0.296296  0.470588      8.000000
  0.473684  0.296296  0.470588      8.000000
  0.000000  0.333333  0.470588      4.000000
  0.052632  0.333333  0.470588      8.000000
  0.105263  0.333333  0.470588      8.000000
  0.157895  0.333333  0.470588      8.000000
  0.210526  0.333333  0.470588      8.000000
  0.263158  0.333333  0.470588      8.000000
  0.315789  0.333333  0.470588      8.000000
  0.368421  0.333333  0.470588      8.000000
  0.421053  0.333333  0.470588      8.000000
  0.473684  0.333333  0.470588      8.000000
  0.000000  0.370370  0.470588      4.000000
  0.052632  0.370370  0.470588      8.000000
  0.105263  0.370370  0.470588      8.000000
  0.157895  0.370370  0.470588      8.000000
  0.210526  0.370370  0.470588      8.000000
  0.263158  0.370370  0.470588      8.000000
  0.315789  0.370370  0.470588      8.000000
  0.368421  0.370370  0.470588      8.000000
  0.421053  0.370370  0.470588      8.000000
  0.473684  0.370370  0.470588      8.000000
  0.000000  0.407407  0.470588      4.000000
  0.052632  0.407407  0.470588      8.000000
  0.105263  0.407407  0.470588      8.000000
  0.157895  0.407407  0.470588      8.000000
  0.210526  0.407407  0.470588      8.000000
  0.263158  0.407407  0.470588      8.000000
  0.315789  0.407407  0.470588      8.000000
  0.368421  0.407407  0.470588      8.000000
  0.421053  0.407407  0.470588      8.000000
  0.473684  0.407407  0.470588      8.000000
  0.000000  0.444444  0.470588      4.000000
  0.052632  0.444444  0.470588      8.000000
  0.105263  0.444444  0.470588      8.000000
  0.157895  0.444444  0.470588      8.000000
  0.210526  0.444444  0.470588      8.000000
  0.263158  0.444444  0.470588      8.000000
  0.315789  0.444444  0.470588      8.000000
  0.368421  0.444444  0.470588      8.000000
  0.421053  0.444444  0.470588      8.000000
  0.473684  0.444444  0.470588      8.000000
  0.000000  0.481481  0.470588      4.000000
  0.052632  0.481481  0.470588      8.000000
  0.105263  0.481481  0.470588      8.000000
  0.157895  0.481481  0.470588      8.000000
  0.210526  0.481481  0.470588      8.000000
  0.263158  0.481481  0.470588      8.000000
  0.315789  0.481481  0.470588      8.000000
  0.368421  0.481481  0.470588      8.000000
  0.421053  0.481481  0.470588      8.000000
  0.473684  0.481481  0.470588      8.000000
 
 Following cartesian coordinates:
            Coordinates               Weight
  0.000000  0.000000  0.000000      1.000000
  0.009238  0.000000  0.000000      2.000000
  0.018477  0.000000  0.000000      2.000000
  0.027715  0.000000  0.000000      2.000000
  0.036954  0.000000  0.000000      2.000000
  0.046192  0.000000  0.000000      2.000000
  0.055431  0.000000  0.000000      2.000000
  0.064669  0.000000  0.000000      2.000000
  0.073908  0.000000  0.000000      2.000000
  0.083146  0.000000  0.000000      2.000000
  0.000000  0.009150  0.000000      2.000000
  0.009238  0.009150  0.000000      4.000000
  0.018477  0.009150  0.000000      4.000000
  0.027715  0.009150  0.000000      4.000000
  0.036954  0.009150  0.000000      4.000000
  0.046192  0.009150  0.000000      4.000000
  0.055431  0.009150  0.000000      4.000000
  0.064669  0.009150  0.000000      4.000000
  0.073908  0.009150  0.000000      4.000000
  0.083146  0.009150  0.000000      4.000000
  0.000000  0.018299  0.000000      2.000000
  0.009238  0.018299  0.000000      4.000000
  0.018477  0.018299  0.000000      4.000000
  0.027715  0.018299  0.000000      4.000000
  0.036954  0.018299  0.000000      4.000000
  0.046192  0.018299  0.000000      4.000000
  0.055431  0.018299  0.000000      4.000000
  0.064669  0.018299  0.000000      4.000000
  0.073908  0.018299  0.000000      4.000000
  0.083146  0.018299  0.000000      4.000000
  0.000000  0.027449  0.000000      2.000000
  0.009238  0.027449  0.000000      4.000000
  0.018477  0.027449  0.000000      4.000000
  0.027715  0.027449  0.000000      4.000000
  0.036954  0.027449  0.000000      4.000000
  0.046192  0.027449  0.000000      4.000000
  0.055431  0.027449  0.000000      4.000000
  0.064669  0.027449  0.000000      4.000000
  0.073908  0.027449  0.000000      4.000000
  0.083146  0.027449  0.000000      4.000000
  0.000000  0.036599  0.000000      2.000000
  0.009238  0.036599  0.000000      4.000000
  0.018477  0.036599  0.000000      4.000000
  0.027715  0.036599  0.000000      4.000000
  0.036954  0.036599  0.000000      4.000000
  0.046192  0.036599  0.000000      4.000000
  0.055431  0.036599  0.000000      4.000000
  0.064669  0.036599  0.000000      4.000000
  0.073908  0.036599  0.000000      4.000000
  0.083146  0.036599  0.000000      4.000000
  0.000000  0.045748  0.000000      2.000000
  0.009238  0.045748  0.000000      4.000000
  0.018477  0.045748  0.000000      4.000000
  0.027715  0.045748  0.000000      4.000000
  0.036954  0.045748  0.000000      4.000000
  0.046192  0.045748  0.000000      4.000000
  0.055431  0.045748  0.000000      4.000000
  0.064669  0.045748  0.000000      4.000000
  0.073908  0.045748  0.000000      4.000000
  0.083146  0.045748  0.000000      4.000000
  0.000000  0.054898  0.000000      2.000000
  0.009238  0.054898  0.000000      4.000000
  0.018477  0.054898  0.000000      4.000000
  0.027715  0.054898  0.000000      4.000000
  0.036954  0.054898  0.000000      4.000000
  0.046192  0.054898  0.000000      4.000000
  0.055431  0.054898  0.000000      4.000000
  0.064669  0.054898  0.000000      4.000000
  0.073908  0.054898  0.000000      4.000000
  0.083146  0.054898  0.000000      4.000000
  0.000000  0.064048  0.000000      2.000000
  0.009238  0.064048  0.000000      4.000000
  0.018477  0.064048  0.000000      4.000000
  0.027715  0.064048  0.000000      4.000000
  0.036954  0.064048  0.000000      4.000000
  0.046192  0.064048  0.000000      4.000000
  0.055431  0.064048  0.000000      4.000000
  0.064669  0.064048  0.000000      4.000000
  0.073908  0.064048  0.000000      4.000000
  0.083146  0.064048  0.000000      4.000000
  0.000000  0.073198  0.000000      2.000000
  0.009238  0.073198  0.000000      4.000000
  0.018477  0.073198  0.000000      4.000000
  0.027715  0.073198  0.000000      4.000000
  0.036954  0.073198  0.000000      4.000000
  0.046192  0.073198  0.000000      4.000000
  0.055431  0.073198  0.000000      4.000000
  0.064669  0.073198  0.000000      4.000000
  0.073908  0.073198  0.000000      4.000000
  0.083146  0.073198  0.000000      4.000000
  0.000000  0.082347  0.000000      2.000000
  0.009238  0.082347  0.000000      4.000000
  0.018477  0.082347  0.000000      4.000000
  0.027715  0.082347  0.000000      4.000000
  0.036954  0.082347  0.000000      4.000000
  0.046192  0.082347  0.000000      4.000000
  0.055431  0.082347  0.000000      4.000000
  0.064669  0.082347  0.000000      4.000000
  0.073908  0.082347  0.000000      4.000000
  0.083146  0.082347  0.000000      4.000000
  0.000000  0.091497  0.000000      2.000000
  0.009238  0.091497  0.000000      4.000000
  0.018477  0.091497  0.000000      4.000000
  0.027715  0.091497  0.000000      4.000000
  0.036954  0.091497  0.000000      4.000000
  0.046192  0.091497  0.000000      4.000000
  0.055431  0.091497  0.000000      4.000000
  0.064669  0.091497  0.000000      4.000000
  0.073908  0.091497  0.000000      4.000000
  0.083146  0.091497  0.000000      4.000000
  0.000000  0.100647  0.000000      2.000000
  0.009238  0.100647  0.000000      4.000000
  0.018477  0.100647  0.000000      4.000000
  0.027715  0.100647  0.000000      4.000000
  0.036954  0.100647  0.000000      4.000000
  0.046192  0.100647  0.000000      4.000000
  0.055431  0.100647  0.000000      4.000000
  0.064669  0.100647  0.000000      4.000000
  0.073908  0.100647  0.000000      4.000000
  0.083146  0.100647  0.000000      4.000000
  0.000000  0.109796  0.000000      2.000000
  0.009238  0.109796  0.000000      4.000000
  0.018477  0.109796  0.000000      4.000000
  0.027715  0.109796  0.000000      4.000000
  0.036954  0.109796  0.000000      4.000000
  0.046192  0.109796  0.000000      4.000000
  0.055431  0.109796  0.000000      4.000000
  0.064669  0.109796  0.000000      4.000000
  0.073908  0.109796  0.000000      4.000000
  0.083146  0.109796  0.000000      4.000000
  0.000000  0.118946  0.000000      2.000000
  0.009238  0.118946  0.000000      4.000000
  0.018477  0.118946  0.000000      4.000000
  0.027715  0.118946  0.000000      4.000000
  0.036954  0.118946  0.000000      4.000000
  0.046192  0.118946  0.000000      4.000000
  0.055431  0.118946  0.000000      4.000000
  0.064669  0.118946  0.000000      4.000000
  0.073908  0.118946  0.000000      4.000000
  0.083146  0.118946  0.000000      4.000000
  0.000000  0.000000  0.009481      2.000000
  0.009238  0.000000  0.009481      4.000000
  0.018477  0.000000  0.009481      4.000000
  0.027715  0.000000  0.009481      4.000000
  0.036954  0.000000  0.009481      4.000000
  0.046192  0.000000  0.009481      4.000000
  0.055431  0.000000  0.009481      4.000000
  0.064669  0.000000  0.009481      4.000000
  0.073908  0.000000  0.009481      4.000000
  0.083146  0.000000  0.009481      4.000000
  0.000000  0.009150  0.009481      4.000000
  0.009238  0.009150  0.009481      8.000000
  0.018477  0.009150  0.009481      8.000000
  0.027715  0.009150  0.009481      8.000000
  0.036954  0.009150  0.009481      8.000000
  0.046192  0.009150  0.009481      8.000000
  0.055431  0.009150  0.009481      8.000000
  0.064669  0.009150  0.009481      8.000000
  0.073908  0.009150  0.009481      8.000000
  0.083146  0.009150  0.009481      8.000000
  0.000000  0.018299  0.009481      4.000000
  0.009238  0.018299  0.009481      8.000000
  0.018477  0.018299  0.009481      8.000000
  0.027715  0.018299  0.009481      8.000000
  0.036954  0.018299  0.009481      8.000000
  0.046192  0.018299  0.009481      8.000000
  0.055431  0.018299  0.009481      8.000000
  0.064669  0.018299  0.009481      8.000000
  0.073908  0.018299  0.009481      8.000000
  0.083146  0.018299  0.009481      8.000000
  0.000000  0.027449  0.009481      4.000000
  0.009238  0.027449  0.009481      8.000000
  0.018477  0.027449  0.009481      8.000000
  0.027715  0.027449  0.009481      8.000000
  0.036954  0.027449  0.009481      8.000000
  0.046192  0.027449  0.009481      8.000000
  0.055431  0.027449  0.009481      8.000000
  0.064669  0.027449  0.009481      8.000000
  0.073908  0.027449  0.009481      8.000000
  0.083146  0.027449  0.009481      8.000000
  0.000000  0.036599  0.009481      4.000000
  0.009238  0.036599  0.009481      8.000000
  0.018477  0.036599  0.009481      8.000000
  0.027715  0.036599  0.009481      8.000000
  0.036954  0.036599  0.009481      8.000000
  0.046192  0.036599  0.009481      8.000000
  0.055431  0.036599  0.009481      8.000000
  0.064669  0.036599  0.009481      8.000000
  0.073908  0.036599  0.009481      8.000000
  0.083146  0.036599  0.009481      8.000000
  0.000000  0.045748  0.009481      4.000000
  0.009238  0.045748  0.009481      8.000000
  0.018477  0.045748  0.009481      8.000000
  0.027715  0.045748  0.009481      8.000000
  0.036954  0.045748  0.009481      8.000000
  0.046192  0.045748  0.009481      8.000000
  0.055431  0.045748  0.009481      8.000000
  0.064669  0.045748  0.009481      8.000000
  0.073908  0.045748  0.009481      8.000000
  0.083146  0.045748  0.009481      8.000000
  0.000000  0.054898  0.009481      4.000000
  0.009238  0.054898  0.009481      8.000000
  0.018477  0.054898  0.009481      8.000000
  0.027715  0.054898  0.009481      8.000000
  0.036954  0.054898  0.009481      8.000000
  0.046192  0.054898  0.009481      8.000000
  0.055431  0.054898  0.009481      8.000000
  0.064669  0.054898  0.009481      8.000000
  0.073908  0.054898  0.009481      8.000000
  0.083146  0.054898  0.009481      8.000000
  0.000000  0.064048  0.009481      4.000000
  0.009238  0.064048  0.009481      8.000000
  0.018477  0.064048  0.009481      8.000000
  0.027715  0.064048  0.009481      8.000000
  0.036954  0.064048  0.009481      8.000000
  0.046192  0.064048  0.009481      8.000000
  0.055431  0.064048  0.009481      8.000000
  0.064669  0.064048  0.009481      8.000000
  0.073908  0.064048  0.009481      8.000000
  0.083146  0.064048  0.009481      8.000000
  0.000000  0.073198  0.009481      4.000000
  0.009238  0.073198  0.009481      8.000000
  0.018477  0.073198  0.009481      8.000000
  0.027715  0.073198  0.009481      8.000000
  0.036954  0.073198  0.009481      8.000000
  0.046192  0.073198  0.009481      8.000000
  0.055431  0.073198  0.009481      8.000000
  0.064669  0.073198  0.009481      8.000000
  0.073908  0.073198  0.009481      8.000000
  0.083146  0.073198  0.009481      8.000000
  0.000000  0.082347  0.009481      4.000000
  0.009238  0.082347  0.009481      8.000000
  0.018477  0.082347  0.009481      8.000000
  0.027715  0.082347  0.009481      8.000000
  0.036954  0.082347  0.009481      8.000000
  0.046192  0.082347  0.009481      8.000000
  0.055431  0.082347  0.009481      8.000000
  0.064669  0.082347  0.009481      8.000000
  0.073908  0.082347  0.009481      8.000000
  0.083146  0.082347  0.009481      8.000000
  0.000000  0.091497  0.009481      4.000000
  0.009238  0.091497  0.009481      8.000000
  0.018477  0.091497  0.009481      8.000000
  0.027715  0.091497  0.009481      8.000000
  0.036954  0.091497  0.009481      8.000000
  0.046192  0.091497  0.009481      8.000000
  0.055431  0.091497  0.009481      8.000000
  0.064669  0.091497  0.009481      8.000000
  0.073908  0.091497  0.009481      8.000000
  0.083146  0.091497  0.009481      8.000000
  0.000000  0.100647  0.009481      4.000000
  0.009238  0.100647  0.009481      8.000000
  0.018477  0.100647  0.009481      8.000000
  0.027715  0.100647  0.009481      8.000000
  0.036954  0.100647  0.009481      8.000000
  0.046192  0.100647  0.009481      8.000000
  0.055431  0.100647  0.009481      8.000000
[...]
     20       0.7383      2.00000
     21       1.5867      2.00000
     22       1.6350      2.00000
     23       5.9173      0.00000
     24       6.0122      0.00000
     25       6.9965      0.00000
     26       7.3230      0.00000
     27       7.4570      0.00000
     28       7.5217      0.00000
     29       9.4140      0.00000
     30       9.5115      0.00000
     31       9.9190      0.00000
     32      10.0251      0.00000
     33      10.4365      0.00000
     34      10.5886      0.00000
     35      11.2751      0.00000
     36      11.4422      0.00000
     37      11.5797      0.00000
     38      11.6023      0.00000
     39      13.1344      0.00000
     40      13.1866      0.00000
     41      13.8087      0.00000
     42      14.0318      0.00000
     43      14.1126      0.00000
     44      14.1729      0.00000
     45      14.5535      0.00000
     46      14.6551      0.00000
     47      14.9402      0.00000
     48      15.1349      0.00000

 k-point  1251 :       0.0000    0.4815    0.4706
  band No.  band energies     occupation 
      1     -12.3669      2.00000
      2     -11.5009      2.00000
      3      -8.4158      2.00000
      4      -7.8568      2.00000
      5      -6.6335      2.00000
      6      -6.2576      2.00000
      7      -5.6375      2.00000
      8      -5.3855      2.00000
      9      -3.1963      2.00000
     10      -2.7066      2.00000
     11      -2.0174      2.00000
     12      -1.5407      2.00000
     13      -1.4373      2.00000
     14      -1.4190      2.00000
     15      -1.2846      2.00000
     16      -1.0007      2.00000
     17      -0.7587      2.00000
     18      -0.5286      2.00000
     19       0.4432      2.00000
     20       1.7848      1.99200
     21       2.1687      0.00000
     22       4.0379      0.00000
     23       4.6062      0.00000
     24       5.6546      0.00000
     25       6.6582      0.00000
     26       7.0980      0.00000
     27       7.2808      0.00000
     28       7.8685      0.00000
     29       9.0724      0.00000
     30       9.3990      0.00000
     31       9.6920      0.00000
     32       9.9166      0.00000
     33      11.1857      0.00000
     34      11.3662      0.00000
     35      11.6539      0.00000
     36      11.8070      0.00000
     37      11.9675      0.00000
     38      12.1079      0.00000
     39      12.4081      0.00000
     40      12.4477      0.00000
     41      12.7585      0.00000
     42      12.7933      0.00000
     43      13.1007      0.00000
     44      13.2834      0.00000
     45      14.0197      0.00000
     46      15.3224      0.00000
     47      15.4563      0.00000
     48      15.5999      0.00000

 k-point  1252 :       0.0526    0.4815    0.4706
  band No.  band energies     occupation 
      1     -12.3615      2.00000
      2     -11.5067      2.00000
      3      -8.4290      2.00000
      4      -7.8700      2.00000
      5      -6.5948      2.00000
      6      -6.2523      2.00000
      7      -5.6396      2.00000
      8      -5.3723      2.00000
      9      -3.2272      2.00000
     10      -2.6969      2.00000
     11      -2.0392      2.00000
     12      -1.6154      2.00000
     13      -1.4985      2.00000
     14      -1.3464      2.00000
     15      -1.3123      2.00000
     16      -0.9656      2.00000
     17      -0.7053      2.00000
     18      -0.4761      2.00000
     19       0.4382      2.00000
     20       1.7804      1.99448
     21       2.1620      0.00000
     22       3.9050      0.00000
     23       4.6285      0.00000
     24       5.7721      0.00000
     25       6.6353      0.00000
     26       7.0631      0.00000
     27       7.3274      0.00000
     28       7.9151      0.00000
     29       9.1053      0.00000
     30       9.3956      0.00000
     31       9.4389      0.00000
     32      10.1604      0.00000
     33      11.0839      0.00000
     34      11.3250      0.00000
     35      11.6407      0.00000
     36      11.8475      0.00000
     37      11.8863      0.00000
     38      12.1503      0.00000
     39      12.3973      0.00000
     40      12.4552      0.00000
     41      12.7731      0.00000
     42      12.8451      0.00000
     43      13.1211      0.00000
     44      13.3191      0.00000
     45      14.0715      0.00000
     46      15.3823      0.00000
     47      15.4375      0.00000
     48      15.5922      0.00000

 k-point  1253 :       0.1053    0.4815    0.4706
  band No.  band energies     occupation 
      1     -12.3455      2.00000
      2     -11.5243      2.00000
      3      -8.4637      2.00000
      4      -7.9085      2.00000
      5      -6.4838      2.00000
      6      -6.2364      2.00000
      7      -5.6458      2.00000
      8      -5.3335      2.00000
      9      -3.3134      2.00000
     10      -2.6684      2.00000
     11      -2.1460      2.00000
     12      -1.6496      2.00000
     13      -1.6289      2.00000
     14      -1.4216      2.00000
     15      -1.2390      2.00000
     16      -0.8772      2.00000
     17      -0.5716      2.00000
     18      -0.3503      2.00000
     19       0.4286      2.00000
     20       1.7676      1.99830
     21       2.1416      0.00000
     22       3.5856      0.00000
     23       4.6956      0.00000
     24       6.0443      0.00000
     25       6.5745      0.00000
     26       6.9756      0.00000
     27       7.4608      0.00000
     28       8.0379      0.00000
     29       9.1154      0.00000
     30       9.1891      0.00000
     31       9.3826      0.00000
     32      10.4444      0.00000
     33      10.8299      0.00000
     34      11.3101      0.00000
     35      11.5975      0.00000
     36      11.6452      0.00000
     37      11.9601      0.00000
     38      12.1165      0.00000
     39      12.4329      0.00000
     40      12.4844      0.00000
     41      12.8804      0.00000
     42      12.8996      0.00000
     43      13.2364      0.00000
     44      13.4149      0.00000
     45      14.2066      0.00000
     46      15.2700      0.00000
     47      15.4766      0.00000
     48      15.5383      0.00000

 k-point  1254 :       0.1579    0.4815    0.4706
  band No.  band energies     occupation 
      1     -12.3191      2.00000
      2     -11.5534      2.00000
      3      -8.5083      2.00000
      4      -7.9686      2.00000
      5      -6.3124      2.00000
      6      -6.2104      2.00000
      7      -5.6569      2.00000
      8      -5.2715      2.00000
      9      -3.4407      2.00000
     10      -2.6236      2.00000
     11      -2.3506      2.00000
     12      -1.7731      2.00000
     13      -1.5773      2.00000
     14      -1.5521      2.00000
     15      -1.1782      2.00000
     16      -0.7566      2.00000
     17      -0.4027      2.00000
     18      -0.1941      2.00000
     19       0.4266      2.00000
     20       1.7471      1.99980
     21       2.1075      0.00000
     22       3.1828      0.00000
     23       4.8066      0.00000
     24       6.3632      0.00000
     25       6.4931      0.00000
     26       6.8644      0.00000
     27       7.6580      0.00000
     28       8.2088      0.00000
     29       8.8284      0.00000
     30       9.2327      0.00000
     31       9.4025      0.00000
     32      10.4919      0.00000
     33      10.7151      0.00000
     34      11.3118      0.00000
     35      11.3786      0.00000
     36      11.5356      0.00000
     37      11.9793      0.00000
     38      12.1456      0.00000
     39      12.4115      0.00000
     40      12.4981      0.00000
     41      12.9989      0.00000
     42      13.0999      0.00000
     43      13.4394      0.00000
     44      13.5509      0.00000
     45      14.3897      0.00000
     46      14.8390      0.00000
     47      15.4382      0.00000
     48      15.4899      0.00000

 k-point  1255 :       0.2105    0.4815    0.4706
  band No.  band energies     occupation 
      1     -12.2828      2.00000
      2     -11.5935      2.00000
      3      -8.5509      2.00000
      4      -8.0450      2.00000
      5      -6.1753      2.00000
      6      -6.0938      2.00000
      7      -5.6736      2.00000
      8      -5.1893      2.00000
      9      -3.5938      2.00000
     10      -2.6388      2.00000
     11      -2.5328      2.00000
     12      -1.9086      2.00000
     13      -1.6916      2.00000
     14      -1.4383      2.00000
     15      -1.1692      2.00000
     16      -0.6097      2.00000
     17      -0.2250      2.00000
     18      -0.0310      2.00000
     19       0.4406      2.00000
     20       1.7206      1.99999
     21       2.0599      0.00000
     22       2.7476      0.00000
     23       4.9595      0.00000
     24       6.4031      0.00000
     25       6.6730      0.00000
     26       6.7546      0.00000
     27       7.8582      0.00000
     28       8.4069      0.00000
     29       8.6386      0.00000
     30       9.1068      0.00000
     31       9.5225      0.00000
     32      10.2499      0.00000
     33      10.8152      0.00000
     34      11.1610      0.00000
     35      11.3129      0.00000
     36      11.4710      0.00000
     37      11.8727      0.00000
     38      12.2484      0.00000
     39      12.3934      0.00000
     40      12.5619      0.00000
     41      13.1717      0.00000
     42      13.3507      0.00000
     43      13.6567      0.00000
     44      13.7372      0.00000
     45      14.3684      0.00000
     46      14.6196      0.00000
     47      15.3995      0.00000
     48      15.4372      0.00000

 k-point  1256 :       0.2632    0.4815    0.4706
  band No.  band energies     occupation 
      1     -12.2373      2.00000
      2     -11.6437      2.00000
      3      -8.5825      2.00000
      4      -8.1315      2.00000
      5      -6.1321      2.00000
      6      -5.8400      2.00000
      7      -5.6964      2.00000
      8      -5.0896      2.00000
      9      -3.7613      2.00000
     10      -2.9160      2.00000
     11      -2.4660      2.00000
     12      -2.0250      2.00000
     13      -1.8247      2.00000
     14      -1.3317      2.00000
     15      -1.1394      2.00000
     16      -0.4454      2.00000
     17      -0.0520      2.00000
     18       0.1255      2.00000
     19       0.4681      2.00000
     20       1.6910      2.00000
     21       1.9997      0.00061
     22       2.3032      0.00000
     23       5.1490      0.00000
     24       6.3183      0.00000
     25       6.6564      0.00000
     26       6.9470      0.00000
     27       7.9183      0.00000
     28       8.6007      0.00000
     29       8.6846      0.00000
     30       8.8723      0.00000
     31       9.6467      0.00000
     32      10.0509      0.00000
     33      10.8183      0.00000
     34      11.0390      0.00000
     35      11.3019      0.00000
     36      11.4336      0.00000
     37      11.7687      0.00000
     38      12.0977      0.00000
     39      12.5764      0.00000
     40      12.7380      0.00000
     41      13.4114      0.00000
     42      13.5725      0.00000
     43      13.8104      0.00000
     44      13.9781      0.00000
     45      13.9944      0.00000
     46      14.8315      0.00000
     47      15.3245      0.00000
     48      15.4291      0.00000

 k-point  1257 :       0.3158    0.4815    0.4706
  band No.  band energies     occupation 
      1     -12.1834      2.00000
      2     -11.7025      2.00000
      3      -8.5975      2.00000
      4      -8.2222      2.00000
      5      -6.0825      2.00000
      6      -5.7278      2.00000
      7      -5.5588      2.00000
      8      -4.9742      2.00000
      9      -3.9348      2.00000
     10      -3.2250      2.00000
     11      -2.3699      2.00000
     12      -2.1161      2.00000
     13      -1.9452      2.00000
     14      -1.4039      2.00000
     15      -0.9358      2.00000
     16      -0.2793      2.00000
     17       0.1081      2.00000
     18       0.2642      2.00000
     19       0.4982      2.00000
     20       1.6630      2.00000
     21       1.8637      1.32529
     22       1.9294      0.15007
     23       5.3636      0.00000
     24       6.2384      0.00000
     25       6.6035      0.00000
     26       7.1569      0.00000
     27       7.8212      0.00000
     28       8.4789      0.00000
     29       8.8732      0.00000
     30       8.9612      0.00000
     31       9.7260      0.00000
     32       9.9361      0.00000
     33      10.7375      0.00000
     34      11.0088      0.00000
     35      11.2588      0.00000
     36      11.4282      0.00000
     37      11.6667      0.00000
     38      11.9423      0.00000
     39      12.7238      0.00000
     40      13.0116      0.00000
     41      13.5539      0.00000
     42      13.7164      0.00000
     43      13.8127      0.00000
     44      14.0103      0.00000
     45      14.2208      0.00000
     46      15.0175      0.00000
     47      15.2038      0.00000
     48      15.4346      0.00000

 k-point  1258 :       0.3684    0.4815    0.4706
  band No.  band energies     occupation 
      1     -12.1224      2.00000
      2     -11.7683      2.00000
      3      -8.5934      2.00000
      4      -8.3116      2.00000
      5      -6.0283      2.00000
      6      -5.7651      2.00000
      7      -5.2625      2.00000
      8      -4.8434      2.00000
      9      -4.1092      2.00000
     10      -3.5461      2.00000
     11      -2.2582      2.00000
     12      -2.1779      2.00000
     13      -2.0478      2.00000
     14      -1.5378      2.00000
     15      -0.6669      2.00000
     16      -0.1289      2.00000
     17       0.2481      2.00000
     18       0.3743      2.00000
     19       0.5207      2.00000
     20       1.4413      2.00000
     21       1.6437      2.00000
     22       1.8532      1.52636
     23       5.5809      0.00000
     24       6.1611      0.00000
     25       6.6209      0.00000
     26       7.3011      0.00000
     27       7.6974      0.00000
     28       8.0955      0.00000
     29       9.1017      0.00000
     30       9.2981      0.00000
     31       9.7471      0.00000
     32       9.9112      0.00000
     33      10.6162      0.00000
     34      11.0465      0.00000
     35      11.1428      0.00000
     36      11.4414      0.00000
     37      11.5795      0.00000
     38      11.8001      0.00000
     39      12.8785      0.00000
     40      13.3012      0.00000
     41      13.3337      0.00000
     42      13.9635      0.00000
     43      14.0461      0.00000
     44      14.1724      0.00000
     45      14.3757      0.00000
     46      15.0091      0.00000
     47      15.1106      0.00000
     48      15.3016      0.00000

 k-point  1259 :       0.4211    0.4815    0.4706
  band No.  band energies     occupation 
      1     -12.0556      2.00000
      2     -11.8388      2.00000
      3      -8.5695      2.00000
      4      -8.3948      2.00000
      5      -5.9716      2.00000
      6      -5.8096      2.00000
      7      -4.9631      2.00000
      8      -4.6936      2.00000
      9      -4.2801      2.00000
     10      -3.8708      2.00000
     11      -2.2123      2.00000
     12      -2.1292      2.00000
     13      -2.1288      2.00000
     14      -1.6886      2.00000
     15      -0.3795      2.00000
     16      -0.0175      2.00000
     17       0.3602      2.00000
     18       0.4442      2.00000
     19       0.5370      2.00000
     20       1.0540      2.00000
     21       1.6417      2.00000
     22       1.7776      1.99568
     23       5.7677      0.00000
     24       6.0836      0.00000
     25       6.7418      0.00000
     26       7.3915      0.00000
     27       7.5928      0.00000
     28       7.6939      0.00000
     29       9.3185      0.00000
     30       9.6193      0.00000
     31       9.7386      0.00000
     32       9.9376      0.00000
     33      10.5014      0.00000
     34      10.9309      0.00000
     35      11.1453      0.00000
     36      11.4617      0.00000
     37      11.5267      0.00000
     38      11.6443      0.00000
     39      13.0243      0.00000
     40      13.2194      0.00000
     41      13.6012      0.00000
     42      14.1051      0.00000
     43      14.2237      0.00000
     44      14.3803      0.00000
     45      14.4614      0.00000
     46      14.8117      0.00000
     47      15.0236      0.00000
     48      15.1393      0.00000

 k-point  1260 :       0.4737    0.4815    0.4706
  band No.  band energies     occupation 
      1     -11.9847      2.00000
      2     -11.9117      2.00000
      3      -8.5270      2.00000
      4      -8.4678      2.00000
      5      -5.9147      2.00000
      6      -5.8601      2.00000
      7      -4.6960      2.00000
      8      -4.5483      2.00000
      9      -4.4024      2.00000
     10      -4.1843      2.00000
     11      -2.2131      2.00000
     12      -2.1848      2.00000
     13      -1.9908      2.00000
     14      -1.8422      2.00000
     15      -0.1219      2.00000
     16       0.0088      2.00000
     17       0.4356      2.00000
     18       0.4654      2.00000
     19       0.5812      2.00000
     20       0.7439      2.00000
     21       1.6640      2.00000
     22       1.7114      2.00000
     23       5.9038      0.00000
     24       6.0018      0.00000
     25       6.9793      0.00000
     26       7.3082      0.00000
     27       7.4546      0.00000
     28       7.5168      0.00000
     29       9.5047      0.00000
     30       9.6413      0.00000
     31       9.8777      0.00000
     32       9.9678      0.00000
     33      10.4944      0.00000
     34      10.6812      0.00000
     35      11.2848      0.00000
     36      11.4502      0.00000
     37      11.4839      0.00000
     38      11.5133      0.00000
     39      13.1283      0.00000
     40      13.1792      0.00000
     41      13.9075      0.00000
     42      14.1695      0.00000
     43      14.2464      0.00000
     44      14.2927      0.00000
     45      14.6842      0.00000
     46      14.7650      0.00000
     47      14.8299      0.00000
     48      14.9499      0.00000


--------------------------------------------------------------------------------------------------------


 soft charge-density along one line, spin component           1
         0         1         2         3         4         5         6         7         8         9
 total charge-density along one line
 
 pseudopotential strength for first ion, spin component:           1
  6.445   9.814   0.000  -0.009   0.005   0.000  -0.014   0.008
  9.814  14.938   0.000  -0.013   0.007   0.000  -0.021   0.011
  0.000   0.000  -2.174  -0.000   0.000  -3.695  -0.000   0.000
 -0.009  -0.013  -0.000  -2.178  -0.001  -0.000  -3.705  -0.002
  0.005   0.007   0.000  -0.001  -2.177   0.000  -0.002  -3.703
  0.000   0.000  -3.695  -0.000   0.000  -6.081  -0.000   0.000
 -0.014  -0.021  -0.000  -3.705  -0.002  -0.000  -6.102  -0.004
  0.008   0.011   0.000  -0.002  -3.703   0.000  -0.004  -6.098
 total augmentation occupancy for first ion, spin component:           1
  3.647  -0.980   0.000  -0.245   0.416   0.000   0.124  -0.176
 -0.980   0.287   0.000   0.161  -0.197   0.000  -0.056   0.073
  0.000   0.000   2.283   0.000   0.000  -0.546   0.000   0.000
 -0.245   0.161   0.000   3.787   0.326   0.000  -1.058  -0.120
  0.416  -0.197   0.000   0.326   3.614   0.000  -0.120  -0.984
  0.000   0.000  -0.546   0.000   0.000   0.135   0.000   0.000
  0.124  -0.056   0.000  -1.058  -0.120   0.000   0.305   0.043
 -0.176   0.073   0.000  -0.120  -0.984   0.000   0.043   0.278


------------------------ aborting loop because EDIFF is reached ----------------------------------------


    CHARGE:  cpu time      0.5276: real time      0.5318
    FORLOC:  cpu time      0.0012: real time      0.0012
    FORNL :  cpu time      5.0065: real time      5.0349
