<?xml version="1.0" encoding="ISO-8859-1"?>
<modeling>
 <generator>
  <i name="program" type="string">vasp </i>
  <i name="version" type="string">6.4.3  </i>
  <i name="subversion" type="string">19Mar24 (build May 31 2024 16:31:43) complex                          parallel </i>
  <i name="platform" type="string">LinuxIFC </i>
  <i name="date" type="string">2024 10 31 </i>
  <i name="time" type="string">01:08:11 </i>
 </generator>
 <incar>
  <i type="string" name="SYSTEM">Kpoints</i>
  <i type="int" name="ISTART">     0</i>
  <i type="string" name="PREC">Accurate</i>
  <i type="string" name="ALGO">Normal</i>
  <i type="int" name="ISPIN">     1</i>
  <i type="int" name="ICHARG">     2</i>
  <i type="int" name="NELM">   100</i>
  <i type="int" name="IBRION">    -1</i>
  <i name="EDIFF">      0.00000100</i>
  <i name="EDIFFG">     -0.00100000</i>
  <i type="int" name="NSW">     0</i>
  <i type="int" name="ISIF">     2</i>
  <i name="ENCUT">    540.00000000</i>
  <i name="POTIM">      0.50000000</i>
  <i type="int" name="ISMEAR">     0</i>
  <i name="SIGMA">      0.05000000</i>
  <i type="logical" name="LWAVE"> F  </i>
  <i type="logical" name="LCHARG"> F  </i>
  <i type="string" name="GGA">PE</i>
 </incar>
 <primitive_cell>
  <structure name="primitive_cell" >
   <crystal>
    <varray name="basis" >
     <v>       5.69700000       0.00000000       0.00000000 </v>
     <v>       0.00000000       4.04790000       0.00000000 </v>
     <v>       0.00000000       0.00000000       6.20420000 </v>
    </varray>
    <i name="volume">    143.07435078 </i>
    <varray name="rec_basis" >
     <v>       0.17553098       0.00000000       0.00000000 </v>
     <v>       0.00000000       0.24704168       0.00000000 </v>
     <v>       0.00000000       0.00000000       0.16118114 </v>
    </varray>
   </crystal>
   <varray name="positions" >
    <v>       0.52123000       0.50000000       0.63796000 </v>
    <v>       0.47877000       0.50000000       0.36204000 </v>
    <v>       0.97877000       0.50000000       0.63796000 </v>
    <v>       0.02123000       0.50000000       0.36204000 </v>
    <v>       0.60090000       0.50000000       0.89991000 </v>
    <v>       0.39910000       0.50000000       0.10009000 </v>
    <v>       0.89910000       0.50000000       0.89991000 </v>
    <v>       0.10090000       0.50000000       0.10009000 </v>
    <v>       0.75000000       0.79171000       0.72973000 </v>
    <v>       0.25000000       0.20829000       0.27027000 </v>
    <v>       0.75000000       0.20829000       0.72973000 </v>
    <v>       0.25000000       0.79171000       0.27027000 </v>
    <v>       0.25000000       0.50000000       0.52367000 </v>
    <v>       0.75000000       0.50000000       0.47633000 </v>
   </varray>
  </structure>
  <varray name="primitive_index" >
   <v type="int" >        1 </v>
   <v type="int" >        2 </v>
   <v type="int" >        3 </v>
   <v type="int" >        4 </v>
   <v type="int" >        5 </v>
   <v type="int" >        6 </v>
   <v type="int" >        7 </v>
   <v type="int" >        8 </v>
   <v type="int" >        9 </v>
   <v type="int" >       10 </v>
   <v type="int" >       11 </v>
   <v type="int" >       12 </v>
   <v type="int" >       13 </v>
   <v type="int" >       14 </v>
  </varray>
 </primitive_cell>
 <kpoints>
  <generation param="Monkhorst-Pack">
   <v type="int" name="divisions">      19       27       17 </v>
   <v name="usershift">      0.00000000       0.00000000       0.00000000 </v>
   <v name="genvec1">      0.05263158       0.00000000       0.00000000 </v>
   <v name="genvec2">      0.00000000       0.03703704       0.00000000 </v>
   <v name="genvec3">      0.00000000       0.00000000       0.05882353 </v>
   <v name="shift">      0.00000000       0.00000000       0.00000000 </v>
  </generation>
  <varray name="kpointlist" >
   <v>       0.00000000       0.00000000       0.00000000 </v>
   <v>       0.05263158       0.00000000       0.00000000 </v>
   <v>       0.10526316       0.00000000       0.00000000 </v>
   <v>       0.15789474       0.00000000       0.00000000 </v>
   <v>       0.21052632       0.00000000       0.00000000 </v>
   <v>       0.26315789       0.00000000       0.00000000 </v>
   <v>       0.31578947       0.00000000       0.00000000 </v>
   <v>       0.36842105       0.00000000       0.00000000 </v>
   <v>       0.42105263       0.00000000       0.00000000 </v>
   <v>       0.47368421       0.00000000       0.00000000 </v>
   <v>       0.00000000       0.03703704       0.00000000 </v>
   <v>       0.05263158       0.03703704       0.00000000 </v>
   <v>       0.10526316       0.03703704       0.00000000 </v>
   <v>       0.15789474       0.03703704       0.00000000 </v>
   <v>       0.21052632       0.03703704       0.00000000 </v>
   <v>       0.26315789       0.03703704       0.00000000 </v>
   <v>       0.31578947       0.03703704       0.00000000 </v>
   <v>       0.36842105       0.03703704       0.00000000 </v>
   <v>       0.42105263       0.03703704       0.00000000 </v>
   <v>       0.47368421       0.03703704       0.00000000 </v>
   <v>       0.00000000       0.07407407       0.00000000 </v>
   <v>       0.05263158       0.07407407       0.00000000 </v>
   <v>       0.10526316       0.07407407       0.00000000 </v>
   <v>       0.15789474       0.07407407       0.00000000 </v>
   <v>       0.21052632       0.07407407       0.00000000 </v>
   <v>       0.26315789       0.07407407       0.00000000 </v>
   <v>       0.31578947       0.07407407       0.00000000 </v>
   <v>       0.36842105       0.07407407       0.00000000 </v>
   <v>       0.42105263       0.07407407       0.00000000 </v>
   <v>       0.47368421       0.07407407       0.00000000 </v>
   <v>       0.00000000       0.11111111       0.00000000 </v>
   <v>       0.05263158       0.11111111       0.00000000 </v>
   <v>       0.10526316       0.11111111       0.00000000 </v>
   <v>       0.15789474       0.11111111       0.00000000 </v>
   <v>       0.21052632       0.11111111       0.00000000 </v>
   <v>       0.26315789       0.11111111       0.00000000 </v>
   <v>       0.31578947       0.11111111       0.00000000 </v>
   <v>       0.36842105       0.11111111       0.00000000 </v>
   <v>       0.42105263       0.11111111       0.00000000 </v>
   <v>       0.47368421       0.11111111       0.00000000 </v>
   <v>       0.00000000       0.14814815       0.00000000 </v>
   <v>       0.05263158       0.14814815       0.00000000 </v>
   <v>       0.10526316       0.14814815       0.00000000 </v>
   <v>       0.15789474       0.14814815       0.00000000 </v>
   <v>       0.21052632       0.14814815       0.00000000 </v>
   <v>       0.26315789       0.14814815       0.00000000 </v>
   <v>       0.31578947       0.14814815       0.00000000 </v>
   <v>       0.36842105       0.14814815       0.00000000 </v>
   <v>       0.42105263       0.14814815       0.00000000 </v>
   <v>       0.47368421       0.14814815       0.00000000 </v>
   <v>       0.00000000       0.18518519       0.00000000 </v>
   <v>       0.05263158       0.18518519       0.00000000 </v>
   <v>       0.10526316       0.18518519       0.00000000 </v>
   <v>       0.15789474       0.18518519       0.00000000 </v>
   <v>       0.21052632       0.18518519       0.00000000 </v>
   <v>       0.26315789       0.18518519       0.00000000 </v>
   <v>       0.31578947       0.18518519       0.00000000 </v>
   <v>       0.36842105       0.18518519       0.00000000 </v>
   <v>       0.42105263       0.18518519       0.00000000 </v>
   <v>       0.47368421       0.18518519       0.00000000 </v>
   <v>       0.00000000       0.22222222       0.00000000 </v>
   <v>       0.05263158       0.22222222       0.00000000 </v>
   <v>       0.10526316       0.22222222       0.00000000 </v>
   <v>       0.15789474       0.22222222       0.00000000 </v>
   <v>       0.21052632       0.22222222       0.00000000 </v>
   <v>       0.26315789       0.22222222       0.00000000 </v>
   <v>       0.31578947       0.22222222       0.00000000 </v>
   <v>       0.36842105       0.22222222       0.00000000 </v>
   <v>       0.42105263       0.22222222       0.00000000 </v>
   <v>       0.47368421       0.22222222       0.00000000 </v>
   <v>       0.00000000       0.25925926       0.00000000 </v>
   <v>       0.05263158       0.25925926       0.00000000 </v>
   <v>       0.10526316       0.25925926       0.00000000 </v>
   <v>       0.15789474       0.25925926       0.00000000 </v>
   <v>       0.21052632       0.25925926       0.00000000 </v>
   <v>       0.26315789       0.25925926       0.00000000 </v>
   <v>       0.31578947       0.25925926       0.00000000 </v>
   <v>       0.36842105       0.25925926       0.00000000 </v>
   <v>       0.42105263       0.25925926       0.00000000 </v>
   <v>       0.47368421       0.25925926       0.00000000 </v>
   <v>       0.00000000       0.29629630       0.00000000 </v>
   <v>       0.05263158       0.29629630       0.00000000 </v>
   <v>       0.10526316       0.29629630       0.00000000 </v>
   <v>       0.15789474       0.29629630       0.00000000 </v>
   <v>       0.21052632       0.29629630       0.00000000 </v>
   <v>       0.26315789       0.29629630       0.00000000 </v>
   <v>       0.31578947       0.29629630       0.00000000 </v>
   <v>       0.36842105       0.29629630       0.00000000 </v>
   <v>       0.42105263       0.29629630       0.00000000 </v>
   <v>       0.47368421       0.29629630       0.00000000 </v>
   <v>       0.00000000       0.33333333       0.00000000 </v>
   <v>       0.05263158       0.33333333       0.00000000 </v>
   <v>       0.10526316       0.33333333       0.00000000 </v>
   <v>       0.15789474       0.33333333       0.00000000 </v>
   <v>       0.21052632       0.33333333       0.00000000 </v>
   <v>       0.26315789       0.33333333       0.00000000 </v>
   <v>       0.31578947       0.33333333       0.00000000 </v>
   <v>       0.36842105       0.33333333       0.00000000 </v>
   <v>       0.42105263       0.33333333       0.00000000 </v>
   <v>       0.47368421       0.33333333       0.00000000 </v>
   <v>       0.00000000       0.37037037       0.00000000 </v>
   <v>       0.05263158       0.37037037       0.00000000 </v>
   <v>       0.10526316       0.37037037       0.00000000 </v>
   <v>       0.15789474       0.37037037       0.00000000 </v>
   <v>       0.21052632       0.37037037       0.00000000 </v>
   <v>       0.26315789       0.37037037       0.00000000 </v>
   <v>       0.31578947       0.37037037       0.00000000 </v>
   <v>       0.36842105       0.37037037       0.00000000 </v>
   <v>       0.42105263       0.37037037       0.00000000 </v>
   <v>       0.47368421       0.37037037       0.00000000 </v>
   <v>       0.00000000       0.40740741       0.00000000 </v>
   <v>       0.05263158       0.40740741       0.00000000 </v>
   <v>       0.10526316       0.40740741       0.00000000 </v>
   <v>       0.15789474       0.40740741       0.00000000 </v>
   <v>       0.21052632       0.40740741       0.00000000 </v>
   <v>       0.26315789       0.40740741       0.00000000 </v>
   <v>       0.31578947       0.40740741       0.00000000 </v>
   <v>       0.36842105       0.40740741       0.00000000 </v>
   <v>       0.42105263       0.40740741       0.00000000 </v>
   <v>       0.47368421       0.40740741       0.00000000 </v>
   <v>       0.00000000       0.44444444       0.00000000 </v>
   <v>       0.05263158       0.44444444       0.00000000 </v>
   <v>       0.10526316       0.44444444       0.00000000 </v>
   <v>       0.15789474       0.44444444       0.00000000 </v>
   <v>       0.21052632       0.44444444       0.00000000 </v>
   <v>       0.26315789       0.44444444       0.00000000 </v>
   <v>       0.31578947       0.44444444       0.00000000 </v>
   <v>       0.36842105       0.44444444       0.00000000 </v>
   <v>       0.42105263       0.44444444       0.00000000 </v>
   <v>       0.47368421       0.44444444       0.00000000 </v>
   <v>       0.00000000       0.48148148       0.00000000 </v>
   <v>       0.05263158       0.48148148       0.00000000 </v>
   <v>       0.10526316       0.48148148       0.00000000 </v>
   <v>       0.15789474       0.48148148       0.00000000 </v>
   <v>       0.21052632       0.48148148       0.00000000 </v>
   <v>       0.26315789       0.48148148       0.00000000 </v>
   <v>       0.31578947       0.48148148       0.00000000 </v>
   <v>       0.36842105       0.48148148       0.00000000 </v>
   <v>       0.42105263       0.48148148       0.00000000 </v>
   <v>       0.47368421       0.48148148       0.00000000 </v>
   <v>       0.00000000       0.00000000       0.05882353 </v>
   <v>       0.05263158       0.00000000       0.05882353 </v>
   <v>       0.10526316       0.00000000       0.05882353 </v>
   <v>       0.15789474       0.00000000       0.05882353 </v>
   <v>       0.21052632       0.00000000       0.05882353 </v>
   <v>       0.26315789       0.00000000       0.05882353 </v>
   <v>       0.31578947       0.00000000       0.05882353 </v>
   <v>       0.36842105       0.00000000       0.05882353 </v>
   <v>       0.42105263       0.00000000       0.05882353 </v>
   <v>       0.47368421       0.00000000       0.05882353 </v>
   <v>       0.00000000       0.03703704       0.05882353 </v>
   <v>       0.05263158       0.03703704       0.05882353 </v>
   <v>       0.10526316       0.03703704       0.05882353 </v>
   <v>       0.15789474       0.03703704       0.05882353 </v>
   <v>       0.21052632       0.03703704       0.05882353 </v>
   <v>       0.26315789       0.03703704       0.05882353 </v>
   <v>       0.31578947       0.03703704       0.05882353 </v>
   <v>       0.36842105       0.03703704       0.05882353 </v>
   <v>       0.42105263       0.03703704       0.05882353 </v>
   <v>       0.47368421       0.03703704       0.05882353 </v>
   <v>       0.00000000       0.07407407       0.05882353 </v>
   <v>       0.05263158       0.07407407       0.05882353 </v>
   <v>       0.10526316       0.07407407       0.05882353 </v>
   <v>       0.15789474       0.07407407       0.05882353 </v>
   <v>       0.21052632       0.07407407       0.05882353 </v>
   <v>       0.26315789       0.07407407       0.05882353 </v>
   <v>       0.31578947       0.07407407       0.05882353 </v>
   <v>       0.36842105       0.07407407       0.05882353 </v>
   <v>       0.42105263       0.07407407       0.05882353 </v>
   <v>       0.47368421       0.07407407       0.05882353 </v>
   <v>       0.00000000       0.11111111       0.05882353 </v>
   <v>       0.05263158       0.11111111       0.05882353 </v>
   <v>       0.10526316       0.11111111       0.05882353 </v>
   <v>       0.15789474       0.11111111       0.05882353 </v>
   <v>       0.21052632       0.11111111       0.05882353 </v>
   <v>       0.26315789       0.11111111       0.05882353 </v>
   <v>       0.31578947       0.11111111       0.05882353 </v>
   <v>       0.36842105       0.11111111       0.05882353 </v>
   <v>       0.42105263       0.11111111       0.05882353 </v>
   <v>       0.47368421       0.11111111       0.05882353 </v>
   <v>       0.00000000       0.14814815       0.05882353 </v>
   <v>       0.05263158       0.14814815       0.05882353 </v>
   <v>       0.10526316       0.14814815       0.05882353 </v>
   <v>       0.15789474       0.14814815       0.05882353 </v>
   <v>       0.21052632       0.14814815       0.05882353 </v>
   <v>       0.26315789       0.14814815       0.05882353 </v>
   <v>       0.31578947       0.14814815       0.05882353 </v>
   <v>       0.36842105       0.14814815       0.05882353 </v>
   <v>       0.42105263       0.14814815       0.05882353 </v>
   <v>       0.47368421       0.14814815       0.05882353 </v>
   <v>       0.00000000       0.18518519       0.05882353 </v>
   <v>       0.05263158       0.18518519       0.05882353 </v>
   <v>       0.10526316       0.18518519       0.05882353 </v>
   <v>       0.15789474       0.18518519       0.05882353 </v>
   <v>       0.21052632       0.18518519       0.05882353 </v>
   <v>       0.26315789       0.18518519       0.05882353 </v>
   <v>       0.31578947       0.18518519       0.05882353 </v>
   <v>       0.36842105       0.18518519       0.05882353 </v>
   <v>       0.42105263       0.18518519       0.05882353 </v>
   <v>       0.47368421       0.18518519       0.05882353 </v>
   <v>       0.00000000       0.22222222       0.05882353 </v>
   <v>       0.05263158       0.22222222       0.05882353 </v>
   <v>       0.10526316       0.22222222       0.05882353 </v>
   <v>       0.15789474       0.22222222       0.05882353 </v>
   <v>       0.21052632       0.22222222       0.05882353 </v>
   <v>       0.26315789       0.22222222       0.05882353 </v>
   <v>       0.31578947       0.22222222       0.05882353 </v>
   <v>       0.36842105       0.22222222       0.05882353 </v>
   <v>       0.42105263       0.22222222       0.05882353 </v>
   <v>       0.47368421       0.22222222       0.05882353 </v>
   <v>       0.00000000       0.25925926       0.05882353 </v>
   <v>       0.05263158       0.25925926       0.05882353 </v>
   <v>       0.10526316       0.25925926       0.05882353 </v>
   <v>       0.15789474       0.25925926       0.05882353 </v>
   <v>       0.21052632       0.25925926       0.05882353 </v>
   <v>       0.26315789       0.25925926       0.05882353 </v>
   <v>       0.31578947       0.25925926       0.05882353 </v>
   <v>       0.36842105       0.25925926       0.05882353 </v>
   <v>       0.42105263       0.25925926       0.05882353 </v>
   <v>       0.47368421       0.25925926       0.05882353 </v>
   <v>       0.00000000       0.29629630       0.05882353 </v>
   <v>       0.05263158       0.29629630       0.05882353 </v>
   <v>       0.10526316       0.29629630       0.05882353 </v>
   <v>       0.15789474       0.29629630       0.05882353 </v>
   <v>       0.21052632       0.29629630       0.05882353 </v>
   <v>       0.26315789       0.29629630       0.05882353 </v>
   <v>       0.31578947       0.29629630       0.05882353 </v>
   <v>       0.36842105       0.29629630       0.05882353 </v>
   <v>       0.42105263       0.29629630       0.05882353 </v>
   <v>       0.47368421       0.29629630       0.05882353 </v>
   <v>       0.00000000       0.33333333       0.05882353 </v>
   <v>       0.05263158       0.33333333       0.05882353 </v>
   <v>       0.10526316       0.33333333       0.05882353 </v>
   <v>       0.15789474       0.33333333       0.05882353 </v>
   <v>       0.21052632       0.33333333       0.05882353 </v>
   <v>       0.26315789       0.33333333       0.05882353 </v>
   <v>       0.31578947       0.33333333       0.05882353 </v>
   <v>       0.36842105       0.33333333       0.05882353 </v>
   <v>       0.42105263       0.33333333       0.05882353 </v>
   <v>       0.47368421       0.33333333       0.05882353 </v>
   <v>       0.00000000       0.37037037       0.05882353 </v>
   <v>       0.05263158       0.37037037       0.05882353 </v>
   <v>       0.10526316       0.37037037       0.05882353 </v>
   <v>       0.15789474       0.37037037       0.05882353 </v>
   <v>       0.21052632       0.37037037       0.05882353 </v>
   <v>       0.26315789       0.37037037       0.05882353 </v>
   <v>       0.31578947       0.37037037       0.05882353 </v>
   <v>       0.36842105       0.37037037       0.05882353 </v>
   <v>       0.42105263       0.37037037       0.05882353 </v>
   <v>       0.47368421       0.37037037       0.05882353 </v>
   <v>       0.00000000       0.40740741       0.05882353 </v>
   <v>       0.05263158       0.40740741       0.05882353 </v>
   <v>       0.10526316       0.40740741       0.05882353 </v>
   <v>       0.15789474       0.40740741       0.05882353 </v>
   <v>       0.21052632       0.40740741       0.05882353 </v>
   <v>       0.26315789       0.40740741       0.05882353 </v>
   <v>       0.31578947       0.40740741       0.05882353 </v>
   <v>       0.36842105       0.40740741       0.05882353 </v>
   <v>       0.42105263       0.40740741       0.05882353 </v>
   <v>       0.47368421       0.40740741       0.05882353 </v>
   <v>       0.00000000       0.44444444       0.05882353 </v>
   <v>       0.05263158       0.44444444       0.05882353 </v>
   <v>       0.10526316       0.44444444       0.05882353 </v>
   <v>       0.15789474       0.44444444       0.05882353 </v>
   <v>       0.21052632       0.44444444       0.05882353 </v>
   <v>       0.26315789       0.44444444       0.05882353 </v>
   <v>       0.31578947       0.44444444       0.05882353 </v>
   <v>       0.36842105       0.44444444       0.05882353 </v>
   <v>       0.42105263       0.44444444       0.05882353 </v>
   <v>       0.47368421       0.44444444       0.05882353 </v>
   <v>       0.00000000       0.48148148       0.05882353 </v>
   <v>       0.05263158       0.48148148       0.05882353 </v>
   <v>       0.10526316       0.48148148       0.05882353 </v>
   <v>       0.15789474       0.48148148       0.05882353 </v>
   <v>       0.21052632       0.48148148       0.05882353 </v>
   <v>       0.26315789       0.48148148       0.05882353 </v>
   <v>       0.31578947       0.48148148       0.05882353 </v>
   <v>       0.36842105       0.48148148       0.05882353 </v>
   <v>       0.42105263       0.48148148       0.05882353 </v>
   <v>       0.47368421       0.48148148       0.05882353 </v>
   <v>       0.00000000       0.00000000       0.11764706 </v>
   <v>       0.05263158       0.00000000       0.11764706 </v>
   <v>       0.10526316       0.00000000       0.11764706 </v>
   <v>       0.15789474       0.00000000       0.11764706 </v>
   <v>       0.21052632       0.00000000       0.11764706 </v>
   <v>       0.26315789       0.00000000       0.11764706 </v>
   <v>       0.31578947       0.00000000       0.11764706 </v>
   <v>       0.36842105       0.00000000       0.11764706 </v>
   <v>       0.42105263       0.00000000       0.11764706 </v>
   <v>       0.47368421       0.00000000       0.11764706 </v>
   <v>       0.00000000       0.03703704       0.11764706 </v>
   <v>       0.05263158       0.03703704       0.11764706 </v>
   <v>       0.10526316       0.03703704       0.11764706 </v>
   <v>       0.15789474       0.03703704       0.11764706 </v>
   <v>       0.21052632       0.03703704       0.11764706 </v>
   <v>       0.26315789       0.03703704       0.11764706 </v>
   <v>       0.31578947       0.03703704       0.11764706 </v>
   <v>       0.36842105       0.03703704       0.11764706 </v>
   <v>       0.42105263       0.03703704       0.11764706 </v>
   <v>       0.47368421       0.03703704       0.11764706 </v>
   <v>       0.00000000       0.07407407       0.11764706 </v>
   <v>       0.05263158       0.07407407       0.11764706 </v>
   <v>       0.10526316       0.07407407       0.11764706 </v>
   <v>       0.15789474       0.07407407       0.11764706 </v>
   <v>       0.21052632       0.07407407       0.11764706 </v>
   <v>       0.26315789       0.07407407       0.11764706 </v>
   <v>       0.31578947       0.07407407       0.11764706 </v>
   <v>       0.36842105       0.07407407       0.11764706 </v>
   <v>       0.42105263       0.07407407       0.11764706 </v>
   <v>       0.47368421       0.07407407       0.11764706 </v>
   <v>       0.00000000       0.11111111       0.11764706 </v>
   <v>       0.05263158       0.11111111       0.11764706 </v>
   <v>       0.10526316       0.11111111       0.11764706 </v>
   <v>       0.15789474       0.11111111       0.11764706 </v>
   <v>       0.21052632       0.11111111       0.11764706 </v>
   <v>       0.26315789       0.11111111       0.11764706 </v>
   <v>       0.31578947       0.11111111       0.11764706 </v>
   <v>       0.36842105       0.11111111       0.11764706 </v>
   <v>       0.42105263       0.11111111       0.11764706 </v>
   <v>       0.47368421       0.11111111       0.11764706 </v>
   <v>       0.00000000       0.14814815       0.11764706 </v>
   <v>       0.05263158       0.14814815       0.11764706 </v>
   <v>       0.10526316       0.14814815       0.11764706 </v>
   <v>       0.15789474       0.14814815       0.11764706 </v>
   <v>       0.21052632       0.14814815       0.11764706 </v>
   <v>       0.26315789       0.14814815       0.11764706 </v>
   <v>       0.31578947       0.14814815       0.11764706 </v>
   <v>       0.36842105       0.14814815       0.11764706 </v>
   <v>       0.42105263       0.14814815       0.11764706 </v>
   <v>       0.47368421       0.14814815       0.11764706 </v>
   <v>       0.00000000       0.18518519       0.11764706 </v>
   <v>       0.05263158       0.18518519       0.11764706 </v>
   <v>       0.10526316       0.18518519       0.11764706 </v>
   <v>       0.15789474       0.18518519       0.11764706 </v>
   <v>       0.21052632       0.18518519       0.11764706 </v>
   <v>       0.26315789       0.18518519       0.11764706 </v>
   <v>       0.31578947       0.18518519       0.11764706 </v>
   <v>       0.36842105       0.18518519       0.11764706 </v>
   <v>       0.42105263       0.18518519       0.11764706 </v>
   <v>       0.47368421       0.18518519       0.11764706 </v>
   <v>       0.00000000       0.22222222       0.11764706 </v>
   <v>       0.05263158       0.22222222       0.11764706 </v>
   <v>       0.10526316       0.22222222       0.11764706 </v>
   <v>       0.15789474       0.22222222       0.11764706 </v>
   <v>       0.21052632       0.22222222       0.11764706 </v>
   <v>       0.26315789       0.22222222       0.11764706 </v>
   <v>       0.31578947       0.22222222       0.11764706 </v>
   <v>       0.36842105       0.22222222       0.11764706 </v>
   <v>       0.42105263       0.22222222       0.11764706 </v>
   <v>       0.47368421       0.22222222       0.11764706 </v>
   <v>       0.00000000       0.25925926       0.11764706 </v>
   <v>       0.05263158       0.25925926       0.11764706 </v>
   <v>       0.10526316       0.25925926       0.11764706 </v>
   <v>       0.15789474       0.25925926       0.11764706 </v>
   <v>       0.21052632       0.25925926       0.11764706 </v>
   <v>       0.26315789       0.25925926       0.11764706 </v>
   <v>       0.31578947       0.25925926       0.11764706 </v>
   <v>       0.36842105       0.25925926       0.11764706 </v>
   <v>       0.42105263       0.25925926       0.11764706 </v>
   <v>       0.47368421       0.25925926       0.11764706 </v>
   <v>       0.00000000       0.29629630       0.11764706 </v>
   <v>       0.05263158       0.29629630       0.11764706 </v>
   <v>       0.10526316       0.29629630       0.11764706 </v>
   <v>       0.15789474       0.29629630       0.11764706 </v>
   <v>       0.21052632       0.29629630       0.11764706 </v>
   <v>       0.26315789       0.29629630       0.11764706 </v>
   <v>       0.31578947       0.29629630       0.11764706 </v>
   <v>       0.36842105       0.29629630       0.11764706 </v>
   <v>       0.42105263       0.29629630       0.11764706 </v>
   <v>       0.47368421       0.29629630       0.11764706 </v>
   <v>       0.00000000       0.33333333       0.11764706 </v>
   <v>       0.05263158       0.33333333       0.11764706 </v>
   <v>       0.10526316       0.33333333       0.11764706 </v>
   <v>       0.15789474       0.33333333       0.11764706 </v>
   <v>       0.21052632       0.33333333       0.11764706 </v>
   <v>       0.26315789       0.33333333       0.11764706 </v>
   <v>       0.31578947       0.33333333       0.11764706 </v>
   <v>       0.36842105       0.33333333       0.11764706 </v>
   <v>       0.42105263       0.33333333       0.11764706 </v>
   <v>       0.47368421       0.33333333       0.11764706 </v>
   <v>       0.00000000       0.37037037       0.11764706 </v>
   <v>       0.05263158       0.37037037       0.11764706 </v>
   <v>       0.10526316       0.37037037       0.11764706 </v>
   <v>       0.15789474       0.37037037       0.11764706 </v>
   <v>       0.21052632       0.37037037       0.11764706 </v>
   <v>       0.26315789       0.37037037       0.11764706 </v>
   <v>       0.31578947       0.37037037       0.11764706 </v>
   <v>       0.36842105       0.37037037       0.11764706 </v>
   <v>       0.42105263       0.37037037       0.11764706 </v>
   <v>       0.47368421       0.37037037       0.11764706 </v>
   <v>       0.00000000       0.40740741       0.11764706 </v>
   <v>       0.05263158       0.40740741       0.11764706 </v>
   <v>       0.10526316       0.40740741       0.11764706 </v>
   <v>       0.15789474       0.40740741       0.11764706 </v>
   <v>       0.21052632       0.40740741       0.11764706 </v>
   <v>       0.26315789       0.40740741       0.11764706 </v>
   <v>       0.31578947       0.40740741       0.11764706 </v>
   <v>       0.36842105       0.40740741       0.11764706 </v>
   <v>       0.42105263       0.40740741       0.11764706 </v>
   <v>       0.47368421       0.40740741       0.11764706 </v>
   <v>       0.00000000       0.44444444       0.11764706 </v>
   <v>       0.05263158       0.44444444       0.11764706 </v>
   <v>       0.10526316       0.44444444       0.11764706 </v>
   <v>       0.15789474       0.44444444       0.11764706 </v>
   <v>       0.21052632       0.44444444       0.11764706 </v>
   <v>       0.26315789       0.44444444       0.11764706 </v>
   <v>       0.31578947       0.44444444       0.11764706 </v>
   <v>       0.36842105       0.44444444       0.11764706 </v>
   <v>       0.42105263       0.44444444       0.11764706 </v>
   <v>       0.47368421       0.44444444       0.11764706 </v>
   <v>       0.00000000       0.48148148       0.11764706 </v>
   <v>       0.05263158       0.48148148       0.11764706 </v>
   <v>       0.10526316       0.48148148       0.11764706 </v>
   <v>       0.15789474       0.48148148       0.11764706 </v>
   <v>       0.21052632       0.48148148       0.11764706 </v>
   <v>       0.26315789       0.48148148       0.11764706 </v>
   <v>       0.31578947       0.48148148       0.11764706 </v>
   <v>       0.36842105       0.48148148       0.11764706 </v>
   <v>       0.42105263       0.48148148       0.11764706 </v>
   <v>       0.47368421       0.48148148       0.11764706 </v>
   <v>       0.00000000       0.00000000       0.17647059 </v>
   <v>       0.05263158       0.00000000       0.17647059 </v>
   <v>       0.10526316       0.00000000       0.17647059 </v>
   <v>       0.15789474       0.00000000       0.17647059 </v>
   <v>       0.21052632       0.00000000       0.17647059 </v>
   <v>       0.26315789       0.00000000       0.17647059 </v>
   <v>       0.31578947       0.00000000       0.17647059 </v>
   <v>       0.36842105       0.00000000       0.17647059 </v>
   <v>       0.42105263       0.00000000       0.17647059 </v>
   <v>       0.47368421       0.00000000       0.17647059 </v>
   <v>       0.00000000       0.03703704       0.17647059 </v>
   <v>       0.05263158       0.03703704       0.17647059 </v>
   <v>       0.10526316       0.03703704       0.17647059 </v>
   <v>       0.15789474       0.03703704       0.17647059 </v>
   <v>       0.21052632       0.03703704       0.17647059 </v>
   <v>       0.26315789       0.03703704       0.17647059 </v>
   <v>       0.31578947       0.03703704       0.17647059 </v>
   <v>       0.36842105       0.03703704       0.17647059 </v>
   <v>       0.42105263       0.03703704       0.17647059 </v>
   <v>       0.47368421       0.03703704       0.17647059 </v>
   <v>       0.00000000       0.07407407       0.17647059 </v>
   <v>       0.05263158       0.07407407       0.17647059 </v>
   <v>       0.10526316       0.07407407       0.17647059 </v>
   <v>       0.15789474       0.07407407       0.17647059 </v>
   <v>       0.21052632       0.07407407       0.17647059 </v>
   <v>       0.26315789       0.07407407       0.17647059 </v>
   <v>       0.31578947       0.07407407       0.17647059 </v>
   <v>       0.36842105       0.07407407       0.17647059 </v>
   <v>       0.42105263       0.07407407       0.17647059 </v>
   <v>       0.47368421       0.07407407       0.17647059 </v>
   <v>       0.00000000       0.11111111       0.17647059 </v>
   <v>       0.05263158       0.11111111       0.17647059 </v>
   <v>       0.10526316       0.11111111       0.17647059 </v>
   <v>       0.15789474       0.11111111       0.17647059 </v>
   <v>       0.21052632       0.11111111       0.17647059 </v>
   <v>       0.26315789       0.11111111       0.17647059 </v>
   <v>       0.31578947       0.11111111       0.17647059 </v>
   <v>       0.36842105       0.11111111       0.17647059 </v>
   <v>       0.42105263       0.11111111       0.17647059 </v>
   <v>       0.47368421       0.11111111       0.17647059 </v>
   <v>       0.00000000       0.14814815       0.17647059 </v>
   <v>       0.05263158       0.14814815       0.17647059 </v>
   <v>       0.10526316       0.14814815       0.17647059 </v>
   <v>       0.15789474       0.14814815       0.17647059 </v>
   <v>       0.21052632       0.14814815       0.17647059 </v>
   <v>       0.26315789       0.14814815       0.17647059 </v>
   <v>       0.31578947       0.14814815       0.17647059 </v>
   <v>       0.36842105       0.14814815       0.17647059 </v>
   <v>       0.42105263       0.14814815       0.17647059 </v>
   <v>       0.47368421       0.14814815       0.17647059 </v>
   <v>       0.00000000       0.18518519       0.17647059 </v>
   <v>       0.05263158       0.18518519       0.17647059 </v>
   <v>       0.10526316       0.18518519       0.17647059 </v>
   <v>       0.15789474       0.18518519       0.17647059 </v>
   <v>       0.21052632       0.18518519       0.17647059 </v>
   <v>       0.26315789       0.18518519       0.17647059 </v>
   <v>       0.31578947       0.18518519       0.17647059 </v>
   <v>       0.36842105       0.18518519       0.17647059 </v>
   <v>       0.42105263       0.18518519       0.17647059 </v>
   <v>       0.47368421       0.18518519       0.17647059 </v>
   <v>       0.00000000       0.22222222       0.17647059 </v>
   <v>       0.05263158       0.22222222       0.17647059 </v>
   <v>       0.10526316       0.22222222       0.17647059 </v>
   <v>       0.15789474       0.22222222       0.17647059 </v>
   <v>       0.21052632       0.22222222       0.17647059 </v>
   <v>       0.26315789       0.22222222       0.17647059 </v>
   <v>       0.31578947       0.22222222       0.17647059 </v>
   <v>       0.36842105       0.22222222       0.17647059 </v>
   <v>       0.42105263       0.22222222       0.17647059 </v>
   <v>       0.47368421       0.22222222       0.17647059 </v>
   <v>       0.00000000       0.25925926       0.17647059 </v>
   <v>       0.05263158       0.25925926       0.17647059 </v>
   <v>       0.10526316       0.25925926       0.17647059 </v>
   <v>       0.15789474       0.25925926       0.17647059 </v>
   <v>       0.21052632       0.25925926       0.17647059 </v>
   <v>       0.26315789       0.25925926       0.17647059 </v>
   <v>       0.31578947       0.25925926       0.17647059 </v>
   <v>       0.36842105       0.25925926       0.17647059 </v>
   <v>       0.42105263       0.25925926       0.17647059 </v>
   <v>       0.47368421       0.25925926       0.17647059 </v>
   <v>       0.00000000       0.29629630       0.17647059 </v>
   <v>       0.05263158       0.29629630       0.17647059 </v>
   <v>       0.10526316       0.29629630       0.17647059 </v>
   <v>       0.15789474       0.29629630       0.17647059 </v>
   <v>       0.21052632       0.29629630       0.17647059 </v>
   <v>       0.26315789       0.29629630       0.17647059 </v>
   <v>       0.31578947       0.29629630       0.17647059 </v>
   <v>       0.36842105       0.29629630       0.17647059 </v>
   <v>       0.42105263       0.29629630       0.17647059 </v>
   <v>       0.47368421       0.29629630       0.17647059 </v>
   <v>       0.00000000       0.33333333       0.17647059 </v>
   <v>       0.05263158       0.33333333       0.17647059 </v>
   <v>       0.10526316       0.33333333       0.17647059 </v>
   <v>       0.15789474       0.33333333       0.17647059 </v>
   <v>       0.21052632       0.33333333       0.17647059 </v>
   <v>       0.26315789       0.33333333       0.17647059 </v>
   <v>       0.31578947       0.33333333       0.17647059 </v>
   <v>       0.36842105       0.33333333       0.17647059 </v>
   <v>       0.42105263       0.33333333       0.17647059 </v>
   <v>       0.47368421       0.33333333       0.17647059 </v>
   <v>       0.00000000       0.37037037       0.17647059 </v>
   <v>       0.05263158       0.37037037       0.17647059 </v>
   <v>       0.10526316       0.37037037       0.17647059 </v>
   <v>       0.15789474       0.37037037       0.17647059 </v>
   <v>       0.21052632       0.37037037       0.17647059 </v>
   <v>       0.26315789       0.37037037       0.17647059 </v>
   <v>       0.31578947       0.37037037       0.17647059 </v>
   <v>       0.36842105       0.37037037       0.17647059 </v>
   <v>       0.42105263       0.37037037       0.17647059 </v>
   <v>       0.47368421       0.37037037       0.17647059 </v>
   <v>       0.00000000       0.40740741       0.17647059 </v>
   <v>       0.05263158       0.40740741       0.17647059 </v>
   <v>       0.10526316       0.40740741       0.17647059 </v>
   <v>       0.15789474       0.40740741       0.17647059 </v>
   <v>       0.21052632       0.40740741       0.17647059 </v>
   <v>       0.26315789       0.40740741       0.17647059 </v>
   <v>       0.31578947       0.40740741       0.17647059 </v>
   <v>       0.36842105       0.40740741       0.17647059 </v>
   <v>       0.42105263       0.40740741       0.17647059 </v>
   <v>       0.47368421       0.40740741       0.17647059 </v>
   <v>       0.00000000       0.44444444       0.17647059 </v>
   <v>       0.05263158       0.44444444       0.17647059 </v>
   <v>       0.10526316       0.44444444       0.17647059 </v>
   <v>       0.15789474       0.44444444       0.17647059 </v>
   <v>       0.21052632       0.44444444       0.17647059 </v>
   <v>       0.26315789       0.44444444       0.17647059 </v>
   <v>       0.31578947       0.44444444       0.17647059 </v>
   <v>       0.36842105       0.44444444       0.17647059 </v>
   <v>       0.42105263       0.44444444       0.17647059 </v>
   <v>       0.47368421       0.44444444       0.17647059 </v>
   <v>       0.00000000       0.48148148       0.17647059 </v>
   <v>       0.05263158       0.48148148       0.17647059 </v>
   <v>       0.10526316       0.48148148       0.17647059 </v>
   <v>       0.15789474       0.48148148       0.17647059 </v>
   <v>       0.21052632       0.48148148       0.17647059 </v>
   <v>       0.26315789       0.48148148       0.17647059 </v>
   <v>       0.31578947       0.48148148       0.17647059 </v>
   <v>       0.36842105       0.48148148       0.17647059 </v>
   <v>       0.42105263       0.48148148       0.17647059 </v>
   <v>       0.47368421       0.48148148       0.17647059 </v>
   <v>       0.00000000       0.00000000       0.23529412 </v>
   <v>       0.05263158       0.00000000       0.23529412 </v>
   <v>       0.10526316       0.00000000       0.23529412 </v>
   <v>       0.15789474       0.00000000       0.23529412 </v>
   <v>       0.21052632       0.00000000       0.23529412 </v>
   <v>       0.26315789       0.00000000       0.23529412 </v>
   <v>       0.31578947       0.00000000       0.23529412 </v>
   <v>       0.36842105       0.00000000       0.23529412 </v>
   <v>       0.42105263       0.00000000       0.23529412 </v>
   <v>       0.47368421       0.00000000       0.23529412 </v>
   <v>       0.00000000       0.03703704       0.23529412 </v>
   <v>       0.05263158       0.03703704       0.23529412 </v>
   <v>       0.10526316       0.03703704       0.23529412 </v>
   <v>       0.15789474       0.03703704       0.23529412 </v>
   <v>       0.21052632       0.03703704       0.23529412 </v>
   <v>       0.26315789       0.03703704       0.23529412 </v>
   <v>       0.31578947       0.03703704       0.23529412 </v>
   <v>       0.36842105       0.03703704       0.23529412 </v>
   <v>       0.42105263       0.03703704       0.23529412 </v>
   <v>       0.47368421       0.03703704       0.23529412 </v>
   <v>       0.00000000       0.07407407       0.23529412 </v>
   <v>       0.05263158       0.07407407       0.23529412 </v>
   <v>       0.10526316       0.07407407       0.23529412 </v>
   <v>       0.15789474       0.07407407       0.23529412 </v>
   <v>       0.21052632       0.07407407       0.23529412 </v>
   <v>       0.26315789       0.07407407       0.23529412 </v>
   <v>       0.31578947       0.07407407       0.23529412 </v>
   <v>       0.36842105       0.07407407       0.23529412 </v>
   <v>       0.42105263       0.07407407       0.23529412 </v>
   <v>       0.47368421       0.07407407       0.23529412 </v>
   <v>       0.00000000       0.11111111       0.23529412 </v>
   <v>       0.05263158       0.11111111       0.23529412 </v>
   <v>       0.10526316       0.11111111       0.23529412 </v>
   <v>       0.15789474       0.11111111       0.23529412 </v>
   <v>       0.21052632       0.11111111       0.23529412 </v>
   <v>       0.26315789       0.11111111       0.23529412 </v>
   <v>       0.31578947       0.11111111       0.23529412 </v>
   <v>       0.36842105       0.11111111       0.23529412 </v>
   <v>       0.42105263       0.11111111       0.23529412 </v>
   <v>       0.47368421       0.11111111       0.23529412 </v>
   <v>       0.00000000       0.14814815       0.23529412 </v>
   <v>       0.05263158       0.14814815       0.23529412 </v>
   <v>       0.10526316       0.14814815       0.23529412 </v>
   <v>       0.15789474       0.14814815       0.23529412 </v>
   <v>       0.21052632       0.14814815       0.23529412 </v>
   <v>       0.26315789       0.14814815       0.23529412 </v>
   <v>       0.31578947       0.14814815       0.23529412 </v>
   <v>       0.36842105       0.14814815       0.23529412 </v>
   <v>       0.42105263       0.14814815       0.23529412 </v>
   <v>       0.47368421       0.14814815       0.23529412 </v>
   <v>       0.00000000       0.18518519       0.23529412 </v>
   <v>       0.05263158       0.18518519       0.23529412 </v>
   <v>       0.10526316       0.18518519       0.23529412 </v>
   <v>       0.15789474       0.18518519       0.23529412 </v>
   <v>       0.21052632       0.18518519       0.23529412 </v>
   <v>       0.26315789       0.18518519       0.23529412 </v>
   <v>       0.31578947       0.18518519       0.23529412 </v>
   <v>       0.36842105       0.18518519       0.23529412 </v>
   <v>       0.42105263       0.18518519       0.23529412 </v>
   <v>       0.47368421       0.18518519       0.23529412 </v>
   <v>       0.00000000       0.22222222       0.23529412 </v>
   <v>       0.05263158       0.22222222       0.23529412 </v>
   <v>       0.10526316       0.22222222       0.23529412 </v>
   <v>       0.15789474       0.22222222       0.23529412 </v>
   <v>       0.21052632       0.22222222       0.23529412 </v>
   <v>       0.26315789       0.22222222       0.23529412 </v>
   <v>       0.31578947       0.22222222       0.23529412 </v>
   <v>       0.36842105       0.22222222       0.23529412 </v>
   <v>       0.42105263       0.22222222       0.23529412 </v>
   <v>       0.47368421       0.22222222       0.23529412 </v>
   <v>       0.00000000       0.25925926       0.23529412 </v>
   <v>       0.05263158       0.25925926       0.23529412 </v>
   <v>       0.10526316       0.25925926       0.23529412 </v>
   <v>       0.15789474       0.25925926       0.23529412 </v>
   <v>       0.21052632       0.25925926       0.23529412 </v>
   <v>       0.26315789       0.25925926       0.23529412 </v>
   <v>       0.31578947       0.25925926       0.23529412 </v>
   <v>       0.36842105       0.25925926       0.23529412 </v>
   <v>       0.42105263       0.25925926       0.23529412 </v>
   <v>       0.47368421       0.25925926       0.23529412 </v>
   <v>       0.00000000       0.29629630       0.23529412 </v>
   <v>       0.05263158       0.29629630       0.23529412 </v>
   <v>       0.10526316       0.29629630       0.23529412 </v>
   <v>       0.15789474       0.29629630       0.23529412 </v>
   <v>       0.21052632       0.29629630       0.23529412 </v>
   <v>       0.26315789       0.29629630       0.23529412 </v>
   <v>       0.31578947       0.29629630       0.23529412 </v>
   <v>       0.36842105       0.29629630       0.23529412 </v>
   <v>       0.42105263       0.29629630       0.23529412 </v>
   <v>       0.47368421       0.29629630       0.23529412 </v>
   <v>       0.00000000       0.33333333       0.23529412 </v>
   <v>       0.05263158       0.33333333       0.23529412 </v>
   <v>       0.10526316       0.33333333       0.23529412 </v>
   <v>       0.15789474       0.33333333       0.23529412 </v>
   <v>       0.21052632       0.33333333       0.23529412 </v>
   <v>       0.26315789       0.33333333       0.23529412 </v>
   <v>       0.31578947       0.33333333       0.23529412 </v>
   <v>       0.36842105       0.33333333       0.23529412 </v>
   <v>       0.42105263       0.33333333       0.23529412 </v>
   <v>       0.47368421       0.33333333       0.23529412 </v>
   <v>       0.00000000       0.37037037       0.23529412 </v>
   <v>       0.05263158       0.37037037       0.23529412 </v>
   <v>       0.10526316       0.37037037       0.23529412 </v>
   <v>       0.15789474       0.37037037       0.23529412 </v>
   <v>       0.21052632       0.37037037       0.23529412 </v>
   <v>       0.26315789       0.37037037       0.23529412 </v>
   <v>       0.31578947       0.37037037       0.23529412 </v>
   <v>       0.36842105       0.37037037       0.23529412 </v>
   <v>       0.42105263       0.37037037       0.23529412 </v>
   <v>       0.47368421       0.37037037       0.23529412 </v>
   <v>       0.00000000       0.40740741       0.23529412 </v>
   <v>       0.05263158       0.40740741       0.23529412 </v>
   <v>       0.10526316       0.40740741       0.23529412 </v>
   <v>       0.15789474       0.40740741       0.23529412 </v>
   <v>       0.21052632       0.40740741       0.23529412 </v>
   <v>       0.26315789       0.40740741       0.23529412 </v>
   <v>       0.31578947       0.40740741       0.23529412 </v>
   <v>       0.36842105       0.40740741       0.23529412 </v>
   <v>       0.42105263       0.40740741       0.23529412 </v>
   <v>       0.47368421       0.40740741       0.23529412 </v>
   <v>       0.00000000       0.44444444       0.23529412 </v>
   <v>       0.05263158       0.44444444       0.23529412 </v>
   <v>       0.10526316       0.44444444       0.23529412 </v>
   <v>       0.15789474       0.44444444       0.23529412 </v>
   <v>       0.21052632       0.44444444       0.23529412 </v>
   <v>       0.26315789       0.44444444       0.23529412 </v>
   <v>       0.31578947       0.44444444       0.23529412 </v>
   <v>       0.36842105       0.44444444       0.23529412 </v>
   <v>       0.42105263       0.44444444       0.23529412 </v>
   <v>       0.47368421       0.44444444       0.23529412 </v>
   <v>       0.00000000       0.48148148       0.23529412 </v>
   <v>       0.05263158       0.48148148       0.23529412 </v>
   <v>       0.10526316       0.48148148       0.23529412 </v>
   <v>       0.15789474       0.48148148       0.23529412 </v>
   <v>       0.21052632       0.48148148       0.23529412 </v>
   <v>       0.26315789       0.48148148       0.23529412 </v>
   <v>       0.31578947       0.48148148       0.23529412 </v>
   <v>       0.36842105       0.48148148       0.23529412 </v>
   <v>       0.42105263       0.48148148       0.23529412 </v>
   <v>       0.47368421       0.48148148       0.23529412 </v>
   <v>       0.00000000       0.00000000       0.29411765 </v>
   <v>       0.05263158       0.00000000       0.29411765 </v>
   <v>       0.10526316       0.00000000       0.29411765 </v>
   <v>       0.15789474       0.00000000       0.29411765 </v>
   <v>       0.21052632       0.00000000       0.29411765 </v>
   <v>       0.26315789       0.00000000       0.29411765 </v>
   <v>       0.31578947       0.00000000       0.29411765 </v>
   <v>       0.36842105       0.00000000       0.29411765 </v>
   <v>       0.42105263       0.00000000       0.29411765 </v>
   <v>       0.47368421       0.00000000       0.29411765 </v>
   <v>       0.00000000       0.03703704       0.29411765 </v>
   <v>       0.05263158       0.03703704       0.29411765 </v>
   <v>       0.10526316       0.03703704       0.29411765 </v>
   <v>       0.15789474       0.03703704       0.29411765 </v>
   <v>       0.21052632       0.03703704       0.29411765 </v>
   <v>       0.26315789       0.03703704       0.29411765 </v>
   <v>       0.31578947       0.03703704       0.29411765 </v>
   <v>       0.36842105       0.03703704       0.29411765 </v>
   <v>       0.42105263       0.03703704       0.29411765 </v>
   <v>       0.47368421       0.03703704       0.29411765 </v>
   <v>       0.00000000       0.07407407       0.29411765 </v>
   <v>       0.05263158       0.07407407       0.29411765 </v>
   <v>       0.10526316       0.07407407       0.29411765 </v>
   <v>       0.15789474       0.07407407       0.29411765 </v>
   <v>       0.21052632       0.07407407       0.29411765 </v>
   <v>       0.26315789       0.07407407       0.29411765 </v>
   <v>       0.31578947       0.07407407       0.29411765 </v>
   <v>       0.36842105       0.07407407       0.29411765 </v>
   <v>       0.42105263       0.07407407       0.29411765 </v>
   <v>       0.47368421       0.07407407       0.29411765 </v>
   <v>       0.00000000       0.11111111       0.29411765 </v>
   <v>       0.05263158       0.11111111       0.29411765 </v>
   <v>       0.10526316       0.11111111       0.29411765 </v>
   <v>       0.15789474       0.11111111       0.29411765 </v>
   <v>       0.21052632       0.11111111       0.29411765 </v>
   <v>       0.26315789       0.11111111       0.29411765 </v>
   <v>       0.31578947       0.11111111       0.29411765 </v>
   <v>       0.36842105       0.11111111       0.29411765 </v>
   <v>       0.42105263       0.11111111       0.29411765 </v>
   <v>       0.47368421       0.11111111       0.29411765 </v>
   <v>       0.00000000       0.14814815       0.29411765 </v>
   <v>       0.05263158       0.14814815       0.29411765 </v>
   <v>       0.10526316       0.14814815       0.29411765 </v>
   <v>       0.15789474       0.14814815       0.29411765 </v>
   <v>       0.21052632       0.14814815       0.29411765 </v>
   <v>       0.26315789       0.14814815       0.29411765 </v>
   <v>       0.31578947       0.14814815       0.29411765 </v>
   <v>       0.36842105       0.14814815       0.29411765 </v>
   <v>       0.42105263       0.14814815       0.29411765 </v>
   <v>       0.47368421       0.14814815       0.29411765 </v>
   <v>       0.00000000       0.18518519       0.29411765 </v>
   <v>       0.05263158       0.18518519       0.29411765 </v>
   <v>       0.10526316       0.18518519       0.29411765 </v>
   <v>       0.15789474       0.18518519       0.29411765 </v>
   <v>       0.21052632       0.18518519       0.29411765 </v>
   <v>       0.26315789       0.18518519       0.29411765 </v>
   <v>       0.31578947       0.18518519       0.29411765 </v>
   <v>       0.36842105       0.18518519       0.29411765 </v>
   <v>       0.42105263       0.18518519       0.29411765 </v>
   <v>       0.47368421       0.18518519       0.29411765 </v>
   <v>       0.00000000       0.22222222       0.29411765 </v>
   <v>       0.05263158       0.22222222       0.29411765 </v>
   <v>       0.10526316       0.22222222       0.29411765 </v>
   <v>       0.15789474       0.22222222       0.29411765 </v>
   <v>       0.21052632       0.22222222       0.29411765 </v>
   <v>       0.26315789       0.22222222       0.29411765 </v>
   <v>       0.31578947       0.22222222       0.29411765 </v>
   <v>       0.36842105       0.22222222       0.29411765 </v>
   <v>       0.42105263       0.22222222       0.29411765 </v>
   <v>       0.47368421       0.22222222       0.29411765 </v>
   <v>       0.00000000       0.25925926       0.29411765 </v>
   <v>       0.05263158       0.25925926       0.29411765 </v>
   <v>       0.10526316       0.25925926       0.29411765 </v>
   <v>       0.15789474       0.25925926       0.29411765 </v>
   <v>       0.21052632       0.25925926       0.29411765 </v>
   <v>       0.26315789       0.25925926       0.29411765 </v>
   <v>       0.31578947       0.25925926       0.29411765 </v>
   <v>       0.36842105       0.25925926       0.29411765 </v>
   <v>       0.42105263       0.25925926       0.29411765 </v>
   <v>       0.47368421       0.25925926       0.29411765 </v>
   <v>       0.00000000       0.29629630       0.29411765 </v>
   <v>       0.05263158       0.29629630       0.29411765 </v>
   <v>       0.10526316       0.29629630       0.29411765 </v>
   <v>       0.15789474       0.29629630       0.29411765 </v>
   <v>       0.21052632       0.29629630       0.29411765 </v>
   <v>       0.26315789       0.29629630       0.29411765 </v>
   <v>       0.31578947       0.29629630       0.29411765 </v>
   <v>       0.36842105       0.29629630       0.29411765 </v>
   <v>       0.42105263       0.29629630       0.29411765 </v>
   <v>       0.47368421       0.29629630       0.29411765 </v>
   <v>       0.00000000       0.33333333       0.29411765 </v>
   <v>       0.05263158       0.33333333       0.29411765 </v>
   <v>       0.10526316       0.33333333       0.29411765 </v>
   <v>       0.15789474       0.33333333       0.29411765 </v>
   <v>       0.21052632       0.33333333       0.29411765 </v>
   <v>       0.26315789       0.33333333       0.29411765 </v>
   <v>       0.31578947       0.33333333       0.29411765 </v>
   <v>       0.36842105       0.33333333       0.29411765 </v>
   <v>       0.42105263       0.33333333       0.29411765 </v>
   <v>       0.47368421       0.33333333       0.29411765 </v>
   <v>       0.00000000       0.37037037       0.29411765 </v>
   <v>       0.05263158       0.37037037       0.29411765 </v>
   <v>       0.10526316       0.37037037       0.29411765 </v>
   <v>       0.15789474       0.37037037       0.29411765 </v>
   <v>       0.21052632       0.37037037       0.29411765 </v>
   <v>       0.26315789       0.37037037       0.29411765 </v>
   <v>       0.31578947       0.37037037       0.29411765 </v>
   <v>       0.36842105       0.37037037       0.29411765 </v>
   <v>       0.42105263       0.37037037       0.29411765 </v>
   <v>       0.47368421       0.37037037       0.29411765 </v>
   <v>       0.00000000       0.40740741       0.29411765 </v>
   <v>       0.05263158       0.40740741       0.29411765 </v>
   <v>       0.10526316       0.40740741       0.29411765 </v>
   <v>       0.15789474       0.40740741       0.29411765 </v>
   <v>       0.21052632       0.40740741       0.29411765 </v>
   <v>       0.26315789       0.40740741       0.29411765 </v>
   <v>       0.31578947       0.40740741       0.29411765 </v>
   <v>       0.36842105       0.40740741       0.29411765 </v>
   <v>       0.42105263       0.40740741       0.29411765 </v>
   <v>       0.47368421       0.40740741       0.29411765 </v>
   <v>       0.00000000       0.44444444       0.29411765 </v>
   <v>       0.05263158       0.44444444       0.29411765 </v>
   <v>       0.10526316       0.44444444       0.29411765 </v>
   <v>       0.15789474       0.44444444       0.29411765 </v>
   <v>       0.21052632       0.44444444       0.29411765 </v>
   <v>       0.26315789       0.44444444       0.29411765 </v>
   <v>       0.31578947       0.44444444       0.29411765 </v>
   <v>       0.36842105       0.44444444       0.29411765 </v>
   <v>       0.42105263       0.44444444       0.29411765 </v>
   <v>       0.47368421       0.44444444       0.29411765 </v>
   <v>       0.00000000       0.48148148       0.29411765 </v>
   <v>       0.05263158       0.48148148       0.29411765 </v>
   <v>       0.10526316       0.48148148       0.29411765 </v>
   <v>       0.15789474       0.48148148       0.29411765 </v>
   <v>       0.21052632       0.48148148       0.29411765 </v>
   <v>       0.26315789       0.48148148       0.29411765 </v>
   <v>       0.31578947       0.48148148       0.29411765 </v>
   <v>       0.36842105       0.48148148       0.29411765 </v>
   <v>       0.42105263       0.48148148       0.29411765 </v>
   <v>       0.47368421       0.48148148       0.29411765 </v>
   <v>       0.00000000       0.00000000       0.35294118 </v>
   <v>       0.05263158       0.00000000       0.35294118 </v>
   <v>       0.10526316       0.00000000       0.35294118 </v>
   <v>       0.15789474       0.00000000       0.35294118 </v>
   <v>       0.21052632       0.00000000       0.35294118 </v>
   <v>       0.26315789       0.00000000       0.35294118 </v>
   <v>       0.31578947       0.00000000       0.35294118 </v>
   <v>       0.36842105       0.00000000       0.35294118 </v>
   <v>       0.42105263       0.00000000       0.35294118 </v>
   <v>       0.47368421       0.00000000       0.35294118 </v>
   <v>       0.00000000       0.03703704       0.35294118 </v>
   <v>       0.05263158       0.03703704       0.35294118 </v>
   <v>       0.10526316       0.03703704       0.35294118 </v>
   <v>       0.15789474       0.03703704       0.35294118 </v>
   <v>       0.21052632       0.03703704       0.35294118 </v>
   <v>       0.26315789       0.03703704       0.35294118 </v>
   <v>       0.31578947       0.03703704       0.35294118 </v>
   <v>       0.36842105       0.03703704       0.35294118 </v>
   <v>       0.42105263       0.03703704       0.35294118 </v>
   <v>       0.47368421       0.03703704       0.35294118 </v>
   <v>       0.00000000       0.07407407       0.35294118 </v>
   <v>       0.05263158       0.07407407       0.35294118 </v>
   <v>       0.10526316       0.07407407       0.35294118 </v>
   <v>       0.15789474       0.07407407       0.35294118 </v>
   <v>       0.21052632       0.07407407       0.35294118 </v>
   <v>       0.26315789       0.07407407       0.35294118 </v>
   <v>       0.31578947       0.07407407       0.35294118 </v>
   <v>       0.36842105       0.07407407       0.35294118 </v>
   <v>       0.42105263       0.07407407       0.35294118 </v>
   <v>       0.47368421       0.07407407       0.35294118 </v>
   <v>       0.00000000       0.11111111       0.35294118 </v>
   <v>       0.05263158       0.11111111       0.35294118 </v>
   <v>       0.10526316       0.11111111       0.35294118 </v>
   <v>       0.15789474       0.11111111       0.35294118 </v>
   <v>       0.21052632       0.11111111       0.35294118 </v>
   <v>       0.26315789       0.11111111       0.35294118 </v>
   <v>       0.31578947       0.11111111       0.35294118 </v>
   <v>       0.36842105       0.11111111       0.35294118 </v>
   <v>       0.42105263       0.11111111       0.35294118 </v>
   <v>       0.47368421       0.11111111       0.35294118 </v>
   <v>       0.00000000       0.14814815       0.35294118 </v>
   <v>       0.05263158       0.14814815       0.35294118 </v>
   <v>       0.10526316       0.14814815       0.35294118 </v>
   <v>       0.15789474       0.14814815       0.35294118 </v>
   <v>       0.21052632       0.14814815       0.35294118 </v>
   <v>       0.26315789       0.14814815       0.35294118 </v>
   <v>       0.31578947       0.14814815       0.35294118 </v>
   <v>       0.36842105       0.14814815       0.35294118 </v>
   <v>       0.42105263       0.14814815       0.35294118 </v>
   <v>       0.47368421       0.14814815       0.35294118 </v>
   <v>       0.00000000       0.18518519       0.35294118 </v>
   <v>       0.05263158       0.18518519       0.35294118 </v>
   <v>       0.10526316       0.18518519       0.35294118 </v>
   <v>       0.15789474       0.18518519       0.35294118 </v>
   <v>       0.21052632       0.18518519       0.35294118 </v>
   <v>       0.26315789       0.18518519       0.35294118 </v>
   <v>       0.31578947       0.18518519       0.35294118 </v>
   <v>       0.36842105       0.18518519       0.35294118 </v>
   <v>       0.42105263       0.18518519       0.35294118 </v>
   <v>       0.47368421       0.18518519       0.35294118 </v>
   <v>       0.00000000       0.22222222       0.35294118 </v>
   <v>       0.05263158       0.22222222       0.35294118 </v>
   <v>       0.10526316       0.22222222       0.35294118 </v>
   <v>       0.15789474       0.22222222       0.35294118 </v>
   <v>       0.21052632       0.22222222       0.35294118 </v>
   <v>       0.26315789       0.22222222       0.35294118 </v>
   <v>       0.31578947       0.22222222       0.35294118 </v>
   <v>       0.36842105       0.22222222       0.35294118 </v>
   <v>       0.42105263       0.22222222       0.35294118 </v>
   <v>       0.47368421       0.22222222       0.35294118 </v>
   <v>       0.00000000       0.25925926       0.35294118 </v>
   <v>       0.05263158       0.25925926       0.35294118 </v>
   <v>       0.10526316       0.25925926       0.35294118 </v>
   <v>       0.15789474       0.25925926       0.35294118 </v>
   <v>       0.21052632       0.25925926       0.35294118 </v>
   <v>       0.26315789       0.25925926       0.35294118 </v>
   <v>       0.31578947       0.25925926       0.35294118 </v>
   <v>       0.36842105       0.25925926       0.35294118 </v>
   <v>       0.42105263       0.25925926       0.35294118 </v>
   <v>       0.47368421       0.25925926       0.35294118 </v>
   <v>       0.00000000       0.29629630       0.35294118 </v>
   <v>       0.05263158       0.29629630       0.35294118 </v>
   <v>       0.10526316       0.29629630       0.35294118 </v>
   <v>       0.15789474       0.29629630       0.35294118 </v>
   <v>       0.21052632       0.29629630       0.35294118 </v>
   <v>       0.26315789       0.29629630       0.35294118 </v>
   <v>       0.31578947       0.29629630       0.35294118 </v>
   <v>       0.36842105       0.29629630       0.35294118 </v>
   <v>       0.42105263       0.29629630       0.35294118 </v>
   <v>       0.47368421       0.29629630       0.35294118 </v>
   <v>       0.00000000       0.33333333       0.35294118 </v>
   <v>       0.05263158       0.33333333       0.35294118 </v>
   <v>       0.10526316       0.33333333       0.35294118 </v>
   <v>       0.15789474       0.33333333       0.35294118 </v>
   <v>       0.21052632       0.33333333       0.35294118 </v>
   <v>       0.26315789       0.33333333       0.35294118 </v>
   <v>       0.31578947       0.33333333       0.35294118 </v>
   <v>       0.36842105       0.33333333       0.35294118 </v>
   <v>       0.42105263       0.33333333       0.35294118 </v>
   <v>       0.47368421       0.33333333       0.35294118 </v>
   <v>       0.00000000       0.37037037       0.35294118 </v>
   <v>       0.05263158       0.37037037       0.35294118 </v>
   <v>       0.10526316       0.37037037       0.35294118 </v>
   <v>       0.15789474       0.37037037       0.35294118 </v>
   <v>       0.21052632       0.37037037       0.35294118 </v>
   <v>       0.26315789       0.37037037       0.35294118 </v>
   <v>       0.31578947       0.37037037       0.35294118 </v>
   <v>       0.36842105       0.37037037       0.35294118 </v>
   <v>       0.42105263       0.37037037       0.35294118 </v>
   <v>       0.47368421       0.37037037       0.35294118 </v>
   <v>       0.00000000       0.40740741       0.35294118 </v>
   <v>       0.05263158       0.40740741       0.35294118 </v>
   <v>       0.10526316       0.40740741       0.35294118 </v>
   <v>       0.15789474       0.40740741       0.35294118 </v>
   <v>       0.21052632       0.40740741       0.35294118 </v>
   <v>       0.26315789       0.40740741       0.35294118 </v>
   <v>       0.31578947       0.40740741       0.35294118 </v>
   <v>       0.36842105       0.40740741       0.35294118 </v>
   <v>       0.42105263       0.40740741       0.35294118 </v>
   <v>       0.47368421       0.40740741       0.35294118 </v>
   <v>       0.00000000       0.44444444       0.35294118 </v>
   <v>       0.05263158       0.44444444       0.35294118 </v>
   <v>       0.10526316       0.44444444       0.35294118 </v>
   <v>       0.15789474       0.44444444       0.35294118 </v>
   <v>       0.21052632       0.44444444       0.35294118 </v>
   <v>       0.26315789       0.44444444       0.35294118 </v>
   <v>       0.31578947       0.44444444       0.35294118 </v>
   <v>       0.36842105       0.44444444       0.35294118 </v>
   <v>       0.42105263       0.44444444       0.35294118 </v>
   <v>       0.47368421       0.44444444       0.35294118 </v>
   <v>       0.00000000       0.48148148       0.35294118 </v>
   <v>       0.05263158       0.48148148       0.35294118 </v>
   <v>       0.10526316       0.48148148       0.35294118 </v>
   <v>       0.15789474       0.48148148       0.35294118 </v>
   <v>       0.21052632       0.48148148       0.35294118 </v>
   <v>       0.26315789       0.48148148       0.35294118 </v>
   <v>       0.31578947       0.48148148       0.35294118 </v>
   <v>       0.36842105       0.48148148       0.35294118 </v>
   <v>       0.42105263       0.48148148       0.35294118 </v>
   <v>       0.47368421       0.48148148       0.35294118 </v>
   <v>       0.00000000       0.00000000       0.41176471 </v>
   <v>       0.05263158       0.00000000       0.41176471 </v>
   <v>       0.10526316       0.00000000       0.41176471 </v>
   <v>       0.15789474       0.00000000       0.41176471 </v>
   <v>       0.21052632       0.00000000       0.41176471 </v>
   <v>       0.26315789       0.00000000       0.41176471 </v>
   <v>       0.31578947       0.00000000       0.41176471 </v>
   <v>       0.36842105       0.00000000       0.41176471 </v>
   <v>       0.42105263       0.00000000       0.41176471 </v>
   <v>       0.47368421       0.00000000       0.41176471 </v>
   <v>       0.00000000       0.03703704       0.41176471 </v>
   <v>       0.05263158       0.03703704       0.41176471 </v>
   <v>       0.10526316       0.03703704       0.41176471 </v>
   <v>       0.15789474       0.03703704       0.41176471 </v>
   <v>       0.21052632       0.03703704       0.41176471 </v>
   <v>       0.26315789       0.03703704       0.41176471 </v>
   <v>       0.31578947       0.03703704       0.41176471 </v>
   <v>       0.36842105       0.03703704       0.41176471 </v>
   <v>       0.42105263       0.03703704       0.41176471 </v>
   <v>       0.47368421       0.03703704       0.41176471 </v>
   <v>       0.00000000       0.07407407       0.41176471 </v>
   <v>       0.05263158       0.07407407       0.41176471 </v>
   <v>       0.10526316       0.07407407       0.41176471 </v>
   <v>       0.15789474       0.07407407       0.41176471 </v>
   <v>       0.21052632       0.07407407       0.41176471 </v>
   <v>       0.26315789       0.07407407       0.41176471 </v>
   <v>       0.31578947       0.07407407       0.41176471 </v>
   <v>       0.36842105       0.07407407       0.41176471 </v>
   <v>       0.42105263       0.07407407       0.41176471 </v>
   <v>       0.47368421       0.07407407       0.41176471 </v>
   <v>       0.00000000       0.11111111       0.41176471 </v>
   <v>       0.05263158       0.11111111       0.41176471 </v>
   <v>       0.10526316       0.11111111       0.41176471 </v>
   <v>       0.15789474       0.11111111       0.41176471 </v>
   <v>       0.21052632       0.11111111       0.41176471 </v>
   <v>       0.26315789       0.11111111       0.41176471 </v>
   <v>       0.31578947       0.11111111       0.41176471 </v>
   <v>       0.36842105       0.11111111       0.41176471 </v>
   <v>       0.42105263       0.11111111       0.41176471 </v>
   <v>       0.47368421       0.11111111       0.41176471 </v>
   <v>       0.00000000       0.14814815       0.41176471 </v>
   <v>       0.05263158       0.14814815       0.41176471 </v>
   <v>       0.10526316       0.14814815       0.41176471 </v>
   <v>       0.15789474       0.14814815       0.41176471 </v>
   <v>       0.21052632       0.14814815       0.41176471 </v>
   <v>       0.26315789       0.14814815       0.41176471 </v>
   <v>       0.31578947       0.14814815       0.41176471 </v>
   <v>       0.36842105       0.14814815       0.41176471 </v>
   <v>       0.42105263       0.14814815       0.41176471 </v>
   <v>       0.47368421       0.14814815       0.41176471 </v>
   <v>       0.00000000       0.18518519       0.41176471 </v>
   <v>       0.05263158       0.18518519       0.41176471 </v>
   <v>       0.10526316       0.18518519       0.41176471 </v>
   <v>       0.15789474       0.18518519       0.41176471 </v>
   <v>       0.21052632       0.18518519       0.41176471 </v>
   <v>       0.26315789       0.18518519       0.41176471 </v>
   <v>       0.31578947       0.18518519       0.41176471 </v>
   <v>       0.36842105       0.18518519       0.41176471 </v>
   <v>       0.42105263       0.18518519       0.41176471 </v>
   <v>       0.47368421       0.18518519       0.41176471 </v>
   <v>       0.00000000       0.22222222       0.41176471 </v>
   <v>       0.05263158       0.22222222       0.41176471 </v>
   <v>       0.10526316       0.22222222       0.41176471 </v>
   <v>       0.15789474       0.22222222       0.41176471 </v>
   <v>       0.21052632       0.22222222       0.41176471 </v>
   <v>       0.26315789       0.22222222       0.41176471 </v>
   <v>       0.31578947       0.22222222       0.41176471 </v>
   <v>       0.36842105       0.22222222       0.41176471 </v>
   <v>       0.42105263       0.22222222       0.41176471 </v>
   <v>       0.47368421       0.22222222       0.41176471 </v>
   <v>       0.00000000       0.25925926       0.41176471 </v>
   <v>       0.05263158       0.25925926       0.41176471 </v>
   <v>       0.10526316       0.25925926       0.41176471 </v>
   <v>       0.15789474       0.25925926       0.41176471 </v>
   <v>       0.21052632       0.25925926       0.41176471 </v>
   <v>       0.26315789       0.25925926       0.41176471 </v>
   <v>       0.31578947       0.25925926       0.41176471 </v>
   <v>       0.36842105       0.25925926       0.41176471 </v>
   <v>       0.42105263       0.25925926       0.41176471 </v>
   <v>       0.47368421       0.25925926       0.41176471 </v>
   <v>       0.00000000       0.29629630       0.41176471 </v>
   <v>       0.05263158       0.29629630       0.41176471 </v>
   <v>       0.10526316       0.29629630       0.41176471 </v>
   <v>       0.15789474       0.29629630       0.41176471 </v>
   <v>       0.21052632       0.29629630       0.41176471 </v>
   <v>       0.26315789       0.29629630       0.41176471 </v>
   <v>       0.31578947       0.29629630       0.41176471 </v>
   <v>       0.36842105       0.29629630       0.41176471 </v>
   <v>       0.42105263       0.29629630       0.41176471 </v>
   <v>       0.47368421       0.29629630       0.41176471 </v>
   <v>       0.00000000       0.33333333       0.41176471 </v>
   <v>       0.05263158       0.33333333       0.41176471 </v>
   <v>       0.10526316       0.33333333       0.41176471 </v>
   <v>       0.15789474       0.33333333       0.41176471 </v>
   <v>       0.21052632       0.33333333       0.41176471 </v>
   <v>       0.26315789       0.33333333       0.41176471 </v>
   <v>       0.31578947       0.33333333       0.41176471 </v>
   <v>       0.36842105       0.33333333       0.41176471 </v>
   <v>       0.42105263       0.33333333       0.41176471 </v>
   <v>       0.47368421       0.33333333       0.41176471 </v>
   <v>       0.00000000       0.37037037       0.41176471 </v>
   <v>       0.05263158       0.37037037       0.41176471 </v>
   <v>       0.10526316       0.37037037       0.41176471 </v>
   <v>       0.15789474       0.37037037       0.41176471 </v>
   <v>       0.21052632       0.37037037       0.41176471 </v>
   <v>       0.26315789       0.37037037       0.41176471 </v>
   <v>       0.31578947       0.37037037       0.41176471 </v>
   <v>       0.36842105       0.37037037       0.41176471 </v>
   <v>       0.42105263       0.37037037       0.41176471 </v>
   <v>       0.47368421       0.37037037       0.41176471 </v>
   <v>       0.00000000       0.40740741       0.41176471 </v>
   <v>       0.05263158       0.40740741       0.41176471 </v>
   <v>       0.10526316       0.40740741       0.41176471 </v>
   <v>       0.15789474       0.40740741       0.41176471 </v>
   <v>       0.21052632       0.40740741       0.41176471 </v>
   <v>       0.26315789       0.40740741       0.41176471 </v>
   <v>       0.31578947       0.40740741       0.41176471 </v>
   <v>       0.36842105       0.40740741       0.41176471 </v>
   <v>       0.42105263       0.40740741       0.41176471 </v>
   <v>       0.47368421       0.40740741       0.41176471 </v>
   <v>       0.00000000       0.44444444       0.41176471 </v>
   <v>       0.05263158       0.44444444       0.41176471 </v>
   <v>       0.10526316       0.44444444       0.41176471 </v>
   <v>       0.15789474       0.44444444       0.41176471 </v>
   <v>       0.21052632       0.44444444       0.41176471 </v>
   <v>       0.26315789       0.44444444       0.41176471 </v>
   <v>       0.31578947       0.44444444       0.41176471 </v>
   <v>       0.36842105       0.44444444       0.41176471 </v>
   <v>       0.42105263       0.44444444       0.41176471 </v>
   <v>       0.47368421       0.44444444       0.41176471 </v>
   <v>       0.00000000       0.48148148       0.41176471 </v>
   <v>       0.05263158       0.48148148       0.41176471 </v>
   <v>       0.10526316       0.48148148       0.41176471 </v>
   <v>       0.15789474       0.48148148       0.41176471 </v>
   <v>       0.21052632       0.48148148       0.41176471 </v>
   <v>       0.26315789       0.48148148       0.41176471 </v>
   <v>       0.31578947       0.48148148       0.41176471 </v>
   <v>       0.36842105       0.48148148       0.41176471 </v>
   <v>       0.42105263       0.48148148       0.41176471 </v>
   <v>       0.47368421       0.48148148       0.41176471 </v>
   <v>       0.00000000       0.00000000       0.47058824 </v>
   <v>       0.05263158       0.00000000       0.47058824 </v>
   <v>       0.10526316       0.00000000       0.47058824 </v>
   <v>       0.15789474       0.00000000       0.47058824 </v>
   <v>       0.21052632       0.00000000       0.47058824 </v>
   <v>       0.26315789       0.00000000       0.47058824 </v>
   <v>       0.31578947       0.00000000       0.47058824 </v>
   <v>       0.36842105       0.00000000       0.47058824 </v>
   <v>       0.42105263       0.00000000       0.47058824 </v>
   <v>       0.47368421       0.00000000       0.47058824 </v>
   <v>       0.00000000       0.03703704       0.47058824 </v>
   <v>       0.05263158       0.03703704       0.47058824 </v>
   <v>       0.10526316       0.03703704       0.47058824 </v>
   <v>       0.15789474       0.03703704       0.47058824 </v>
   <v>       0.21052632       0.03703704       0.47058824 </v>
   <v>       0.26315789       0.03703704       0.47058824 </v>
   <v>       0.31578947       0.03703704       0.47058824 </v>
   <v>       0.36842105       0.03703704       0.47058824 </v>
   <v>       0.42105263       0.03703704       0.47058824 </v>
   <v>       0.47368421       0.03703704       0.47058824 </v>
   <v>       0.00000000       0.07407407       0.47058824 </v>
   <v>       0.05263158       0.07407407       0.47058824 </v>
   <v>       0.10526316       0.07407407       0.47058824 </v>
   <v>       0.15789474       0.07407407       0.47058824 </v>
   <v>       0.21052632       0.07407407       0.47058824 </v>
   <v>       0.26315789       0.07407407       0.47058824 </v>
   <v>       0.31578947       0.07407407       0.47058824 </v>
   <v>       0.36842105       0.07407407       0.47058824 </v>
   <v>       0.42105263       0.07407407       0.47058824 </v>
   <v>       0.47368421       0.07407407       0.47058824 </v>
   <v>       0.00000000       0.11111111       0.47058824 </v>
   <v>       0.05263158       0.11111111       0.47058824 </v>
   <v>       0.10526316       0.11111111       0.47058824 </v>
   <v>       0.15789474       0.11111111       0.47058824 </v>
   <v>       0.21052632       0.11111111       0.47058824 </v>
   <v>       0.26315789       0.11111111       0.47058824 </v>
   <v>       0.31578947       0.11111111       0.47058824 </v>
   <v>       0.36842105       0.11111111       0.47058824 </v>
   <v>       0.42105263       0.11111111       0.47058824 </v>
   <v>       0.47368421       0.11111111       0.47058824 </v>
   <v>       0.00000000       0.14814815       0.47058824 </v>
   <v>       0.05263158       0.14814815       0.47058824 </v>
   <v>       0.10526316       0.14814815       0.47058824 </v>
   <v>       0.15789474       0.14814815       0.47058824 </v>
   <v>       0.21052632       0.14814815       0.47058824 </v>
   <v>       0.26315789       0.14814815       0.47058824 </v>
   <v>       0.31578947       0.14814815       0.47058824 </v>
   <v>       0.36842105       0.14814815       0.47058824 </v>
   <v>       0.42105263       0.14814815       0.47058824 </v>
   <v>       0.47368421       0.14814815       0.47058824 </v>
   <v>       0.00000000       0.18518519       0.47058824 </v>
   <v>       0.05263158       0.18518519       0.47058824 </v>
   <v>       0.10526316       0.18518519       0.47058824 </v>
   <v>       0.15789474       0.18518519       0.47058824 </v>
   <v>       0.21052632       0.18518519       0.47058824 </v>
   <v>       0.26315789       0.18518519       0.47058824 </v>
   <v>       0.31578947       0.18518519       0.47058824 </v>
   <v>       0.36842105       0.18518519       0.47058824 </v>
   <v>       0.42105263       0.18518519       0.47058824 </v>
   <v>       0.47368421       0.18518519       0.47058824 </v>
   <v>       0.00000000       0.22222222       0.47058824 </v>
   <v>       0.05263158       0.22222222       0.47058824 </v>
   <v>       0.10526316       0.22222222       0.47058824 </v>
   <v>       0.15789474       0.22222222       0.47058824 </v>
   <v>       0.21052632       0.22222222       0.47058824 </v>
   <v>       0.26315789       0.22222222       0.47058824 </v>
   <v>       0.31578947       0.22222222       0.47058824 </v>
   <v>       0.36842105       0.22222222       0.47058824 </v>
   <v>       0.42105263       0.22222222       0.47058824 </v>
   <v>       0.47368421       0.22222222       0.47058824 </v>
   <v>       0.00000000       0.25925926       0.47058824 </v>
   <v>       0.05263158       0.25925926       0.47058824 </v>
   <v>       0.10526316       0.25925926       0.47058824 </v>
   <v>       0.15789474       0.25925926       0.47058824 </v>
   <v>       0.21052632       0.25925926       0.47058824 </v>
   <v>       0.26315789       0.25925926       0.47058824 </v>
   <v>       0.31578947       0.25925926       0.47058824 </v>
   <v>       0.36842105       0.25925926       0.47058824 </v>
   <v>       0.42105263       0.25925926       0.47058824 </v>
   <v>       0.47368421       0.25925926       0.47058824 </v>
   <v>       0.00000000       0.29629630       0.47058824 </v>
   <v>       0.05263158       0.29629630       0.47058824 </v>
   <v>       0.10526316       0.29629630       0.47058824 </v>
   <v>       0.15789474       0.29629630       0.47058824 </v>
   <v>       0.21052632       0.29629630       0.47058824 </v>
   <v>       0.26315789       0.29629630       0.47058824 </v>
   <v>       0.31578947       0.29629630       0.47058824 </v>
   <v>       0.36842105       0.29629630       0.47058824 </v>
[...]
       <r>   -2.2123    1.0000 </r>
       <r>   -2.1292    1.0000 </r>
       <r>   -2.1288    1.0000 </r>
       <r>   -1.6886    1.0000 </r>
       <r>   -0.3795    1.0000 </r>
       <r>   -0.0175    1.0000 </r>
       <r>    0.3602    1.0000 </r>
       <r>    0.4442    1.0000 </r>
       <r>    0.5370    1.0000 </r>
       <r>    1.0540    1.0000 </r>
       <r>    1.6417    1.0000 </r>
       <r>    1.7776    0.9978 </r>
       <r>    5.7677    0.0000 </r>
       <r>    6.0836    0.0000 </r>
       <r>    6.7418    0.0000 </r>
       <r>    7.3915    0.0000 </r>
       <r>    7.5928    0.0000 </r>
       <r>    7.6939    0.0000 </r>
       <r>    9.3185    0.0000 </r>
       <r>    9.6193    0.0000 </r>
       <r>    9.7386    0.0000 </r>
       <r>    9.9376    0.0000 </r>
       <r>   10.5014    0.0000 </r>
       <r>   10.9309    0.0000 </r>
       <r>   11.1453    0.0000 </r>
       <r>   11.4617    0.0000 </r>
       <r>   11.5267    0.0000 </r>
       <r>   11.6443    0.0000 </r>
       <r>   13.0243    0.0000 </r>
       <r>   13.2194    0.0000 </r>
       <r>   13.6012    0.0000 </r>
       <r>   14.1051    0.0000 </r>
       <r>   14.2237    0.0000 </r>
       <r>   14.3803    0.0000 </r>
       <r>   14.4614    0.0000 </r>
       <r>   14.8117    0.0000 </r>
       <r>   15.0236    0.0000 </r>
       <r>   15.1393    0.0000 </r>
      </set>
      <set comment="kpoint 1260">
       <r>  -11.9847    1.0000 </r>
       <r>  -11.9117    1.0000 </r>
       <r>   -8.5270    1.0000 </r>
       <r>   -8.4678    1.0000 </r>
       <r>   -5.9147    1.0000 </r>
       <r>   -5.8601    1.0000 </r>
       <r>   -4.6960    1.0000 </r>
       <r>   -4.5483    1.0000 </r>
       <r>   -4.4024    1.0000 </r>
       <r>   -4.1843    1.0000 </r>
       <r>   -2.2131    1.0000 </r>
       <r>   -2.1848    1.0000 </r>
       <r>   -1.9908    1.0000 </r>
       <r>   -1.8422    1.0000 </r>
       <r>   -0.1219    1.0000 </r>
       <r>    0.0088    1.0000 </r>
       <r>    0.4356    1.0000 </r>
       <r>    0.4654    1.0000 </r>
       <r>    0.5812    1.0000 </r>
       <r>    0.7439    1.0000 </r>
       <r>    1.6640    1.0000 </r>
       <r>    1.7114    1.0000 </r>
       <r>    5.9038    0.0000 </r>
       <r>    6.0018    0.0000 </r>
       <r>    6.9793    0.0000 </r>
       <r>    7.3082    0.0000 </r>
       <r>    7.4546    0.0000 </r>
       <r>    7.5168    0.0000 </r>
       <r>    9.5047    0.0000 </r>
       <r>    9.6413    0.0000 </r>
       <r>    9.8777    0.0000 </r>
       <r>    9.9678    0.0000 </r>
       <r>   10.4944    0.0000 </r>
       <r>   10.6812    0.0000 </r>
       <r>   11.2848    0.0000 </r>
       <r>   11.4502    0.0000 </r>
       <r>   11.4839    0.0000 </r>
       <r>   11.5133    0.0000 </r>
       <r>   13.1283    0.0000 </r>
       <r>   13.1792    0.0000 </r>
       <r>   13.9075    0.0000 </r>
       <r>   14.1695    0.0000 </r>
       <r>   14.2464    0.0000 </r>
       <r>   14.2927    0.0000 </r>
       <r>   14.6842    0.0000 </r>
       <r>   14.7650    0.0000 </r>
       <r>   14.8299    0.0000 </r>
       <r>   14.9499    0.0000 </r>
      </set>
     </set>
    </set>
   </array>
  </eigenvalues>
  <separator name="orbital magnetization" >
   <v name="MAGDIPOLOUT">      0.00000000      0.00000000      0.00000000</v>
  </separator>
  <dos>
   <i name="efermi">      1.87855377 </i>
   <total>
    <array>
     <dimension dim="1">gridpoints</dimension>
     <dimension dim="2">spin</dimension>
     <field>energy</field>
     <field>total</field>
     <field>integrated</field>
     <set>
      <set comment="spin 1">
       <r>   -14.2000     0.0000     0.0000 </r>
       <r>   -14.0924     0.0000     0.0000 </r>
       <r>   -13.9848     0.0000     0.0000 </r>
       <r>   -13.8773     0.0000     0.0000 </r>
       <r>   -13.7697     0.0000     0.0000 </r>
       <r>   -13.6622     0.0000     0.0000 </r>
       <r>   -13.5546     0.0000     0.0000 </r>
       <r>   -13.4471     0.0000     0.0000 </r>
       <r>   -13.3395     0.0000     0.0000 </r>
       <r>   -13.2320     0.0000     0.0000 </r>
       <r>   -13.1244     0.0000     0.0000 </r>
       <r>   -13.0169     0.0000     0.0000 </r>
       <r>   -12.9093     0.0000     0.0000 </r>
       <r>   -12.8018     0.0019     0.0002 </r>
       <r>   -12.6942     0.4066     0.0439 </r>
       <r>   -12.5867     2.2495     0.2859 </r>
       <r>   -12.4791     3.5084     0.6632 </r>
       <r>   -12.3715     4.3405     1.1301 </r>
       <r>   -12.2640     3.5753     1.5146 </r>
       <r>   -12.1564     2.8738     1.8237 </r>
       <r>   -12.0489     2.6346     2.1070 </r>
       <r>   -11.9413     2.5881     2.3854 </r>
       <r>   -11.8338     2.7436     2.6805 </r>
       <r>   -11.7262     3.3234     3.0379 </r>
       <r>   -11.6187     3.6208     3.4274 </r>
       <r>   -11.5111     3.1257     3.7635 </r>
       <r>   -11.4036     1.7286     3.9494 </r>
       <r>   -11.2960     0.4609     3.9990 </r>
       <r>   -11.1885     0.0091     4.0000 </r>
       <r>   -11.0809     0.0000     4.0000 </r>
       <r>   -10.9734     0.0000     4.0000 </r>
       <r>   -10.8658     0.0000     4.0000 </r>
       <r>   -10.7582     0.0000     4.0000 </r>
       <r>   -10.6507     0.0000     4.0000 </r>
       <r>   -10.5431     0.0000     4.0000 </r>
       <r>   -10.4356     0.0000     4.0000 </r>
       <r>   -10.3280     0.0000     4.0000 </r>
       <r>   -10.2205     0.0000     4.0000 </r>
       <r>   -10.1129     0.0000     4.0000 </r>
       <r>   -10.0054     0.0000     4.0000 </r>
       <r>    -9.8978     0.0000     4.0000 </r>
       <r>    -9.7903     0.0000     4.0000 </r>
       <r>    -9.6827     0.0000     4.0000 </r>
       <r>    -9.5752     0.0000     4.0000 </r>
       <r>    -9.4676     0.0000     4.0000 </r>
       <r>    -9.3601     0.0000     4.0000 </r>
       <r>    -9.2525     0.0000     4.0000 </r>
       <r>    -9.1449     0.0000     4.0000 </r>
       <r>    -9.0374     0.0000     4.0000 </r>
       <r>    -8.9298     0.0007     4.0001 </r>
       <r>    -8.8223     0.3051     4.0329 </r>
       <r>    -8.7147     2.1755     4.2669 </r>
       <r>    -8.6072     5.4311     4.8510 </r>
       <r>    -8.4996     7.0083     5.6048 </r>
       <r>    -8.3921     6.2166     6.2734 </r>
       <r>    -8.2845     5.2968     6.8431 </r>
       <r>    -8.1770     4.8666     7.3665 </r>
       <r>    -8.0694     3.7128     7.7658 </r>
       <r>    -7.9619     1.6049     7.9384 </r>
       <r>    -7.8543     0.5340     7.9958 </r>
       <r>    -7.7468     0.0386     8.0000 </r>
       <r>    -7.6392     0.0000     8.0000 </r>
       <r>    -7.5317     0.0000     8.0000 </r>
       <r>    -7.4241     0.0000     8.0000 </r>
       <r>    -7.3165     0.0000     8.0000 </r>
       <r>    -7.2090     0.0000     8.0000 </r>
       <r>    -7.1014     0.0000     8.0000 </r>
       <r>    -6.9939     0.0043     8.0005 </r>
       <r>    -6.8863     0.1137     8.0127 </r>
       <r>    -6.7788     0.2896     8.0438 </r>
       <r>    -6.6712     0.4676     8.0941 </r>
       <r>    -6.5637     0.7277     8.1724 </r>
       <r>    -6.4561     0.9147     8.2708 </r>
       <r>    -6.3486     1.5040     8.4325 </r>
       <r>    -6.2410     2.1298     8.6616 </r>
       <r>    -6.1335     3.0713     8.9919 </r>
       <r>    -6.0259     3.9604     9.4179 </r>
       <r>    -5.9184     3.9691     9.8448 </r>
       <r>    -5.8108     4.0461    10.2800 </r>
       <r>    -5.7032     4.0739    10.7181 </r>
       <r>    -5.5957     4.0812    11.1571 </r>
       <r>    -5.4881     4.0676    11.5945 </r>
       <r>    -5.3806     4.5162    12.0803 </r>
       <r>    -5.2730     4.7674    12.5930 </r>
       <r>    -5.1655     4.3528    13.0612 </r>
       <r>    -5.0579     3.8727    13.4777 </r>
       <r>    -4.9504     3.3354    13.8364 </r>
       <r>    -4.8428     2.3775    14.0921 </r>
       <r>    -4.7353     2.4934    14.3603 </r>
       <r>    -4.6277     2.9839    14.6812 </r>
       <r>    -4.5202     3.7144    15.0807 </r>
       <r>    -4.4126     3.3153    15.4373 </r>
       <r>    -4.3051     3.1861    15.7800 </r>
       <r>    -4.1975     2.9063    16.0926 </r>
       <r>    -4.0899     2.8437    16.3984 </r>
       <r>    -3.9824     3.0343    16.7248 </r>
       <r>    -3.8748     3.0371    17.0514 </r>
       <r>    -3.7673     2.8458    17.3575 </r>
       <r>    -3.6597     3.0595    17.6865 </r>
       <r>    -3.5522     2.7438    17.9816 </r>
       <r>    -3.4446     2.7384    18.2762 </r>
       <r>    -3.3371     2.8871    18.5867 </r>
       <r>    -3.2295     2.6577    18.8725 </r>
       <r>    -3.1220     2.8021    19.1739 </r>
       <r>    -3.0144     2.9536    19.4916 </r>
       <r>    -2.9069     3.0681    19.8216 </r>
       <r>    -2.7993     2.7302    20.1152 </r>
       <r>    -2.6918     2.4456    20.3782 </r>
       <r>    -2.5842     2.6185    20.6599 </r>
       <r>    -2.4766     3.0121    20.9838 </r>
       <r>    -2.3691     3.2413    21.3324 </r>
       <r>    -2.2615     3.8257    21.7439 </r>
       <r>    -2.1540     3.2583    22.0943 </r>
       <r>    -2.0464     3.4664    22.4672 </r>
       <r>    -1.9389     4.2308    22.9222 </r>
       <r>    -1.8313     4.8068    23.4392 </r>
       <r>    -1.7238     5.7084    24.0532 </r>
       <r>    -1.6162     5.9123    24.6890 </r>
       <r>    -1.5087     6.0045    25.3349 </r>
       <r>    -1.4011     6.0286    25.9832 </r>
       <r>    -1.2936     5.7874    26.6057 </r>
       <r>    -1.1860     4.9972    27.1432 </r>
       <r>    -1.0785     5.1915    27.7015 </r>
       <r>    -0.9709     3.8248    28.1129 </r>
       <r>    -0.8634     2.6960    28.4029 </r>
       <r>    -0.7558     2.1578    28.6349 </r>
       <r>    -0.6482     3.7757    29.0410 </r>
       <r>    -0.5407     5.3109    29.6122 </r>
       <r>    -0.4331     5.9004    30.2468 </r>
       <r>    -0.3256     6.4575    30.9413 </r>
       <r>    -0.2180     6.1857    31.6066 </r>
       <r>    -0.1105     6.8865    32.3473 </r>
       <r>    -0.0029     6.9168    33.0912 </r>
       <r>     0.1046     6.2641    33.7649 </r>
       <r>     0.2122     6.8821    34.5051 </r>
       <r>     0.3197     8.6785    35.4385 </r>
       <r>     0.4273     8.5442    36.3575 </r>
       <r>     0.5348     7.9679    37.2145 </r>
       <r>     0.6424     4.1780    37.6638 </r>
       <r>     0.7499     2.8604    37.9715 </r>
       <r>     0.8575     3.2215    38.3180 </r>
       <r>     0.9651     3.3164    38.6746 </r>
       <r>     1.0726     3.3676    39.0368 </r>
       <r>     1.1802     4.0342    39.4707 </r>
       <r>     1.2877     3.4122    39.8377 </r>
       <r>     1.3953     3.7575    40.2419 </r>
       <r>     1.5028     4.1142    40.6844 </r>
       <r>     1.6104     3.8782    41.1015 </r>
       <r>     1.7179     3.4605    41.4737 </r>
       <r>     1.8255     3.4060    41.8400 </r>
       <r>     1.9330     2.9085    42.1528 </r>
       <r>     2.0406     2.4479    42.4161 </r>
       <r>     2.1481     2.5873    42.6943 </r>
       <r>     2.2557     2.4169    42.9543 </r>
       <r>     2.3632     1.8867    43.1572 </r>
       <r>     2.4708     1.1268    43.2784 </r>
       <r>     2.5784     0.9345    43.3789 </r>
       <r>     2.6859     0.8089    43.4659 </r>
       <r>     2.7935     0.6015    43.5306 </r>
       <r>     2.9010     0.4478    43.5787 </r>
       <r>     3.0086     0.5745    43.6405 </r>
       <r>     3.1161     0.5569    43.7004 </r>
       <r>     3.2237     0.4401    43.7478 </r>
       <r>     3.3312     0.3558    43.7860 </r>
       <r>     3.4388     0.3929    43.8283 </r>
       <r>     3.5463     0.4417    43.8758 </r>
       <r>     3.6539     0.2756    43.9054 </r>
       <r>     3.7614     0.2790    43.9354 </r>
       <r>     3.8690     0.3211    43.9700 </r>
       <r>     3.9765     0.2061    43.9921 </r>
       <r>     4.0841     0.0705    43.9997 </r>
       <r>     4.1917     0.0042    44.0002 </r>
       <r>     4.2992     0.0926    44.0101 </r>
       <r>     4.4068     0.2718    44.0394 </r>
       <r>     4.5143     0.3987    44.0822 </r>
       <r>     4.6219     0.5813    44.1448 </r>
       <r>     4.7294     0.7426    44.2246 </r>
       <r>     4.8370     0.8448    44.3155 </r>
       <r>     4.9445     0.8989    44.4122 </r>
       <r>     5.0521     1.0133    44.5212 </r>
       <r>     5.1596     1.1833    44.6484 </r>
       <r>     5.2672     1.4407    44.8034 </r>
       <r>     5.3747     1.8135    44.9984 </r>
       <r>     5.4823     2.2575    45.2412 </r>
       <r>     5.5898     2.6938    45.5310 </r>
       <r>     5.6974     2.9814    45.8516 </r>
       <r>     5.8049     3.4556    46.2233 </r>
       <r>     5.9125     3.7975    46.6317 </r>
       <r>     6.0201     4.2135    47.0849 </r>
       <r>     6.1276     4.6668    47.5868 </r>
       <r>     6.2352     4.4256    48.0628 </r>
       <r>     6.3427     4.1371    48.5078 </r>
       <r>     6.4503     4.2410    48.9639 </r>
       <r>     6.5578     4.3251    49.4291 </r>
       <r>     6.6654     3.8263    49.8406 </r>
       <r>     6.7729     3.5000    50.2170 </r>
       <r>     6.8805     4.2276    50.6717 </r>
       <r>     6.9880     4.4377    51.1490 </r>
       <r>     7.0956     4.9722    51.6838 </r>
       <r>     7.2031     5.0738    52.2295 </r>
       <r>     7.3107     4.9592    52.7629 </r>
       <r>     7.4182     4.4417    53.2406 </r>
       <r>     7.5258     4.4831    53.7228 </r>
       <r>     7.6334     3.9523    54.1478 </r>
       <r>     7.7409     3.2195    54.4941 </r>
       <r>     7.8485     3.1402    54.8318 </r>
       <r>     7.9560     3.2748    55.1841 </r>
       <r>     8.0636     3.3361    55.5429 </r>
       <r>     8.1711     3.6495    55.9354 </r>
       <r>     8.2787     4.1116    56.3776 </r>
       <r>     8.3862     3.9968    56.8075 </r>
       <r>     8.4938     4.0295    57.2408 </r>
       <r>     8.6013     4.1061    57.6825 </r>
       <r>     8.7089     4.4678    58.1630 </r>
       <r>     8.8164     4.9242    58.6926 </r>
       <r>     8.9240     5.2415    59.2563 </r>
       <r>     9.0315     4.9260    59.7862 </r>
       <r>     9.1391     5.1282    60.3377 </r>
       <r>     9.2467     5.2034    60.8974 </r>
       <r>     9.3542     4.7324    61.4063 </r>
       <r>     9.4618     4.9001    61.9334 </r>
       <r>     9.5693     4.3811    62.4046 </r>
       <r>     9.6769     4.9656    62.9386 </r>
       <r>     9.7844     5.1737    63.4951 </r>
       <r>     9.8920     5.0123    64.0342 </r>
       <r>     9.9995     4.8426    64.5550 </r>
       <r>    10.1071     3.7846    64.9620 </r>
       <r>    10.2146     4.2937    65.4239 </r>
       <r>    10.3222     4.4414    65.9015 </r>
       <r>    10.4297     5.4909    66.4921 </r>
       <r>    10.5373     5.4553    67.0788 </r>
       <r>    10.6448     4.7552    67.5903 </r>
       <r>    10.7524     4.1352    68.0350 </r>
       <r>    10.8600     3.8015    68.4439 </r>
       <r>    10.9675     3.6672    68.8383 </r>
       <r>    11.0751     4.9774    69.3736 </r>
       <r>    11.1826     5.8389    70.0016 </r>
       <r>    11.2902     6.3088    70.6802 </r>
       <r>    11.3977     5.4885    71.2705 </r>
       <r>    11.5053     4.6122    71.7665 </r>
       <r>    11.6128     4.7227    72.2745 </r>
       <r>    11.7204     4.7480    72.7851 </r>
       <r>    11.8279     4.7823    73.2995 </r>
       <r>    11.9355     5.6044    73.9023 </r>
       <r>    12.0430     6.1058    74.5590 </r>
       <r>    12.1506     5.8035    75.1831 </r>
       <r>    12.2581     5.5059    75.7753 </r>
       <r>    12.3657     5.1412    76.3283 </r>
       <r>    12.4732     5.7884    76.9508 </r>
       <r>    12.5808     6.0697    77.6037 </r>
       <r>    12.6884     5.7049    78.2172 </r>
       <r>    12.7959     5.9145    78.8534 </r>
       <r>    12.9035     5.9845    79.4970 </r>
       <r>    13.0110     5.8217    80.1232 </r>
       <r>    13.1186     6.2998    80.8007 </r>
       <r>    13.2261     6.0073    81.4468 </r>
       <r>    13.3337     5.9596    82.0878 </r>
       <r>    13.4412     5.4115    82.6698 </r>
       <r>    13.5488     5.3898    83.2495 </r>
       <r>    13.6563     5.3248    83.8222 </r>
       <r>    13.7639     5.7019    84.4355 </r>
       <r>    13.8714     5.7143    85.0500 </r>
       <r>    13.9790     5.4369    85.6348 </r>
       <r>    14.0865     5.2597    86.2005 </r>
       <r>    14.1941     5.1331    86.7526 </r>
       <r>    14.3017     5.0828    87.2993 </r>
       <r>    14.4092     4.5818    87.7921 </r>
       <r>    14.5168     5.1122    88.3419 </r>
       <r>    14.6243     5.4123    88.9240 </r>
       <r>    14.7319     4.9141    89.4525 </r>
       <r>    14.8394     4.1743    89.9015 </r>
       <r>    14.9470     4.8114    90.4190 </r>
       <r>    15.0545     5.8897    91.0524 </r>
       <r>    15.1621     6.0963    91.7081 </r>
       <r>    15.2696     5.6886    92.3199 </r>
       <r>    15.3772     5.8958    92.9540 </r>
       <r>    15.4847     5.8509    93.5833 </r>
       <r>    15.5923     5.9440    94.2226 </r>
       <r>    15.6998     4.6553    94.7233 </r>
       <r>    15.8074     3.2954    95.0777 </r>
       <r>    15.9150     2.4234    95.3384 </r>
       <r>    16.0225     1.8451    95.5368 </r>
       <r>    16.1301     1.3650    95.6836 </r>
       <r>    16.2376     1.0093    95.7922 </r>
       <r>    16.3452     0.9316    95.8924 </r>
       <r>    16.4527     0.6956    95.9672 </r>
       <r>    16.5603     0.2878    95.9982 </r>
       <r>    16.6678     0.0170    96.0000 </r>
       <r>    16.7754     0.0001    96.0000 </r>
       <r>    16.8829     0.0000    96.0000 </r>
       <r>    16.9905     0.0000    96.0000 </r>
       <r>    17.0980     0.0000    96.0000 </r>
       <r>    17.2056     0.0000    96.0000 </r>
       <r>    17.3131     0.0000    96.0000 </r>
       <r>    17.4207     0.0000    96.0000 </r>
       <r>    17.5283     0.0000    96.0000 </r>
       <r>    17.6358     0.0000    96.0000 </r>
       <r>    17.7434     0.0000    96.0000 </r>
       <r>    17.8509     0.0000    96.0000 </r>
       <r>    17.9585     0.0000    96.0000 </r>
       <r>    18.0660     0.0000    96.0000 </r>
      </set>
     </set>
    </array>
   </total>
  </dos>
 </calculation>
 <structure name="finalpos" >
  <crystal>
   <varray name="basis" >
    <v>       5.69700000       0.00000000       0.00000000 </v>
    <v>       0.00000000       4.04790000       0.00000000 </v>
    <v>       0.00000000       0.00000000       6.20420000 </v>
   </varray>
   <i name="volume">    143.07435078 </i>
   <varray name="rec_basis" >
    <v>       0.17553098       0.00000000       0.00000000 </v>
    <v>       0.00000000       0.24704168       0.00000000 </v>
    <v>       0.00000000       0.00000000       0.16118114 </v>
   </varray>
  </crystal>
  <varray name="positions" >
   <v>       0.52123000       0.50000000       0.63796000 </v>
   <v>       0.47877000       0.50000000       0.36204000 </v>
   <v>       0.97877000       0.50000000       0.63796000 </v>
   <v>       0.02123000       0.50000000       0.36204000 </v>
   <v>       0.60090000       0.50000000       0.89991000 </v>
   <v>       0.39910000       0.50000000       0.10009000 </v>
   <v>       0.89910000       0.50000000       0.89991000 </v>
   <v>       0.10090000       0.50000000       0.10009000 </v>
   <v>       0.75000000       0.79171000       0.72973000 </v>
   <v>       0.25000000       0.20829000       0.27027000 </v>
   <v>       0.75000000       0.20829000       0.72973000 </v>
   <v>       0.25000000       0.79171000       0.27027000 </v>
   <v>       0.25000000       0.50000000       0.52367000 </v>
   <v>       0.75000000       0.50000000       0.47633000 </v>
  </varray>
 </structure>
</modeling>
