       N       E                     dE             d eps       ncg     rms          rms(c)
DAV:   1     0.759613201601E+01    0.75961E+01   -0.34234E+02  2880   0.349E+01
DAV:   2     0.682309820764E-01   -0.75279E+01   -0.75039E+01  5760   0.552E+00
DAV:   3    -0.559463291950E-01   -0.12418E+00   -0.10527E+00  2880   0.125E+00
DAV:   4    -0.582468130465E-01   -0.23005E-02   -0.22624E-02  3312   0.148E-01
DAV:   5    -0.582717748010E-01   -0.24962E-04   -0.24956E-04  4176   0.167E-02    0.740E-03
DAV:   6    -0.582721010201E-01   -0.32622E-06   -0.22519E-06  3840   0.179E-03
   1 F= -.58272101E-01 E0= -.31771431E-01  d E =-.530013E-01
