 vasp.6.4.3 19Mar24 (build May 31 2024 16:31:43) complex                        
  
 executed on             LinuxIFC date 2024.10.29  14:13:09
 running   24 mpi-ranks, with    1 threads/rank, on    1 nodes
 distrk:  each k-point on   24 cores,    1 groups
 distr:  one band on NCORE=   1 cores,   24 groups


--------------------------------------------------------------------------------------------------------


 INCAR:
   SYSTEM = Kpoints
   ISTART = 0
   ICHARG = 2
   PREC = Accurate
   ENCUT = 450
   LCHARG = .FALSE.
   LWAVE = .FALSE.
   ALGO = Normal
   NELM = 100
   EDIFF = 1E-6
   EDIFFG = -1E-3
   SIGMA = 0.05
   ISMEAR = 0
   ISPIN = 1
   NSW = 0
   IBRION = -1
   POTIM = .5
   ISIF = 2
   GGA = PE

 POTCAR:    PAW_PBE B 06Sep2000                   
 POTCAR:    PAW_PBE B 06Sep2000                   
   SHA256 =  a32ced30f5ae56fd4d10b4325ff17eb3e4e38ee0f4288bc219fb012fddfa6e97 B/POTCAR              
   COPYR  = (c) Copyright 06Sep2000 Georg Kresse                                                    
   COPYR  = This file is part of the software VASP. Any use, copying, and all other rights are regul
   COPYR  = If you do not have a valid VASP license, you may not use, copy or distribute this file. 
   VRHFIN =B: s2p1                                                                                  
   LEXCH  = PE                                                                                      
   EATOM  =    71.1703 eV,    5.2309 Ry                                                             
                                                                                                    
   TITEL  = PAW_PBE B 06Sep2000                                                                     
   LULTRA =        F    use ultrasoft PP ?                                                          
   IUNSCR =        1    unscreen: 0-lin 1-nonlin 2-no                                               
   RPACOR =    1.200    partial core radius                                                         
   POMASS =   10.811; ZVAL   =    3.000    mass and valenz                                          
   RCORE  =    1.700    outmost cutoff radius                                                       
   RWIGS  =    1.710; RWIGS  =    0.905    wigner-seitz radius (au A)                               
   ENMAX  =  318.614; ENMIN  =  238.960 eV                                                          
   ICORE  =        2    local potential                                                             
   LCOR   =        T    correct aug charges                                                         
   LPAW   =        T    paw PP                                                                      
   EAUG   =  535.514                                                                                
   DEXC   =    0.000                                                                                
   RMAX   =    1.732    core radius for proj-oper                                                   
   RAUG   =    1.300    factor for augmentation sphere                                              
   RDEP   =    1.757    radius for radial grids                                                     
   RDEPT  =    1.436    core radius for aug-charge                                                  
                                                                                                    
   Atomic configuration                                                                             
    4 entries                                                                                       
     n  l   j            E        occ.                                                              
     1  0  0.50      -180.5896   2.0000                                                             
     2  0  0.50        -9.4431   2.0000                                                             
     2  1  0.50        -3.6068   1.0000                                                             
     3  2  1.50        -4.0817   0.0000                                                             
   Description                                                                                      
     l       E           TYP  RCUT    TYP  RCUT                                                     
     0     -9.4430752     23  1.500                                                                 
     0      0.8675899     23  1.500                                                                 
     1     -3.6067955     23  1.700                                                                 
     1      6.1086146     23  1.700                                                                 
     2     -4.0817478      7  1.700                                                                 
  local pseudopotential read in
  partial core-charges read in
  partial kinetic energy density read in
  atomic valenz-charges read in
  non local Contribution for L=           0  read in
    real space projection operators read in
  non local Contribution for L=           0  read in
    real space projection operators read in
  non local Contribution for L=           1  read in
    real space projection operators read in
  non local Contribution for L=           1  read in
    real space projection operators read in
    PAW grid and wavefunctions read in
 
   number of l-projection  operators is LMAX  =           4
   number of lm-projection operators is LMMAX =           8
 
  PAW_PBE B 06Sep2000                   :
 energy of atom  1       EATOM=  -71.1703
 kinetic energy error for atom=    0.0015 (will be added to EATOM!!)
 
 
 POSCAR: o-B14
  positions in direct lattice
  No initial velocities read in


 exchange-correlation table for PE
   RHO(1)=    0.500       N(1)  =     2000
   RHO(2)=  100.500       N(2)  =     4000
 


--------------------------------------------------------------------------------------------------------


 ion  position               nearest neighbor table
   1  0.521  0.500  0.638-  14 1.64   5 1.69  13 1.70   2 1.73   9 1.85  11 1.85
   2  0.479  0.500  0.362-  13 1.64   6 1.69  14 1.70   1 1.73  10 1.85  12 1.85
   3  0.979  0.500  0.638-  14 1.64   7 1.69  13 1.70   4 1.73   9 1.85  11 1.85
   4  0.021  0.500  0.362-  13 1.64   8 1.69  14 1.70   3 1.73  10 1.85  12 1.85
   5  0.601  0.500  0.900-   1 1.69   6 1.69   7 1.70   9 1.80  11 1.80
   6  0.399  0.500  0.100-   2 1.69   5 1.69   8 1.70  10 1.80  12 1.80
   7  0.899  0.500  0.900-   3 1.69   8 1.69   5 1.70   9 1.80  11 1.80
   8  0.101  0.500  0.100-   4 1.69   7 1.69   6 1.70  10 1.80  12 1.80
   9  0.750  0.792  0.730-  11 1.69   7 1.80   5 1.80   3 1.85   1 1.85  14 1.97
  10  0.250  0.208  0.270-  12 1.69   8 1.80   6 1.80   4 1.85   2 1.85  13 1.97
  11  0.750  0.208  0.730-   9 1.69   7 1.80   5 1.80   3 1.85   1 1.85  14 1.97
  12  0.250  0.792  0.270-  10 1.69   8 1.80   6 1.80   4 1.85   2 1.85  13 1.97
  13  0.250  0.500  0.524-   2 1.64   4 1.64   3 1.70   1 1.70  10 1.97  12 1.97
  14  0.750  0.500  0.476-   1 1.64   3 1.64   2 1.70   4 1.70   9 1.97  11 1.97
 
  LATTYP: Found a simple orthorhombic cell.
 ALAT       =     4.0479000000
 B/A-ratio  =     1.4073964278
 C/A-ratio  =     1.5326959658
  
  Lattice vectors:
  
 A1 = (   0.0000000000,  -4.0479000000,   0.0000000000)
 A2 = (   5.6970000000,   0.0000000000,   0.0000000000)
 A3 = (   0.0000000000,   0.0000000000,   6.2042000000)


Analysis of symmetry for initial positions (statically):
=====================================================================
 Subroutine PRICEL returns:
 Original cell was already a primitive cell.
 

 Routine SETGRP: Setting up the symmetry group for a 
 simple orthorhombic supercell.


 Subroutine GETGRP returns: Found  8 space group operations
 (whereof  4 operations were pure point group operations)
 out of a pool of  8 trial point group operations.


The static configuration has the point symmetry C_2h.
 The point group associated with its full space group is D_2h.


Analysis of symmetry for dynamics (positions and initial velocities):
=====================================================================
 Subroutine PRICEL returns:
 Original cell was already a primitive cell.
 

 Routine SETGRP: Setting up the symmetry group for a 
 simple orthorhombic supercell.


 Subroutine GETGRP returns: Found  8 space group operations
 (whereof  4 operations were pure point group operations)
 out of a pool of  8 trial point group operations.


The dynamic configuration has the point symmetry C_2h.
 The point group associated with its full space group is D_2h.


 Subroutine INISYM returns: Found  8 space group operations
 (whereof  4 operations are pure point group operations),
 and found     1 'primitive' translations


----------------------------------------------------------------------------------------

                                     Primitive cell                                     

  volume of cell :     143.0744

  direct lattice vectors                    reciprocal lattice vectors
     5.697000000  0.000000000  0.000000000     0.175530981  0.000000000  0.000000000
     0.000000000  4.047900000  0.000000000     0.000000000  0.247041676  0.000000000
     0.000000000  0.000000000  6.204200000     0.000000000  0.000000000  0.161181135

  length of vectors
     5.697000000  4.047900000  6.204200000     0.175530981  0.247041676  0.161181135

  position of ions in fractional coordinates (direct lattice)
     0.521230000  0.500000000  0.637960000
     0.478770000  0.500000000  0.362040000
     0.978770000  0.500000000  0.637960000
     0.021230000  0.500000000  0.362040000
     0.600900000  0.500000000  0.899910000
     0.399100000  0.500000000  0.100090000
     0.899100000  0.500000000  0.899910000
     0.100900000  0.500000000  0.100090000
     0.750000000  0.791710000  0.729730000
     0.250000000  0.208290000  0.270270000
     0.750000000  0.208290000  0.729730000
     0.250000000  0.791710000  0.270270000
     0.250000000  0.500000000  0.523670000
     0.750000000  0.500000000  0.476330000

  ion indices of the primitive-cell ions
   primitive index   ion index
                 1           1
                 2           2
                 3           3
                 4           4
                 5           5
                 6           6
                 7           7
                 8           8
                 9           9
                10          10
                11          11
                12          12
                13          13
                14          14

----------------------------------------------------------------------------------------

 
 
 KPOINTS: k-points                                

Automatic generation of k-mesh.
 Grid dimensions read from file:
 generate k-points for:    3    4    3

 Generating k-lattice:

  Cartesian coordinates                     Fractional coordinates (reciprocal lattice)
     0.058510327  0.000000000  0.000000000     0.333333333  0.000000000  0.000000000
     0.000000000  0.061760419  0.000000000     0.000000000  0.250000000  0.000000000
     0.000000000  0.000000000  0.053727045     0.000000000  0.000000000  0.333333333

  Length of vectors
     0.058510327  0.061760419  0.053727045

  Shift w.r.t. Gamma in fractional coordinates (k-lattice)
     0.000000000  0.500000000  0.000000000

 
 Subroutine IBZKPT returns following result:
 ===========================================
 
 Found      8 irreducible k-points:
 
 Following reciprocal coordinates:
            Coordinates               Weight
  0.000000  0.125000  0.000000      2.000000
  0.333333  0.125000  0.000000      4.000000
  0.000000  0.375000  0.000000      2.000000
  0.333333  0.375000  0.000000      4.000000
  0.000000  0.125000  0.333333      4.000000
  0.333333  0.125000  0.333333      8.000000
  0.000000  0.375000  0.333333      4.000000
  0.333333  0.375000  0.333333      8.000000
 
 Following cartesian coordinates:
            Coordinates               Weight
  0.000000  0.030880  0.000000      2.000000
  0.058510  0.030880  0.000000      4.000000
  0.000000  0.092641  0.000000      2.000000
  0.058510  0.092641  0.000000      4.000000
  0.000000  0.030880  0.053727      4.000000
  0.058510  0.030880  0.053727      8.000000
  0.000000  0.092641  0.053727      4.000000
  0.058510  0.092641  0.053727      8.000000
 


--------------------------------------------------------------------------------------------------------




 Dimension of arrays:
   k-points           NKPTS =      8   k-points in BZ     NKDIM =      8   number of bands    NBANDS=     48
   number of dos      NEDOS =    301   number of ions     NIONS =     14
   non local maximal  LDIM  =      4   non local SUM 2l+1 LMDIM =      8
   total plane-waves  NPLWV =  53760
   max r-space proj   IRMAX =      1   max aug-charges    IRDMAX=   6058
   dimension x,y,z NGX =    40 NGY =   28 NGZ =   48
   dimension x,y,z NGXF=    80 NGYF=   56 NGZF=   96
   support grid    NGXF=    80 NGYF=   56 NGZF=   96
   ions per type =              14
   NGX,Y,Z   is equivalent  to a cutoff of  11.67, 11.50, 12.86 a.u.
   NGXF,Y,Z  is equivalent  to a cutoff of  23.35, 23.00, 25.72 a.u.

 SYSTEM =  Kpoints                                 
 POSCAR =  o-B14                                   

 Startparameter for this run:
   NWRITE =      2    write-flag & timer
   PREC   = accura    normal or accurate (medium, high low for compatibility)
   ISTART =      0    job   : 0-new  1-cont  2-samecut
   ICHARG =      2    charge: 1-file 2-atom 10-const
   ISPIN  =      1    spin polarized calculation?
   LNONCOLLINEAR =      F non collinear calculations
   LSORBIT =      F    spin-orbit coupling
   INIWAV =      1    electr: 0-lowe 1-rand  2-diag
   LASPH  =      F    aspherical Exc in radial PAW
 Electronic Relaxation 1
   ENCUT  =  450.0 eV  33.07 Ry    5.75 a.u.   9.85  7.00 10.73*2*pi/ulx,y,z
   ENINI  =  450.0     initial cutoff
   ENAUG  =  535.5 eV  augmentation charge cutoff
   NELM   =    100;   NELMIN=  2; NELMDL= -5     # of ELM steps 
   EDIFF  = 0.1E-05   stopping-criterion for ELM
   LREAL  =      F    real-space projection
   NLSPLINE    = F    spline interpolate recip. space projectors
   LCOMPAT=      F    compatible to vasp.4.4
   GGA_COMPAT  = T    GGA compatible to vasp.4.4-vasp.4.6
   LMAXPAW     = -100 max onsite density
   LMAXMIX     =    2 max onsite mixed and CHGCAR
   VOSKOWN=      0    Vosko Wilk Nusair interpolation
   ROPT   =    0.00000
 Ionic relaxation
   EDIFFG = -.1E-02   stopping-criterion for IOM
   NSW    =      0    number of steps for IOM
   NBLOCK =      1;   KBLOCK =      1    inner block; outer block 
   IBRION =     -1    ionic relax: 0-MD 1-quasi-New 2-CG
   NFREE  =      0    steps in history (QN), initial steepest desc. (CG)
   ISIF   =      2    stress and relaxation
   IWAVPR =     10    prediction:  0-non 1-charg 2-wave 3-comb
   ISYM   =      2    0-nonsym 1-usesym 2-fastsym
   LCORR  =      T    Harris-Foulkes like correction to forces

   POTIM  = 0.5000    time-step for ionic-motion
   TEIN   =    0.0    initial temperature
   TEBEG  =    0.0;   TEEND  =   0.0 temperature during run
   SMASS  =  -3.00    Nose mass-parameter (am)
   estimated Nose-frequenzy (Omega)   =  0.10E-29 period in steps = 0.13E+47 mass=  -0.742E-27a.u.
   SCALEE = 1.0000    scale energy and forces
   NPACO  =    256;   APACO  = 10.0  distance and # of slots for P.C.
   PSTRESS=    0.0 pullay stress

  Mass of Ions in am
   POMASS =  10.81
  Ionic Valenz
   ZVAL   =   3.00
  Atomic Wigner-Seitz radii
   RWIGS  =  -1.00
  virtual crystal weights 
   VCA    =   1.00
   NELECT =      42.0000    total number of electrons
   NUPDOWN=      -1.0000    fix difference up-down

 DOS related values:
   EMIN   =  10.00;   EMAX   =-10.00  energy-range for DOS
   EFERMI =   0.00;   METHOD = LEGACY      
   ISMEAR =     0;   SIGMA  =   0.05  broadening in eV -4-tet -1-fermi 0-gaus

 Electronic relaxation 2 (details)
   IALGO  =     38    algorithm
   LDIAG  =      T    sub-space diagonalisation (order eigenvalues)
   LSUBROT=      F    optimize rotation matrix (better conditioning)
   TURBO    =      0    0=normal 1=particle mesh
   IRESTART =      0    0=no restart 2=restart with 2 vectors
   NREBOOT  =      0    no. of reboots
   NMIN     =      0    reboot dimension
   EREF     =   0.00    reference energy to select bands
   IMIX   =      4    mixing-type and parameters
     AMIX     =   0.40;   BMIX     =  1.00
     AMIX_MAG =   1.60;   BMIX_MAG =  1.00
     AMIN     =   0.10
     WC   =   100.;   INIMIX=   1;  MIXPRE=   1;  MAXMIX= -45

 Intra band minimization:
   WEIMIN = 0.0000     energy-eigenvalue tresh-hold
   EBREAK =  0.52E-08  absolut break condition
   DEPER  =   0.30     relativ break condition  

   TIME   =   0.40     timestep for ELM

  volume/ion in A,a.u.               =      10.22        68.97
  Fermi-wavevector in a.u.,A,eV,Ry     =   1.088021  2.056062 16.106441  1.183790
  Thomas-Fermi vector in A             =   2.224193
 
 Write flags
   LWAVE        =      F    write WAVECAR
   LDOWNSAMPLE  =      F    k-point downsampling of WAVECAR
   LCHARG       =      F    write CHGCAR
   LVTOT        =      F    write LOCPOT, total local potential
   LVHAR        =      F    write LOCPOT, Hartree potential only
   WRT_POTENTIAL= false  ! write potential to hdf5 file
   LELF         =      F    write electronic localiz. function (ELF)
   LORBIT       =      0    0 simple, 1 ext, 2 COOP (PROOUT), +10 PAW based schemes


 Dipole corrections
   LMONO      =      F    monopole corrections only (constant potential shift)
   LDIPOL     =      F    correct potential (dipole corrections)
   IDIPOL     =      0    1-x, 2-y, 3-z, 4-all directions 
   EPSILON    =  1.0000000 bulk dielectric constant
   LVACPOTAV  =      F  vacuum potentials using an averaging scheme for the charge density
   VACPOTFLAT =  0.1000000 required flatness to determine vacuum potential
 Exchange correlation treatment:
   GGA     = PE    functional components
   XC_C    = 1    coefficients multiplying the functional components
   LIBXC   =     F    Libxc                    
   VOSKOWN =     0    Vosko Wilk Nusair interpolation
   LHFCALC =     F    Hartree Fock is set to
   LHFONE  =     F    Hartree Fock one center treatment
   AEXX    =    0.0000 exact exchange contribution

 Parameters of functionals:
   PE:
     No parameter
 
 Van der Waals corrections
   IVDW    =     0    specifies the selected vdW correction

 Linear response parameters
   LEPSILON=     F    determine dielectric tensor
   LRPA    =     F    only Hartree local field effects (RPA)
   LNABLA  =     F    use nabla operator in PAW spheres
   LVEL    =     F    velocity operator in full k-point grid
   CSHIFT  =0.1000    complex shift for real part using Kramers Kronig
   OMEGAMAX=  -1.0    maximum frequency
   DEG_THRESHOLD= 0.2000000E-02 threshold for treating states as degnerate
   RTIME   =   -0.100 relaxation time in fs
  (WPLASMAI=    0.000 imaginary part of plasma frequency in eV, 0.658/RTIME)
   DFIELD  = 0.0000000 0.0000000 0.0000000 field for delta impulse in time
 
  Optional k-point grid parameters
   LKPOINTS_OPT  =     F    use optional k-point grid
   KPOINTS_OPT_MODE=     1    mode for optional k-point grid
 
 Orbital magnetization related:
   ORBITALMAG=     F  switch on orbital magnetization
   LCHIMAG   =     F  perturbation theory with respect to B field
   DQ        =  0.001000  dq finite difference perturbation B field
   LLRAUG    =     F  two centre corrections for induced B field
   LBONE     =     F  B-component reconstruction in AE one-centre
   LVGVCALC  =     T  calculate vGv susceptibility
   LVGVAPPL  =     F  apply vGv susceptibility instead of pGv for G=0

 Random number generation:
   RANDOM_GENERATOR = DEFAULT
   PCG_SEED         = not used


--------------------------------------------------------------------------------------------------------


 Static calculation
 charge density and potential will be updated during run
 non-spin polarized calculation
 Variant of blocked Davidson
 Davidson routine will perform the subspace rotation
 perform sub-space diagonalisation
    after iterative eigenvector-optimisation
 modified Broyden-mixing scheme, WC =      100.0
 initial mixing is a Kerker type mixing with AMIX =  0.4000 and BMIX =      1.0000
 Hartree-type preconditioning will be used
 using additional bands           27
 reciprocal scheme for non local part
 use partial core corrections
 calculate Harris-corrections to forces 
   (improved forces if not selfconsistent)
 use gradient corrections 
 use of overlap-Matrix (Vanderbilt PP)
 Gauss-broadening in eV      SIGMA  =   0.05


--------------------------------------------------------------------------------------------------------


  energy-cutoff  :      450.00
  volume of cell :      143.07
      direct lattice vectors                 reciprocal lattice vectors
     5.697000000  0.000000000  0.000000000     0.175530981  0.000000000  0.000000000
     0.000000000  4.047900000  0.000000000     0.000000000  0.247041676  0.000000000
     0.000000000  0.000000000  6.204200000     0.000000000  0.000000000  0.161181135

  length of vectors
     5.697000000  4.047900000  6.204200000     0.175530981  0.247041676  0.161181135


 
 k-points in units of 2pi/SCALE and weight: k-points                                
   0.00000000  0.03088021  0.00000000       0.056
   0.05851033  0.03088021  0.00000000       0.111
   0.00000000  0.09264063  0.00000000       0.056
   0.05851033  0.09264063  0.00000000       0.111
   0.00000000  0.03088021  0.05372705       0.111
   0.05851033  0.03088021  0.05372705       0.222
   0.00000000  0.09264063  0.05372705       0.111
   0.05851033  0.09264063  0.05372705       0.222
 
 k-points in reciprocal lattice and weights: k-points                                
   0.00000000  0.12500000  0.00000000       0.056
   0.33333333  0.12500000  0.00000000       0.111
   0.00000000  0.37500000  0.00000000       0.056
   0.33333333  0.37500000  0.00000000       0.111
   0.00000000  0.12500000  0.33333333       0.111
   0.33333333  0.12500000  0.33333333       0.222
   0.00000000  0.37500000  0.33333333       0.111
   0.33333333  0.37500000  0.33333333       0.222
 
 position of ions in fractional coordinates (direct lattice) 
   0.52123000  0.50000000  0.63796000
   0.47877000  0.50000000  0.36204000
   0.97877000  0.50000000  0.63796000
   0.02123000  0.50000000  0.36204000
   0.60090000  0.50000000  0.89991000
   0.39910000  0.50000000  0.10009000
   0.89910000  0.50000000  0.89991000
   0.10090000  0.50000000  0.10009000
   0.75000000  0.79171000  0.72973000
   0.25000000  0.20829000  0.27027000
   0.75000000  0.20829000  0.72973000
   0.25000000  0.79171000  0.27027000
   0.25000000  0.50000000  0.52367000
   0.75000000  0.50000000  0.47633000
 
 position of ions in cartesian coordinates  (Angst):
   2.96944731  2.02395000  3.95803143
   2.72755269  2.02395000  2.24616857
   5.57605269  2.02395000  3.95803143
   0.12094731  2.02395000  2.24616857
   3.42332730  2.02395000  5.58322162
   2.27367270  2.02395000  0.62097838
   5.12217270  2.02395000  5.58322162
   0.57482730  2.02395000  0.62097838
   4.27275000  3.20476291  4.52739087
   1.42425000  0.84313709  1.67680913
   4.27275000  0.84313709  4.52739087
   1.42425000  3.20476291  1.67680913
   1.42425000  2.02395000  3.24895341
   4.27275000  2.02395000  2.95524659
 


--------------------------------------------------------------------------------------------------------


 k-point     1 :   0.0000 0.1250 0.0000  plane waves:    3100
 k-point     2 :   0.3333 0.1250 0.0000  plane waves:    3103
 k-point     3 :   0.0000 0.3750 0.0000  plane waves:    3126
 k-point     4 :   0.3333 0.3750 0.0000  plane waves:    3107
 k-point     5 :   0.0000 0.1250 0.3333  plane waves:    3092
 k-point     6 :   0.3333 0.1250 0.3333  plane waves:    3099
 k-point     7 :   0.0000 0.3750 0.3333  plane waves:    3107
 k-point     8 :   0.3333 0.3750 0.3333  plane waves:    3110

 maximum and minimum number of plane-waves per node :      3126     3092

 maximum number of plane-waves:      3126
 maximum index in each direction: 
   IXMAX=    9   IYMAX=    6   IZMAX=   10
   IXMIN=  -10   IYMIN=   -7   IZMIN=  -11


 serial   3D FFT for wavefunctions
 parallel 3D FFT for charge:
    minimum data exchange during FFTs selected (reduces bandwidth)


 total amount of memory used by VASP MPI-rank0    37335. kBytes
=======================================================================

   base      :      30000. kBytes
   nonl-proj :       2313. kBytes
   fftplans  :        930. kBytes
   grid      :       3214. kBytes
   one-center:         43. kBytes
   wavefun   :        835. kBytes
 
     INWAV:  cpu time      0.0001: real time      0.0002
 Broyden mixing: mesh for mixing (old mesh)
   NGX = 19   NGY = 15   NGZ = 21
  (NGX  = 80   NGY  = 56   NGZ  = 96)
  gives a total of   5985 points

 initial charge density was supplied:
 charge density of overlapping atoms calculated
 number of electron      42.0000000 magnetization 
 keeping initial charge density in first step


--------------------------------------------------------------------------------------------------------


 Maximum index for augmentation-charges          646 (set IRDMAX)


--------------------------------------------------------------------------------------------------------


 First call to EWALD:  gamma=   0.339
 Maximum number of real-space cells 3x 3x 2
 Maximum number of reciprocal cells 3x 2x 3

    FEWALD:  cpu time      0.0010: real time      0.0010


--------------------------------------- Ionic step        1  -------------------------------------------




--------------------------------------- Iteration      1(   1)  ---------------------------------------


    POTLOK:  cpu time      0.0105: real time      0.0111
    SETDIJ:  cpu time      0.0014: real time      0.0015
     EDDAV:  cpu time      0.2136: real time      0.2394
       DOS:  cpu time      0.0009: real time      0.0009
    --------------------------------------------
      LOOP:  cpu time      0.2264: real time      0.2530

 eigenvalue-minimisations  :   768
 total energy-change (2. order) : 0.4860319E+02  (-0.1695153E+04)
 number of electron      42.0000000 magnetization 
 augmentation part       42.0000000 magnetization 

 Free energy of the ion-electron system (eV)
  ---------------------------------------------------
  alpha Z        PSCENC =        94.24357992
  Ewald energy   TEWEN  =      -795.76658092
  -Hartree energ DENC   =      -271.33601302
  -exchange      EXHF   =         0.00000000
  -V(xc)+E(xc)   XCENC  =        97.50108175
  PAW double counting   =       608.99811708     -597.02363782
  entropy T*S    EENTRO =        -0.00626877
  eigenvalues    EBANDS =       -84.37048748
  atomic energy  EATOM  =       996.36340036
  Solvation  Ediel_sol  =         0.00000000
  ---------------------------------------------------
  free energy    TOTEN  =        48.60319109 eV

  energy without entropy =       48.60945987  energy(sigma->0) =       48.60632548


--------------------------------------------------------------------------------------------------------




--------------------------------------- Iteration      1(   2)  ---------------------------------------


     EDDAV:  cpu time      0.2424: real time      0.2492
       DOS:  cpu time      0.0002: real time      0.0002
    --------------------------------------------
      LOOP:  cpu time      0.2426: real time      0.2495

 eigenvalue-minimisations  :  1032
 total energy-change (2. order) :-0.1413598E+03  (-0.1334053E+03)
 number of electron      42.0000000 magnetization 
 augmentation part       42.0000000 magnetization 

 Free energy of the ion-electron system (eV)
  ---------------------------------------------------
  alpha Z        PSCENC =        94.24357992
  Ewald energy   TEWEN  =      -795.76658092
  -Hartree energ DENC   =      -271.33601302
  -exchange      EXHF   =         0.00000000
  -V(xc)+E(xc)   XCENC  =        97.50108175
  PAW double counting   =       608.99811708     -597.02363782
  entropy T*S    EENTRO =        -0.01457391
  eigenvalues    EBANDS =      -225.72200819
  atomic energy  EATOM  =       996.36340036
  Solvation  Ediel_sol  =         0.00000000
  ---------------------------------------------------
  free energy    TOTEN  =       -92.75663475 eV

  energy without entropy =      -92.74206084  energy(sigma->0) =      -92.74934780


--------------------------------------------------------------------------------------------------------




--------------------------------------- Iteration      1(   3)  ---------------------------------------


     EDDAV:  cpu time      0.2638: real time      0.2825
       DOS:  cpu time      0.0002: real time      0.0002
    --------------------------------------------
      LOOP:  cpu time      0.2640: real time      0.2827

 eigenvalue-minimisations  :  1128
 total energy-change (2. order) :-0.4597738E+01  (-0.4572049E+01)
 number of electron      42.0000000 magnetization 
 augmentation part       42.0000000 magnetization 

 Free energy of the ion-electron system (eV)
  ---------------------------------------------------
  alpha Z        PSCENC =        94.24357992
  Ewald energy   TEWEN  =      -795.76658092
  -Hartree energ DENC   =      -271.33601302
  -exchange      EXHF   =         0.00000000
  -V(xc)+E(xc)   XCENC  =        97.50108175
  PAW double counting   =       608.99811708     -597.02363782
  entropy T*S    EENTRO =        -0.01655211
  eigenvalues    EBANDS =      -230.31776768
  atomic energy  EATOM  =       996.36340036
  Solvation  Ediel_sol  =         0.00000000
  ---------------------------------------------------
  free energy    TOTEN  =       -97.35437243 eV

  energy without entropy =      -97.33782033  energy(sigma->0) =      -97.34609638


--------------------------------------------------------------------------------------------------------




--------------------------------------- Iteration      1(   4)  ---------------------------------------


     EDDAV:  cpu time      0.2131: real time      0.2377
       DOS:  cpu time      0.0002: real time      0.0002
    --------------------------------------------
      LOOP:  cpu time      0.2133: real time      0.2380

 eigenvalue-minimisations  :   888
 total energy-change (2. order) :-0.2586293E-01  (-0.2586158E-01)
 number of electron      42.0000000 magnetization 
 augmentation part       42.0000000 magnetization 

 Free energy of the ion-electron system (eV)
  ---------------------------------------------------
  alpha Z        PSCENC =        94.24357992
  Ewald energy   TEWEN  =      -795.76658092
  -Hartree energ DENC   =      -271.33601302
  -exchange      EXHF   =         0.00000000
  -V(xc)+E(xc)   XCENC  =        97.50108175
  PAW double counting   =       608.99811708     -597.02363782
  entropy T*S    EENTRO =        -0.01653672
  eigenvalues    EBANDS =      -230.34364599
  atomic energy  EATOM  =       996.36340036
  Solvation  Ediel_sol  =         0.00000000
  ---------------------------------------------------
  free energy    TOTEN  =       -97.38023536 eV

  energy without entropy =      -97.36369864  energy(sigma->0) =      -97.37196700


--------------------------------------------------------------------------------------------------------




--------------------------------------- Iteration      1(   5)  ---------------------------------------


     EDDAV:  cpu time      0.2617: real time      0.2957
       DOS:  cpu time      0.0002: real time      0.0003
    CHARGE:  cpu time      0.0116: real time      0.0148
    MIXING:  cpu time      0.0007: real time      0.0013
    --------------------------------------------
      LOOP:  cpu time      0.2742: real time      0.3121

 eigenvalue-minimisations  :  1128
 total energy-change (2. order) :-0.2955214E-03  (-0.2955105E-03)
 number of electron      42.0000002 magnetization 
 augmentation part       -0.1214194 magnetization 

 Broyden mixing:
  rms(total) = 0.12419E+01    rms(broyden)= 0.12418E+01
  rms(prec ) = 0.22809E+01
  weight for this iteration     100.00

 Free energy of the ion-electron system (eV)
  ---------------------------------------------------
  alpha Z        PSCENC =        94.24357992
  Ewald energy   TEWEN  =      -795.76658092
  -Hartree energ DENC   =      -271.33601302
  -exchange      EXHF   =         0.00000000
  -V(xc)+E(xc)   XCENC  =        97.50108175
  PAW double counting   =       608.99811708     -597.02363782
  entropy T*S    EENTRO =        -0.01653667
  eigenvalues    EBANDS =      -230.34394156
  atomic energy  EATOM  =       996.36340036
  Solvation  Ediel_sol  =         0.00000000
  ---------------------------------------------------
  free energy    TOTEN  =       -97.38053088 eV

  energy without entropy =      -97.36399421  energy(sigma->0) =      -97.37226254


--------------------------------------------------------------------------------------------------------




--------------------------------------- Iteration      1(   6)  ---------------------------------------


    POTLOK:  cpu time      0.0081: real time      0.0112
    SETDIJ:  cpu time      0.0010: real time      0.0012
     EDDAV:  cpu time      0.2665: real time      0.2952
       DOS:  cpu time      0.0003: real time      0.0003
    CHARGE:  cpu time      0.0123: real time      0.0159
    MIXING:  cpu time      0.0007: real time      0.0009
    --------------------------------------------
      LOOP:  cpu time      0.2889: real time      0.3247

 eigenvalue-minimisations  :  1128
 total energy-change (2. order) : 0.5495945E+01  (-0.3929867E+00)
 number of electron      42.0000002 magnetization 
 augmentation part       -0.1460880 magnetization 

 Broyden mixing:
  rms(total) = 0.68465E+00    rms(broyden)= 0.68465E+00
  rms(prec ) = 0.11768E+01
  weight for this iteration     100.00

 eigenvalues of (default mixing * dielectric matrix)
  average eigenvalue GAMMA=   2.0800
  2.0800

 Free energy of the ion-electron system (eV)
  ---------------------------------------------------
  alpha Z        PSCENC =        94.24357992
  Ewald energy   TEWEN  =      -795.76658092
  -Hartree energ DENC   =      -306.34511628
  -exchange      EXHF   =         0.00000000
  -V(xc)+E(xc)   XCENC  =        99.14740409
  PAW double counting   =      1501.73732577    -1490.39112593
  entropy T*S    EENTRO =        -0.01826070
  eigenvalues    EBANDS =      -190.85521198
  atomic energy  EATOM  =       996.36340036
  Solvation  Ediel_sol  =         0.00000000
  ---------------------------------------------------
  free energy    TOTEN  =       -91.88458568 eV

  energy without entropy =      -91.86632498  energy(sigma->0) =      -91.87545533


--------------------------------------------------------------------------------------------------------




--------------------------------------- Iteration      1(   7)  ---------------------------------------


    POTLOK:  cpu time      0.0085: real time      0.0101
    SETDIJ:  cpu time      0.0011: real time      0.0011
     EDDAV:  cpu time      0.2714: real time      0.2899
       DOS:  cpu time      0.0002: real time      0.0002
    CHARGE:  cpu time      0.0105: real time      0.0109
    MIXING:  cpu time      0.0007: real time      0.0007
    --------------------------------------------
      LOOP:  cpu time      0.2924: real time      0.3130

 eigenvalue-minimisations  :  1152
 total energy-change (2. order) : 0.1660359E+01  (-0.3493392E+00)
 number of electron      42.0000002 magnetization 
 augmentation part       -0.1661980 magnetization 

 Broyden mixing:
  rms(total) = 0.17241E+00    rms(broyden)= 0.17240E+00
  rms(prec ) = 0.25430E+00
  weight for this iteration     100.00

 eigenvalues of (default mixing * dielectric matrix)
  average eigenvalue GAMMA=   1.7312
  1.3397  2.1226

 Free energy of the ion-electron system (eV)
  ---------------------------------------------------
  alpha Z        PSCENC =        94.24357992
  Ewald energy   TEWEN  =      -795.76658092
  -Hartree energ DENC   =      -343.44112240
  -exchange      EXHF   =         0.00000000
  -V(xc)+E(xc)   XCENC  =       101.12676612
  PAW double counting   =      3079.20539146    -3068.42388512
  entropy T*S    EENTRO =        -0.01171384
  eigenvalues    EBANDS =      -153.52006237
  atomic energy  EATOM  =       996.36340036
  Solvation  Ediel_sol  =         0.00000000
  ---------------------------------------------------
  free energy    TOTEN  =       -90.22422678 eV

  energy without entropy =      -90.21251295  energy(sigma->0) =      -90.21836986


--------------------------------------------------------------------------------------------------------




--------------------------------------- Iteration      1(   8)  ---------------------------------------


    POTLOK:  cpu time      0.0083: real time      0.0091
    SETDIJ:  cpu time      0.0011: real time      0.0011
     EDDAV:  cpu time      0.2087: real time      0.2114
       DOS:  cpu time      0.0002: real time      0.0002
    CHARGE:  cpu time      0.0100: real time      0.0109
    MIXING:  cpu time      0.0006: real time      0.0006
    --------------------------------------------
      LOOP:  cpu time      0.2290: real time      0.2333

 eigenvalue-minimisations  :   864
 total energy-change (2. order) :-0.1683764E-01  (-0.2509621E-01)
 number of electron      42.0000002 magnetization 
 augmentation part       -0.1717084 magnetization 

 Broyden mixing:
  rms(total) = 0.10032E+00    rms(broyden)= 0.10032E+00
  rms(prec ) = 0.16184E+00
  weight for this iteration     100.00

 eigenvalues of (default mixing * dielectric matrix)
  average eigenvalue GAMMA=   1.5968
  2.0535  2.0535  0.6834

 Free energy of the ion-electron system (eV)
  ---------------------------------------------------
  alpha Z        PSCENC =        94.24357992
  Ewald energy   TEWEN  =      -795.76658092
  -Hartree energ DENC   =      -345.93528322
  -exchange      EXHF   =         0.00000000
  -V(xc)+E(xc)   XCENC  =       101.33604445
  PAW double counting   =      3410.79004081    -3400.01654701
  entropy T*S    EENTRO =        -0.01382268
  eigenvalues    EBANDS =      -151.24189613
  atomic energy  EATOM  =       996.36340036
  Solvation  Ediel_sol  =         0.00000000
  ---------------------------------------------------
  free energy    TOTEN  =       -90.24106442 eV

  energy without entropy =      -90.22724175  energy(sigma->0) =      -90.23415308


--------------------------------------------------------------------------------------------------------




--------------------------------------- Iteration      1(   9)  ---------------------------------------


    POTLOK:  cpu time      0.0086: real time      0.0095
    SETDIJ:  cpu time      0.0011: real time      0.0011
     EDDAV:  cpu time      0.2612: real time      0.2681
       DOS:  cpu time      0.0002: real time      0.0002
    CHARGE:  cpu time      0.0093: real time      0.0100
    MIXING:  cpu time      0.0005: real time      0.0005
    --------------------------------------------
      LOOP:  cpu time      0.2810: real time      0.2895

 eigenvalue-minimisations  :  1128
 total energy-change (2. order) :-0.1081367E-01  (-0.6179795E-02)
 number of electron      42.0000002 magnetization 
 augmentation part       -0.1711979 magnetization 

 Broyden mixing:
  rms(total) = 0.44004E-01    rms(broyden)= 0.44000E-01
  rms(prec ) = 0.91623E-01
  weight for this iteration     100.00

 eigenvalues of (default mixing * dielectric matrix)
  average eigenvalue GAMMA=   1.5282
  2.5355  1.7516  1.2947  0.5308

 Free energy of the ion-electron system (eV)
  ---------------------------------------------------
  alpha Z        PSCENC =        94.24357992
  Ewald energy   TEWEN  =      -795.76658092
  -Hartree energ DENC   =      -347.19337254
  -exchange      EXHF   =         0.00000000
  -V(xc)+E(xc)   XCENC  =       101.45970668
  PAW double counting   =      3624.68073983    -3613.89415760
  entropy T*S    EENTRO =        -0.01230736
  eigenvalues    EBANDS =      -150.13288645
  atomic energy  EATOM  =       996.36340036
  Solvation  Ediel_sol  =         0.00000000
  ---------------------------------------------------
  free energy    TOTEN  =       -90.25187809 eV

  energy without entropy =      -90.23957073  energy(sigma->0) =      -90.24572441


--------------------------------------------------------------------------------------------------------




--------------------------------------- Iteration      1(  10)  ---------------------------------------


    POTLOK:  cpu time      0.0101: real time      0.0110
    SETDIJ:  cpu time      0.0011: real time      0.0011
     EDDAV:  cpu time      0.2268: real time      0.2291
       DOS:  cpu time      0.0003: real time      0.0003
    CHARGE:  cpu time      0.0092: real time      0.0092
    MIXING:  cpu time      0.0006: real time      0.0006
    --------------------------------------------
      LOOP:  cpu time      0.2481: real time      0.2513

 eigenvalue-minimisations  :   960
 total energy-change (2. order) :-0.4595669E-02  (-0.1111270E-02)
 number of electron      42.0000002 magnetization 
 augmentation part       -0.1710852 magnetization 

 Broyden mixing:
  rms(total) = 0.18244E-01    rms(broyden)= 0.18241E-01
  rms(prec ) = 0.36028E-01
  weight for this iteration     100.00

 eigenvalues of (default mixing * dielectric matrix)
  average eigenvalue GAMMA=   1.4631
  2.4046  2.0821  1.1898  1.1484  0.4905

 Free energy of the ion-electron system (eV)
  ---------------------------------------------------
  alpha Z        PSCENC =        94.24357992
  Ewald energy   TEWEN  =      -795.76658092
  -Hartree energ DENC   =      -348.83399031
  -exchange      EXHF   =         0.00000000
  -V(xc)+E(xc)   XCENC  =       101.57095039
  PAW double counting   =      3743.09369307    -3732.30438729
  entropy T*S    EENTRO =        -0.01398634
  eigenvalues    EBANDS =      -148.60915264
  atomic energy  EATOM  =       996.36340036
  Solvation  Ediel_sol  =         0.00000000
  ---------------------------------------------------
  free energy    TOTEN  =       -90.25647376 eV

  energy without entropy =      -90.24248741  energy(sigma->0) =      -90.24948058


--------------------------------------------------------------------------------------------------------




--------------------------------------- Iteration      1(  11)  ---------------------------------------


    POTLOK:  cpu time      0.0083: real time      0.0094
    SETDIJ:  cpu time      0.0011: real time      0.0011
     EDDAV:  cpu time      0.2120: real time      0.2146
       DOS:  cpu time      0.0002: real time      0.0002
    CHARGE:  cpu time      0.0089: real time      0.0090
    MIXING:  cpu time      0.0005: real time      0.0005
    --------------------------------------------
      LOOP:  cpu time      0.2311: real time      0.2348

 eigenvalue-minimisations  :   912
 total energy-change (2. order) :-0.1654394E-02  (-0.1619421E-03)
 number of electron      42.0000002 magnetization 
 augmentation part       -0.1708178 magnetization 

 Broyden mixing:
  rms(total) = 0.56902E-02    rms(broyden)= 0.56893E-02
  rms(prec ) = 0.12148E-01
  weight for this iteration     100.00

 eigenvalues of (default mixing * dielectric matrix)
  average eigenvalue GAMMA=   1.5987
  2.7812  2.5477  1.5231  1.3524  0.9025  0.4853

 Free energy of the ion-electron system (eV)
  ---------------------------------------------------
  alpha Z        PSCENC =        94.24357992
  Ewald energy   TEWEN  =      -795.76658092
  -Hartree energ DENC   =      -348.86661211
  -exchange      EXHF   =         0.00000000
  -V(xc)+E(xc)   XCENC  =       101.57405730
  PAW double counting   =      3725.14452377    -3714.34389355
  entropy T*S    EENTRO =        -0.01355751
  eigenvalues    EBANDS =      -148.59304541
  atomic energy  EATOM  =       996.36340036
  Solvation  Ediel_sol  =         0.00000000
  ---------------------------------------------------
  free energy    TOTEN  =       -90.25812815 eV

  energy without entropy =      -90.24457064  energy(sigma->0) =      -90.25134940


--------------------------------------------------------------------------------------------------------




--------------------------------------- Iteration      1(  12)  ---------------------------------------


    POTLOK:  cpu time      0.0080: real time      0.0089
    SETDIJ:  cpu time      0.0011: real time      0.0011
     EDDAV:  cpu time      0.2202: real time      0.2224
       DOS:  cpu time      0.0002: real time      0.0002
    CHARGE:  cpu time      0.0092: real time      0.0093
    MIXING:  cpu time      0.0006: real time      0.0006
    --------------------------------------------
      LOOP:  cpu time      0.2394: real time      0.2425

 eigenvalue-minimisations  :   936
 total energy-change (2. order) :-0.6598677E-03  (-0.4944294E-04)
 number of electron      42.0000002 magnetization 
 augmentation part       -0.1707492 magnetization 

 Broyden mixing:
  rms(total) = 0.21654E-02    rms(broyden)= 0.21654E-02
  rms(prec ) = 0.33687E-02
  weight for this iteration     100.00

 eigenvalues of (default mixing * dielectric matrix)
  average eigenvalue GAMMA=   1.5930
  2.9589  2.5183  1.6892  1.5245  0.9867  0.9867  0.4869

 Free energy of the ion-electron system (eV)
  ---------------------------------------------------
  alpha Z        PSCENC =        94.24357992
  Ewald energy   TEWEN  =      -795.76658092
  -Hartree energ DENC   =      -349.12210568
  -exchange      EXHF   =         0.00000000
  -V(xc)+E(xc)   XCENC  =       101.59209405
  PAW double counting   =      3722.75395194    -3711.94902495
  entropy T*S    EENTRO =        -0.01364731
  eigenvalues    EBANDS =      -148.36045543
  atomic energy  EATOM  =       996.36340036
  Solvation  Ediel_sol  =         0.00000000
  ---------------------------------------------------
  free energy    TOTEN  =       -90.25878802 eV

  energy without entropy =      -90.24514071  energy(sigma->0) =      -90.25196436


--------------------------------------------------------------------------------------------------------




--------------------------------------- Iteration      1(  13)  ---------------------------------------


    POTLOK:  cpu time      0.0086: real time      0.0096
    SETDIJ:  cpu time      0.0011: real time      0.0011
     EDDAV:  cpu time      0.2504: real time      0.2617
       DOS:  cpu time      0.0002: real time      0.0002
    CHARGE:  cpu time      0.0086: real time      0.0093
    MIXING:  cpu time      0.0006: real time      0.0006
    --------------------------------------------
      LOOP:  cpu time      0.2696: real time      0.2826

 eigenvalue-minimisations  :  1080
 total energy-change (2. order) :-0.3490910E-04  (-0.2984022E-05)
 number of electron      42.0000002 magnetization 
 augmentation part       -0.1707812 magnetization 

 Broyden mixing:
  rms(total) = 0.58809E-03    rms(broyden)= 0.58801E-03
  rms(prec ) = 0.92917E-03
  weight for this iteration     100.00

 eigenvalues of (default mixing * dielectric matrix)
  average eigenvalue GAMMA=   1.6403
  3.2700  2.5236  1.9470  1.5456  1.3449  1.0021  1.0021  0.4869

 Free energy of the ion-electron system (eV)
  ---------------------------------------------------
  alpha Z        PSCENC =        94.24357992
  Ewald energy   TEWEN  =      -795.76658092
  -Hartree energ DENC   =      -349.17234453
  -exchange      EXHF   =         0.00000000
  -V(xc)+E(xc)   XCENC  =       101.59517402
  PAW double counting   =      3718.19986611    -3707.39544473
  entropy T*S    EENTRO =        -0.01366306
  eigenvalues    EBANDS =      -148.31281010
  atomic energy  EATOM  =       996.36340036
  Solvation  Ediel_sol  =         0.00000000
  ---------------------------------------------------
  free energy    TOTEN  =       -90.25882293 eV

  energy without entropy =      -90.24515987  energy(sigma->0) =      -90.25199140


--------------------------------------------------------------------------------------------------------




--------------------------------------- Iteration      1(  14)  ---------------------------------------


    POTLOK:  cpu time      0.0079: real time      0.0093
    SETDIJ:  cpu time      0.0011: real time      0.0011
     EDDAV:  cpu time      0.2154: real time      0.2414
       DOS:  cpu time      0.0002: real time      0.0003
    CHARGE:  cpu time      0.0091: real time      0.0106
    MIXING:  cpu time      0.0006: real time      0.0007
    --------------------------------------------
      LOOP:  cpu time      0.2344: real time      0.2634

 eigenvalue-minimisations  :   912
 total energy-change (2. order) :-0.6766557E-05  (-0.5060373E-06)
 number of electron      42.0000002 magnetization 
 augmentation part       -0.1707878 magnetization 

 Broyden mixing:
  rms(total) = 0.17744E-03    rms(broyden)= 0.17743E-03
  rms(prec ) = 0.31861E-03
  weight for this iteration     100.00

 eigenvalues of (default mixing * dielectric matrix)
  average eigenvalue GAMMA=   1.6257
  3.3102  2.4689  2.1504  0.4869  1.6293  1.4825  0.9343  1.0843  1.0843

 Free energy of the ion-electron system (eV)
  ---------------------------------------------------
  alpha Z        PSCENC =        94.24357992
  Ewald energy   TEWEN  =      -795.76658092
  -Hartree energ DENC   =      -349.18794520
  -exchange      EXHF   =         0.00000000
  -V(xc)+E(xc)   XCENC  =       101.59614960
  PAW double counting   =      3716.64099048    -3705.83675749
  entropy T*S    EENTRO =        -0.01365518
  eigenvalues    EBANDS =      -148.29801127
  atomic energy  EATOM  =       996.36340036
  Solvation  Ediel_sol  =         0.00000000
  ---------------------------------------------------
  free energy    TOTEN  =       -90.25882969 eV

  energy without entropy =      -90.24517451  energy(sigma->0) =      -90.25200210


--------------------------------------------------------------------------------------------------------




--------------------------------------- Iteration      1(  15)  ---------------------------------------


    POTLOK:  cpu time      0.0085: real time      0.0102
    SETDIJ:  cpu time      0.0010: real time      0.0011
     EDDAV:  cpu time      0.2370: real time      0.2596
       DOS:  cpu time      0.0002: real time      0.0002
    --------------------------------------------
      LOOP:  cpu time      0.2467: real time      0.2710

 eigenvalue-minimisations  :  1008
 total energy-change (2. order) :-0.4504109E-06  (-0.3135213E-07)
 number of electron      42.0000002 magnetization 
 augmentation part       -0.1707878 magnetization 

 Free energy of the ion-electron system (eV)
  ---------------------------------------------------
  alpha Z        PSCENC =        94.24357992
  Ewald energy   TEWEN  =      -795.76658092
  -Hartree energ DENC   =      -349.19081384
  -exchange      EXHF   =         0.00000000
  -V(xc)+E(xc)   XCENC  =       101.59630014
  PAW double counting   =      3716.72695401    -3705.92286217
  entropy T*S    EENTRO =        -0.01366086
  eigenvalues    EBANDS =      -148.29514678
  atomic energy  EATOM  =       996.36340036
  Solvation  Ediel_sol  =         0.00000000
  ---------------------------------------------------
  free energy    TOTEN  =       -90.25883014 eV

  energy without entropy =      -90.24516928  energy(sigma->0) =      -90.25199971


--------------------------------------------------------------------------------------------------------




 average (electrostatic) potential at core
  the test charge radii are     0.7672
  (the norm of the test charge is              1.0000)
       1 -29.9796       2 -29.9796       3 -29.9796       4 -29.9796       5 -28.8999
       6 -28.8999       7 -28.8999       8 -28.8999       9 -29.3740      10 -29.3740
      11 -29.3740      12 -29.3740      13 -29.8952      14 -29.8952
 
 
 
 E-fermi :   1.7287     XC(G=0):  -9.4399     alpha+bet :-10.8605

 val. band max:        1.7250159737   @ k =   0.3333   0.3750   0.0000
 cond. band min:       1.7391910102   @ k =   0.0000   0.1250   0.0000
 fundamental gap:      0.0141750364
 Fermi energy:         1.7287390339

 k-point     1 :       0.0000    0.1250    0.0000
  band No.  band energies     occupation 
      1     -12.7015      2.00000
      2     -11.5503      2.00000
      3      -8.6312      2.00000
      4      -8.3799      2.00000
      5      -6.0306      2.00000
      6      -5.0053      2.00000
      7      -4.7321      2.00000
      8      -4.5930      2.00000
      9      -4.2441      2.00000
     10      -3.5482      2.00000
     11      -3.4511      2.00000
     12      -1.6502      2.00000
     13      -1.0370      2.00000
     14      -0.8235      2.00000
     15      -0.3772      2.00000
     16      -0.3744      2.00000
     17       0.1844      2.00000
     18       0.2917      2.00000
     19       0.6963      2.00000
     20       1.6725      1.88824
     21       1.7392      0.76752
     22       2.3139      0.00000
     23       5.5598      0.00000
     24       5.5864      0.00000
     25       5.7907      0.00000
     26       6.0664      0.00000
     27       7.2145      0.00000
     28       7.9346      0.00000
     29       8.0288      0.00000
     30       8.2440      0.00000
     31       8.7601      0.00000
     32       9.1398      0.00000
     33       9.1498      0.00000
     34      10.7180      0.00000
     35      11.3037      0.00000
     36      11.4729      0.00000
     37      11.6784      0.00000
     38      11.9679      0.00000
     39      12.0752      0.00000
     40      12.7768      0.00000
     41      12.7938      0.00000
     42      13.0282      0.00000
     43      13.1366      0.00000
     44      15.1969      0.00000
     45      15.4776      0.00000
     46      15.7120      0.00000
     47      15.7728      0.00000
     48      16.1353      0.00000

 k-point     2 :       0.3333    0.1250    0.0000
  band No.  band energies     occupation 
      1     -12.4672      2.00000
      2     -11.9043      2.00000
      3      -8.5107      2.00000
      4      -8.3524      2.00000
      5      -5.9848      2.00000
      6      -5.9506      2.00000
      7      -4.4523      2.00000
      8      -4.4167      2.00000
      9      -3.8006      2.00000
     10      -2.8480      2.00000
     11      -2.3050      2.00000
     12      -2.2715      2.00000
     13      -1.5311      2.00000
     14      -1.3151      2.00000
     15      -0.3975      2.00000
     16      -0.3024      2.00000
     17       0.0607      2.00000
     18       0.0933      2.00000
     19       0.6109      2.00000
     20       1.3316      2.00000
     21       1.4065      2.00000
     22       1.6414      1.98648
     23       5.9339      0.00000
     24       6.1000      0.00000
     25       6.3568      0.00000
     26       6.8566      0.00000
     27       6.9245      0.00000
     28       7.3817      0.00000
     29       8.3645      0.00000
     30       8.6764      0.00000
     31       9.0157      0.00000
     32       9.4373      0.00000
     33      10.0400      0.00000
     34      10.0421      0.00000
     35      10.4208      0.00000
     36      11.1611      0.00000
     37      11.3814      0.00000
     38      11.9007      0.00000
     39      12.4135      0.00000
     40      12.5935      0.00000
     41      12.7741      0.00000
     42      13.4703      0.00000
     43      14.6320      0.00000
     44      14.7724      0.00000
     45      15.2662      0.00000
     46      15.3158      0.00000
     47      15.5530      0.00000
     48      16.3750      0.00000

 k-point     3 :       0.0000    0.3750    0.0000
  band No.  band energies     occupation 
      1     -12.5089      2.00000
      2     -11.3787      2.00000
      3      -8.4853      2.00000
      4      -8.1943      2.00000
      5      -6.2638      2.00000
      6      -5.8156      2.00000
      7      -5.0748      2.00000
      8      -4.6883      2.00000
      9      -4.3928      2.00000
     10      -4.1355      2.00000
     11      -3.3247      2.00000
     12      -1.7103      2.00000
     13      -1.5547      2.00000
     14      -1.0027      2.00000
     15       0.2602      2.00000
     16       0.3379      2.00000
     17       0.3565      2.00000
     18       0.4394      2.00000
     19       0.7340      2.00000
     20       0.9484      2.00000
     21       1.8570      0.00029
     22       2.4291      0.00000
     23       4.4339      0.00000
     24       4.7124      0.00000
     25       6.5454      0.00000
     26       6.9556      0.00000
     27       7.2176      0.00000
     28       8.4391      0.00000
     29       8.6239      0.00000
     30       9.8734      0.00000
     31      10.0090      0.00000
     32      10.1408      0.00000
     33      10.6596      0.00000
     34      10.7779      0.00000
     35      11.1604      0.00000
     36      11.6013      0.00000
     37      12.1112      0.00000
     38      12.1976      0.00000
     39      12.5092      0.00000
     40      12.5749      0.00000
     41      12.9885      0.00000
     42      13.0392      0.00000
     43      13.3477      0.00000
     44      14.1558      0.00000
     45      15.0270      0.00000
     46      15.0560      0.00000
     47      15.6752      0.00000
     48      16.0272      0.00000

 k-point     4 :       0.3333    0.3750    0.0000
  band No.  band energies     occupation 
      1     -12.2790      2.00000
      2     -11.7266      2.00000
      3      -8.3595      2.00000
      4      -8.1835      2.00000
      5      -6.0135      2.00000
      6      -5.7157      2.00000
      7      -5.6644      2.00000
      8      -5.4045      2.00000
      9      -4.3297      2.00000
     10      -2.6565      2.00000
     11      -2.1840      2.00000
     12      -2.0608      2.00000
     13      -1.5036      2.00000
     14      -1.4630      2.00000
     15      -0.2987      2.00000
     16      -0.1963      2.00000
     17      -0.0456      2.00000
     18       0.0577      2.00000
     19       0.6803      2.00000
     20       1.2993      2.00000
     21       1.7008      1.56991
     22       1.7250      1.08387
     23       5.3280      0.00000
     24       5.9989      0.00000
     25       6.5563      0.00000
     26       7.2148      0.00000
     27       7.3349      0.00000
     28       8.2538      0.00000
     29       9.1030      0.00000
     30       9.2062      0.00000
     31       9.4937      0.00000
     32      10.0069      0.00000
     33      10.4435      0.00000
     34      10.6902      0.00000
     35      11.5690      0.00000
     36      11.5837      0.00000
     37      12.0503      0.00000
     38      12.1969      0.00000
     39      12.3034      0.00000
     40      12.5903      0.00000
     41      12.7708      0.00000
     42      13.1896      0.00000
     43      13.7246      0.00000
     44      14.4304      0.00000
     45      14.4564      0.00000
     46      15.0067      0.00000
     47      15.0522      0.00000
     48      15.6561      0.00000

 k-point     5 :       0.0000    0.1250    0.3333
  band No.  band energies     occupation 
      1     -12.6267      2.00000
      2     -11.6850      2.00000
      3      -8.5931      2.00000
      4      -8.1431      2.00000
      5      -6.7093      2.00000
      6      -5.6362      2.00000
      7      -4.5582      2.00000
      8      -3.7078      2.00000
      9      -3.7013      2.00000
     10      -3.3809      2.00000
     11      -2.6451      2.00000
     12      -1.6048      2.00000
     13      -1.3824      2.00000
     14      -1.2923      2.00000
     15      -1.1553      2.00000
     16      -0.4619      2.00000
     17      -0.1280      2.00000
     18       0.3240      2.00000
     19       0.3787      2.00000
     20       1.2250      2.00000
     21       1.3106      2.00000
     22       3.6320      0.00000
     23       5.2386      0.00000
     24       5.6398      0.00000
     25       5.7133      0.00000
     26       6.8281      0.00000
     27       7.6813      0.00000
     28       7.7035      0.00000
     29       8.1533      0.00000
     30       8.7954      0.00000
     31       9.0747      0.00000
     32       9.3323      0.00000
     33       9.6540      0.00000
     34      10.0444      0.00000
     35      10.5697      0.00000
     36      11.1664      0.00000
     37      11.2716      0.00000
     38      12.0391      0.00000
     39      12.2593      0.00000
     40      12.6699      0.00000
     41      13.2086      0.00000
     42      13.4450      0.00000
     43      14.1658      0.00000
     44      14.4421      0.00000
     45      14.5991      0.00000
     46      15.0817      0.00000
     47      15.6024      0.00000
     48      15.8186      0.00000

 k-point     6 :       0.3333    0.1250    0.3333
  band No.  band energies     occupation 
      1     -12.4124      2.00000
      2     -11.9370      2.00000
      3      -8.7623      2.00000
      4      -8.4064      2.00000
      5      -5.9452      2.00000
      6      -5.0821      2.00000
      7      -4.6373      2.00000
      8      -4.3094      2.00000
      9      -3.8696      2.00000
     10      -3.1727      2.00000
     11      -2.6236      2.00000
     12      -1.7038      2.00000
     13      -1.4898      2.00000
     14      -1.2804      2.00000
     15      -0.7086      2.00000
     16      -0.5811      2.00000
     17      -0.4036      2.00000
     18      -0.0946      2.00000
     19       0.3561      2.00000
     20       1.5665      2.00000
     21       1.6284      1.99548
     22       2.0361      0.00000
     23       6.0075      0.00000
     24       6.4186      0.00000
     25       6.6199      0.00000
     26       6.7239      0.00000
     27       6.9294      0.00000
     28       7.4214      0.00000
     29       8.1190      0.00000
     30       8.3959      0.00000
     31       8.7285      0.00000
     32       9.2478      0.00000
     33      10.0375      0.00000
     34      10.3846      0.00000
     35      10.9324      0.00000
     36      11.0174      0.00000
     37      11.9414      0.00000
     38      12.4658      0.00000
     39      12.5094      0.00000
     40      13.0170      0.00000
     41      13.3151      0.00000
     42      13.7550      0.00000
     43      14.0710      0.00000
     44      14.4272      0.00000
     45      14.5093      0.00000
     46      15.0447      0.00000
     47      15.4378      0.00000
     48      15.9727      0.00000

 k-point     7 :       0.0000    0.3750    0.3333
  band No.  band energies     occupation 
      1     -12.4391      2.00000
      2     -11.5033      2.00000
      3      -8.4531      2.00000
      4      -7.9769      2.00000
      5      -6.4862      2.00000
      6      -6.1156      2.00000
      7      -5.3416      2.00000
      8      -5.3215      2.00000
      9      -3.4797      2.00000
     10      -3.2332      2.00000
     11      -2.4132      2.00000
     12      -1.3749      2.00000
     13      -1.3497      2.00000
     14      -1.2585      2.00000
     15      -1.1697      2.00000
     16      -0.3989      2.00000
     17      -0.2413      2.00000
     18      -0.1285      2.00000
     19       0.4460      2.00000
     20       1.2600      2.00000
     21       1.7611      0.35975
     22       3.7367      0.00000
     23       4.6725      0.00000
     24       5.6939      0.00000
     25       5.9506      0.00000
     26       7.1103      0.00000
     27       7.6461      0.00000
     28       8.3026      0.00000
     29       9.3953      0.00000
     30       9.4894      0.00000
     31       9.6181      0.00000
     32       9.8808      0.00000
     33      10.4874      0.00000
     34      10.8208      0.00000
     35      11.0720      0.00000
     36      11.1374      0.00000
     37      11.7076      0.00000
     38      11.9435      0.00000
     39      12.2856      0.00000
     40      12.7648      0.00000
     41      12.9149      0.00000
     42      13.3276      0.00000
     43      13.4590      0.00000
     44      14.2322      0.00000
     45      14.4194      0.00000
     46      15.1499      0.00000
     47      15.3943      0.00000
     48      15.5466      0.00000

 k-point     8 :       0.3333    0.3750    0.3333
  band No.  band energies     occupation 
      1     -12.2281      2.00000
      2     -11.7569      2.00000
      3      -8.5877      2.00000
      4      -8.2357      2.00000
      5      -5.9053      2.00000
      6      -5.7065      2.00000
      7      -5.4781      2.00000
      8      -4.8105      2.00000
      9      -4.4530      2.00000
     10      -3.0070      2.00000
     11      -2.4627      2.00000
     12      -1.9253      2.00000
     13      -1.6840      2.00000
     14      -1.4196      2.00000
     15      -0.5142      2.00000
     16      -0.4137      2.00000
     17       0.0522      2.00000
     18       0.4919      2.00000
     19       0.6187      2.00000
     20       1.1844      2.00000
     21       1.5855      1.99995
     22       1.7624      0.34057
     23       5.5424      0.00000
     24       5.9783      0.00000
     25       6.8898      0.00000
     26       7.1569      0.00000
     27       8.0005      0.00000
     28       8.2469      0.00000
     29       8.5911      0.00000
     30       9.0292      0.00000
     31       9.4312      0.00000
     32       9.8834      0.00000
     33      10.3186      0.00000
     34      10.8346      0.00000
     35      11.2910      0.00000
     36      11.7686      0.00000
     37      11.8924      0.00000
     38      12.0139      0.00000
     39      12.3615      0.00000
     40      12.8737      0.00000
     41      13.0253      0.00000
     42      13.3562      0.00000
     43      13.8436      0.00000
     44      14.3330      0.00000
     45      14.7620      0.00000
     46      14.8949      0.00000
     47      15.2621      0.00000
     48      15.4591      0.00000


--------------------------------------------------------------------------------------------------------


 soft charge-density along one line, spin component           1
         0         1         2         3         4         5         6         7         8         9
 total charge-density along one line
 
 pseudopotential strength for first ion, spin component:           1
  6.446   9.815   0.000  -0.009   0.005   0.000  -0.014   0.008
  9.815  14.939   0.000  -0.013   0.008   0.000  -0.021   0.012
  0.000   0.000  -2.174  -0.000   0.000  -3.695  -0.000   0.000
 -0.009  -0.013  -0.000  -2.178  -0.001  -0.000  -3.705  -0.002
  0.005   0.008   0.000  -0.001  -2.177   0.000  -0.002  -3.703
  0.000   0.000  -3.695  -0.000   0.000  -6.081  -0.000   0.000
 -0.014  -0.021  -0.000  -3.705  -0.002  -0.000  -6.102  -0.004
  0.008   0.012   0.000  -0.002  -3.703   0.000  -0.004  -6.098
 total augmentation occupancy for first ion, spin component:           1
  3.639  -0.976  -0.000  -0.246   0.418   0.000   0.124  -0.176
 -0.976   0.286   0.000   0.160  -0.198   0.000  -0.056   0.073
  0.000   0.000   2.265   0.000   0.000  -0.540   0.000   0.000
 -0.246   0.160   0.000   3.774   0.329   0.000  -1.050  -0.121
  0.418  -0.198   0.000   0.329   3.591  -0.000  -0.121  -0.974
  0.000   0.000  -0.540  -0.000   0.000   0.133   0.000   0.000
  0.124  -0.056   0.000  -1.050  -0.121   0.000   0.302   0.043
 -0.176   0.073   0.000  -0.121  -0.974   0.000   0.043   0.275


------------------------ aborting loop because EDIFF is reached ----------------------------------------


    CHARGE:  cpu time      0.0089: real time      0.0091
    FORLOC:  cpu time      0.0010: real time      0.0010
    FORNL :  cpu time      0.0279: real time      0.0288
    STRESS:  cpu time      0.1205: real time      0.1243
    FORCOR:  cpu time      0.0082: real time      0.0089
    FORHAR:  cpu time      0.0024: real time      0.0036
    MIXING:  cpu time      0.0006: real time      0.0006
    OFIELD:  cpu time      0.0000: real time      0.0000

  FORCE on cell =-STRESS in cart. coord.  units (eV):
  Direction    XX          YY          ZZ          XY          YZ          ZX
  --------------------------------------------------------------------------------------
  Alpha Z    94.24358    94.24358    94.24358
  Ewald     -90.05465  -558.27634  -147.43815    -0.00000    -0.00000     0.00000
  Hartree   187.31433     5.28342   156.59078    -0.00000    -0.00000    -0.00000
  E(xc)    -134.92243  -135.89261  -134.88883     0.00000    -0.00000     0.00000
  Local    -494.17885   127.18515  -406.47267     0.00000    -0.00000    -0.00000
  n-local    -9.11444   -10.98188    -9.64876     0.02928    -0.01607    -0.28288
  augment     1.29156     1.33981     1.31770     0.00000    -0.00000     0.00000
  Kinetic   446.91568   477.42822   446.12660     0.08656    -0.00205     1.19251
  Fock        0.00000     0.00000     0.00000     0.00000     0.00000     0.00000
  -------------------------------------------------------------------------------------
  Total       1.49478     0.32935    -0.16976     0.00000     0.00000     0.00000
  in kB      16.73886     3.68812    -1.90102     0.00000     0.00000     0.00000
  external pressure =        6.18 kB  Pullay stress =        0.00 kB


 VOLUME and BASIS-vectors are now :
 -----------------------------------------------------------------------------
  energy-cutoff  :      450.00
  volume of cell :      143.07
      direct lattice vectors                 reciprocal lattice vectors
     5.697000000  0.000000000  0.000000000     0.175530981  0.000000000  0.000000000
     0.000000000  4.047900000  0.000000000     0.000000000  0.247041676  0.000000000
     0.000000000  0.000000000  6.204200000     0.000000000  0.000000000  0.161181135

  length of vectors
     5.697000000  4.047900000  6.204200000     0.175530981  0.247041676  0.161181135


 FORCES acting on ions
    electron-ion (+dipol)            ewald-force                    non-local-force                 convergence-correction
 -----------------------------------------------------------------------------------------------
   0.496E+02 0.412E-12 -.250E+02   -.515E+02 0.211E-14 0.284E+02   0.182E+01 -.394E-19 -.329E+01   0.516E-03 0.478E-15 0.108E-03
   -.496E+02 -.258E-12 0.250E+02   0.515E+02 0.448E-16 -.284E+02   -.182E+01 0.189E-18 0.329E+01   -.516E-03 -.198E-14 -.108E-03
   -.496E+02 -.386E-12 -.250E+02   0.515E+02 0.587E-14 0.284E+02   -.182E+01 0.439E-19 -.329E+01   -.516E-03 -.270E-15 0.108E-03
   0.496E+02 -.149E-13 0.250E+02   -.515E+02 0.181E-14 -.284E+02   0.182E+01 -.214E-18 0.329E+01   0.516E-03 -.179E-14 -.108E-03
   0.313E+02 -.186E-12 -.526E+02   -.341E+02 0.342E-14 0.571E+02   0.199E+01 0.374E-19 -.408E+01   0.315E-03 -.350E-15 -.432E-03
   -.313E+02 -.371E-12 0.526E+02   0.341E+02 0.354E-14 -.571E+02   -.199E+01 -.137E-18 0.408E+01   -.315E-03 -.860E-15 0.432E-03
   -.313E+02 -.306E-12 -.526E+02   0.341E+02 0.299E-14 0.571E+02   -.199E+01 0.125E-19 -.408E+01   -.315E-03 -.247E-15 -.432E-03
   0.313E+02 -.299E-13 0.526E+02   -.341E+02 0.353E-14 -.571E+02   0.199E+01 0.701E-19 0.408E+01   0.315E-03 -.928E-15 0.432E-03
   -.201E-13 -.558E+02 -.155E+02   -.720E-14 0.613E+02 0.166E+02   -.406E-18 -.537E+01 -.113E+01   0.699E-15 0.688E-03 0.696E-04
   -.367E-13 0.558E+02 0.155E+02   0.108E-13 -.613E+02 -.166E+02   0.129E-17 0.537E+01 0.113E+01   -.125E-13 -.688E-03 -.696E-04
   -.207E-13 0.558E+02 -.155E+02   0.393E-14 -.613E+02 0.166E+02   0.207E-17 0.537E+01 -.113E+01   0.104E-14 -.688E-03 0.696E-04
   -.365E-13 -.558E+02 0.155E+02   0.643E-14 0.613E+02 -.166E+02   0.232E-17 -.537E+01 0.113E+01   -.126E-13 0.688E-03 -.696E-04
   -.198E-13 0.258E-12 -.621E+02   0.123E-13 0.532E-14 0.649E+02   0.238E-19 -.359E-18 -.268E+01   0.198E-14 -.844E-15 -.607E-03
   -.190E-13 0.692E-12 0.621E+02   0.173E-13 0.235E-14 -.649E+02   0.174E-18 0.371E-18 0.268E+01   -.380E-14 -.868E-15 0.607E-03
 -----------------------------------------------------------------------------------------------
   -.105E-11 -.351E-12 -.220E-12   0.152E-13 0.767E-14 -.284E-13   0.548E-17 -.888E-15 -.133E-14   -.248E-13 -.684E-14 0.116E-13
 
 
 POSITION                                       TOTAL-FORCE (eV/Angst)
 -----------------------------------------------------------------------------------
      2.96945      2.02395      3.95803        -0.112345     -0.000000      0.073837
      2.72755      2.02395      2.24617         0.112345     -0.000000     -0.073837
      5.57605      2.02395      3.95803         0.112345      0.000000      0.073837
      0.12095      2.02395      2.24617        -0.112345     -0.000000     -0.073837
      3.42333      2.02395      5.58322        -0.761255      0.000000      0.340047
      2.27367      2.02395      0.62098         0.761255     -0.000000     -0.340047
      5.12217      2.02395      5.58322         0.761255     -0.000000      0.340047
      0.57483      2.02395      0.62098        -0.761255      0.000000     -0.340047
      4.27275      3.20476      4.52739         0.000000      0.108925     -0.065976
      1.42425      0.84314      1.67681         0.000000     -0.108925      0.065976
      4.27275      0.84314      4.52739         0.000000     -0.108925     -0.065976
      1.42425      3.20476      1.67681         0.000000      0.108925      0.065976
      1.42425      2.02395      3.24895         0.000000      0.000000      0.104198
      4.27275      2.02395      2.95525         0.000000      0.000000     -0.104198
 -----------------------------------------------------------------------------------
    total drift:                               -0.000000     -0.000000     -0.000000


--------------------------------------------------------------------------------------------------------



  FREE ENERGIE OF THE ION-ELECTRON SYSTEM (eV)
  ---------------------------------------------------
  free  energy   TOTEN  =       -90.25883014 eV

  energy  without entropy=      -90.24516928  energy(sigma->0) =      -90.25199971
 


--------------------------------------------------------------------------------------------------------


    POTLOK:  cpu time      0.0102: real time      0.0107


--------------------------------------------------------------------------------------------------------


     LOOP+:  cpu time      3.9664: real time      4.2365
    4ORBIT:  cpu time      0.0000: real time      0.0000

 total amount of memory used by VASP MPI-rank0    37335. kBytes
=======================================================================

   base      :      30000. kBytes
   nonl-proj :       2313. kBytes
   fftplans  :        930. kBytes
   grid      :       3214. kBytes
   one-center:         43. kBytes
   wavefun   :        835. kBytes
 
  
  
 General timing and accounting informations for this job:
 ========================================================
  
                  Total CPU time used (sec):        5.304
                            User time (sec):        4.181
                          System time (sec):        1.123
                         Elapsed time (sec):        6.389
  
                   Maximum memory used (kb):      349816.
                   Average memory used (kb):          N/A
  
                          Minor page faults:        57393
                          Major page faults:         1905
                 Voluntary context switches:         5223
