   14   14    1    1
  0.1021960E+02  0.5697000E-09  0.4047900E-09  0.6204200E-09  0.5000000E-15
  1.000000000000000E-004
  CAR 
 Kpoints                                 
     42   1260     48
 
  0.2500000E-01  0.1785714E-01  0.2777778E-01  0.7936508E-03
      1        -12.730200   1.000000
      2        -11.578791   1.000000
      3         -8.660426   1.000000
      4         -8.421413   1.000000
      5         -6.081971   1.000000
      6         -5.093694   1.000000
      7         -4.627861   1.000000
      8         -4.318191   1.000000
      9         -3.988100   1.000000
     10         -3.576902   1.000000
     11         -2.406073   1.000000
     12         -2.394781   1.000000
     13         -2.022488   1.000000
     14         -1.065869   1.000000
     15         -0.041029   1.000000
     16         -0.008149   1.000000
     17          0.137108   1.000000
     18          0.177080   1.000000
     19          0.549227   1.000000
     20          2.060205   0.000000
     21          2.112324   0.000000
     22          2.238476   0.000000
     23          5.423679   0.000000
     24          5.779788   0.000000
     25          5.827865   0.000000
     26          5.928027   0.000000
     27          6.802143   0.000000
     28          7.606526   0.000000
     29          7.776843   0.000000
     30          8.611463   0.000000
     31          8.759583   0.000000
     32          8.905884   0.000000
     33          9.049124   0.000000
     34         10.061116   0.000000
     35         11.154542   0.000000
     36         11.381890   0.000000
     37         11.712468   0.000000
     38         11.800475   0.000000
     39         11.905252   0.000000
     40         12.372027   0.000000
     41         12.835741   0.000000
     42         13.396183   0.000000
     43         13.580567   0.000000
     44         15.483630   0.000000
     45         15.574954   0.000000
     46         15.953069   0.000000
     47         16.359345   0.000000
     48         16.449893   0.000000
 
  0.7500000E-01  0.1785714E-01  0.2777778E-01  0.7936508E-03
      1        -12.719196   1.000000
      2        -11.597791   1.000000
      3         -8.655930   1.000000
      4         -8.417807   1.000000
      5         -6.060641   1.000000
      6         -5.213370   1.000000
      7         -4.687795   1.000000
      8         -4.165498   1.000000
      9         -3.970711   1.000000
     10         -3.474438   1.000000
     11         -2.423129   1.000000
     12         -2.389955   1.000000
     13         -2.043944   1.000000
     14         -1.147946   1.000000
     15         -0.041064   1.000000
     16          0.018443   1.000000
     17          0.133209   1.000000
     18          0.162420   1.000000
     19          0.524465   1.000000
     20          2.025712   0.000019
     21          2.104009   0.000000
     22          2.207685   0.000000
     23          5.446802   0.000000
     24          5.770276   0.000000
     25          5.811992   0.000000
     26          6.051232   0.000000
     27          6.778093   0.000000
     28          7.421858   0.000000
     29          7.911106   0.000000
     30          8.649124   0.000000
     31          8.846778   0.000000
     32          8.973769   0.000000
     33          9.061182   0.000000
     34         10.091891   0.000000
     35         11.172356   0.000000
     36         11.275915   0.000000
     37         11.539902   0.000000
     38         11.745729   0.000000
     39         11.963200   0.000000
     40         12.393857   0.000000
     41         12.950552   0.000000
     42         13.458340   0.000000
     43         13.597927   0.000000
     44         15.220261   0.000000
     45         15.631303   0.000000
     46         16.113378   0.000000
     47         16.229585   0.000000
     48         16.391779   0.000000
 
  0.1250000E+00  0.1785714E-01  0.2777778E-01  0.7936508E-03
      1        -12.697302   1.000000
      2        -11.634788   1.000000
      3         -8.646544   1.000000
      4         -8.411318   1.000000
      5         -6.026802   1.000000
      6         -5.378276   1.000000
      7         -4.759638   1.000000
      8         -3.972987   1.000000
      9         -3.908285   1.000000
     10         -3.300985   1.000000
     11         -2.459655   1.000000
     12         -2.380164   1.000000
     13         -2.081190   1.000000
     14         -1.303196   1.000000
     15         -0.030080   1.000000
     16          0.040880   1.000000
     17          0.092738   1.000000
     18          0.180659   1.000000
     19          0.476043   1.000000
     20          1.969399   0.005770
     21          2.077888   0.000000
     22          2.146294   0.000000
     23          5.488021   0.000000
     24          5.761475   0.000000
     25          5.841845   0.000000
     26          6.226374   0.000000
     27          6.733294   0.000000
     28          7.237794   0.000000
     29          8.016245   0.000000
     30          8.718193   0.000000
     31          8.983176   0.000000
     32          9.057628   0.000000
     33          9.138472   0.000000
     34         10.156197   0.000000
     35         11.076309   0.000000
     36         11.209113   0.000000
     37         11.269080   0.000000
     38         11.694338   0.000000
     39         12.071828   0.000000
     40         12.438191   0.000000
     41         13.097356   0.000000
     42         13.284905   0.000000
     43         13.874848   0.000000
     44         14.945989   0.000000
     45         15.728781   0.000000
     46         15.944464   0.000000
     47         16.250479   0.000000
     48         16.456230   0.000000
 
  0.1750000E+00  0.1785714E-01  0.2777778E-01  0.7936508E-03
      1        -12.664745   1.000000
      2        -11.687879   1.000000
      3         -8.631704   1.000000
      4         -8.403255   1.000000
      5         -5.997547   1.000000
      6         -5.545809   1.000000
      7         -4.801877   1.000000
      8         -3.905306   1.000000
      9         -3.678940   1.000000
     10         -3.087034   1.000000
     11         -2.518939   1.000000
     12         -2.365082   1.000000
     13         -2.125190   1.000000
     14         -1.516934   1.000000
     15         -0.038055   1.000000
     16         -0.002659   1.000000
     17          0.122503   1.000000
     18          0.199196   1.000000
     19          0.417134   1.000000
     20          1.899369   0.292824
     21          2.030209   0.000011
     22          2.057364   0.000000
     23          5.538253   0.000000
     24          5.745583   0.000000
     25          5.938805   0.000000
     26          6.440584   0.000000
     27          6.673704   0.000000
     28          7.069439   0.000000
     29          8.103110   0.000000
     30          8.805180   0.000000
     31          9.025488   0.000000
     32          9.196814   0.000000
     33          9.333082   0.000000
     34         10.261831   0.000000
     35         10.804454   0.000000
     36         10.965249   0.000000
     37         11.262310   0.000000
     38         11.691758   0.000000
     39         12.207119   0.000000
     40         12.517495   0.000000
     41         13.044785   0.000000
     42         13.166168   0.000000
     43         14.206500   0.000000
     44         14.770165   0.000000
     45         15.656099   0.000000
     46         15.854403   0.000000
     47         16.270027   0.000000
     48         16.526063   0.000000
 
  0.2250000E+00  0.1785714E-01  0.2777778E-01  0.7936508E-03
      1        -12.621892   1.000000
      2        -11.754527   1.000000
      3         -8.611114   1.000000
      4         -8.395414   1.000000
      5         -5.992542   1.000000
      6         -5.698951   1.000000
      7         -4.782575   1.000000
      8         -3.843500   1.000000
      9         -3.421559   1.000000
     10         -2.853718   1.000000
     11         -2.601116   1.000000
     12         -2.344420   1.000000
     13         -2.167968   1.000000
     14         -1.771376   1.000000
     15         -0.155807   1.000000
     16          0.027304   1.000000
     17          0.157416   1.000000
     18          0.179086   1.000000
     19          0.400814   1.000000
     20          1.822382   0.948698
     21          1.929713   0.080245
     22          1.977393   0.002961
     23          5.585535   0.000000
     24          5.736407   0.000000
     25          6.097189   0.000000
     26          6.606662   0.000000
     27          6.684692   0.000000
     28          6.926025   0.000000
     29          8.179679   0.000000
     30          8.881549   0.000000
     31          8.997948   0.000000
     32          9.399079   0.000000
     33          9.571702   0.000000
     34         10.412048   0.000000
     35         10.485828   0.000000
     36         10.682362   0.000000
     37         11.324026   0.000000
     38         11.755421   0.000000
     39         12.318800   0.000000
     40         12.664816   0.000000
     41         12.766508   0.000000
     42         13.071607   0.000000
     43         14.546303   0.000000
     44         14.766685   0.000000
     45         15.367212   0.000000
     46         15.982524   0.000000
     47         16.139200   0.000000
     48         16.369575   0.000000
 
  0.2750000E+00  0.1785714E-01  0.2777778E-01  0.7936508E-03
      1        -12.569234   1.000000
      2        -11.831803   1.000000
      3         -8.585018   1.000000
      4         -8.389902   1.000000
      5         -6.020067   1.000000
      6         -5.830452   1.000000
      7         -4.687207   1.000000
      8         -3.769198   1.000000
      9         -3.172220   1.000000
     10         -2.719376   1.000000
     11         -2.599932   1.000000
     12         -2.322045   1.000000
     13         -2.206024   1.000000
     14         -2.039866   1.000000
     15         -0.297359   1.000000
     16          0.015866   1.000000
     17          0.093578   1.000000
     18          0.226591   1.000000
     19          0.455075   1.000000
     20          1.744355   0.999938
     21          1.788884   0.995058
     22          1.904564   0.244437
     23          5.619048   0.000000
     24          5.742995   0.000000
     25          6.311003   0.000000
     26          6.541787   0.000000
     27          6.788668   0.000000
     28          6.972433   0.000000
     29          8.248948   0.000000
     30          8.888046   0.000000
     31          8.955986   0.000000
     32          9.615393   0.000000
     33          9.831381   0.000000
     34         10.112163   0.000000
     35         10.458525   0.000000
     36         10.666269   0.000000
     37         11.374806   0.000000
     38         11.883090   0.000000
     39         12.383427   0.000000
     40         12.461898   0.000000
     41         12.804874   0.000000
     42         12.919715   0.000000
     43         14.786456   0.000000
     44         14.960196   0.000000
     45         15.107071   0.000000
     46         15.880116   0.000000
     47         15.956812   0.000000
     48         16.169303   0.000000
 
  0.3250000E+00  0.1785714E-01  0.2777778E-01  0.7936508E-03
      1        -12.507420   1.000000
      2        -11.916666   1.000000
      3         -8.554399   1.000000
      4         -8.388881   1.000000
      5         -6.068743   1.000000
      6         -5.939029   1.000000
      7         -4.521695   1.000000
      8         -3.682106   1.000000
      9         -2.966212   1.000000
     10         -2.833953   1.000000
     11         -2.400353   1.000000
     12         -2.368687   1.000000
     13         -2.239034   1.000000
     14         -2.186756   1.000000
     15         -0.450568   1.000000
     16         -0.139163   1.000000
     17          0.132623   1.000000
     18          0.269972   1.000000
     19          0.546708   1.000000
     20          1.621214   1.000000
     21          1.683267   1.000000
     22          1.827675   0.930917
     23          5.640515   0.000000
     24          5.759408   0.000000
     25          6.487906   0.000000
     26          6.573475   0.000000
     27          6.692003   0.000000
     28          7.263134   0.000000
     29          8.312244   0.000000
     30          8.811556   0.000000
     31          8.860947   0.000000
     32          9.732417   0.000000
     33          9.840389   0.000000
     34         10.093670   0.000000
     35         10.389481   0.000000
     36         10.964180   0.000000
     37         11.389732   0.000000
     38         12.061904   0.000000
     39         12.144373   0.000000
     40         12.372781   0.000000
     41         12.582902   0.000000
     42         13.139909   0.000000
     43         14.747465   0.000000
     44         15.008309   0.000000
     45         15.293346   0.000000
     46         15.491234   0.000000
     47         15.615449   0.000000
     48         16.286580   0.000000
 
  0.3750000E+00  0.1785714E-01  0.2777778E-01  0.7936508E-03
      1        -12.437266   1.000000
      2        -12.006139   1.000000
      3         -8.520937   1.000000
      4         -8.394226   1.000000
      5         -6.117502   1.000000
      6         -6.026679   1.000000
      7         -4.301695   1.000000
      8         -3.582974   1.000000
      9         -2.962936   1.000000
     10         -2.931440   1.000000
     11         -2.518199   1.000000
     12         -2.294181   1.000000
     13         -2.179437   1.000000
     14         -2.094339   1.000000
     15         -0.598964   1.000000
     16         -0.323444   1.000000
     17          0.183769   1.000000
     18          0.300003   1.000000
     19          0.661275   1.000000
     20          1.450691   1.000000
     21          1.631591   1.000000
     22          1.752444   0.999847
     23          5.661181   0.000000
     24          5.769432   0.000000
     25          6.453585   0.000000
     26          6.609547   0.000000
     27          6.876878   0.000000
     28          7.575839   0.000000
     29          8.371899   0.000000
     30          8.616588   0.000000
     31          8.741721   0.000000
     32          9.354019   0.000000
     33         10.068865   0.000000
     34         10.333601   0.000000
     35         10.474174   0.000000
     36         11.313315   0.000000
     37         11.371525   0.000000
     38         11.822840   0.000000
     39         12.112274   0.000000
     40         12.283341   0.000000
     41         12.558504   0.000000
     42         13.316012   0.000000
     43         14.579247   0.000000
     44         14.999526   0.000000
     45         15.101519   0.000000
     46         15.296636   0.000000
     47         15.635862   0.000000
     48         16.392076   0.000000
 
  0.4250000E+00  0.1785714E-01  0.2777778E-01  0.7936508E-03
      1        -12.359811   1.000000
      2        -12.097486   1.000000
      3         -8.486936   1.000000
      4         -8.407138   1.000000
      5         -6.149789   1.000000
      6         -6.093890   1.000000
      7         -4.042489   1.000000
      8         -3.473059   1.000000
      9         -3.158151   1.000000
     10         -3.095311   1.000000
     11         -2.472073   1.000000
     12         -2.321537   1.000000
     13         -2.054269   1.000000
     14         -1.949768   1.000000
     15         -0.711709   1.000000
     16         -0.508205   1.000000
     17          0.233486   1.000000
     18          0.311721   1.000000
     19          0.794317   1.000000
     20          1.276091   1.000000
     21          1.605075   1.000000
     22          1.685758   1.000000
     23          5.686664   0.000000
     24          5.764028   0.000000
     25          6.443579   0.000000
     26          6.542945   0.000000
     27          7.212171   0.000000
     28          7.898483   0.000000
     29          8.310698   0.000000
     30          8.431745   0.000000
     31          8.650253   0.000000
     32          8.980644   0.000000
     33         10.295428   0.000000
     34         10.528526   0.000000
     35         10.662243   0.000000
     36         11.300083   0.000000
     37         11.507579   0.000000
     38         11.719621   0.000000
     39         11.814530   0.000000
     40         12.470589   0.000000
     41         12.599741   0.000000
     42         13.314322   0.000000
     43         14.522448   0.000000
     44         14.761212   0.000000
     45         14.999639   0.000000
     46         15.030913   0.000000
     47         15.933989   0.000000
     48         16.434349   0.000000
 
  0.4750000E+00  0.1785714E-01  0.2777778E-01  0.7936508E-03
      1        -12.276296   1.000000
      2        -12.188251   1.000000
      3         -8.455012   1.000000
      4         -8.427745   1.000000
      5         -6.157476   1.000000
      6         -6.138419   1.000000
      7         -3.756627   1.000000
      8         -3.456474   1.000000
      9         -3.352693   1.000000
     10         -3.226609   1.000000
     11         -2.407875   1.000000
     12         -2.359473   1.000000
     13         -1.935717   1.000000
     14         -1.886060   1.000000
     15         -0.741455   1.000000
     16         -0.662849   1.000000
     17          0.275281   1.000000
     18          0.302949   1.000000
     19          0.943227   1.000000
     20          1.105129   1.000000
     21          1.606430   1.000000
     22          1.634857   1.000000
     23          5.715951   0.000000
     24          5.744092   0.000000
     25          6.457521   0.000000
     26          6.491786   0.000000
     27          7.568416   0.000000
     28          7.925009   0.000000
     29          8.271146   0.000000
     30          8.496296   0.000000
     31          8.566709   0.000000
     32          8.618281   0.000000
     33         10.494037   0.000000
     34         10.600047   0.000000
     35         10.904756   0.000000
     36         11.182078   0.000000
     37         11.352663   0.000000
     38         11.528467   0.000000
     39         12.105812   0.000000
     40         12.379140   0.000000
     41         12.831252   0.000000
     42         13.108811   0.000000
     43         14.581756   0.000000
     44         14.657960   0.000000
     45         14.851552   0.000000
     46         14.899688   0.000000
     47         16.190358   0.000000
     48         16.369078   0.000000
 
  0.2500000E-01  0.5357143E-01  0.2777778E-01  0.7936508E-03
      1        -12.724054   1.000000
      2        -11.573268   1.000000
      3         -8.655607   1.000000
      4         -8.415479   1.000000
      5         -6.075163   1.000000
      6         -5.084502   1.000000
      7         -4.622203   1.000000
      8         -4.345136   1.000000
      9         -4.108229   1.000000
     10         -3.570492   1.000000
     11         -2.770329   1.000000
     12         -2.224478   1.000000
     13         -1.630822   1.000000
     14         -1.064686   1.000000
     15         -0.113033   1.000000
     16         -0.086796   1.000000
     17          0.141370   1.000000
     18          0.210420   1.000000
     19          0.577254   1.000000
     20          1.975910   0.003364
     21          2.043619   0.000002
     22          2.265397   0.000000
     23          5.489758   0.000000
     24          5.731155   0.000000
     25          5.849087   0.000000
     26          5.897388   0.000000
     27          6.880548   0.000000
     28          7.685648   0.000000
     29          7.851948   0.000000
     30          8.426447   0.000000
     31          8.765944   0.000000
     32          8.986361   0.000000
     33          9.064768   0.000000
     34         10.210657   0.000000
     35         11.213132   0.000000
     36         11.362402   0.000000
     37         11.693941   0.000000
     38         11.825741   0.000000
     39         11.932397   0.000000
     40         12.445580   0.000000
     41         12.837859   0.000000
     42         13.315616   0.000000
     43         13.496208   0.000000
     44         15.481857   0.000000
     45         15.519330   0.000000
     46         15.954417   0.000000
     47         16.311870   0.000000
     48         16.334024   0.000000
 
  0.7500000E-01  0.5357143E-01  0.2777778E-01  0.7936508E-03
      1        -12.713055   1.000000
      2        -11.592265   1.000000
      3         -8.651099   1.000000
      4         -8.411907   1.000000
      5         -6.053729   1.000000
      6         -5.204996   1.000000
      7         -4.682370   1.000000
      8         -4.226697   1.000000
      9         -4.056086   1.000000
     10         -3.468256   1.000000
     11         -2.787220   1.000000
     12         -2.219321   1.000000
     13         -1.654000   1.000000
     14         -1.146724   1.000000
     15         -0.114212   1.000000
     16         -0.061346   1.000000
     17          0.150198   1.000000
     18          0.186935   1.000000
     19          0.552338   1.000000
     20          1.944641   0.033951
     21          2.032765   0.000008
     22          2.233607   0.000000
     23          5.513418   0.000000
     24          5.722209   0.000000
     25          5.850021   0.000000
     26          6.002647   0.000000
     27          6.856607   0.000000
     28          7.502877   0.000000
     29          7.983949   0.000000
     30          8.465092   0.000000
     31          8.856758   0.000000
     32          9.054275   0.000000
     33          9.079336   0.000000
     34         10.229550   0.000000
     35         11.224023   0.000000
     36         11.262110   0.000000
     37         11.520058   0.000000
     38         11.773318   0.000000
     39         11.990608   0.000000
     40         12.466706   0.000000
     41         12.953658   0.000000
     42         13.374036   0.000000
     43         13.518768   0.000000
     44         15.236772   0.000000
     45         15.570176   0.000000
     46         16.058838   0.000000
     47         16.177827   0.000000
     48         16.370906   0.000000
 
  0.1250000E+00  0.5357143E-01  0.2777778E-01  0.7936508E-03
      1        -12.691174   1.000000
      2        -11.629243   1.000000
      3         -8.641682   1.000000
      4         -8.405472   1.000000
      5         -6.019657   1.000000
      6         -5.370351   1.000000
      7         -4.754408   1.000000
      8         -4.137109   1.000000
      9         -3.891120   1.000000
     10         -3.295585   1.000000
     11         -2.820615   1.000000
     12         -2.208945   1.000000
     13         -1.696544   1.000000
     14         -1.301825   1.000000
     15         -0.104636   1.000000
     16         -0.035855   1.000000
     17          0.127251   1.000000
     18          0.188833   1.000000
     19          0.503483   1.000000
     20          1.890993   0.378941
     21          2.005305   0.000199
     22          2.170328   0.000000
     23          5.555305   0.000000
     24          5.749410   0.000000
     25          5.848511   0.000000
     26          6.171968   0.000000
     27          6.812044   0.000000
     28          7.322971   0.000000
     29          8.085981   0.000000
     30          8.536494   0.000000
     31          8.992869   0.000000
     32          9.115107   0.000000
     33          9.190880   0.000000
     34         10.268883   0.000000
     35         11.054530   0.000000
     36         11.247845   0.000000
     37         11.266268   0.000000
     38         11.730667   0.000000
     39         12.099745   0.000000
     40         12.509705   0.000000
     41         13.102732   0.000000
     42         13.202226   0.000000
     43         13.789790   0.000000
     44         14.977235   0.000000
     45         15.652054   0.000000
     46         15.934630   0.000000
     47         16.136898   0.000000
     48         16.464396   0.000000
 
  0.1750000E+00  0.5357143E-01  0.2777778E-01  0.7936508E-03
      1        -12.658636   1.000000
      2        -11.682307   1.000000
      3         -8.626809   1.000000
      4         -8.397483   1.000000
      5         -5.990061   1.000000
      6         -5.538027   1.000000
      7         -4.797006   1.000000
      8         -4.079340   1.000000
      9         -3.652699   1.000000
     10         -3.086043   1.000000
     11         -2.867073   1.000000
     12         -2.193251   1.000000
     13         -1.752429   1.000000
     14         -1.515229   1.000000
     15         -0.091911   1.000000
     16         -0.050721   1.000000
     17          0.108287   1.000000
     18          0.212441   1.000000
     19          0.441523   1.000000
     20          1.822831   0.947348
     21          1.959364   0.012479
     22          2.077079   0.000000
     23          5.605406   0.000000
     24          5.777415   0.000000
     25          5.904924   0.000000
     26          6.380430   0.000000
     27          6.752886   0.000000
     28          7.161789   0.000000
     29          8.170258   0.000000
     30          8.628061   0.000000
     31          9.053540   0.000000
     32          9.248238   0.000000
     33          9.386753   0.000000
     34         10.333251   0.000000
     35         10.784103   0.000000
     36         10.948435   0.000000
     37         11.315085   0.000000
     38         11.741127   0.000000
     39         12.237356   0.000000
     40         12.584985   0.000000
     41         12.965265   0.000000
     42         13.174280   0.000000
     43         14.101579   0.000000
     44         14.826032   0.000000
     45         15.632160   0.000000
     46         15.802322   0.000000
     47         16.131309   0.000000
     48         16.553007   0.000000
 
  0.2250000E+00  0.5357143E-01  0.2777778E-01  0.7936508E-03
      1        -12.615811   1.000000
      2        -11.748917   1.000000
      3         -8.606185   1.000000
      4         -8.389734   1.000000
      5         -5.984695   1.000000
      6         -5.691156   1.000000
      7         -4.778132   1.000000
      8         -4.018416   1.000000
      9         -3.395150   1.000000
     10         -2.962976   1.000000
     11         -2.822120   1.000000
     12         -2.172519   1.000000
     13         -1.816686   1.000000
     14         -1.767786   1.000000
     15         -0.162742   1.000000
     16         -0.053003   1.000000
     17          0.134823   1.000000
     18          0.200060   1.000000
     19          0.413651   1.000000
     20          1.747014   0.999916
     21          1.894766   0.339084
     22          1.959272   0.012562
     23          5.650010   0.000000
     24          5.784268   0.000000
     25          6.052515   0.000000
     26          6.610225   0.000000
     27          6.688247   0.000000
     28          7.033255   0.000000
     29          8.244809   0.000000
     30          8.716073   0.000000
     31          9.041018   0.000000
     32          9.444325   0.000000
     33          9.625862   0.000000
     34         10.372544   0.000000
     35         10.502478   0.000000
     36         10.699760   0.000000
     37         11.370651   0.000000
     38         11.818741   0.000000
     39         12.356267   0.000000
     40         12.668374   0.000000
     41         12.747011   0.000000
     42         13.081257   0.000000
     43         14.402131   0.000000
     44         14.867845   0.000000
     45         15.382333   0.000000
     46         15.861621   0.000000
     47         16.055574   0.000000
     48         16.417609   0.000000
 
  0.2750000E+00  0.5357143E-01  0.2777778E-01  0.7936508E-03
      1        -12.563181   1.000000
      2        -11.826154   1.000000
      3         -8.580060   1.000000
      4         -8.384334   1.000000
      5         -6.011977   1.000000
      6         -5.822560   1.000000
      7         -4.683130   1.000000
      8         -3.947701   1.000000
      9         -3.142210   1.000000
     10         -3.034547   1.000000
     11         -2.590188   1.000000
     12         -2.157208   1.000000
     13         -2.033169   1.000000
     14         -1.878683   1.000000
     15         -0.294797   1.000000
     16         -0.058933   1.000000
     17          0.119139   1.000000
     18          0.193929   1.000000
     19          0.460541   1.000000
     20          1.669972   1.000000
     21          1.792892   0.993177
     22          1.845792   0.834032
     23          5.678289   0.000000
     24          5.800883   0.000000
     25          6.263489   0.000000
     26          6.621146   0.000000
     27          6.787190   0.000000
     28          7.012189   0.000000
     29          8.312163   0.000000
     30          8.760843   0.000000
     31          8.990116   0.000000
     32          9.652827   0.000000
     33          9.878382   0.000000
     34         10.072419   0.000000
     35         10.389915   0.000000
     36         10.738498   0.000000
     37         11.411839   0.000000
     38         11.957984   0.000000
     39         12.375839   0.000000
     40         12.439249   0.000000
     41         12.830778   0.000000
     42         12.963719   0.000000
     43         14.654784   0.000000
     44         15.045090   0.000000
     45         15.149762   0.000000
     46         15.763682   0.000000
     47         15.889612   0.000000
     48         16.257213   0.000000
 
  0.3250000E+00  0.5357143E-01  0.2777778E-01  0.7936508E-03
      1        -12.501399   1.000000
      2        -11.910970   1.000000
      3         -8.549409   1.000000
      4         -8.383425   1.000000
      5         -6.060550   1.000000
      6         -5.930999   1.000000
      7         -4.517874   1.000000
      8         -3.866407   1.000000