       N       E                     dE             d eps       ncg     rms          rms(c)
DAV:   1     0.539908100935E+02    0.53991E+02   -0.17651E+04120960   0.724E+02
DAV:   2    -0.928907012533E+02   -0.14688E+03   -0.13823E+03168576   0.150E+02
DAV:   3    -0.975891836296E+02   -0.46985E+01   -0.46745E+01176376   0.241E+01
DAV:   4    -0.976164114183E+02   -0.27228E-01   -0.27226E-01149256   0.210E+00
DAV:   5    -0.976167232569E+02   -0.31184E-03   -0.31183E-03175680   0.216E-01    0.123E+01
DAV:   6    -0.922025397659E+02    0.54142E+01   -0.39484E+00176064   0.658E+00    0.678E+00
DAV:   7    -0.905527475527E+02    0.16498E+01   -0.31966E+00180696   0.583E+00    0.172E+00
