 running   24 mpi-ranks, with    1 threads/rank, on    1 nodes
 distrk:  each k-point on   24 cores,    1 groups
 distr:  one band on    1 cores,   24 groups
 vasp.6.4.3 19Mar24 (build May 31 2024 16:31:43) complex                        
  
 POSCAR found type information on POSCAR B 
 POSCAR found :  1 types and      14 ions
 Reading from existing POTCAR
 scaLAPACK will be used
 Reading from existing POTCAR
 LDA part: xc-table for (Slater+PW92), standard interpolation
 POSCAR, INCAR and KPOINTS ok, starting setup
 FFT: planning ... GRIDC
 FFT: planning ... GRID_SOFT
 FFT: planning ... GRID
 WAVECAR not read
 entering main loop
       N       E                     dE             d eps       ncg     rms          rms(c)
DAV:   1     0.471387685924E+02    0.47139E+02   -0.17022E+04120960   0.688E+02
DAV:   2    -0.931900712388E+02   -0.14033E+03   -0.13217E+03169848   0.145E+02
DAV:   3    -0.975888526286E+02   -0.43988E+01   -0.43779E+01175272   0.231E+01
DAV:   4    -0.976142547660E+02   -0.25402E-01   -0.25401E-01152088   0.200E+00
DAV:   5    -0.976145480179E+02   -0.29325E-03   -0.29325E-03174336   0.208E-01    0.123E+01
DAV:   6    -0.922004776626E+02    0.54141E+01   -0.39485E+00176040   0.657E+00    0.677E+00
DAV:   7    -0.905507909005E+02    0.16497E+01   -0.31939E+00180768   0.583E+00    0.172E+00
DAV:   8    -0.905615848170E+02   -0.10794E-01   -0.22844E-01133104   0.162E+00    0.741E-01
DAV:   9    -0.905761948030E+02   -0.14610E-01   -0.17112E-02171120   0.447E-01    0.203E-01
DAV:  10    -0.905804922427E+02   -0.42974E-02   -0.24630E-03134040   0.174E-01    0.645E-02
DAV:  11    -0.905816447752E+02   -0.11525E-02   -0.67416E-04160008   0.889E-02    0.332E-02
DAV:  12    -0.905817482797E+02   -0.10350E-03   -0.76834E-05149880   0.330E-02    0.531E-03
DAV:  13    -0.905817547202E+02   -0.64404E-05   -0.51051E-06169344   0.892E-03    0.183E-03
DAV:  14    -0.905817555297E+02   -0.80950E-06   -0.42172E-07149664   0.272E-03
   1 F= -.90581756E+02 E0= -.90580117E+02  d E =-.327674E-02
