   1   1   0   0
  0.3375000E+04  0.1500000E-08  0.1250000E-08  0.1800000E-08  0.5000000E-15
  1.000000000000000E-004
  CAR 
 Convergence                             
      2.48595476     -9.97636410  301     -3.60675829      1.00000000
     -9.976  0.0000E+00  0.0000E+00
     -9.935  0.0000E+00  0.0000E+00
     -9.893  0.0000E+00  0.0000E+00
     -9.852  0.0000E+00  0.0000E+00
     -9.810  0.0000E+00  0.0000E+00
     -9.769  0.0000E+00  0.0000E+00
     -9.727  0.0000E+00  0.0000E+00
     -9.686  0.1523E-12  0.6328E-14
     -9.644  0.8499E-09  0.3531E-10
     -9.602  0.1228E-05  0.5106E-07
     -9.561  0.4639E-03  0.1932E-04
     -9.519  0.4649E-01  0.1951E-02
     -9.478  0.1265E+01  0.5452E-01
     -9.436  0.9631E+01  0.4546E+00
     -9.395  0.2109E+02  0.1331E+01
     -9.353  0.1348E+02  0.1891E+01
     -9.312  0.2495E+01  0.1995E+01
     -9.270  0.1301E+00  0.2000E+01
     -9.229  0.1858E-02  0.2000E+01
     -9.187  0.7077E-05  0.2000E+01
     -9.146  0.7071E-08  0.2000E+01
     -9.104  0.1828E-11  0.2000E+01
     -9.062  0.0000E+00  0.2000E+01
     -9.021  0.0000E+00  0.2000E+01
     -8.979  0.0000E+00  0.2000E+01
     -8.938  0.0000E+00  0.2000E+01
     -8.896  0.0000E+00  0.2000E+01
     -8.855  0.0000E+00  0.2000E+01
     -8.813  0.0000E+00  0.2000E+01
     -8.772  0.0000E+00  0.2000E+01
     -8.730  0.0000E+00  0.2000E+01
     -8.689  0.0000E+00  0.2000E+01
     -8.647  0.0000E+00  0.2000E+01
     -8.606  0.0000E+00  0.2000E+01
     -8.564  0.0000E+00  0.2000E+01
     -8.522  0.0000E+00  0.2000E+01
     -8.481  0.0000E+00  0.2000E+01
     -8.439  0.0000E+00  0.2000E+01
     -8.398  0.0000E+00  0.2000E+01
     -8.356  0.0000E+00  0.2000E+01
     -8.315  0.0000E+00  0.2000E+01
     -8.273  0.0000E+00  0.2000E+01
     -8.232  0.0000E+00  0.2000E+01
     -8.190  0.0000E+00  0.2000E+01
     -8.149  0.0000E+00  0.2000E+01
     -8.107  0.0000E+00  0.2000E+01
     -8.065  0.0000E+00  0.2000E+01
     -8.024  0.0000E+00  0.2000E+01
     -7.982  0.0000E+00  0.2000E+01
     -7.941  0.0000E+00  0.2000E+01
     -7.899  0.0000E+00  0.2000E+01
     -7.858  0.0000E+00  0.2000E+01
     -7.816  0.0000E+00  0.2000E+01
     -7.775  0.0000E+00  0.2000E+01
     -7.733  0.0000E+00  0.2000E+01
     -7.692  0.0000E+00  0.2000E+01
     -7.650  0.0000E+00  0.2000E+01
     -7.609  0.0000E+00  0.2000E+01
     -7.567  0.0000E+00  0.2000E+01
     -7.525  0.0000E+00  0.2000E+01
     -7.484  0.0000E+00  0.2000E+01
     -7.442  0.0000E+00  0.2000E+01
     -7.401  0.0000E+00  0.2000E+01
     -7.359  0.0000E+00  0.2000E+01
     -7.318  0.0000E+00  0.2000E+01
     -7.276  0.0000E+00  0.2000E+01
     -7.235  0.0000E+00  0.2000E+01
     -7.193  0.0000E+00  0.2000E+01
     -7.152  0.0000E+00  0.2000E+01
     -7.110  0.0000E+00  0.2000E+01
     -7.068  0.0000E+00  0.2000E+01
     -7.027  0.0000E+00  0.2000E+01
     -6.985  0.0000E+00  0.2000E+01
     -6.944  0.0000E+00  0.2000E+01
     -6.902  0.0000E+00  0.2000E+01
     -6.861  0.0000E+00  0.2000E+01
     -6.819  0.0000E+00  0.2000E+01
     -6.778  0.0000E+00  0.2000E+01
     -6.736  0.0000E+00  0.2000E+01
     -6.695  0.0000E+00  0.2000E+01
     -6.653  0.0000E+00  0.2000E+01
     -6.612  0.0000E+00  0.2000E+01
     -6.570  0.0000E+00  0.2000E+01
     -6.528  0.0000E+00  0.2000E+01
     -6.487  0.0000E+00  0.2000E+01
     -6.445  0.0000E+00  0.2000E+01
     -6.404  0.0000E+00  0.2000E+01
     -6.362  0.0000E+00  0.2000E+01
     -6.321  0.0000E+00  0.2000E+01
     -6.279  0.0000E+00  0.2000E+01
     -6.238  0.0000E+00  0.2000E+01
     -6.196  0.0000E+00  0.2000E+01
     -6.155  0.0000E+00  0.2000E+01
     -6.113  0.0000E+00  0.2000E+01
     -6.072  0.0000E+00  0.2000E+01
     -6.030  0.0000E+00  0.2000E+01
     -5.988  0.0000E+00  0.2000E+01
     -5.947  0.0000E+00  0.2000E+01
     -5.905  0.0000E+00  0.2000E+01
     -5.864  0.0000E+00  0.2000E+01
     -5.822  0.0000E+00  0.2000E+01
     -5.781  0.0000E+00  0.2000E+01
     -5.739  0.0000E+00  0.2000E+01
     -5.698  0.0000E+00  0.2000E+01
     -5.656  0.0000E+00  0.2000E+01
     -5.615  0.0000E+00  0.2000E+01
     -5.573  0.0000E+00  0.2000E+01
     -5.531  0.0000E+00  0.2000E+01
     -5.490  0.0000E+00  0.2000E+01
     -5.448  0.0000E+00  0.2000E+01
     -5.407  0.0000E+00  0.2000E+01
     -5.365  0.0000E+00  0.2000E+01
     -5.324  0.0000E+00  0.2000E+01
     -5.282  0.0000E+00  0.2000E+01
     -5.241  0.0000E+00  0.2000E+01
     -5.199  0.0000E+00  0.2000E+01
     -5.158  0.0000E+00  0.2000E+01
     -5.116  0.0000E+00  0.2000E+01
     -5.075  0.0000E+00  0.2000E+01
     -5.033  0.0000E+00  0.2000E+01
     -4.991  0.0000E+00  0.2000E+01
     -4.950  0.0000E+00  0.2000E+01
     -4.908  0.0000E+00  0.2000E+01
     -4.867  0.0000E+00  0.2000E+01
     -4.825  0.0000E+00  0.2000E+01
     -4.784  0.0000E+00  0.2000E+01
     -4.742  0.0000E+00  0.2000E+01
     -4.701  0.0000E+00  0.2000E+01
     -4.659  0.0000E+00  0.2000E+01
     -4.618  0.0000E+00  0.2000E+01
     -4.576  0.0000E+00  0.2000E+01
     -4.534  0.0000E+00  0.2000E+01
     -4.493  0.0000E+00  0.2000E+01
     -4.451  0.0000E+00  0.2000E+01
     -4.410  0.0000E+00  0.2000E+01
     -4.368  0.0000E+00  0.2000E+01
     -4.327  0.0000E+00  0.2000E+01
     -4.285  0.0000E+00  0.2000E+01
     -4.244  0.0000E+00  0.2000E+01
     -4.202  0.0000E+00  0.2000E+01
     -4.161  0.0000E+00  0.2000E+01
     -4.119  0.0000E+00  0.2000E+01
     -4.078  0.0000E+00  0.2000E+01
     -4.036  0.0000E+00  0.2000E+01
     -3.994  0.0000E+00  0.2000E+01
     -3.953  0.0000E+00  0.2000E+01
     -3.911  0.0000E+00  0.2000E+01
     -3.870  0.0000E+00  0.2000E+01
     -3.828  0.3407E-10  0.2000E+01
     -3.787  0.9936E-07  0.2000E+01
     -3.745  0.7525E-04  0.2000E+01
     -3.704  0.1499E-01  0.2001E+01
     -3.662  0.8008E+00  0.2034E+01
     -3.621  0.1177E+02  0.2523E+01
     -3.579  0.4912E+02  0.4563E+01
     -3.537  0.5952E+02  0.7036E+01
     -3.496  0.2103E+02  0.7909E+01
     -3.454  0.2126E+01  0.7997E+01
     -3.413  0.5974E-01  0.8000E+01
     -3.371  0.4534E-03  0.8000E+01
     -3.330  0.9098E-06  0.8000E+01
     -3.288  0.4758E-09  0.8000E+01
     -3.247  0.6414E-13  0.8000E+01
     -3.205  0.0000E+00  0.8000E+01
     -3.164  0.0000E+00  0.8000E+01
     -3.122  0.0000E+00  0.8000E+01
     -3.081  0.0000E+00  0.8000E+01
     -3.039  0.0000E+00  0.8000E+01
     -2.997  0.0000E+00  0.8000E+01
     -2.956  0.0000E+00  0.8000E+01
     -2.914  0.0000E+00  0.8000E+01
     -2.873  0.0000E+00  0.8000E+01
     -2.831  0.0000E+00  0.8000E+01
     -2.790  0.0000E+00  0.8000E+01
     -2.748  0.0000E+00  0.8000E+01
     -2.707  0.0000E+00  0.8000E+01
     -2.665  0.0000E+00  0.8000E+01
     -2.624  0.0000E+00  0.8000E+01
     -2.582  0.0000E+00  0.8000E+01
     -2.541  0.0000E+00  0.8000E+01
     -2.499  0.0000E+00  0.8000E+01
     -2.457  0.0000E+00  0.8000E+01
     -2.416  0.0000E+00  0.8000E+01
     -2.374  0.0000E+00  0.8000E+01
     -2.333  0.0000E+00  0.8000E+01
     -2.291  0.0000E+00  0.8000E+01
     -2.250  0.0000E+00  0.8000E+01
     -2.208  0.0000E+00  0.8000E+01
     -2.167  0.0000E+00  0.8000E+01
     -2.125  0.0000E+00  0.8000E+01
     -2.084  0.0000E+00  0.8000E+01
     -2.042  0.0000E+00  0.8000E+01
     -2.000  0.0000E+00  0.8000E+01
     -1.959  0.0000E+00  0.8000E+01
     -1.917  0.0000E+00  0.8000E+01
     -1.876  0.0000E+00  0.8000E+01
     -1.834  0.0000E+00  0.8000E+01
     -1.793  0.0000E+00  0.8000E+01
     -1.751  0.0000E+00  0.8000E+01
     -1.710  0.0000E+00  0.8000E+01
     -1.668  0.0000E+00  0.8000E+01
     -1.627  0.0000E+00  0.8000E+01
     -1.585  0.0000E+00  0.8000E+01
     -1.544  0.0000E+00  0.8000E+01
     -1.502  0.0000E+00  0.8000E+01
     -1.460  0.0000E+00  0.8000E+01
     -1.419  0.0000E+00  0.8000E+01
     -1.377  0.0000E+00  0.8000E+01
     -1.336  0.0000E+00  0.8000E+01
     -1.294  0.0000E+00  0.8000E+01
     -1.253  0.0000E+00  0.8000E+01
     -1.211  0.0000E+00  0.8000E+01
     -1.170  0.0000E+00  0.8000E+01
     -1.128  0.0000E+00  0.8000E+01
     -1.087  0.0000E+00  0.8000E+01
     -1.045  0.0000E+00  0.8000E+01
     -1.003  0.0000E+00  0.8000E+01
     -0.962  0.0000E+00  0.8000E+01
     -0.920  0.0000E+00  0.8000E+01
     -0.879  0.0000E+00  0.8000E+01
     -0.837  0.0000E+00  0.8000E+01
     -0.796  0.0000E+00  0.8000E+01
     -0.754  0.0000E+00  0.8000E+01
     -0.713  0.0000E+00  0.8000E+01
     -0.671  0.0000E+00  0.8000E+01
     -0.630  0.0000E+00  0.8000E+01
     -0.588  0.0000E+00  0.8000E+01
     -0.547  0.1523E-15  0.8000E+01
     -0.505  0.1432E-11  0.8000E+01
     -0.463  0.3346E-08  0.8000E+01
     -0.422  0.2148E-05  0.8000E+01
     -0.380  0.3924E-03  0.8000E+01
     -0.339  0.2153E-01  0.8001E+01
     -0.297  0.3838E+00  0.8017E+01
     -0.256  0.2499E+01  0.8121E+01
     -0.214  0.7017E+01  0.8412E+01
     -0.173  0.1050E+02  0.8848E+01
     -0.131  0.1060E+02  0.9289E+01
     -0.090  0.8869E+01  0.9657E+01
     -0.048  0.5715E+01  0.9894E+01
     -0.007  0.2169E+01  0.9985E+01
      0.035  0.6613E+00  0.1001E+02
      0.077  0.1724E+01  0.1008E+02
      0.118  0.5086E+01  0.1029E+02
      0.160  0.9673E+01  0.1070E+02
      0.201  0.1356E+02  0.1126E+02
      0.243  0.1548E+02  0.1190E+02
      0.284  0.1578E+02  0.1256E+02
      0.326  0.1591E+02  0.1322E+02
      0.367  0.1611E+02  0.1389E+02
      0.409  0.1647E+02  0.1457E+02
      0.450  0.1747E+02  0.1530E+02
      0.492  0.1821E+02  0.1606E+02
      0.534  0.1865E+02  0.1683E+02
      0.575  0.1899E+02  0.1762E+02
      0.617  0.1940E+02  0.1842E+02
      0.658  0.2043E+02  0.1927E+02
      0.700  0.2127E+02  0.2016E+02
      0.741  0.2173E+02  0.2106E+02
      0.783  0.2231E+02  0.2199E+02
      0.824  0.2265E+02  0.2293E+02
      0.866  0.2274E+02  0.2387E+02
      0.907  0.2374E+02  0.2486E+02
      0.949  0.2503E+02  0.2590E+02
      0.990  0.2491E+02  0.2693E+02
      1.032  0.2506E+02  0.2797E+02
      1.074  0.2616E+02  0.2906E+02
      1.115  0.2652E+02  0.3016E+02
      1.157  0.2643E+02  0.3126E+02
      1.198  0.2725E+02  0.3239E+02
      1.240  0.2780E+02  0.3355E+02
      1.281  0.2766E+02  0.3470E+02
      1.323  0.2782E+02  0.3585E+02
      1.364  0.2866E+02  0.3704E+02
      1.406  0.2882E+02  0.3824E+02
      1.447  0.2905E+02  0.3945E+02
      1.489  0.3023E+02  0.4070E+02
      1.531  0.3044E+02  0.4197E+02
      1.572  0.2985E+02  0.4321E+02
      1.614  0.3003E+02  0.4446E+02
      1.655  0.2827E+02  0.4563E+02
      1.697  0.2262E+02  0.4657E+02
      1.738  0.1528E+02  0.4720E+02
      1.780  0.9175E+01  0.4759E+02
      1.821  0.5314E+01  0.4781E+02
      1.863  0.2876E+01  0.4793E+02
      1.904  0.1267E+01  0.4798E+02
      1.946  0.4244E+00  0.4800E+02
      1.987  0.8960E-01  0.4800E+02
      2.029  0.8279E-02  0.4800E+02
      2.071  0.2587E-03  0.4800E+02
      2.112  0.2394E-05  0.4800E+02
      2.154  0.6126E-08  0.4800E+02
      2.195  0.4173E-11  0.4800E+02
      2.237  0.7256E-15  0.4800E+02
      2.278  0.0000E+00  0.4800E+02
      2.320  0.0000E+00  0.4800E+02
      2.361  0.0000E+00  0.4800E+02
      2.403  0.0000E+00  0.4800E+02
      2.444  0.0000E+00  0.4800E+02
      2.486  0.0000E+00  0.4800E+02
