       N       E                     dE             d eps       ncg     rms          rms(c)
DAV:   1     0.750576419434E+01    0.75058E+01   -0.33553E+02 11520   0.340E+01
DAV:   2     0.690567404122E-01   -0.74367E+01   -0.74129E+01 22992   0.547E+00
DAV:   3    -0.558376494830E-01   -0.12489E+00   -0.10477E+00 11544   0.126E+00
DAV:   4    -0.582440720350E-01   -0.24064E-02   -0.23541E-02 12864   0.148E-01
DAV:   5    -0.582717771090E-01   -0.27705E-04   -0.27698E-04 17760   0.176E-02    0.740E-03
DAV:   6    -0.582720822290E-01   -0.30512E-06   -0.20499E-06 15696   0.172E-03
   1 F= -.58272082E-01 E0= -.31771412E-01  d E =-.530013E-01
