<?xml version="1.0" encoding="ISO-8859-1"?>
<modeling>
 <generator>
  <i name="program" type="string">vasp </i>
  <i name="version" type="string">6.4.3  </i>
  <i name="subversion" type="string">19Mar24 (build May 31 2024 16:31:43) complex                          parallel </i>
  <i name="platform" type="string">LinuxIFC </i>
  <i name="date" type="string">2024 11 01 </i>
  <i name="time" type="string">17:02:50 </i>
 </generator>
 <incar>
  <i type="string" name="SYSTEM">Convergence</i>
  <i type="int" name="ISTART">     0</i>
  <i type="string" name="PREC">Accurate</i>
  <i type="string" name="ALGO">Normal</i>
  <i type="int" name="ISPIN">     1</i>
  <i type="int" name="ICHARG">     2</i>
  <i type="int" name="NELM">   100</i>
  <i type="int" name="IBRION">    -1</i>
  <i name="EDIFF">      0.00000100</i>
  <i name="EDIFFG">     -0.00100000</i>
  <i type="int" name="NSW">     0</i>
  <i type="int" name="ISIF">     2</i>
  <i name="ENCUT">    480.00000000</i>
  <i name="POTIM">      0.50000000</i>
  <i type="int" name="ISMEAR">     0</i>
  <i name="SIGMA">      0.05000000</i>
  <i type="logical" name="LWAVE"> F  </i>
  <i type="logical" name="LCHARG"> F  </i>
  <i type="string" name="GGA">PE</i>
 </incar>
 <primitive_cell>
  <structure name="primitive_cell" >
   <crystal>
    <varray name="basis" >
     <v>      15.00000000       0.00000000       0.00000000 </v>
     <v>       0.00000000      12.50000000       0.00000000 </v>
     <v>       0.00000000       0.00000000      18.00000000 </v>
    </varray>
    <i name="volume">   3375.00000000 </i>
    <varray name="rec_basis" >
     <v>       0.06666667       0.00000000       0.00000000 </v>
     <v>       0.00000000       0.08000000       0.00000000 </v>
     <v>       0.00000000       0.00000000       0.05555556 </v>
    </varray>
   </crystal>
   <varray name="positions" >
    <v>       0.52123000       0.54500000       0.63796000 </v>
   </varray>
  </structure>
  <varray name="primitive_index" >
   <v type="int" >        1 </v>
  </varray>
 </primitive_cell>
 <kpoints>
  <generation param="Monkhorst-Pack">
   <v type="int" name="divisions">      11       15       10 </v>
   <v name="usershift">      0.00000000       0.00000000       0.00000000 </v>
   <v name="genvec1">      0.09090909       0.00000000       0.00000000 </v>
   <v name="genvec2">      0.00000000       0.06666667       0.00000000 </v>
   <v name="genvec3">      0.00000000       0.00000000       0.10000000 </v>
   <v name="shift">      0.00000000       0.00000000       0.50000000 </v>
  </generation>
  <varray name="kpointlist" >
   <v>       0.00000000       0.00000000       0.05000000 </v>
   <v>       0.09090909       0.00000000       0.05000000 </v>
   <v>       0.18181818       0.00000000       0.05000000 </v>
   <v>       0.27272727       0.00000000       0.05000000 </v>
   <v>       0.36363636       0.00000000       0.05000000 </v>
   <v>       0.45454545       0.00000000       0.05000000 </v>
   <v>       0.00000000       0.06666667       0.05000000 </v>
   <v>       0.09090909       0.06666667       0.05000000 </v>
   <v>       0.18181818       0.06666667       0.05000000 </v>
   <v>       0.27272727       0.06666667       0.05000000 </v>
   <v>       0.36363636       0.06666667       0.05000000 </v>
   <v>       0.45454545       0.06666667       0.05000000 </v>
   <v>       0.00000000       0.13333333       0.05000000 </v>
   <v>       0.09090909       0.13333333       0.05000000 </v>
   <v>       0.18181818       0.13333333       0.05000000 </v>
   <v>       0.27272727       0.13333333       0.05000000 </v>
   <v>       0.36363636       0.13333333       0.05000000 </v>
   <v>       0.45454545       0.13333333       0.05000000 </v>
   <v>       0.00000000       0.20000000       0.05000000 </v>
   <v>       0.09090909       0.20000000       0.05000000 </v>
   <v>       0.18181818       0.20000000       0.05000000 </v>
   <v>       0.27272727       0.20000000       0.05000000 </v>
   <v>       0.36363636       0.20000000       0.05000000 </v>
   <v>       0.45454545       0.20000000       0.05000000 </v>
   <v>       0.00000000       0.26666667       0.05000000 </v>
   <v>       0.09090909       0.26666667       0.05000000 </v>
   <v>       0.18181818       0.26666667       0.05000000 </v>
   <v>       0.27272727       0.26666667       0.05000000 </v>
   <v>       0.36363636       0.26666667       0.05000000 </v>
   <v>       0.45454545       0.26666667       0.05000000 </v>
   <v>       0.00000000       0.33333333       0.05000000 </v>
   <v>       0.09090909       0.33333333       0.05000000 </v>
   <v>       0.18181818       0.33333333       0.05000000 </v>
   <v>       0.27272727       0.33333333       0.05000000 </v>
   <v>       0.36363636       0.33333333       0.05000000 </v>
   <v>       0.45454545       0.33333333       0.05000000 </v>
   <v>       0.00000000       0.40000000       0.05000000 </v>
   <v>       0.09090909       0.40000000       0.05000000 </v>
   <v>       0.18181818       0.40000000       0.05000000 </v>
   <v>       0.27272727       0.40000000       0.05000000 </v>
   <v>       0.36363636       0.40000000       0.05000000 </v>
   <v>       0.45454545       0.40000000       0.05000000 </v>
   <v>       0.00000000       0.46666667       0.05000000 </v>
   <v>       0.09090909       0.46666667       0.05000000 </v>
   <v>       0.18181818       0.46666667       0.05000000 </v>
   <v>       0.27272727       0.46666667       0.05000000 </v>
   <v>       0.36363636       0.46666667       0.05000000 </v>
   <v>       0.45454545       0.46666667       0.05000000 </v>
   <v>       0.00000000       0.00000000       0.15000000 </v>
   <v>       0.09090909       0.00000000       0.15000000 </v>
   <v>       0.18181818       0.00000000       0.15000000 </v>
   <v>       0.27272727       0.00000000       0.15000000 </v>
   <v>       0.36363636       0.00000000       0.15000000 </v>
   <v>       0.45454545       0.00000000       0.15000000 </v>
   <v>       0.00000000       0.06666667       0.15000000 </v>
   <v>       0.09090909       0.06666667       0.15000000 </v>
   <v>       0.18181818       0.06666667       0.15000000 </v>
   <v>       0.27272727       0.06666667       0.15000000 </v>
   <v>       0.36363636       0.06666667       0.15000000 </v>
   <v>       0.45454545       0.06666667       0.15000000 </v>
   <v>       0.00000000       0.13333333       0.15000000 </v>
   <v>       0.09090909       0.13333333       0.15000000 </v>
   <v>       0.18181818       0.13333333       0.15000000 </v>
   <v>       0.27272727       0.13333333       0.15000000 </v>
   <v>       0.36363636       0.13333333       0.15000000 </v>
   <v>       0.45454545       0.13333333       0.15000000 </v>
   <v>       0.00000000       0.20000000       0.15000000 </v>
   <v>       0.09090909       0.20000000       0.15000000 </v>
   <v>       0.18181818       0.20000000       0.15000000 </v>
   <v>       0.27272727       0.20000000       0.15000000 </v>
   <v>       0.36363636       0.20000000       0.15000000 </v>
   <v>       0.45454545       0.20000000       0.15000000 </v>
   <v>       0.00000000       0.26666667       0.15000000 </v>
   <v>       0.09090909       0.26666667       0.15000000 </v>
   <v>       0.18181818       0.26666667       0.15000000 </v>
   <v>       0.27272727       0.26666667       0.15000000 </v>
   <v>       0.36363636       0.26666667       0.15000000 </v>
   <v>       0.45454545       0.26666667       0.15000000 </v>
   <v>       0.00000000       0.33333333       0.15000000 </v>
   <v>       0.09090909       0.33333333       0.15000000 </v>
   <v>       0.18181818       0.33333333       0.15000000 </v>
   <v>       0.27272727       0.33333333       0.15000000 </v>
   <v>       0.36363636       0.33333333       0.15000000 </v>
   <v>       0.45454545       0.33333333       0.15000000 </v>
   <v>       0.00000000       0.40000000       0.15000000 </v>
   <v>       0.09090909       0.40000000       0.15000000 </v>
   <v>       0.18181818       0.40000000       0.15000000 </v>
   <v>       0.27272727       0.40000000       0.15000000 </v>
   <v>       0.36363636       0.40000000       0.15000000 </v>
   <v>       0.45454545       0.40000000       0.15000000 </v>
   <v>       0.00000000       0.46666667       0.15000000 </v>
   <v>       0.09090909       0.46666667       0.15000000 </v>
   <v>       0.18181818       0.46666667       0.15000000 </v>
   <v>       0.27272727       0.46666667       0.15000000 </v>
   <v>       0.36363636       0.46666667       0.15000000 </v>
   <v>       0.45454545       0.46666667       0.15000000 </v>
   <v>       0.00000000       0.00000000       0.25000000 </v>
   <v>       0.09090909       0.00000000       0.25000000 </v>
   <v>       0.18181818       0.00000000       0.25000000 </v>
   <v>       0.27272727       0.00000000       0.25000000 </v>
   <v>       0.36363636       0.00000000       0.25000000 </v>
   <v>       0.45454545       0.00000000       0.25000000 </v>
   <v>       0.00000000       0.06666667       0.25000000 </v>
   <v>       0.09090909       0.06666667       0.25000000 </v>
   <v>       0.18181818       0.06666667       0.25000000 </v>
   <v>       0.27272727       0.06666667       0.25000000 </v>
   <v>       0.36363636       0.06666667       0.25000000 </v>
   <v>       0.45454545       0.06666667       0.25000000 </v>
   <v>       0.00000000       0.13333333       0.25000000 </v>
   <v>       0.09090909       0.13333333       0.25000000 </v>
   <v>       0.18181818       0.13333333       0.25000000 </v>
   <v>       0.27272727       0.13333333       0.25000000 </v>
   <v>       0.36363636       0.13333333       0.25000000 </v>
   <v>       0.45454545       0.13333333       0.25000000 </v>
   <v>       0.00000000       0.20000000       0.25000000 </v>
   <v>       0.09090909       0.20000000       0.25000000 </v>
   <v>       0.18181818       0.20000000       0.25000000 </v>
   <v>       0.27272727       0.20000000       0.25000000 </v>
   <v>       0.36363636       0.20000000       0.25000000 </v>
   <v>       0.45454545       0.20000000       0.25000000 </v>
   <v>       0.00000000       0.26666667       0.25000000 </v>
   <v>       0.09090909       0.26666667       0.25000000 </v>
   <v>       0.18181818       0.26666667       0.25000000 </v>
   <v>       0.27272727       0.26666667       0.25000000 </v>
   <v>       0.36363636       0.26666667       0.25000000 </v>
   <v>       0.45454545       0.26666667       0.25000000 </v>
   <v>       0.00000000       0.33333333       0.25000000 </v>
   <v>       0.09090909       0.33333333       0.25000000 </v>
   <v>       0.18181818       0.33333333       0.25000000 </v>
   <v>       0.27272727       0.33333333       0.25000000 </v>
   <v>       0.36363636       0.33333333       0.25000000 </v>
   <v>       0.45454545       0.33333333       0.25000000 </v>
   <v>       0.00000000       0.40000000       0.25000000 </v>
   <v>       0.09090909       0.40000000       0.25000000 </v>
   <v>       0.18181818       0.40000000       0.25000000 </v>
   <v>       0.27272727       0.40000000       0.25000000 </v>
   <v>       0.36363636       0.40000000       0.25000000 </v>
   <v>       0.45454545       0.40000000       0.25000000 </v>
   <v>       0.00000000       0.46666667       0.25000000 </v>
   <v>       0.09090909       0.46666667       0.25000000 </v>
   <v>       0.18181818       0.46666667       0.25000000 </v>
   <v>       0.27272727       0.46666667       0.25000000 </v>
   <v>       0.36363636       0.46666667       0.25000000 </v>
   <v>       0.45454545       0.46666667       0.25000000 </v>
   <v>       0.00000000       0.00000000       0.35000000 </v>
   <v>       0.09090909       0.00000000       0.35000000 </v>
   <v>       0.18181818       0.00000000       0.35000000 </v>
   <v>       0.27272727       0.00000000       0.35000000 </v>
   <v>       0.36363636       0.00000000       0.35000000 </v>
   <v>       0.45454545       0.00000000       0.35000000 </v>
   <v>       0.00000000       0.06666667       0.35000000 </v>
   <v>       0.09090909       0.06666667       0.35000000 </v>
   <v>       0.18181818       0.06666667       0.35000000 </v>
   <v>       0.27272727       0.06666667       0.35000000 </v>
   <v>       0.36363636       0.06666667       0.35000000 </v>
   <v>       0.45454545       0.06666667       0.35000000 </v>
   <v>       0.00000000       0.13333333       0.35000000 </v>
   <v>       0.09090909       0.13333333       0.35000000 </v>
   <v>       0.18181818       0.13333333       0.35000000 </v>
   <v>       0.27272727       0.13333333       0.35000000 </v>
   <v>       0.36363636       0.13333333       0.35000000 </v>
   <v>       0.45454545       0.13333333       0.35000000 </v>
   <v>       0.00000000       0.20000000       0.35000000 </v>
   <v>       0.09090909       0.20000000       0.35000000 </v>
   <v>       0.18181818       0.20000000       0.35000000 </v>
   <v>       0.27272727       0.20000000       0.35000000 </v>
   <v>       0.36363636       0.20000000       0.35000000 </v>
   <v>       0.45454545       0.20000000       0.35000000 </v>
   <v>       0.00000000       0.26666667       0.35000000 </v>
   <v>       0.09090909       0.26666667       0.35000000 </v>
   <v>       0.18181818       0.26666667       0.35000000 </v>
   <v>       0.27272727       0.26666667       0.35000000 </v>
   <v>       0.36363636       0.26666667       0.35000000 </v>
   <v>       0.45454545       0.26666667       0.35000000 </v>
   <v>       0.00000000       0.33333333       0.35000000 </v>
   <v>       0.09090909       0.33333333       0.35000000 </v>
   <v>       0.18181818       0.33333333       0.35000000 </v>
   <v>       0.27272727       0.33333333       0.35000000 </v>
   <v>       0.36363636       0.33333333       0.35000000 </v>
   <v>       0.45454545       0.33333333       0.35000000 </v>
   <v>       0.00000000       0.40000000       0.35000000 </v>
   <v>       0.09090909       0.40000000       0.35000000 </v>
   <v>       0.18181818       0.40000000       0.35000000 </v>
   <v>       0.27272727       0.40000000       0.35000000 </v>
   <v>       0.36363636       0.40000000       0.35000000 </v>
   <v>       0.45454545       0.40000000       0.35000000 </v>
   <v>       0.00000000       0.46666667       0.35000000 </v>
   <v>       0.09090909       0.46666667       0.35000000 </v>
   <v>       0.18181818       0.46666667       0.35000000 </v>
   <v>       0.27272727       0.46666667       0.35000000 </v>
   <v>       0.36363636       0.46666667       0.35000000 </v>
   <v>       0.45454545       0.46666667       0.35000000 </v>
   <v>       0.00000000       0.00000000       0.45000000 </v>
   <v>       0.09090909       0.00000000       0.45000000 </v>
   <v>       0.18181818       0.00000000       0.45000000 </v>
   <v>       0.27272727       0.00000000       0.45000000 </v>
   <v>       0.36363636       0.00000000       0.45000000 </v>
   <v>       0.45454545       0.00000000       0.45000000 </v>
   <v>       0.00000000       0.06666667       0.45000000 </v>
   <v>       0.09090909       0.06666667       0.45000000 </v>
   <v>       0.18181818       0.06666667       0.45000000 </v>
   <v>       0.27272727       0.06666667       0.45000000 </v>
   <v>       0.36363636       0.06666667       0.45000000 </v>
   <v>       0.45454545       0.06666667       0.45000000 </v>
   <v>       0.00000000       0.13333333       0.45000000 </v>
   <v>       0.09090909       0.13333333       0.45000000 </v>
   <v>       0.18181818       0.13333333       0.45000000 </v>
   <v>       0.27272727       0.13333333       0.45000000 </v>
   <v>       0.36363636       0.13333333       0.45000000 </v>
   <v>       0.45454545       0.13333333       0.45000000 </v>
   <v>       0.00000000       0.20000000       0.45000000 </v>
   <v>       0.09090909       0.20000000       0.45000000 </v>
   <v>       0.18181818       0.20000000       0.45000000 </v>
   <v>       0.27272727       0.20000000       0.45000000 </v>
   <v>       0.36363636       0.20000000       0.45000000 </v>
   <v>       0.45454545       0.20000000       0.45000000 </v>
   <v>       0.00000000       0.26666667       0.45000000 </v>
   <v>       0.09090909       0.26666667       0.45000000 </v>
   <v>       0.18181818       0.26666667       0.45000000 </v>
   <v>       0.27272727       0.26666667       0.45000000 </v>
   <v>       0.36363636       0.26666667       0.45000000 </v>
   <v>       0.45454545       0.26666667       0.45000000 </v>
   <v>       0.00000000       0.33333333       0.45000000 </v>
   <v>       0.09090909       0.33333333       0.45000000 </v>
   <v>       0.18181818       0.33333333       0.45000000 </v>
   <v>       0.27272727       0.33333333       0.45000000 </v>
   <v>       0.36363636       0.33333333       0.45000000 </v>
   <v>       0.45454545       0.33333333       0.45000000 </v>
   <v>       0.00000000       0.40000000       0.45000000 </v>
   <v>       0.09090909       0.40000000       0.45000000 </v>
   <v>       0.18181818       0.40000000       0.45000000 </v>
   <v>       0.27272727       0.40000000       0.45000000 </v>
   <v>       0.36363636       0.40000000       0.45000000 </v>
   <v>       0.45454545       0.40000000       0.45000000 </v>
   <v>       0.00000000       0.46666667       0.45000000 </v>
   <v>       0.09090909       0.46666667       0.45000000 </v>
   <v>       0.18181818       0.46666667       0.45000000 </v>
   <v>       0.27272727       0.46666667       0.45000000 </v>
   <v>       0.36363636       0.46666667       0.45000000 </v>
   <v>       0.45454545       0.46666667       0.45000000 </v>
  </varray>
  <varray name="weights" >
   <v>       0.00121212 </v>
   <v>       0.00242424 </v>
   <v>       0.00242424 </v>
   <v>       0.00242424 </v>
   <v>       0.00242424 </v>
   <v>       0.00242424 </v>
   <v>       0.00242424 </v>
   <v>       0.00484848 </v>
   <v>       0.00484848 </v>
   <v>       0.00484848 </v>
   <v>       0.00484848 </v>
   <v>       0.00484848 </v>
   <v>       0.00242424 </v>
   <v>       0.00484848 </v>
   <v>       0.00484848 </v>
   <v>       0.00484848 </v>
   <v>       0.00484848 </v>
   <v>       0.00484848 </v>
   <v>       0.00242424 </v>
   <v>       0.00484848 </v>
   <v>       0.00484848 </v>
   <v>       0.00484848 </v>
   <v>       0.00484848 </v>
   <v>       0.00484848 </v>
   <v>       0.00242424 </v>
   <v>       0.00484848 </v>
   <v>       0.00484848 </v>
   <v>       0.00484848 </v>
   <v>       0.00484848 </v>
   <v>       0.00484848 </v>
   <v>       0.00242424 </v>
   <v>       0.00484848 </v>
   <v>       0.00484848 </v>
   <v>       0.00484848 </v>
   <v>       0.00484848 </v>
   <v>       0.00484848 </v>
   <v>       0.00242424 </v>
   <v>       0.00484848 </v>
   <v>       0.00484848 </v>
   <v>       0.00484848 </v>
   <v>       0.00484848 </v>
   <v>       0.00484848 </v>
   <v>       0.00242424 </v>
   <v>       0.00484848 </v>
   <v>       0.00484848 </v>
   <v>       0.00484848 </v>
   <v>       0.00484848 </v>
   <v>       0.00484848 </v>
   <v>       0.00121212 </v>
   <v>       0.00242424 </v>
   <v>       0.00242424 </v>
   <v>       0.00242424 </v>
   <v>       0.00242424 </v>
   <v>       0.00242424 </v>
   <v>       0.00242424 </v>
   <v>       0.00484848 </v>
   <v>       0.00484848 </v>
   <v>       0.00484848 </v>
   <v>       0.00484848 </v>
   <v>       0.00484848 </v>
   <v>       0.00242424 </v>
   <v>       0.00484848 </v>
   <v>       0.00484848 </v>
   <v>       0.00484848 </v>
   <v>       0.00484848 </v>
   <v>       0.00484848 </v>
   <v>       0.00242424 </v>
   <v>       0.00484848 </v>
   <v>       0.00484848 </v>
   <v>       0.00484848 </v>
   <v>       0.00484848 </v>
   <v>       0.00484848 </v>
   <v>       0.00242424 </v>
   <v>       0.00484848 </v>
   <v>       0.00484848 </v>
   <v>       0.00484848 </v>
   <v>       0.00484848 </v>
   <v>       0.00484848 </v>
   <v>       0.00242424 </v>
   <v>       0.00484848 </v>
   <v>       0.00484848 </v>
   <v>       0.00484848 </v>
   <v>       0.00484848 </v>
   <v>       0.00484848 </v>
   <v>       0.00242424 </v>
   <v>       0.00484848 </v>
   <v>       0.00484848 </v>
   <v>       0.00484848 </v>
   <v>       0.00484848 </v>
   <v>       0.00484848 </v>
   <v>       0.00242424 </v>
   <v>       0.00484848 </v>
   <v>       0.00484848 </v>
   <v>       0.00484848 </v>
   <v>       0.00484848 </v>
   <v>       0.00484848 </v>
   <v>       0.00121212 </v>
   <v>       0.00242424 </v>
   <v>       0.00242424 </v>
   <v>       0.00242424 </v>
   <v>       0.00242424 </v>
   <v>       0.00242424 </v>
   <v>       0.00242424 </v>
   <v>       0.00484848 </v>
   <v>       0.00484848 </v>
   <v>       0.00484848 </v>
   <v>       0.00484848 </v>
   <v>       0.00484848 </v>
   <v>       0.00242424 </v>
   <v>       0.00484848 </v>
   <v>       0.00484848 </v>
   <v>       0.00484848 </v>
   <v>       0.00484848 </v>
   <v>       0.00484848 </v>
   <v>       0.00242424 </v>
   <v>       0.00484848 </v>
   <v>       0.00484848 </v>
   <v>       0.00484848 </v>
   <v>       0.00484848 </v>
   <v>       0.00484848 </v>
   <v>       0.00242424 </v>
   <v>       0.00484848 </v>
   <v>       0.00484848 </v>
   <v>       0.00484848 </v>
   <v>       0.00484848 </v>
   <v>       0.00484848 </v>
   <v>       0.00242424 </v>
   <v>       0.00484848 </v>
   <v>       0.00484848 </v>
   <v>       0.00484848 </v>
   <v>       0.00484848 </v>
   <v>       0.00484848 </v>
   <v>       0.00242424 </v>
   <v>       0.00484848 </v>
   <v>       0.00484848 </v>
   <v>       0.00484848 </v>
   <v>       0.00484848 </v>
   <v>       0.00484848 </v>
   <v>       0.00242424 </v>
   <v>       0.00484848 </v>
   <v>       0.00484848 </v>
   <v>       0.00484848 </v>
   <v>       0.00484848 </v>
   <v>       0.00484848 </v>
   <v>       0.00121212 </v>
   <v>       0.00242424 </v>
   <v>       0.00242424 </v>
   <v>       0.00242424 </v>
   <v>       0.00242424 </v>
   <v>       0.00242424 </v>
   <v>       0.00242424 </v>
   <v>       0.00484848 </v>
   <v>       0.00484848 </v>
   <v>       0.00484848 </v>
   <v>       0.00484848 </v>
   <v>       0.00484848 </v>
   <v>       0.00242424 </v>
   <v>       0.00484848 </v>
   <v>       0.00484848 </v>
   <v>       0.00484848 </v>
   <v>       0.00484848 </v>
   <v>       0.00484848 </v>
   <v>       0.00242424 </v>
   <v>       0.00484848 </v>
   <v>       0.00484848 </v>
   <v>       0.00484848 </v>
   <v>       0.00484848 </v>
   <v>       0.00484848 </v>
   <v>       0.00242424 </v>
   <v>       0.00484848 </v>
   <v>       0.00484848 </v>
   <v>       0.00484848 </v>
   <v>       0.00484848 </v>
   <v>       0.00484848 </v>
   <v>       0.00242424 </v>
   <v>       0.00484848 </v>
   <v>       0.00484848 </v>
   <v>       0.00484848 </v>
   <v>       0.00484848 </v>
   <v>       0.00484848 </v>
   <v>       0.00242424 </v>
   <v>       0.00484848 </v>
   <v>       0.00484848 </v>
   <v>       0.00484848 </v>
   <v>       0.00484848 </v>
   <v>       0.00484848 </v>
   <v>       0.00242424 </v>
   <v>       0.00484848 </v>
   <v>       0.00484848 </v>
   <v>       0.00484848 </v>
   <v>       0.00484848 </v>
   <v>       0.00484848 </v>
   <v>       0.00121212 </v>
   <v>       0.00242424 </v>
   <v>       0.00242424 </v>
   <v>       0.00242424 </v>
   <v>       0.00242424 </v>
   <v>       0.00242424 </v>
   <v>       0.00242424 </v>
   <v>       0.00484848 </v>
   <v>       0.00484848 </v>
   <v>       0.00484848 </v>
   <v>       0.00484848 </v>
   <v>       0.00484848 </v>
   <v>       0.00242424 </v>
   <v>       0.00484848 </v>
   <v>       0.00484848 </v>
   <v>       0.00484848 </v>
   <v>       0.00484848 </v>
   <v>       0.00484848 </v>
   <v>       0.00242424 </v>
   <v>       0.00484848 </v>
   <v>       0.00484848 </v>
   <v>       0.00484848 </v>
   <v>       0.00484848 </v>
   <v>       0.00484848 </v>
   <v>       0.00242424 </v>
   <v>       0.00484848 </v>
   <v>       0.00484848 </v>
   <v>       0.00484848 </v>
   <v>       0.00484848 </v>
   <v>       0.00484848 </v>
   <v>       0.00242424 </v>
   <v>       0.00484848 </v>
   <v>       0.00484848 </v>
   <v>       0.00484848 </v>
   <v>       0.00484848 </v>
   <v>       0.00484848 </v>
   <v>       0.00242424 </v>
   <v>       0.00484848 </v>
   <v>       0.00484848 </v>
   <v>       0.00484848 </v>
   <v>       0.00484848 </v>
   <v>       0.00484848 </v>
   <v>       0.00242424 </v>
   <v>       0.00484848 </v>
   <v>       0.00484848 </v>
   <v>       0.00484848 </v>
   <v>       0.00484848 </v>
   <v>       0.00484848 </v>
  </varray>
 </kpoints>
 <parameters>
  <separator name="general" >
   <i type="string" name="SYSTEM">Convergence</i>
   <i type="logical" name="LCOMPAT"> F  </i>
  </separator>
  <separator name="electronic" >
   <i type="string" name="PREC">accura</i>
   <i name="ENMAX">    480.00000000</i>
   <i name="ENAUG">    535.51400000</i>
   <i name="EDIFF">      0.00000100</i>
   <i type="int" name="IALGO">    38</i>
   <i type="int" name="IWAVPR">    10</i>
   <i type="int" name="NBANDS">    24</i>
   <i type="int" name="NBANDSLOW">    -1</i>
   <i type="int" name="NBANDSHIGH">    -1</i>
   <i name="NELECT">      3.00000000</i>
   <i type="int" name="TURBO">     0</i>
   <i type="int" name="IRESTART">     0</i>
   <i type="int" name="NREBOOT">     0</i>
   <i type="int" name="NMIN">     0</i>
   <i name="EREF">      0.00000000</i>
   <separator name="electronic smearing" >
    <i type="int" name="ISMEAR">     0</i>
    <i name="SIGMA">      0.05000000</i>
    <i name="KSPACING">      0.50000000</i>
    <i type="logical" name="KGAMMA"> T  </i>
    <i type="logical" name="KBLOWUP"> T  </i>
   </separator>
   <separator name="electronic projectors" >
    <i type="logical" name="LREAL"> F  </i>
    <v name="ROPT">      0.00000000</v>
    <i type="int" name="LMAXPAW">  -100</i>
    <i type="int" name="LMAXMIX">     2</i>
    <i type="logical" name="NLSPLINE"> F  </i>
   </separator>
   <separator name="electronic startup" >
    <i type="int" name="ISTART">     0</i>
    <i type="int" name="ICHARG">     2</i>
    <i type="int" name="INIWAV">     1</i>
   </separator>
   <separator name="electronic spin" >
    <i type="int" name="ISPIN">     1</i>
    <i type="logical" name="LNONCOLLINEAR"> F  </i>
    <v name="MAGMOM">      1.00000000</v>
    <i name="NUPDOWN">     -1.00000000</i>
    <i type="logical" name="LSORBIT"> F  </i>
    <v name="SAXIS">      0.00000000      0.00000000      1.00000000</v>
    <i type="logical" name="LSPIRAL"> F  </i>
    <v name="QSPIRAL">      0.00000000      0.00000000      0.00000000</v>
    <i type="logical" name="LZEROZ"> F  </i>
   </separator>
   <separator name="electronic exchange-correlation" >
    <i type="logical" name="LASPH"> F  </i>
   </separator>
   <separator name="electronic convergence" >
    <i type="int" name="NELM">   100</i>
    <i type="int" name="NELMDL">    -5</i>
    <i type="int" name="NELMIN">     2</i>
    <i name="ENINI">    480.00000000</i>
    <separator name="electronic convergence detail" >
     <i type="logical" name="LDIAG"> T  </i>
     <i type="logical" name="LSUBROT"> F  </i>
     <i name="WEIMIN">      0.00000000</i>
     <i name="EBREAK">      0.00000001</i>
     <i name="DEPER">      0.30000000</i>
     <i type="int" name="NRMM">     4</i>
     <i name="TIME">      0.40000000</i>
    </separator>
   </separator>
   <separator name="electronic mixer" >
    <i name="AMIX">      0.40000000</i>
    <i name="BMIX">      1.00000000</i>
    <i name="AMIN">      0.10000000</i>
    <i name="AMIX_MAG">      1.60000000</i>
    <i name="BMIX_MAG">      1.00000000</i>
    <separator name="electronic mixer details" >
     <i type="int" name="IMIX">     4</i>
     <i type="logical" name="MIXFIRST"> F  </i>
     <i type="int" name="MAXMIX">   -45</i>
     <i name="WC">    100.00000000</i>
     <i type="int" name="INIMIX">     1</i>
     <i type="int" name="MIXPRE">     1</i>
     <i type="int" name="MREMOVE">     5</i>
    </separator>
   </separator>
   <separator name="electronic dipolcorrection" >
    <i type="logical" name="LDIPOL"> F  </i>
    <i type="logical" name="LMONO"> F  </i>
    <i type="int" name="IDIPOL">     0</i>
    <i name="EPSILON">      1.00000000</i>
    <v name="DIPOL">   -100.00000000   -100.00000000   -100.00000000</v>
    <i name="EFIELD">      0.00000000</i>
    <i type="logical" name="LVACPOTAV"> F  </i>
   </separator>
  </separator>
  <separator name="grids" >
   <i type="int" name="NGX">   108</i>
   <i type="int" name="NGY">    90</i>
   <i type="int" name="NGZ">   140</i>
   <i type="int" name="NGXF">   216</i>
   <i type="int" name="NGYF">   180</i>
   <i type="int" name="NGZF">   280</i>
   <i type="logical" name="ADDGRID"> F  </i>
  </separator>
  <separator name="ionic" >
   <i type="int" name="NSW">     0</i>
   <i type="int" name="IBRION">    -1</i>
   <i type="int" name="MDALGO">     0</i>
   <i type="int" name="ISIF">     2</i>
   <i name="PSTRESS">      0.00000000</i>
   <i name="EDIFFG">     -0.00100000</i>
   <i type="int" name="NFREE">     0</i>
   <i name="POTIM">      0.50000000</i>
   <i name="SMASS">     -3.00000000</i>
   <i name="SCALEE">      1.00000000</i>
  </separator>
  <separator name="ionic md" >
   <i name="TEBEG">      0.00010000</i>
   <i name="TEEND">      0.00010000</i>
   <i type="int" name="NBLOCK">     1</i>
   <i type="int" name="KBLOCK">     1</i>
   <i type="int" name="NPACO">   256</i>
   <i name="APACO">     10.00000000</i>
  </separator>
  <separator name="symmetry" >
   <i type="int" name="ISYM">     2</i>
   <i name="SYMPREC">      0.00001000</i>
  </separator>
  <separator name="dos" >
   <i type="int" name="LORBIT">     0</i>
   <v name="RWIGS">     -1.00000000</v>
   <i type="int" name="NEDOS">   301</i>
   <i name="EMIN">     10.00000000</i>
   <i name="EMAX">    -10.00000000</i>
   <i name="EFERMI">      0.00000000</i>
  </separator>
  <separator name="writing" >
   <i type="int" name="NWRITE">     2</i>
   <i type="logical" name="LWAVE"> F  </i>
   <i type="logical" name="LDOWNSAMPLE"> F  </i>
   <i type="logical" name="LCHARG"> F  </i>
   <i type="logical" name="LPARD"> F  </i>
   <i type="logical" name="LVTOT"> F  </i>
   <i type="logical" name="LVHAR"> F  </i>
   <i type="logical" name="LELF"> F  </i>
   <i type="logical" name="LOPTICS"> F  </i>
   <v name="STM">      0.00000000      0.00000000      0.00000000      0.00000000      0.00000000      0.00000000      0.00000000</v>
  </separator>
  <separator name="performance" >
   <i type="int" name="NPAR">    24</i>
   <i type="int" name="NSIM">     4</i>
   <i type="int" name="NBLK">    -1</i>
   <i type="logical" name="LPLANE"> T  </i>
   <i type="logical" name="LSCALAPACK"> T  </i>
   <i type="logical" name="LSCAAWARE"> F  </i>
   <i type="logical" name="LSCALU"> F  </i>
   <i type="logical" name="LASYNC"> F  </i>
   <i type="logical" name="LORBITALREAL"> F  </i>
  </separator>
  <separator name="miscellaneous" >
   <i type="int" name="IDIOT">     3</i>
   <i type="int" name="PHON_NSTRUCT">    -1</i>
   <i type="logical" name="LMUSIC"> F  </i>
   <v name="POMASS">     10.81100000</v>
   <v name="DARWINR">      0.00000000</v>
   <v name="DARWINV">      1.00000000</v>
   <i type="logical" name="LCORR"> T  </i>
  </separator>
  <i type="logical" name="GGA_COMPAT"> T  </i>
  <i type="logical" name="LBERRY"> F  </i>
  <i type="int" name="ICORELEVEL">     0</i>
  <i type="logical" name="LDAU"> F  </i>
  <i type="int" name="I_CONSTRAINED_M">     0</i>
  <separator name="electronic exchange-correlation" >
   <i type="string" name="GGA    ">PE</i>
   <i type="string" name="XC_C">1</i>
   <i type="int" name="VOSKOWN">     0</i>
   <i type="logical" name="LHFCALC"> F  </i>
   <i type="string" name="PRECFOCK"></i>
   <i type="logical" name="LSYMGRAD"> F  </i>
   <i type="logical" name="LHFONE"> F  </i>
   <i type="logical" name="LRHFCALC"> F  </i>
   <i type="logical" name="LTHOMAS"> F  </i>
   <i type="logical" name="LMODELHF"> F  </i>
   <i type="logical" name="LFOCKACE"> F  </i>
   <i name="ENCUT4O">     -1.00000000</i>
   <i type="int" name="EXXOEP">     0</i>
   <i type="int" name="FOURORBIT">     0</i>
   <i name="AEXX">      0.00000000</i>
   <i name="HFALPHA">      0.00000000</i>
   <i name="MCALPHA">      0.00000000</i>
   <i name="ALDAX">      1.00000000</i>
   <i name="AGGAX">      1.00000000</i>
   <i name="AMGGAX">      1.00000000</i>
   <i name="ALDAC">      1.00000000</i>
   <i name="AGGAC">      1.00000000</i>
   <i name="AMGGAC">      1.00000000</i>
   <i type="int" name="NKREDX">     1</i>
   <i type="int" name="NKREDY">     1</i>
   <i type="int" name="NKREDZ">     1</i>
   <i type="logical" name="SHIFTRED"> F  </i>
   <i type="logical" name="ODDONLY"> F  </i>
   <i type="logical" name="EVENONLY"> F  </i>
   <i type="int" name="LMAXFOCK">     0</i>
   <i type="int" name="NMAXFOCKAE">     0</i>
   <i type="logical" name="LFOCKAEDFT"> F  </i>
   <i name="HFSCREEN">      0.00000000</i>
   <i name="HFSCREENC">      0.00000000</i>
   <i type="int" name="NBANDSGWLOW">     0</i>
  </separator>
  <separator name="vdW DFT" >
   <i type="logical" name="LUSE_VDW"> F  </i>
   <i type="int" name="IVDW_NL">    -1</i>
   <i type="logical" name="LSPIN_VDW"> F  </i>
   <i name="ZAB_VDW">     -0.84910000</i>
   <i name="GAMMA_VDW">      1.39626340</i>
   <i name="ALPHA_VDW">      0.00000000</i>
   <i name="PARAM1">      0.12340000</i>
   <i name="PARAM2">      1.00000000</i>
   <i name="BPARAM">      6.30000000</i>
   <i name="CPARAM">      0.00930000</i>
  </separator>
  <separator name="model GW" >
   <i type="int" name="MODEL_GW">     0</i>
   <i name="MODEL_EPS0">   2025.00000000</i>
   <i name="MODEL_ALPHA">      1.00000000</i>
  </separator>
  <separator name="linear response parameters" >
   <i type="logical" name="LEPSILON"> F  </i>
   <i type="logical" name="LRPA"> F  </i>
   <i type="logical" name="LNABLA"> F  </i>
   <i type="logical" name="LVEL"> F  </i>
   <i name="CSHIFT">      0.10000000</i>
   <i name="OMEGAMAX">     -1.00000000</i>
   <i name="DEG_THRESHOLD">      0.00200000</i>
   <i name="RTIME">     -0.10000000</i>
   <i name="WPLASMAI">      0.00000000</i>
   <v name="DFIELD">      0.00000000      0.00000000      0.00000000</v>
   <v name="WPLASMA">      0.00000000      0.00000000      0.00000000      0.00000000      0.00000000      0.00000000      0.00000000      0.00000000      0.00000000</v>
  </separator>
  <separator name="orbital magnetization" >
   <i type="logical" name="NUCIND"> F  </i>
   <v name="MAGPOS">      0.00000000      0.00000000      0.00000000</v>
   <i type="logical" name="LNICSALL"> T  </i>
   <i type="logical" name="ORBITALMAG"> F  </i>
   <i type="logical" name="LMAGBLOCH"> F  </i>
   <i type="logical" name="LCHIMAG"> F  </i>
   <i type="logical" name="LGAUGE"> T  </i>
   <i type="int" name="MAGATOM">     0</i>
   <v name="MAGDIPOL">      0.00000000      0.00000000      0.00000000</v>
   <v name="AVECCONST">      0.00000000      0.00000000      0.00000000</v>
  </separator>
  <separator name="response functions" >
   <i type="logical" name="LALL_IN_ONE"> F  </i>
   <i type="int" name="IALL_IN_ONE">    -1</i>
   <i type="int" name="NBANDS_WAVE">    -1</i>
   <i type="logical" name="LFINITE_TEMPERATURE"> F  </i>
   <i type="logical" name="LADDER"> F  </i>
   <i type="logical" name="LRPAFORCE"> F  </i>
   <i type="logical" name="LFXC"> F  </i>
   <i type="logical" name="LHARTREE"> T  </i>
   <i type="int" name="IBSE">     0</i>
   <v type="int" name="KPOINT">    -1     0     0     0</v>
   <i type="logical" name="LTCTC"> F  </i>
   <i type="logical" name="LTCTE"> F  </i>
   <i type="logical" name="LTETE"> F  </i>
   <i type="logical" name="LTRIPLET"> F  </i>
   <i type="logical" name="LFXCEPS"> F  </i>
   <i type="logical" name="LFXHEG"> F  </i>
   <i type="int" name="NATURALO">     2</i>
   <i type="logical" name="LHOLEGF"> F  </i>
   <i type="logical" name="L2ORDER"> F  </i>
   <i type="logical" name="LDMP1"> F  </i>
   <i type="logical" name="LMP2LT"> F  </i>
   <i type="logical" name="LSMP2LT"> F  </i>
   <i type="logical" name="LGWLF"> F  </i>
   <i name="ENCUTGW">     -1.60000002</i>
   <i name="ENCUTGWSOFT">     -1.60000002</i>
   <i name="ENCUTLF">     -1.00000000</i>
   <i type="logical" name="ESF_SPLINES"> F  </i>
   <i name="ESF_CONV">      0.01000000</i>
   <i type="int" name="ESF_NINTER">    15</i>
   <i type="int" name="LMAXMP2">    -1</i>
   <i name="SCISSOR">      0.00000000</i>
   <i type="int" name="NOMEGA">     0</i>
   <i type="int" name="NOMEGAR">     0</i>
   <i type="int" name="NBANDSGW">    -1</i>
   <i type="int" name="NBANDSO">    -1</i>
   <i type="int" name="NBANDSV">    -1</i>
   <i type="int" name="NELMGW">     1</i>
   <i type="int" name="NELMHF">     1</i>
   <i type="int" name="DIM">     3</i>
   <i type="int" name="IESPILON">     4</i>
   <i type="int" name="ANTIRES">     0</i>
   <i name="OMEGAMAX">    -30.00000000</i>
   <i name="OMEGAMIN">    -30.00000000</i>
   <i name="OMEGATL">   -200.00000000</i>
   <i type="int" name="OMEGAGRID">     0</i>
   <i name="CSHIFT">     -0.10000000</i>
   <i type="logical" name="LSELFENERGY"> F  </i>
   <i type="logical" name="LSPECTRAL"> F  </i>
   <i type="logical" name="LSPECTRALGW"> F  </i>
   <i type="logical" name="LSINGLES"> F  </i>
   <i type="logical" name="LFERMIGW"> F  </i>
   <i type="logical" name="ODDONLYGW"> F  </i>
   <i type="logical" name="EVENONLYGW"> F  </i>
   <i type="int" name="NKREDLFX">     1</i>
   <i type="int" name="NKREDLFY">     1</i>
   <i type="int" name="NKREDLFZ">     1</i>
   <i type="int" name="MAXMEM">  2800</i>
   <i type="int" name="TELESCOPE">     0</i>
   <i type="int" name="NTAUPAR">    -1</i>
   <i type="int" name="NOMEGAPAR">    -1</i>
   <i name="DAMP_NEWTON">      0.80000001</i>
   <i name="LAMBDA">      1.00000000</i>
  </separator>
  <separator name="External order field" >
   <i name="OFIELD_KAPPA">      0.00000000</i>
   <v name="OFIELD_K">      0.00000000      0.00000000      0.00000000</v>
   <i name="OFIELD_Q6_NEAR">      0.00000000</i>
   <i name="OFIELD_Q6_FAR">      0.00000000</i>
   <i name="OFIELD_A">      0.00000000</i>
  </separator>
  <separator name="optional k-points parameters" >
   <i type="int" name="KPOINTS_OPT_MODE">     1</i>
   <i type="logical" name="LKPOINTS_OPT"> F  </i>
  </separator>
 </parameters>
 <atominfo>
  <atoms>       1 </atoms>
  <types>       1 </types>
  <array name="atoms" >
   <dimension dim="1">ion</dimension>
   <field type="string">element</field>
   <field type="int">atomtype</field>
   <set>
    <rc><c>B </c><c>   1</c></rc>
   </set>
  </array>
  <array name="atomtypes" >
   <dimension dim="1">type</dimension>
   <field type="int">atomspertype</field>
   <field type="string">element</field>
   <field>mass</field>
   <field>valence</field>
   <field type="string">pseudopotential</field>
   <set>
    <rc><c>   1</c><c>B </c><c>     10.81100000</c><c>      3.00000000</c><c>  PAW_PBE B 06Sep2000                   </c></rc>
   </set>
  </array>
 </atominfo>
 <structure name="initialpos" >
  <crystal>
   <varray name="basis" >
    <v>      15.00000000       0.00000000       0.00000000 </v>
    <v>       0.00000000      12.50000000       0.00000000 </v>
    <v>       0.00000000       0.00000000      18.00000000 </v>
   </varray>
   <i name="volume">   3375.00000000 </i>
   <varray name="rec_basis" >
    <v>       0.06666667       0.00000000       0.00000000 </v>
    <v>       0.00000000       0.08000000       0.00000000 </v>
    <v>       0.00000000       0.00000000       0.05555556 </v>
   </varray>
  </crystal>
  <varray name="positions" >
   <v>       0.52123000       0.54500000       0.63796000 </v>
  </varray>
 </structure>
 <calculation>
  <scstep>
   <time name="dav">   65.45   66.84</time>
   <time name="total">   65.78   67.18</time>
   <energy>
    <i name="alphaZ">      0.02038373 </i>
    <i name="ewald">    -11.82901664 </i>
    <i name="hartreedc">    -42.58396533 </i>
    <i name="XCdc">      4.75549673 </i>
    <i name="pawpsdc">     43.49986551 </i>
    <i name="pawaedc">    -42.64454556 </i>
    <i name="eentropy">     -0.01146884 </i>
    <i name="bandstr">    -14.86999481 </i>
    <i name="atom">     71.16900941 </i>
    <i name="e_fr_energy">      7.50576419 </i>
    <i name="e_wo_entrp">      7.51723304 </i>
    <i name="e_0_energy">      7.51149862 </i>
   </energy>
  </scstep>
  <scstep>
   <time name="dav">  104.50  106.47</time>
   <time name="total">  104.51  106.47</time>
   <energy>
    <i name="e_fr_energy">      0.06905674 </i>
    <i name="e_wo_entrp">      0.10055211 </i>
    <i name="e_0_energy">      0.08480442 </i>
   </energy>
  </scstep>
  <scstep>
   <time name="dav">   66.50   67.71</time>
   <time name="total">   66.50   67.71</time>
   <energy>
    <i name="e_fr_energy">     -0.05583765 </i>
    <i name="e_wo_entrp">     -0.00289131 </i>
    <i name="e_0_energy">     -0.02936448 </i>
   </energy>
  </scstep>
  <scstep>
   <time name="dav">   71.31   72.75</time>
   <time name="total">   71.31   72.76</time>
   <energy>
    <i name="e_fr_energy">     -0.05824407 </i>
    <i name="e_wo_entrp">     -0.00524275 </i>
    <i name="e_0_energy">     -0.03174341 </i>
   </energy>
  </scstep>
  <scstep>
   <time name="dav">   88.45   89.98</time>
   <time name="total">   92.81   94.39</time>
   <energy>
    <i name="e_fr_energy">     -0.05827178 </i>
    <i name="e_wo_entrp">     -0.00527044 </i>
    <i name="e_0_energy">     -0.03177111 </i>
   </energy>
  </scstep>
  <scstep>
   <time name="dav">   83.52   84.98</time>
   <time name="total">   83.82   85.29</time>
   <energy>
    <i name="alphaZ">      0.02038373 </i>
    <i name="ewald">    -11.82901664 </i>
    <i name="hartreedc">    -42.58388860 </i>
    <i name="XCdc">      4.75537073 </i>
    <i name="pawpsdc">     43.51342936 </i>
    <i name="pawaedc">    -42.65821600 </i>
    <i name="eentropy">     -0.05300134 </i>
    <i name="bandstr">    -22.39234273 </i>
    <i name="atom">     71.16900941 </i>
    <i name="e_fr_energy">     -0.05827208 </i>
    <i name="e_wo_entrp">     -0.00527074 </i>
    <i name="e_0_energy">     -0.03177141 </i>
   </energy>
  </scstep>
  <structure>
   <crystal>
    <varray name="basis" >
     <v>      15.00000000       0.00000000       0.00000000 </v>
     <v>       0.00000000      12.50000000       0.00000000 </v>
     <v>       0.00000000       0.00000000      18.00000000 </v>
    </varray>
    <i name="volume">   3375.00000000 </i>
    <varray name="rec_basis" >
     <v>       0.06666667       0.00000000       0.00000000 </v>
     <v>       0.00000000       0.08000000       0.00000000 </v>
     <v>       0.00000000       0.00000000       0.05555556 </v>
    </varray>
   </crystal>
   <varray name="positions" >
    <v>       0.52123000       0.54500000       0.63796000 </v>
   </varray>
  </structure>
  <varray name="forces" >
   <v>       0.00000000       0.00000000       0.00000000 </v>
  </varray>
  <varray name="stress" >
   <v>      -0.00063332       0.00000000       0.00000000 </v>
   <v>       0.00000000      -0.00057356       0.00000000 </v>
   <v>       0.00000000       0.00000000      -0.00062577 </v>
  </varray>
  <energy>
   <i name="e_fr_energy">     -0.05827208 </i>
   <i name="e_wo_entrp">     -0.00527074 </i>
   <i name="e_0_energy">     -0.03177141 </i>
  </energy>
  <time name="totalsc">  538.32  548.05</time>
  <eigenvalues>
   <array>
    <dimension dim="1">band</dimension>
    <dimension dim="2">kpoint</dimension>
    <dimension dim="3">spin</dimension>
    <field>eigene</field>
    <field>occ</field>
    <set>
     <set comment="spin 1">
      <set comment="kpoint 1">
       <r>   -9.4099    1.0000 </r>
       <r>   -3.5726    0.1667 </r>
       <r>   -3.5726    0.1667 </r>
       <r>   -3.5724    0.1659 </r>
       <r>   -0.2637    0.0000 </r>
       <r>    0.2603    0.0000 </r>
       <r>    0.3428    0.0000 </r>
       <r>    0.4698    0.0000 </r>
       <r>    0.5373    0.0000 </r>
       <r>    0.7259    0.0000 </r>
       <r>    0.7860    0.0000 </r>
       <r>    0.9295    0.0000 </r>
       <r>    0.9584    0.0000 </r>
       <r>    1.0201    0.0000 </r>
       <r>    1.0554    0.0000 </r>
       <r>    1.1822    0.0000 </r>
       <r>    1.2613    0.0000 </r>
       <r>    1.2747    0.0000 </r>
       <r>    1.3284    0.0000 </r>
       <r>    1.3463    0.0000 </r>
       <r>    1.4692    0.0000 </r>
       <r>    1.4792    0.0000 </r>
       <r>    1.5116    0.0000 </r>
       <r>    1.6268    0.0000 </r>
      </set>
      <set comment="kpoint 2">
       <r>   -9.4099    1.0000 </r>
       <r>   -3.5726    0.1667 </r>
       <r>   -3.5726    0.1667 </r>
       <r>   -3.5724    0.1659 </r>
       <r>   -0.2595    0.0000 </r>
       <r>    0.2613    0.0000 </r>
       <r>    0.3362    0.0000 </r>
       <r>    0.4097    0.0000 </r>
       <r>    0.6234    0.0000 </r>
       <r>    0.7298    0.0000 </r>
       <r>    0.7911    0.0000 </r>
       <r>    0.8340    0.0000 </r>
       <r>    0.9260    0.0000 </r>
       <r>    1.0628    0.0000 </r>
       <r>    1.1570    0.0000 </r>
       <r>    1.1852    0.0000 </r>
       <r>    1.2514    0.0000 </r>
       <r>    1.2691    0.0000 </r>
       <r>    1.3165    0.0000 </r>
       <r>    1.3453    0.0000 </r>
       <r>    1.3846    0.0000 </r>
       <r>    1.5534    0.0000 </r>
       <r>    1.5606    0.0000 </r>
       <r>    1.6573    0.0000 </r>
      </set>
      <set comment="kpoint 3">
       <r>   -9.4099    1.0000 </r>
       <r>   -3.5726    0.1667 </r>
       <r>   -3.5726    0.1667 </r>
       <r>   -3.5724    0.1659 </r>
       <r>   -0.2476    0.0000 </r>
       <r>    0.2429    0.0000 </r>
       <r>    0.3105    0.0000 </r>
       <r>    0.3909    0.0000 </r>
       <r>    0.7222    0.0000 </r>
       <r>    0.7413    0.0000 </r>
       <r>    0.7556    0.0000 </r>
       <r>    0.8076    0.0000 </r>
       <r>    0.8320    0.0000 </r>
       <r>    1.1734    0.0000 </r>
       <r>    1.1820    0.0000 </r>
       <r>    1.2090    0.0000 </r>
       <r>    1.2369    0.0000 </r>
       <r>    1.3025    0.0000 </r>
       <r>    1.3152    0.0000 </r>
       <r>    1.3235    0.0000 </r>
       <r>    1.3795    0.0000 </r>
       <r>    1.5898    0.0000 </r>
       <r>    1.6357    0.0000 </r>
       <r>    1.6971    0.0000 </r>
      </set>
      <set comment="kpoint 4">
       <r>   -9.4099    1.0000 </r>
       <r>   -3.5726    0.1667 </r>
       <r>   -3.5726    0.1667 </r>
       <r>   -3.5724    0.1659 </r>
       <r>   -0.2295    0.0000 </r>
       <r>    0.1813    0.0000 </r>
       <r>    0.3210    0.0000 </r>
       <r>    0.4095    0.0000 </r>
       <r>    0.6450    0.0000 </r>
       <r>    0.7311    0.0000 </r>
       <r>    0.7590    0.0000 </r>
       <r>    0.8256    0.0000 </r>
       <r>    0.9012    0.0000 </r>
       <r>    1.1100    0.0000 </r>
       <r>    1.1790    0.0000 </r>
       <r>    1.2215    0.0000 </r>
       <r>    1.2717    0.0000 </r>
       <r>    1.3454    0.0000 </r>
       <r>    1.3529    0.0000 </r>
       <r>    1.4022    0.0000 </r>
       <r>    1.4535    0.0000 </r>
       <r>    1.5890    0.0000 </r>
       <r>    1.6062    0.0000 </r>
       <r>    1.6211    0.0000 </r>
      </set>
      <set comment="kpoint 5">
       <r>   -9.4099    1.0000 </r>
       <r>   -3.5726    0.1668 </r>
       <r>   -3.5726    0.1667 </r>
       <r>   -3.5724    0.1659 </r>
       <r>   -0.2093    0.0000 </r>
       <r>    0.1233    0.0000 </r>
       <r>    0.3482    0.0000 </r>
       <r>    0.4396    0.0000 </r>
       <r>    0.5722    0.0000 </r>
       <r>    0.6592    0.0000 </r>
       <r>    0.7793    0.0000 </r>
       <r>    0.8545    0.0000 </r>
       <r>    1.0332    0.0000 </r>
       <r>    1.0538    0.0000 </r>
       <r>    1.1266    0.0000 </r>
       <r>    1.2418    0.0000 </r>
       <r>    1.3185    0.0000 </r>
       <r>    1.3766    0.0000 </r>
       <r>    1.4090    0.0000 </r>
       <r>    1.4781    0.0000 </r>
       <r>    1.5221    0.0000 </r>
       <r>    1.5667    0.0000 </r>
       <r>    1.5739    0.0000 </r>
       <r>    1.5852    0.0000 </r>
      </set>
      <set comment="kpoint 6">
       <r>   -9.4099    1.0000 </r>
       <r>   -3.5726    0.1668 </r>
       <r>   -3.5726    0.1667 </r>
       <r>   -3.5724    0.1659 </r>
       <r>   -0.1947    0.0000 </r>
       <r>    0.0889    0.0000 </r>
       <r>    0.3743    0.0000 </r>
       <r>    0.4708    0.0000 </r>
       <r>    0.5208    0.0000 </r>
       <r>    0.6096    0.0000 </r>
       <r>    0.7946    0.0000 </r>
       <r>    0.8782    0.0000 </r>
       <r>    1.0200    0.0000 </r>
       <r>    1.0508    0.0000 </r>
       <r>    1.2174    0.0000 </r>
       <r>    1.2572    0.0000 </r>
       <r>    1.3481    0.0000 </r>
       <r>    1.3876    0.0000 </r>
       <r>    1.4126    0.0000 </r>
       <r>    1.4632    0.0000 </r>
       <r>    1.4692    0.0000 </r>
       <r>    1.4946    0.0000 </r>
       <r>    1.5585    0.0000 </r>
       <r>    1.5709    0.0000 </r>
      </set>
      <set comment="kpoint 7">
       <r>   -9.4099    1.0000 </r>
       <r>   -3.5726    0.1667 </r>
       <r>   -3.5726    0.1667 </r>
       <r>   -3.5724    0.1659 </r>
       <r>   -0.2597    0.0000 </r>
       <r>    0.2642    0.0000 </r>
       <r>    0.3464    0.0000 </r>
       <r>    0.4736    0.0000 </r>
       <r>    0.5407    0.0000 </r>
       <r>    0.6362    0.0000 </r>
       <r>    0.8829    0.0000 </r>
       <r>    0.9333    0.0000 </r>
       <r>    0.9610    0.0000 </r>
       <r>    1.0235    0.0000 </r>
       <r>    1.0554    0.0000 </r>
       <r>    1.1064    0.0000 </r>
       <r>    1.1858    0.0000 </r>
       <r>    1.2684    0.0000 </r>
       <r>    1.3466    0.0000 </r>
       <r>    1.3823    0.0000 </r>
       <r>    1.4437    0.0000 </r>
       <r>    1.5450    0.0000 </r>
       <r>    1.5692    0.0000 </r>
       <r>    1.6668    0.0000 </r>
      </set>
      <set comment="kpoint 8">
       <r>   -9.4099    1.0000 </r>
       <r>   -3.5726    0.1667 </r>
       <r>   -3.5726    0.1667 </r>
       <r>   -3.5725    0.1659 </r>
       <r>   -0.2555    0.0000 </r>
       <r>    0.2651    0.0000 </r>
       <r>    0.3399    0.0000 </r>
       <r>    0.4136    0.0000 </r>
       <r>    0.6212    0.0000 </r>
       <r>    0.6461    0.0000 </r>
       <r>    0.8375    0.0000 </r>
       <r>    0.8874    0.0000 </r>
       <r>    0.9303    0.0000 </r>
       <r>    1.0597    0.0000 </r>
       <r>    1.1051    0.0000 </r>
       <r>    1.1667    0.0000 </r>
       <r>    1.1756    0.0000 </r>
       <r>    1.2299    0.0000 </r>
       <r>    1.3599    0.0000 </r>
       <r>    1.4176    0.0000 </r>
       <r>    1.4352    0.0000 </r>
       <r>    1.5178    0.0000 </r>
       <r>    1.5925    0.0000 </r>
       <r>    1.6730    0.0000 </r>
      </set>
      <set comment="kpoint 9">
       <r>   -9.4099    1.0000 </r>
       <r>   -3.5726    0.1667 </r>
       <r>   -3.5726    0.1667 </r>
       <r>   -3.5724    0.1659 </r>
       <r>   -0.2436    0.0000 </r>
       <r>    0.2468    0.0000 </r>
       <r>    0.3144    0.0000 </r>
       <r>    0.3947    0.0000 </r>
       <r>    0.6504    0.0000 </r>
       <r>    0.7271    0.0000 </r>
       <r>    0.7622    0.0000 </r>
       <r>    0.8359    0.0000 </r>
       <r>    0.9013    0.0000 </r>
       <r>    1.0898    0.0000 </r>
       <r>    1.1188    0.0000 </r>
       <r>    1.2039    0.0000 </r>
       <r>    1.2239    0.0000 </r>
       <r>    1.2895    0.0000 </r>
       <r>    1.3598    0.0000 </r>
       <r>    1.3868    0.0000 </r>
       <r>    1.4670    0.0000 </r>
       <r>    1.5583    0.0000 </r>
       <r>    1.5881    0.0000 </r>
       <r>    1.6150    0.0000 </r>
      </set>
      <set comment="kpoint 10">
       <r>   -9.4099    1.0000 </r>
       <r>   -3.5726    0.1667 </r>
       <r>   -3.5726    0.1667 </r>
       <r>   -3.5724    0.1659 </r>
       <r>   -0.2255    0.0000 </r>
       <r>    0.1853    0.0000 </r>
       <r>    0.3249    0.0000 </r>
       <r>    0.4132    0.0000 </r>
       <r>    0.6490    0.0000 </r>
       <r>    0.6709    0.0000 </r>
       <r>    0.7350    0.0000 </r>
       <r>    0.9005    0.0000 </r>
       <r>    0.9232    0.0000 </r>
       <r>    1.0256    0.0000 </r>
       <r>    1.1365    0.0000 </r>
       <r>    1.2437    0.0000 </r>
       <r>    1.2708    0.0000 </r>
       <r>    1.3228    0.0000 </r>
       <r>    1.4073    0.0000 </r>
       <r>    1.4548    0.0000 </r>
       <r>    1.4859    0.0000 </r>
       <r>    1.5014    0.0000 </r>
       <r>    1.5716    0.0000 </r>
       <r>    1.6155    0.0000 </r>
      </set>
      <set comment="kpoint 11">
       <r>   -9.4099    1.0000 </r>
       <r>   -3.5726    0.1668 </r>
       <r>   -3.5726    0.1667 </r>
       <r>   -3.5724    0.1659 </r>
       <r>   -0.2054    0.0000 </r>
       <r>    0.1274    0.0000 </r>
       <r>    0.3521    0.0000 </r>
       <r>    0.4434    0.0000 </r>
       <r>    0.5762    0.0000 </r>
       <r>    0.6631    0.0000 </r>
       <r>    0.6946    0.0000 </r>
       <r>    0.9374    0.0000 </r>
       <r>    0.9626    0.0000 </r>
       <r>    1.0561    0.0000 </r>
       <r>    1.1626    0.0000 </r>
       <r>    1.2135    0.0000 </r>
       <r>    1.2752    0.0000 </r>
       <r>    1.3800    0.0000 </r>
       <r>    1.4264    0.0000 </r>
       <r>    1.4827    0.0000 </r>
       <r>    1.5088    0.0000 </r>
       <r>    1.5250    0.0000 </r>
       <r>    1.5924    0.0000 </r>
       <r>    1.6102    0.0000 </r>
      </set>
      <set comment="kpoint 12">
       <r>   -9.4099    1.0000 </r>
       <r>   -3.5726    0.1668 </r>
       <r>   -3.5726    0.1667 </r>
       <r>   -3.5724    0.1659 </r>
       <r>   -0.1908    0.0000 </r>
       <r>    0.0930    0.0000 </r>
       <r>    0.3781    0.0000 </r>
       <r>    0.4745    0.0000 </r>
       <r>    0.5248    0.0000 </r>
       <r>    0.6136    0.0000 </r>
       <r>    0.7132    0.0000 </r>
       <r>    0.9167    0.0000 </r>
       <r>    0.9668    0.0000 </r>
       <r>    1.1538    0.0000 </r>
       <r>    1.1831    0.0000 </r>
       <r>    1.2259    0.0000 </r>
       <r>    1.3070    0.0000 </r>
       <r>    1.3583    0.0000 </r>
       <r>    1.4022    0.0000 </r>
       <r>    1.4304    0.0000 </r>
       <r>    1.4546    0.0000 </r>
       <r>    1.5767    0.0000 </r>
       <r>    1.5905    0.0000 </r>
       <r>    1.6583    0.0000 </r>
      </set>
      <set comment="kpoint 13">
       <r>   -9.4099    1.0000 </r>
       <r>   -3.5726    0.1667 </r>
       <r>   -3.5726    0.1666 </r>
       <r>   -3.5725    0.1661 </r>
       <r>   -0.2478    0.0000 </r>
       <r>    0.2754    0.0000 </r>
       <r>    0.3567    0.0000 </r>
       <r>    0.4848    0.0000 </r>
       <r>    0.5225    0.0000 </r>
       <r>    0.5616    0.0000 </r>
       <r>    0.9446    0.0000 </r>
       <r>    0.9501    0.0000 </r>
       <r>    0.9977    0.0000 </r>
       <r>    1.0124    0.0000 </r>
       <r>    1.0325    0.0000 </r>
       <r>    1.0786    0.0000 </r>
       <r>    1.0932    0.0000 </r>
       <r>    1.1753    0.0000 </r>
       <r>    1.2672    0.0000 </r>
       <r>    1.4795    0.0000 </r>
       <r>    1.5626    0.0000 </r>
       <r>    1.6035    0.0000 </r>
       <r>    1.6268    0.0000 </r>
       <r>    1.6844    0.0000 </r>
      </set>
      <set comment="kpoint 14">
       <r>   -9.4099    1.0000 </r>
       <r>   -3.5726    0.1667 </r>
       <r>   -3.5726    0.1667 </r>
       <r>   -3.5725    0.1661 </r>
       <r>   -0.2437    0.0000 </r>
       <r>    0.2763    0.0000 </r>
       <r>    0.3506    0.0000 </r>
       <r>    0.4253    0.0000 </r>
       <r>    0.5314    0.0000 </r>
       <r>    0.6423    0.0000 </r>
       <r>    0.8486    0.0000 </r>
       <r>    0.9386    0.0000 </r>
       <r>    0.9781    0.0000 </r>
       <r>    1.0178    0.0000 </r>
       <r>    1.0643    0.0000 </r>
       <r>    1.1024    0.0000 </r>
       <r>    1.1181    0.0000 </r>
       <r>    1.1870    0.0000 </r>
       <r>    1.3380    0.0000 </r>
       <r>    1.4799    0.0000 </r>
       <r>    1.5439    0.0000 </r>
       <r>    1.5687    0.0000 </r>
       <r>    1.6048    0.0000 </r>
       <r>    1.6246    0.0000 </r>
      </set>
      <set comment="kpoint 15">
       <r>   -9.4099    1.0000 </r>
       <r>   -3.5726    0.1667 </r>
       <r>   -3.5726    0.1667 </r>
       <r>   -3.5725    0.1661 </r>
       <r>   -0.2317    0.0000 </r>
       <r>    0.2580    0.0000 </r>
       <r>    0.3262    0.0000 </r>
       <r>    0.4056    0.0000 </r>
       <r>    0.5449    0.0000 </r>
       <r>    0.7380    0.0000 </r>
       <r>    0.7740    0.0000 </r>
       <r>    0.8477    0.0000 </r>
       <r>    0.9721    0.0000 </r>
       <r>    1.0182    0.0000 </r>
       <r>    1.0384    0.0000 </r>
       <r>    1.1169    0.0000 </r>
       <r>    1.2169    0.0000 </r>
       <r>    1.3112    0.0000 </r>
       <r>    1.4108    0.0000 </r>
       <r>    1.4653    0.0000 </r>
       <r>    1.5006    0.0000 </r>
       <r>    1.5286    0.0000 </r>
       <r>    1.5617    0.0000 </r>
       <r>    1.6210    0.0000 </r>
      </set>
      <set comment="kpoint 16">
       <r>   -9.4099    1.0000 </r>
       <r>   -3.5726    0.1667 </r>
       <r>   -3.5726    0.1667 </r>
       <r>   -3.5725    0.1661 </r>
       <r>   -0.2137    0.0000 </r>
       <r>    0.1972    0.0000 </r>
       <r>    0.3366    0.0000 </r>
       <r>    0.4237    0.0000 </r>
       <r>    0.5654    0.0000 </r>
       <r>    0.6608    0.0000 </r>
       <r>    0.7458    0.0000 </r>
       <r>    0.8962    0.0000 </r>
       <r>    0.9337    0.0000 </r>
       <r>    1.0270    0.0000 </r>
       <r>    1.0540    0.0000 </r>
       <r>    1.1400    0.0000 </r>
       <r>    1.3279    0.0000 </r>
       <r>    1.3636    0.0000 </r>
       <r>    1.4219    0.0000 </r>
       <r>    1.4269    0.0000 </r>
       <r>    1.5019    0.0000 </r>
       <r>    1.5307    0.0000 </r>
       <r>    1.5853    0.0000 </r>
       <r>    1.6428    0.0000 </r>
      </set>
      <set comment="kpoint 17">
       <r>   -9.4099    1.0000 </r>
       <r>   -3.5726    0.1667 </r>
       <r>   -3.5726    0.1667 </r>
       <r>   -3.5725    0.1661 </r>
       <r>   -0.1936    0.0000 </r>
       <r>    0.1395    0.0000 </r>
       <r>    0.3636    0.0000 </r>
       <r>    0.4536    0.0000 </r>
       <r>    0.5853    0.0000 </r>
       <r>    0.5929    0.0000 </r>
       <r>    0.6743    0.0000 </r>
       <r>    0.8466    0.0000 </r>
       <r>    1.0511    0.0000 </r>
       <r>    1.0667    0.0000 </r>
       <r>    1.0778    0.0000 </r>
       <r>    1.1724    0.0000 </r>
       <r>    1.2846    0.0000 </r>
       <r>    1.3383    0.0000 </r>
       <r>    1.3893    0.0000 </r>
       <r>    1.4970    0.0000 </r>
       <r>    1.5456    0.0000 </r>
       <r>    1.5826    0.0000 </r>
       <r>    1.6254    0.0000 </r>
       <r>    1.6691    0.0000 </r>
      </set>
      <set comment="kpoint 18">
       <r>   -9.4099    1.0000 </r>
       <r>   -3.5726    0.1668 </r>
       <r>   -3.5726    0.1667 </r>
       <r>   -3.5725    0.1661 </r>
       <r>   -0.1791    0.0000 </r>
       <r>    0.1052    0.0000 </r>
       <r>    0.3895    0.0000 </r>
       <r>    0.4845    0.0000 </r>
       <r>    0.5367    0.0000 </r>
       <r>    0.6100    0.0000 </r>
       <r>    0.6252    0.0000 </r>
       <r>    0.8081    0.0000 </r>
       <r>    1.0725    0.0000 </r>
       <r>    1.0958    0.0000 </r>
       <r>    1.1934    0.0000 </r>
       <r>    1.2204    0.0000 </r>
       <r>    1.2460    0.0000 </r>
       <r>    1.3049    0.0000 </r>
       <r>    1.3400    0.0000 </r>
       <r>    1.4224    0.0000 </r>
       <r>    1.5587    0.0000 </r>
       <r>    1.6467    0.0000 </r>
       <r>    1.6918    0.0000 </r>
       <r>    1.7100    0.0000 </r>
      </set>
      <set comment="kpoint 19">
       <r>   -9.4099    1.0000 </r>
       <r>   -3.5726    0.1667 </r>
       <r>   -3.5725    0.1666 </r>
       <r>   -3.5725    0.1664 </r>
       <r>   -0.2285    0.0000 </r>
       <r>    0.2918    0.0000 </r>
       <r>    0.3670    0.0000 </r>
       <r>    0.4400    0.0000 </r>
       <r>    0.5033    0.0000 </r>
       <r>    0.5780    0.0000 </r>
       <r>    0.8748    0.0000 </r>
       <r>    0.9578    0.0000 </r>
       <r>    0.9623    0.0000 </r>
       <r>    1.0107    0.0000 </r>
       <r>    1.0349    0.0000 </r>
       <r>    1.0978    0.0000 </r>
       <r>    1.0998    0.0000 </r>
       <r>    1.1462    0.0000 </r>
       <r>    1.1867    0.0000 </r>
       <r>    1.5482    0.0000 </r>
       <r>    1.5520    0.0000 </r>
       <r>    1.6074    0.0000 </r>
       <r>    1.6337    0.0000 </r>
       <r>    1.6553    0.0000 </r>
      </set>
      <set comment="kpoint 20">
       <r>   -9.4099    1.0000 </r>
       <r>   -3.5726    0.1667 </r>
       <r>   -3.5725    0.1666 </r>
       <r>   -3.5725    0.1664 </r>
       <r>   -0.2243    0.0000 </r>
       <r>    0.2924    0.0000 </r>
       <r>    0.3639    0.0000 </r>
       <r>    0.4379    0.0000 </r>
       <r>    0.4489    0.0000 </r>
       <r>    0.6615    0.0000 </r>
       <r>    0.8574    0.0000 </r>
       <r>    0.8957    0.0000 </r>
       <r>    0.9375    0.0000 </r>
       <r>    0.9785    0.0000 </r>
       <r>    1.0223    0.0000 </r>
       <r>    1.1073    0.0000 </r>
       <r>    1.1594    0.0000 </r>
       <r>    1.2082    0.0000 </r>
       <r>    1.2480    0.0000 </r>
       <r>    1.4526    0.0000 </r>
       <r>    1.5378    0.0000 </r>
       <r>    1.6006    0.0000 </r>
       <r>    1.6355    0.0000 </r>
       <r>    1.6978    0.0000 </r>
      </set>
      <set comment="kpoint 21">
       <r>   -9.4099    1.0000 </r>
       <r>   -3.5726    0.1667 </r>
       <r>   -3.5726    0.1667 </r>
       <r>   -3.5725    0.1664 </r>
       <r>   -0.2124    0.0000 </r>
       <r>    0.2750    0.0000 </r>
       <r>    0.3458    0.0000 </r>
       <r>    0.4140    0.0000 </r>
       <r>    0.4593    0.0000 </r>
       <r>    0.7544    0.0000 </r>
       <r>    0.7928    0.0000 </r>
       <r>    0.8622    0.0000 </r>
       <r>    0.8829    0.0000 </r>
       <r>    0.9249    0.0000 </r>
       <r>    1.0060    0.0000 </r>
       <r>    1.1748    0.0000 </r>
       <r>    1.2339    0.0000 </r>
       <r>    1.3225    0.0000 </r>
       <r>    1.3390    0.0000 </r>
       <r>    1.3867    0.0000 </r>
       <r>    1.4559    0.0000 </r>
       <r>    1.6114    0.0000 </r>
       <r>    1.6301    0.0000 </r>
       <r>    1.6949    0.0000 </r>
      </set>
      <set comment="kpoint 22">
       <r>   -9.4099    1.0000 </r>
       <r>   -3.5726    0.1667 </r>
       <r>   -3.5726    0.1667 </r>
       <r>   -3.5725    0.1664 </r>
       <r>   -0.1945    0.0000 </r>
       <r>    0.2164    0.0000 </r>
       <r>    0.3552    0.0000 </r>
       <r>    0.4298    0.0000 </r>
       <r>    0.4809    0.0000 </r>
       <r>    0.6795    0.0000 </r>
       <r>    0.7579    0.0000 </r>
       <r>    0.8176    0.0000 </r>
       <r>    0.9317    0.0000 </r>
       <r>    0.9410    0.0000 </r>
       <r>    1.0260    0.0000 </r>
       <r>    1.1944    0.0000 </r>
       <r>    1.2560    0.0000 </r>
       <r>    1.3345    0.0000 </r>
       <r>    1.3894    0.0000 </r>
       <r>    1.4746    0.0000 </r>
       <r>    1.5018    0.0000 </r>
       <r>    1.5837    0.0000 </r>
       <r>    1.6425    0.0000 </r>
       <r>    1.6969    0.0000 </r>
      </set>
      <set comment="kpoint 23">
       <r>   -9.4099    1.0000 </r>
       <r>   -3.5726    0.1667 </r>
       <r>   -3.5726    0.1667 </r>
       <r>   -3.5725    0.1664 </r>
       <r>   -0.1746    0.0000 </r>
       <r>    0.1596    0.0000 </r>
       <r>    0.3818    0.0000 </r>
       <r>    0.4570    0.0000 </r>
       <r>    0.5080    0.0000 </r>
       <r>    0.6076    0.0000 </r>
       <r>    0.6886    0.0000 </r>
       <r>    0.7529    0.0000 </r>
       <r>    0.9584    0.0000 </r>
       <r>    1.0547    0.0000 </r>
       <r>    1.0870    0.0000 </r>
       <r>    1.1831    0.0000 </r>
       <r>    1.2241    0.0000 </r>
       <r>    1.2744    0.0000 </r>
       <r>    1.4783    0.0000 </r>
       <r>    1.5286    0.0000 </r>
       <r>    1.5792    0.0000 </r>
       <r>    1.6347    0.0000 </r>
       <r>    1.6785    0.0000 </r>
       <r>    1.6921    0.0000 </r>
      </set>
      <set comment="kpoint 24">
       <r>   -9.4099    1.0000 </r>
       <r>   -3.5726    0.1667 </r>
       <r>   -3.5726    0.1667 </r>
       <r>   -3.5725    0.1664 </r>
       <r>   -0.1602    0.0000 </r>
       <r>    0.1256    0.0000 </r>
       <r>    0.4073    0.0000 </r>
       <r>    0.4822    0.0000 </r>
       <r>    0.5331    0.0000 </r>
       <r>    0.5572    0.0000 </r>
       <r>    0.6411    0.0000 </r>
       <r>    0.7115    0.0000 </r>
       <r>    0.9829    0.0000 </r>
       <r>    1.0869    0.0000 </r>
       <r>    1.1318    0.0000 </r>
       <r>    1.2188    0.0000 </r>
       <r>    1.2247    0.0000 </r>
       <r>    1.2693    0.0000 </r>
       <r>    1.4044    0.0000 </r>
       <r>    1.4857    0.0000 </r>
       <r>    1.6439    0.0000 </r>
       <r>    1.6906    0.0000 </r>
       <r>    1.7355    0.0000 </r>
       <r>    1.7789    0.0000 </r>
      </set>
      <set comment="kpoint 25">
       <r>   -9.4099    1.0000 </r>
       <r>   -3.5726    0.1668 </r>
       <r>   -3.5726    0.1667 </r>
       <r>   -3.5725    0.1666 </r>
       <r>   -0.2025    0.0000 </r>
       <r>    0.2898    0.0000 </r>
       <r>    0.3507    0.0000 </r>
       <r>    0.4235    0.0000 </r>
       <r>    0.5285    0.0000 </r>
       <r>    0.6065    0.0000 </r>
       <r>    0.7848    0.0000 </r>
       <r>    0.8687    0.0000 </r>
       <r>    0.9633    0.0000 </r>
       <r>    1.0030    0.0000 </r>
       <r>    1.0333    0.0000 </r>
       <r>    1.0664    0.0000 </r>
       <r>    1.0971    0.0000 </r>
       <r>    1.1288    0.0000 </r>
       <r>    1.3089    0.0000 </r>
       <r>    1.4613    0.0000 </r>
       <r>    1.4744    0.0000 </r>
       <r>    1.5456    0.0000 </r>
       <r>    1.5817    0.0000 </r>
       <r>    1.6404    0.0000 </r>
      </set>
      <set comment="kpoint 26">
       <r>   -9.4099    1.0000 </r>
       <r>   -3.5726    0.1668 </r>
       <r>   -3.5726    0.1667 </r>
       <r>   -3.5725    0.1666 </r>
       <r>   -0.1984    0.0000 </r>
       <r>    0.2914    0.0000 </r>
       <r>    0.3553    0.0000 </r>
       <r>    0.4153    0.0000 </r>
       <r>    0.4726    0.0000 </r>
       <r>    0.6884    0.0000 </r>
       <r>    0.7871    0.0000 </r>
       <r>    0.8597    0.0000 </r>
       <r>    0.8957    0.0000 </r>
       <r>    0.9314    0.0000 </r>
       <r>    0.9998    0.0000 </r>
       <r>    1.1263    0.0000 </r>
       <r>    1.1504    0.0000 </r>
       <r>    1.2337    0.0000 </r>
       <r>    1.3100    0.0000 </r>
       <r>    1.3666    0.0000 </r>
       <r>    1.4510    0.0000 </r>
       <r>    1.5900    0.0000 </r>
       <r>    1.6438    0.0000 </r>
       <r>    1.6816    0.0000 </r>
      </set>
      <set comment="kpoint 27">
       <r>   -9.4099    1.0000 </r>
       <r>   -3.5726    0.1668 </r>
       <r>   -3.5726    0.1667 </r>
       <r>   -3.5725    0.1666 </r>
       <r>   -0.1866    0.0000 </r>
       <r>    0.2858    0.0000 </r>
       <r>    0.3650    0.0000 </r>
       <r>    0.3727    0.0000 </r>
       <r>    0.4623    0.0000 </r>
       <r>    0.7549    0.0000 </r>
       <r>    0.8053    0.0000 </r>
       <r>    0.8113    0.0000 </r>
       <r>    0.8390    0.0000 </r>
       <r>    0.9051    0.0000 </r>
       <r>    0.9139    0.0000 </r>
       <r>    1.2248    0.0000 </r>
       <r>    1.2616    0.0000 </r>
       <r>    1.2754    0.0000 </r>
       <r>    1.3269    0.0000 </r>
       <r>    1.3593    0.0000 </r>
       <r>    1.3898    0.0000 </r>
       <r>    1.6528    0.0000 </r>
       <r>    1.7117    0.0000 </r>
       <r>    1.7667    0.0000 </r>
      </set>
      <set comment="kpoint 28">
       <r>   -9.4099    1.0000 </r>
       <r>   -3.5726    0.1668 </r>
       <r>   -3.5726    0.1667 </r>
       <r>   -3.5726    0.1667 </r>
       <r>   -0.1688    0.0000 </r>
       <r>    0.2410    0.0000 </r>
       <r>    0.3589    0.0000 </r>
       <r>    0.3916    0.0000 </r>
       <r>    0.4830    0.0000 </r>
       <r>    0.6874    0.0000 </r>
       <r>    0.7270    0.0000 </r>
       <r>    0.8011    0.0000 </r>
       <r>    0.8436    0.0000 </r>
       <r>    0.9333    0.0000 </r>
       <r>    0.9672    0.0000 </r>
       <r>    1.1633    0.0000 </r>
       <r>    1.2465    0.0000 </r>
       <r>    1.3274    0.0000 </r>
       <r>    1.4123    0.0000 </r>
       <r>    1.4336    0.0000 </r>
       <r>    1.5108    0.0000 </r>
       <r>    1.6629    0.0000 </r>
       <r>    1.7283    0.0000 </r>
       <r>    1.7875    0.0000 </r>
      </set>
      <set comment="kpoint 29">
       <r>   -9.4099    1.0000 </r>
       <r>   -3.5726    0.1668 </r>
       <r>   -3.5726    0.1667 </r>
       <r>   -3.5726    0.1667 </r>
       <r>   -0.1492    0.0000 </r>
       <r>    0.1870    0.0000 </r>
       <r>    0.3797    0.0000 </r>
       <r>    0.4187    0.0000 </r>
       <r>    0.5132    0.0000 </r>
       <r>    0.6198    0.0000 </r>
       <r>    0.6596    0.0000 </r>
       <r>    0.7329    0.0000 </r>
       <r>    0.8679    0.0000 </r>
       <r>    0.9639    0.0000 </r>
       <r>    1.0837    0.0000 </r>
       <r>    1.1207    0.0000 </r>
       <r>    1.1801    0.0000 </r>
       <r>    1.3571    0.0000 </r>
       <r>    1.5388    0.0000 </r>
       <r>    1.5537    0.0000 </r>
       <r>    1.6175    0.0000 </r>
       <r>    1.6447    0.0000 </r>
       <r>    1.7026    0.0000 </r>
       <r>    1.7474    0.0000 </r>
      </set>
      <set comment="kpoint 30">
       <r>   -9.4099    1.0000 </r>
       <r>   -3.5726    0.1667 </r>
       <r>   -3.5726    0.1667 </r>
       <r>   -3.5726    0.1667 </r>
       <r>   -0.1351    0.0000 </r>
       <r>    0.1539    0.0000 </r>
       <r>    0.4008    0.0000 </r>
       <r>    0.4423    0.0000 </r>
       <r>    0.5440    0.0000 </r>
       <r>    0.5725    0.0000 </r>
       <r>    0.6165    0.0000 </r>
       <r>    0.6842    0.0000 </r>
       <r>    0.8933    0.0000 </r>
       <r>    0.9967    0.0000 </r>
       <r>    1.0383    0.0000 </r>
       <r>    1.1269    0.0000 </r>
       <r>    1.2725    0.0000 </r>
       <r>    1.3734    0.0000 </r>
       <r>    1.4488    0.0000 </r>
       <r>    1.6117    0.0000 </r>
       <r>    1.6838    0.0000 </r>
       <r>    1.7052    0.0000 </r>
       <r>    1.7652    0.0000 </r>
       <r>    1.8203    0.0000 </r>
      </set>
      <set comment="kpoint 31">
       <r>   -9.4099    1.0000 </r>
       <r>   -3.5726    0.1671 </r>
       <r>   -3.5726    0.1666 </r>
       <r>   -3.5725    0.1666 </r>
       <r>   -0.1716    0.0000 </r>
       <r>    0.2301    0.0000 </r>
       <r>    0.3715    0.0000 </r>
       <r>    0.4533    0.0000 </r>
       <r>    0.5595    0.0000 </r>
       <r>    0.6430    0.0000 </r>
       <r>    0.7012    0.0000 </r>
       <r>    0.7843    0.0000 </r>
       <r>    0.8975    0.0000 </r>
       <r>    0.9786    0.0000 </r>
       <r>    1.0276    0.0000 </r>
       <r>    1.0713    0.0000 </r>
       <r>    1.1271    0.0000 </r>
       <r>    1.1660    0.0000 </r>
       <r>    1.3788    0.0000 </r>
       <r>    1.3810    0.0000 </r>
       <r>    1.4420    0.0000 </r>
       <r>    1.4640    0.0000 </r>
       <r>    1.5209    0.0000 </r>
       <r>    1.6783    0.0000 </r>
      </set>
      <set comment="kpoint 32">
       <r>   -9.4099    1.0000 </r>
       <r>   -3.5726    0.1671 </r>
       <r>   -3.5726    0.1666 </r>
       <r>   -3.5725    0.1666 </r>
       <r>   -0.1676    0.0000 </r>
       <r>    0.2342    0.0000 </r>
       <r>    0.3745    0.0000 </r>
       <r>    0.4436    0.0000 </r>
       <r>    0.5061    0.0000 </r>
       <r>    0.7032    0.0000 </r>
       <r>    0.7219    0.0000 </r>
       <r>    0.7786    0.0000 </r>
       <r>    0.8409    0.0000 </r>
       <r>    0.9395    0.0000 </r>
       <r>    1.0315    0.0000 </r>
       <r>    1.0621    0.0000 </r>
       <r>    1.1689    0.0000 </r>
       <r>    1.2631    0.0000 </r>
       <r>    1.2808    0.0000 </r>
       <r>    1.3599    0.0000 </r>
       <r>    1.4594    0.0000 </r>
       <r>    1.5179    0.0000 </r>
       <r>    1.6031    0.0000 </r>
       <r>    1.6830    0.0000 </r>
      </set>
      <set comment="kpoint 33">
       <r>   -9.4099    1.0000 </r>
       <r>   -3.5726    0.1671 </r>
       <r>   -3.5726    0.1666 </r>
       <r>   -3.5725    0.1666 </r>
       <r>   -0.1560    0.0000 </r>
       <r>    0.2452    0.0000 </r>
       <r>    0.3631    0.0000 </r>
       <r>    0.4063    0.0000 </r>
       <r>    0.4957    0.0000 </r>
       <r>    0.6881    0.0000 </r>
       <r>    0.7387    0.0000 </r>
       <r>    0.8171    0.0000 </r>
       <r>    0.8376    0.0000 </r>
       <r>    0.8617    0.0000 </r>
       <r>    0.9398    0.0000 </r>
       <r>    1.1531    0.0000 </r>
       <r>    1.1940    0.0000 </r>
       <r>    1.2600    0.0000 </r>
       <r>    1.3111    0.0000 </r>
       <r>    1.4005    0.0000 </r>
       <r>    1.4818    0.0000 </r>
       <r>    1.6392    0.0000 </r>
       <r>    1.6919    0.0000 </r>
       <r>    1.7323    0.0000 </r>
      </set>
      <set comment="kpoint 34">
       <r>   -9.4099    1.0000 </r>
       <r>   -3.5726    0.1671 </r>
       <r>   -3.5726    0.1666 </r>
       <r>   -3.5725    0.1666 </r>
       <r>   -0.1386    0.0000 </r>
       <r>    0.2520    0.0000 </r>
       <r>    0.3113    0.0000 </r>
       <r>    0.4199    0.0000 </r>
       <r>    0.5159    0.0000 </r>
       <r>    0.6200    0.0000 </r>
       <r>    0.7408    0.0000 </r>
       <r>    0.7638    0.0000 </r>
       <r>    0.8358    0.0000 </r>
       <r>    0.8519    0.0000 </r>
       <r>    0.9992    0.0000 </r>
       <r>    1.0807    0.0000 </r>
       <r>    1.1646    0.0000 </r>
       <r>    1.3309    0.0000 </r>
       <r>    1.4409    0.0000 </r>
       <r>    1.4909    0.0000 </r>
       <r>    1.5531    0.0000 </r>
       <r>    1.6994    0.0000 </r>
       <r>    1.7737    0.0000 </r>
       <r>    1.8320    0.0000 </r>
      </set>
      <set comment="kpoint 35">
       <r>   -9.4099    1.0000 </r>
       <r>   -3.5726    0.1671 </r>
       <r>   -3.5726    0.1667 </r>
       <r>   -3.5726    0.1666 </r>
       <r>   -0.1194    0.0000 </r>
       <r>    0.2199    0.0000 </r>
       <r>    0.3110    0.0000 </r>
       <r>    0.4466    0.0000 </r>
       <r>    0.5425    0.0000 </r>
       <r>    0.5590    0.0000 </r>
       <r>    0.6793    0.0000 </r>
       <r>    0.7623    0.0000 </r>
       <r>    0.7892    0.0000 </r>
       <r>    0.8792    0.0000 </r>
       <r>    1.0036    0.0000 </r>
       <r>    1.0886    0.0000 </r>
       <r>    1.1548    0.0000 </r>
       <r>    1.4557    0.0000 </r>
       <r>    1.5240    0.0000 </r>
       <r>    1.5849    0.0000 </r>
       <r>    1.6419    0.0000 </r>
       <r>    1.6933    0.0000 </r>
       <r>    1.7890    0.0000 </r>
       <r>    1.8231    0.0000 </r>
      </set>
      <set comment="kpoint 36">
       <r>   -9.4099    1.0000 </r>
       <r>   -3.5726    0.1671 </r>
       <r>   -3.5726    0.1667 </r>
       <r>   -3.5726    0.1666 </r>
       <r>   -0.1057    0.0000 </r>
       <r>    0.1897    0.0000 </r>
       <r>    0.3289    0.0000 </r>
       <r>    0.4704    0.0000 </r>
       <r>    0.5116    0.0000 </r>
       <r>    0.5798    0.0000 </r>
       <r>    0.6307    0.0000 </r>
       <r>    0.7166    0.0000 </r>
       <r>    0.8128    0.0000 </r>
       <r>    0.9118    0.0000 </r>
       <r>    0.9517    0.0000 </r>
       <r>    1.0409    0.0000 </r>
       <r>    1.3062    0.0000 </r>
       <r>    1.4604    0.0000 </r>
       <r>    1.5279    0.0000 </r>
       <r>    1.6401    0.0000 </r>
       <r>    1.7171    0.0000 </r>
       <r>    1.7434    0.0000 </r>
       <r>    1.7974    0.0000 </r>
       <r>    1.8421    0.0000 </r>
      </set>
      <set comment="kpoint 37">
       <r>   -9.4099    1.0000 </r>
       <r>   -3.5726    0.1673 </r>
       <r>   -3.5725    0.1666 </r>
       <r>   -3.5725    0.1666 </r>
       <r>   -0.1401    0.0000 </r>
       <r>    0.1696    0.0000 </r>
       <r>    0.4095    0.0000 </r>
       <r>    0.4934    0.0000 </r>
       <r>    0.5931    0.0000 </r>
       <r>    0.6277    0.0000 </r>
       <r>    0.6855    0.0000 </r>
       <r>    0.7102    0.0000 </r>
       <r>    0.8345    0.0000 </r>
       <r>    0.9031    0.0000 </r>
       <r>    1.0620    0.0000 </r>
       <r>    1.1145    0.0000 </r>
       <r>    1.1656    0.0000 </r>
       <r>    1.2112    0.0000 </r>
       <r>    1.3077    0.0000 </r>
       <r>    1.3106    0.0000 </r>
       <r>    1.3944    0.0000 </r>
       <r>    1.4039    0.0000 </r>
       <r>    1.6147    0.0000 </r>
       <r>    1.7294    0.0000 </r>
      </set>
      <set comment="kpoint 38">
       <r>   -9.4099    1.0000 </r>
       <r>   -3.5726    0.1673 </r>
       <r>   -3.5725    0.1666 </r>
       <r>   -3.5725    0.1666 </r>
       <r>   -0.1362    0.0000 </r>
       <r>    0.1742    0.0000 </r>
       <r>    0.4123    0.0000 </r>
       <r>    0.4821    0.0000 </r>
       <r>    0.5440    0.0000 </r>
       <r>    0.6308    0.0000 </r>
       <r>    0.7028    0.0000 </r>
       <r>    0.7551    0.0000 </r>
       <r>    0.7802    0.0000 </r>
       <r>    0.9773    0.0000 </r>
       <r>    0.9904    0.0000 </r>
       <r>    1.0751    0.0000 </r>
       <r>    1.1860    0.0000 </r>
       <r>    1.2234    0.0000 </r>
       <r>    1.2819    0.0000 </r>
       <r>    1.3175    0.0000 </r>
       <r>    1.4334    0.0000 </r>
       <r>    1.5156    0.0000 </r>
       <r>    1.6213    0.0000 </r>
       <r>    1.7337    0.0000 </r>
      </set>
      <set comment="kpoint 39">
       <r>   -9.4099    1.0000 </r>
       <r>   -3.5726    0.1673 </r>
       <r>   -3.5725    0.1666 </r>
       <r>   -3.5725    0.1666 </r>
       <r>   -0.1249    0.0000 </r>
       <r>    0.1879    0.0000 </r>
       <r>    0.3976    0.0000 </r>
       <r>    0.4441    0.0000 </r>
       <r>    0.5357    0.0000 </r>
       <r>    0.6175    0.0000 </r>
       <r>    0.6699    0.0000 </r>
       <r>    0.7515    0.0000 </r>
       <r>    0.8656    0.0000 </r>
       <r>    0.8991    0.0000 </r>
       <r>    0.9828    0.0000 </r>
       <r>    1.0840    0.0000 </r>
       <r>    1.1247    0.0000 </r>
       <r>    1.1885    0.0000 </r>
       <r>    1.3439    0.0000 </r>
       <r>    1.4432    0.0000 </r>
       <r>    1.5581    0.0000 </r>
       <r>    1.6160    0.0000 </r>
       <r>    1.6667    0.0000 </r>
       <r>    1.7457    0.0000 </r>
      </set>
      <set comment="kpoint 40">
       <r>   -9.4099    1.0000 </r>
       <r>   -3.5726    0.1673 </r>
       <r>   -3.5725    0.1666 </r>
       <r>   -3.5725    0.1666 </r>
       <r>   -0.1080    0.0000 </r>
       <r>    0.2091    0.0000 </r>
       <r>    0.3320    0.0000 </r>
       <r>    0.4576    0.0000 </r>
       <r>    0.5438    0.0000 </r>
       <r>    0.5622    0.0000 </r>
       <r>    0.6826    0.0000 </r>
       <r>    0.7697    0.0000 </r>
       <r>    0.7960    0.0000 </r>
       <r>    0.8793    0.0000 </r>
       <r>    0.9979    0.0000 </r>
       <r>    1.0439    0.0000 </r>
       <r>    1.0934    0.0000 </r>
       <r>    1.2658    0.0000 </r>
       <r>    1.4784    0.0000 </r>
[...]
       <r>    1.0618    0.0000 </r>
       <r>    1.1051    0.0000 </r>
       <r>    1.1510    0.0000 </r>
       <r>    1.1727    0.0000 </r>
       <r>    1.2787    0.0000 </r>
       <r>    1.5354    0.0000 </r>
       <r>    1.6659    0.0000 </r>
       <r>    1.6796    0.0000 </r>
       <r>    1.7725    0.0000 </r>
      </set>
      <set comment="kpoint 237">
       <r>   -9.4099    1.0000 </r>
       <r>   -3.5727    0.1675 </r>
       <r>   -3.5725    0.1666 </r>
       <r>   -3.5725    0.1666 </r>
       <r>   -0.0800    0.0000 </r>
       <r>    0.2028    0.0000 </r>
       <r>    0.2721    0.0000 </r>
       <r>    0.3676    0.0000 </r>
       <r>    0.4952    0.0000 </r>
       <r>    0.6531    0.0000 </r>
       <r>    0.6993    0.0000 </r>
       <r>    0.7934    0.0000 </r>
       <r>    0.9611    0.0000 </r>
       <r>    1.0011    0.0000 </r>
       <r>    1.0923    0.0000 </r>
       <r>    1.1254    0.0000 </r>
       <r>    1.1509    0.0000 </r>
       <r>    1.2168    0.0000 </r>
       <r>    1.2612    0.0000 </r>
       <r>    1.3181    0.0000 </r>
       <r>    1.4508    0.0000 </r>
       <r>    1.5744    0.0000 </r>
       <r>    1.5966    0.0000 </r>
       <r>    1.7102    0.0000 </r>
      </set>
      <set comment="kpoint 238">
       <r>   -9.4099    1.0000 </r>
       <r>   -3.5727    0.1675 </r>
       <r>   -3.5725    0.1666 </r>
       <r>   -3.5725    0.1666 </r>
       <r>   -0.0647    0.0000 </r>
       <r>    0.2242    0.0000 </r>
       <r>    0.2965    0.0000 </r>
       <r>    0.3940    0.0000 </r>
       <r>    0.4181    0.0000 </r>
       <r>    0.5693    0.0000 </r>
       <r>    0.6126    0.0000 </r>
       <r>    0.7023    0.0000 </r>
       <r>    1.0263    0.0000 </r>
       <r>    1.0934    0.0000 </r>
       <r>    1.1502    0.0000 </r>
       <r>    1.1612    0.0000 </r>
       <r>    1.2465    0.0000 </r>
       <r>    1.3158    0.0000 </r>
       <r>    1.3194    0.0000 </r>
       <r>    1.3907    0.0000 </r>
       <r>    1.4441    0.0000 </r>
       <r>    1.4899    0.0000 </r>
       <r>    1.5211    0.0000 </r>
       <r>    1.6252    0.0000 </r>
      </set>
      <set comment="kpoint 239">
       <r>   -9.4099    1.0000 </r>
       <r>   -3.5727    0.1675 </r>
       <r>   -3.5726    0.1666 </r>
       <r>   -3.5725    0.1666 </r>
       <r>   -0.0485    0.0000 </r>
       <r>    0.2504    0.0000 </r>
       <r>    0.3281    0.0000 </r>
       <r>    0.3603    0.0000 </r>
       <r>    0.4296    0.0000 </r>
       <r>    0.5017    0.0000 </r>
       <r>    0.5388    0.0000 </r>
       <r>    0.6229    0.0000 </r>
       <r>    1.0550    0.0000 </r>
       <r>    1.1810    0.0000 </r>
       <r>    1.1859    0.0000 </r>
       <r>    1.2315    0.0000 </r>
       <r>    1.2987    0.0000 </r>
       <r>    1.3185    0.0000 </r>
       <r>    1.4008    0.0000 </r>
       <r>    1.4300    0.0000 </r>
       <r>    1.4490    0.0000 </r>
       <r>    1.5196    0.0000 </r>
       <r>    1.5556    0.0000 </r>
       <r>    1.6005    0.0000 </r>
      </set>
      <set comment="kpoint 240">
       <r>   -9.4099    1.0000 </r>
       <r>   -3.5727    0.1675 </r>
       <r>   -3.5726    0.1667 </r>
       <r>   -3.5725    0.1666 </r>
       <r>   -0.0374    0.0000 </r>
       <r>    0.2724    0.0000 </r>
       <r>    0.3262    0.0000 </r>
       <r>    0.3605    0.0000 </r>
       <r>    0.4545    0.0000 </r>
       <r>    0.4736    0.0000 </r>
       <r>    0.4880    0.0000 </r>
       <r>    0.5605    0.0000 </r>
       <r>    1.0789    0.0000 </r>
       <r>    1.2071    0.0000 </r>
       <r>    1.2152    0.0000 </r>
       <r>    1.2361    0.0000 </r>
       <r>    1.3416    0.0000 </r>
       <r>    1.3631    0.0000 </r>
       <r>    1.3692    0.0000 </r>
       <r>    1.4441    0.0000 </r>
       <r>    1.4865    0.0000 </r>
       <r>    1.5783    0.0000 </r>
       <r>    1.6049    0.0000 </r>
       <r>    1.6748    0.0000 </r>
      </set>
     </set>
    </set>
   </array>
  </eigenvalues>
  <separator name="orbital magnetization" >
   <v name="MAGDIPOLOUT">      0.00000000      0.00000000      0.00000000</v>
  </separator>
  <dos>
   <i name="efermi">     -3.60675829 </i>
   <total>
    <array>
     <dimension dim="1">gridpoints</dimension>
     <dimension dim="2">spin</dimension>
     <field>energy</field>
     <field>total</field>
     <field>integrated</field>
     <set>
      <set comment="spin 1">
       <r>    -9.9764     0.0000     0.0000 </r>
       <r>    -9.9348     0.0000     0.0000 </r>
       <r>    -9.8933     0.0000     0.0000 </r>
       <r>    -9.8517     0.0000     0.0000 </r>
       <r>    -9.8102     0.0000     0.0000 </r>
       <r>    -9.7687     0.0000     0.0000 </r>
       <r>    -9.7271     0.0000     0.0000 </r>
       <r>    -9.6856     0.0000     0.0000 </r>
       <r>    -9.6440     0.0000     0.0000 </r>
       <r>    -9.6025     0.0000     0.0000 </r>
       <r>    -9.5610     0.0005     0.0000 </r>
       <r>    -9.5194     0.0465     0.0020 </r>
       <r>    -9.4779     1.2655     0.0545 </r>
       <r>    -9.4363     9.6315     0.4546 </r>
       <r>    -9.3948    21.0915     1.3308 </r>
       <r>    -9.3532    13.4830     1.8909 </r>
       <r>    -9.3117     2.4947     1.9945 </r>
       <r>    -9.2702     0.1301     1.9999 </r>
       <r>    -9.2286     0.0019     2.0000 </r>
       <r>    -9.1871     0.0000     2.0000 </r>
       <r>    -9.1455     0.0000     2.0000 </r>
       <r>    -9.1040     0.0000     2.0000 </r>
       <r>    -9.0625     0.0000     2.0000 </r>
       <r>    -9.0209     0.0000     2.0000 </r>
       <r>    -8.9794     0.0000     2.0000 </r>
       <r>    -8.9378     0.0000     2.0000 </r>
       <r>    -8.8963     0.0000     2.0000 </r>
       <r>    -8.8548     0.0000     2.0000 </r>
       <r>    -8.8132     0.0000     2.0000 </r>
       <r>    -8.7717     0.0000     2.0000 </r>
       <r>    -8.7301     0.0000     2.0000 </r>
       <r>    -8.6886     0.0000     2.0000 </r>
       <r>    -8.6471     0.0000     2.0000 </r>
       <r>    -8.6055     0.0000     2.0000 </r>
       <r>    -8.5640     0.0000     2.0000 </r>
       <r>    -8.5224     0.0000     2.0000 </r>
       <r>    -8.4809     0.0000     2.0000 </r>
       <r>    -8.4393     0.0000     2.0000 </r>
       <r>    -8.3978     0.0000     2.0000 </r>
       <r>    -8.3563     0.0000     2.0000 </r>
       <r>    -8.3147     0.0000     2.0000 </r>
       <r>    -8.2732     0.0000     2.0000 </r>
       <r>    -8.2316     0.0000     2.0000 </r>
       <r>    -8.1901     0.0000     2.0000 </r>
       <r>    -8.1486     0.0000     2.0000 </r>
       <r>    -8.1070     0.0000     2.0000 </r>
       <r>    -8.0655     0.0000     2.0000 </r>
       <r>    -8.0239     0.0000     2.0000 </r>
       <r>    -7.9824     0.0000     2.0000 </r>
       <r>    -7.9409     0.0000     2.0000 </r>
       <r>    -7.8993     0.0000     2.0000 </r>
       <r>    -7.8578     0.0000     2.0000 </r>
       <r>    -7.8162     0.0000     2.0000 </r>
       <r>    -7.7747     0.0000     2.0000 </r>
       <r>    -7.7331     0.0000     2.0000 </r>
       <r>    -7.6916     0.0000     2.0000 </r>
       <r>    -7.6501     0.0000     2.0000 </r>
       <r>    -7.6085     0.0000     2.0000 </r>
       <r>    -7.5670     0.0000     2.0000 </r>
       <r>    -7.5254     0.0000     2.0000 </r>
       <r>    -7.4839     0.0000     2.0000 </r>
       <r>    -7.4424     0.0000     2.0000 </r>
       <r>    -7.4008     0.0000     2.0000 </r>
       <r>    -7.3593     0.0000     2.0000 </r>
       <r>    -7.3177     0.0000     2.0000 </r>
       <r>    -7.2762     0.0000     2.0000 </r>
       <r>    -7.2347     0.0000     2.0000 </r>
       <r>    -7.1931     0.0000     2.0000 </r>
       <r>    -7.1516     0.0000     2.0000 </r>
       <r>    -7.1100     0.0000     2.0000 </r>
       <r>    -7.0685     0.0000     2.0000 </r>
       <r>    -7.0269     0.0000     2.0000 </r>
       <r>    -6.9854     0.0000     2.0000 </r>
       <r>    -6.9439     0.0000     2.0000 </r>
       <r>    -6.9023     0.0000     2.0000 </r>
       <r>    -6.8608     0.0000     2.0000 </r>
       <r>    -6.8192     0.0000     2.0000 </r>
       <r>    -6.7777     0.0000     2.0000 </r>
       <r>    -6.7362     0.0000     2.0000 </r>
       <r>    -6.6946     0.0000     2.0000 </r>
       <r>    -6.6531     0.0000     2.0000 </r>
       <r>    -6.6115     0.0000     2.0000 </r>
       <r>    -6.5700     0.0000     2.0000 </r>
       <r>    -6.5285     0.0000     2.0000 </r>
       <r>    -6.4869     0.0000     2.0000 </r>
       <r>    -6.4454     0.0000     2.0000 </r>
       <r>    -6.4038     0.0000     2.0000 </r>
       <r>    -6.3623     0.0000     2.0000 </r>
       <r>    -6.3208     0.0000     2.0000 </r>
       <r>    -6.2792     0.0000     2.0000 </r>
       <r>    -6.2377     0.0000     2.0000 </r>
       <r>    -6.1961     0.0000     2.0000 </r>
       <r>    -6.1546     0.0000     2.0000 </r>
       <r>    -6.1130     0.0000     2.0000 </r>
       <r>    -6.0715     0.0000     2.0000 </r>
       <r>    -6.0300     0.0000     2.0000 </r>
       <r>    -5.9884     0.0000     2.0000 </r>
       <r>    -5.9469     0.0000     2.0000 </r>
       <r>    -5.9053     0.0000     2.0000 </r>
       <r>    -5.8638     0.0000     2.0000 </r>
       <r>    -5.8223     0.0000     2.0000 </r>
       <r>    -5.7807     0.0000     2.0000 </r>
       <r>    -5.7392     0.0000     2.0000 </r>
       <r>    -5.6976     0.0000     2.0000 </r>
       <r>    -5.6561     0.0000     2.0000 </r>
       <r>    -5.6146     0.0000     2.0000 </r>
       <r>    -5.5730     0.0000     2.0000 </r>
       <r>    -5.5315     0.0000     2.0000 </r>
       <r>    -5.4899     0.0000     2.0000 </r>
       <r>    -5.4484     0.0000     2.0000 </r>
       <r>    -5.4068     0.0000     2.0000 </r>
       <r>    -5.3653     0.0000     2.0000 </r>
       <r>    -5.3238     0.0000     2.0000 </r>
       <r>    -5.2822     0.0000     2.0000 </r>
       <r>    -5.2407     0.0000     2.0000 </r>
       <r>    -5.1991     0.0000     2.0000 </r>
       <r>    -5.1576     0.0000     2.0000 </r>
       <r>    -5.1161     0.0000     2.0000 </r>
       <r>    -5.0745     0.0000     2.0000 </r>
       <r>    -5.0330     0.0000     2.0000 </r>
       <r>    -4.9914     0.0000     2.0000 </r>
       <r>    -4.9499     0.0000     2.0000 </r>
       <r>    -4.9084     0.0000     2.0000 </r>
       <r>    -4.8668     0.0000     2.0000 </r>
       <r>    -4.8253     0.0000     2.0000 </r>
       <r>    -4.7837     0.0000     2.0000 </r>
       <r>    -4.7422     0.0000     2.0000 </r>
       <r>    -4.7006     0.0000     2.0000 </r>
       <r>    -4.6591     0.0000     2.0000 </r>
       <r>    -4.6176     0.0000     2.0000 </r>
       <r>    -4.5760     0.0000     2.0000 </r>
       <r>    -4.5345     0.0000     2.0000 </r>
       <r>    -4.4929     0.0000     2.0000 </r>
       <r>    -4.4514     0.0000     2.0000 </r>
       <r>    -4.4099     0.0000     2.0000 </r>
       <r>    -4.3683     0.0000     2.0000 </r>
       <r>    -4.3268     0.0000     2.0000 </r>
       <r>    -4.2852     0.0000     2.0000 </r>
       <r>    -4.2437     0.0000     2.0000 </r>
       <r>    -4.2022     0.0000     2.0000 </r>
       <r>    -4.1606     0.0000     2.0000 </r>
       <r>    -4.1191     0.0000     2.0000 </r>
       <r>    -4.0775     0.0000     2.0000 </r>
       <r>    -4.0360     0.0000     2.0000 </r>
       <r>    -3.9945     0.0000     2.0000 </r>
       <r>    -3.9529     0.0000     2.0000 </r>
       <r>    -3.9114     0.0000     2.0000 </r>
       <r>    -3.8698     0.0000     2.0000 </r>
       <r>    -3.8283     0.0000     2.0000 </r>
       <r>    -3.7867     0.0000     2.0000 </r>
       <r>    -3.7452     0.0001     2.0000 </r>
       <r>    -3.7037     0.0150     2.0006 </r>
       <r>    -3.6621     0.8008     2.0339 </r>
       <r>    -3.6206    11.7743     2.5230 </r>
       <r>    -3.5790    49.1163     4.5634 </r>
       <r>    -3.5375    59.5157     7.0357 </r>
       <r>    -3.4960    21.0268     7.9092 </r>
       <r>    -3.4544     2.1262     7.9975 </r>
       <r>    -3.4129     0.0597     8.0000 </r>
       <r>    -3.3713     0.0005     8.0000 </r>
       <r>    -3.3298     0.0000     8.0000 </r>
       <r>    -3.2883     0.0000     8.0000 </r>
       <r>    -3.2467     0.0000     8.0000 </r>
       <r>    -3.2052     0.0000     8.0000 </r>
       <r>    -3.1636     0.0000     8.0000 </r>
       <r>    -3.1221     0.0000     8.0000 </r>
       <r>    -3.0805     0.0000     8.0000 </r>
       <r>    -3.0390     0.0000     8.0000 </r>
       <r>    -2.9975     0.0000     8.0000 </r>
       <r>    -2.9559     0.0000     8.0000 </r>
       <r>    -2.9144     0.0000     8.0000 </r>
       <r>    -2.8728     0.0000     8.0000 </r>
       <r>    -2.8313     0.0000     8.0000 </r>
       <r>    -2.7898     0.0000     8.0000 </r>
       <r>    -2.7482     0.0000     8.0000 </r>
       <r>    -2.7067     0.0000     8.0000 </r>
       <r>    -2.6651     0.0000     8.0000 </r>
       <r>    -2.6236     0.0000     8.0000 </r>
       <r>    -2.5821     0.0000     8.0000 </r>
       <r>    -2.5405     0.0000     8.0000 </r>
       <r>    -2.4990     0.0000     8.0000 </r>
       <r>    -2.4574     0.0000     8.0000 </r>
       <r>    -2.4159     0.0000     8.0000 </r>
       <r>    -2.3743     0.0000     8.0000 </r>
       <r>    -2.3328     0.0000     8.0000 </r>
       <r>    -2.2913     0.0000     8.0000 </r>
       <r>    -2.2497     0.0000     8.0000 </r>
       <r>    -2.2082     0.0000     8.0000 </r>
       <r>    -2.1666     0.0000     8.0000 </r>
       <r>    -2.1251     0.0000     8.0000 </r>
       <r>    -2.0836     0.0000     8.0000 </r>
       <r>    -2.0420     0.0000     8.0000 </r>
       <r>    -2.0005     0.0000     8.0000 </r>
       <r>    -1.9589     0.0000     8.0000 </r>
       <r>    -1.9174     0.0000     8.0000 </r>
       <r>    -1.8759     0.0000     8.0000 </r>
       <r>    -1.8343     0.0000     8.0000 </r>
       <r>    -1.7928     0.0000     8.0000 </r>
       <r>    -1.7512     0.0000     8.0000 </r>
       <r>    -1.7097     0.0000     8.0000 </r>
       <r>    -1.6682     0.0000     8.0000 </r>
       <r>    -1.6266     0.0000     8.0000 </r>
       <r>    -1.5851     0.0000     8.0000 </r>
       <r>    -1.5435     0.0000     8.0000 </r>
       <r>    -1.5020     0.0000     8.0000 </r>
       <r>    -1.4604     0.0000     8.0000 </r>
       <r>    -1.4189     0.0000     8.0000 </r>
       <r>    -1.3774     0.0000     8.0000 </r>
       <r>    -1.3358     0.0000     8.0000 </r>
       <r>    -1.2943     0.0000     8.0000 </r>
       <r>    -1.2527     0.0000     8.0000 </r>
       <r>    -1.2112     0.0000     8.0000 </r>
       <r>    -1.1697     0.0000     8.0000 </r>
       <r>    -1.1281     0.0000     8.0000 </r>
       <r>    -1.0866     0.0000     8.0000 </r>
       <r>    -1.0450     0.0000     8.0000 </r>
       <r>    -1.0035     0.0000     8.0000 </r>
       <r>    -0.9620     0.0000     8.0000 </r>
       <r>    -0.9204     0.0000     8.0000 </r>
       <r>    -0.8789     0.0000     8.0000 </r>
       <r>    -0.8373     0.0000     8.0000 </r>
       <r>    -0.7958     0.0000     8.0000 </r>
       <r>    -0.7542     0.0000     8.0000 </r>
       <r>    -0.7127     0.0000     8.0000 </r>
       <r>    -0.6712     0.0000     8.0000 </r>
       <r>    -0.6296     0.0000     8.0000 </r>
       <r>    -0.5881     0.0000     8.0000 </r>
       <r>    -0.5465     0.0000     8.0000 </r>
       <r>    -0.5050     0.0000     8.0000 </r>
       <r>    -0.4635     0.0000     8.0000 </r>
       <r>    -0.4219     0.0000     8.0000 </r>
       <r>    -0.3804     0.0004     8.0000 </r>
       <r>    -0.3388     0.0215     8.0009 </r>
       <r>    -0.2973     0.3838     8.0169 </r>
       <r>    -0.2558     2.4985     8.1206 </r>
       <r>    -0.2142     7.0170     8.4121 </r>
       <r>    -0.1727    10.4994     8.8483 </r>
       <r>    -0.1311    10.5989     9.2886 </r>
       <r>    -0.0896     8.8693     9.6570 </r>
       <r>    -0.0481     5.7147     9.8944 </r>
       <r>    -0.0065     2.1690     9.9845 </r>
       <r>     0.0350     0.6613    10.0120 </r>
       <r>     0.0766     1.7243    10.0836 </r>
       <r>     0.1181     5.0856    10.2949 </r>
       <r>     0.1597     9.6734    10.6967 </r>
       <r>     0.2012    13.5618    11.2601 </r>
       <r>     0.2427    15.4829    11.9033 </r>
       <r>     0.2843    15.7832    12.5589 </r>
       <r>     0.3258    15.9113    13.2199 </r>
       <r>     0.3674    16.1136    13.8893 </r>
       <r>     0.4089    16.4705    14.5735 </r>
       <r>     0.4504    17.4660    15.2990 </r>
       <r>     0.4920    18.2055    16.0553 </r>
       <r>     0.5335    18.6459    16.8299 </r>
       <r>     0.5751    18.9944    17.6189 </r>
       <r>     0.6166    19.4039    18.4250 </r>
       <r>     0.6581    20.4296    19.2736 </r>
       <r>     0.6997    21.2681    20.1571 </r>
       <r>     0.7412    21.7343    21.0600 </r>
       <r>     0.7828    22.3061    21.9866 </r>
       <r>     0.8243    22.6516    22.9276 </r>
       <r>     0.8659    22.7433    23.8724 </r>
       <r>     0.9074    23.7397    24.8586 </r>
       <r>     0.9489    25.0298    25.8983 </r>
       <r>     0.9905    24.9089    26.9331 </r>
       <r>     1.0320    25.0602    27.9741 </r>
       <r>     1.0736    26.1593    29.0608 </r>
       <r>     1.1151    26.5244    30.1626 </r>
       <r>     1.1566    26.4343    31.2607 </r>
       <r>     1.1982    27.2483    32.3927 </r>
       <r>     1.2397    27.8024    33.5476 </r>
       <r>     1.2813    27.6624    34.6967 </r>
       <r>     1.3228    27.8247    35.8526 </r>
       <r>     1.3643    28.6607    37.0432 </r>
       <r>     1.4059    28.8229    38.2405 </r>
       <r>     1.4474    29.0515    39.4474 </r>
       <r>     1.4890    30.2298    40.7031 </r>
       <r>     1.5305    30.4436    41.9678 </r>
       <r>     1.5721    29.8512    43.2078 </r>
       <r>     1.6136    30.0293    44.4553 </r>
       <r>     1.6551    28.2724    45.6298 </r>
       <r>     1.6967    22.6222    46.5695 </r>
       <r>     1.7382    15.2806    47.2043 </r>
       <r>     1.7798     9.1753    47.5854 </r>
       <r>     1.8213     5.3137    47.8062 </r>
       <r>     1.8628     2.8762    47.9257 </r>
       <r>     1.9044     1.2671    47.9783 </r>
       <r>     1.9459     0.4244    47.9959 </r>
       <r>     1.9875     0.0896    47.9996 </r>
       <r>     2.0290     0.0083    48.0000 </r>
       <r>     2.0705     0.0003    48.0000 </r>
       <r>     2.1121     0.0000    48.0000 </r>
       <r>     2.1536     0.0000    48.0000 </r>
       <r>     2.1952     0.0000    48.0000 </r>
       <r>     2.2367     0.0000    48.0000 </r>
       <r>     2.2782     0.0000    48.0000 </r>
       <r>     2.3198     0.0000    48.0000 </r>
       <r>     2.3613     0.0000    48.0000 </r>
       <r>     2.4029     0.0000    48.0000 </r>
       <r>     2.4444     0.0000    48.0000 </r>
       <r>     2.4860     0.0000    48.0000 </r>
      </set>
     </set>
    </array>
   </total>
  </dos>
 </calculation>
 <structure name="finalpos" >
  <crystal>
   <varray name="basis" >
    <v>      15.00000000       0.00000000       0.00000000 </v>
    <v>       0.00000000      12.50000000       0.00000000 </v>
    <v>       0.00000000       0.00000000      18.00000000 </v>
   </varray>
   <i name="volume">   3375.00000000 </i>
   <varray name="rec_basis" >
    <v>       0.06666667       0.00000000       0.00000000 </v>
    <v>       0.00000000       0.08000000       0.00000000 </v>
    <v>       0.00000000       0.00000000       0.05555556 </v>
   </varray>
  </crystal>
  <varray name="positions" >
   <v>       0.52123000       0.54500000       0.63796000 </v>
  </varray>
 </structure>
</modeling>
