   14   14    1    1
  0.1021960E+02  0.5697000E-09  0.4047900E-09  0.6204200E-09  0.5000000E-15
  1.000000000000000E-004
  CAR 
 Kpoints                                 
     42   1260     48
 
  0.0000000E+00  0.0000000E+00  0.0000000E+00  0.1146657E-03
      1        -12.733261   1.000000
      2        -11.576210   1.000000
      3         -8.662047   1.000000
      4         -8.424811   1.000000
      5         -6.077390   1.000000
      6         -5.059342   1.000000
      7         -4.638228   1.000000
      8         -4.349466   1.000000
      9         -3.973436   1.000000
     10         -3.598572   1.000000
     11         -2.421914   1.000000
     12         -2.242465   1.000000
     13         -2.183141   1.000000
     14         -1.052683   1.000000
     15         -0.037176   1.000000
     16         -0.003270   1.000000
     17          0.149580   1.000000
     18          0.173116   1.000000
     19          0.564859   1.000000
     20          2.079824   0.000000
     21          2.126091   0.000000
     22          2.214828   0.000000
     23          5.411672   0.000000
     24          5.801829   0.000000
     25          5.817457   0.000000
     26          5.910766   0.000000
     27          6.785946   0.000000
     28          7.672900   0.000000
     29          7.701403   0.000000
     30          8.634312   0.000000
     31          8.752830   0.000000
     32          8.853117   0.000000
     33          9.040816   0.000000
     34         10.029412   0.000000
     35         11.144205   0.000000
     36         11.399760   0.000000
     37         11.769640   0.000000
     38         11.802169   0.000000
     39         11.899219   0.000000
     40         12.354624   0.000000
     41         12.804668   0.000000
     42         13.394895   0.000000
     43         13.573864   0.000000
     44         15.554636   0.000000
     45         15.567623   0.000000
     46         15.941979   0.000000
     47         16.358709   0.000000
     48         16.599035   0.000000
 
  0.5263158E-01  0.0000000E+00  0.0000000E+00  0.2293315E-03
      1        -12.727161   1.000000
      2        -11.586846   1.000000
      3         -8.659220   1.000000
      4         -8.422990   1.000000
      5         -6.064537   1.000000
      6         -5.141312   1.000000
      7         -4.670052   1.000000
      8         -4.252692   1.000000
      9         -3.964891   1.000000
     10         -3.539388   1.000000
     11         -2.419289   1.000000
     12         -2.244172   1.000000
     13         -2.203110   1.000000
     14         -1.098792   1.000000
     15         -0.031064   1.000000
     16          0.006922   1.000000
     17          0.154370   1.000000
     18          0.156746   1.000000
     19          0.550835   1.000000
     20          2.066884   0.000000
     21          2.114644   0.000000
     22          2.198379   0.000000
     23          5.425578   0.000000
     24          5.793885   0.000000
     25          5.797346   0.000000
     26          5.992063   0.000000
     27          6.772693   0.000000
     28          7.497308   0.000000
     29          7.847002   0.000000
     30          8.654621   0.000000
     31          8.808531   0.000000
     32          8.890004   0.000000
     33          9.043727   0.000000
     34         10.047738   0.000000
     35         11.154508   0.000000
     36         11.339989   0.000000
     37         11.665018   0.000000
     38         11.766603   0.000000
     39         11.932030   0.000000
     40         12.366810   0.000000
     41         12.874332   0.000000
     42         13.503804   0.000000
     43         13.516553   0.000000
     44         15.363014   0.000000
     45         15.602307   0.000000
     46         16.080154   0.000000
     47         16.345239   0.000000
     48         16.374595   0.000000
 
  0.1052632E+00  0.0000000E+00  0.0000000E+00  0.2293315E-03
      1        -12.708914   1.000000
      2        -11.618123   1.000000
      3         -8.650576   1.000000
      4         -8.417870   1.000000
      5         -6.031162   1.000000
      6         -5.313638   1.000000
      7         -4.738939   1.000000
      8         -4.036410   1.000000
      9         -3.939291   1.000000
     10         -3.384601   1.000000
     11         -2.411324   1.000000
     12         -2.260956   1.000000
     13         -2.249243   1.000000
     14         -1.231455   1.000000
     15         -0.012969   1.000000
     16          0.035925   1.000000
     17          0.098952   1.000000
     18          0.176129   1.000000
     19          0.509291   1.000000
     20          2.029257   0.000010
     21          2.081314   0.000000
     22          2.148861   0.000000
     23          5.464422   0.000000
     24          5.772063   0.000000
     25          5.814609   0.000000
     26          6.156387   0.000000
     27          6.735069   0.000000
     28          7.300039   0.000000
     29          7.969313   0.000000
     30          8.712521   0.000000
     31          8.957764   0.000000
     32          8.995243   0.000000
     33          9.050834   0.000000
     34         10.103997   0.000000
     35         11.169128   0.000000
     36         11.185843   0.000000
     37         11.410504   0.000000
     38         11.703743   0.000000
     39         12.027194   0.000000
     40         12.402926   0.000000
     41         13.024506   0.000000
     42         13.357358   0.000000
     43         13.771601   0.000000
     44         15.059214   0.000000
     45         15.695799   0.000000
     46         16.063685   0.000000
     47         16.246235   0.000000
     48         16.420729   0.000000
 
  0.1578947E+00  0.0000000E+00  0.0000000E+00  0.2293315E-03
      1        -12.678734   1.000000
      2        -11.668209   1.000000
      3         -8.635781   1.000000
      4         -8.410414   1.000000
      5         -5.992733   1.000000
      6         -5.502392   1.000000
      7         -4.794903   1.000000
      8         -3.896904   1.000000
      9         -3.776010   1.000000
     10         -3.172535   1.000000
     11         -2.397718   1.000000
     12         -2.351231   1.000000
     13         -2.257553   1.000000
     14         -1.435998   1.000000
     15          0.009322   1.000000
     16          0.016378   1.000000
     17          0.079575   1.000000
     18          0.196438   1.000000
     19          0.448977   1.000000
     20          1.970606   0.004486
     21          2.028858   0.000010
     22          2.066366   0.000000
     23          5.520712   0.000000
     24          5.741921   0.000000
     25          5.897288   0.000000
     26          6.369865   0.000000
     27          6.678911   0.000000
     28          7.114014   0.000000
     29          8.066233   0.000000
     30          8.797662   0.000000
     31          9.031145   0.000000
     32          9.162577   0.000000
     33          9.180307   0.000000
     34         10.204162   0.000000
     35         10.909077   0.000000
     36         11.093010   0.000000
     37         11.238006   0.000000
     38         11.678429   0.000000
     39         12.167868   0.000000
     40         12.469288   0.000000
     41         13.123390   0.000000
     42         13.133964   0.000000
     43         14.114724   0.000000
     44         14.819853   0.000000
     45         15.758044   0.000000
     46         15.827052   0.000000
     47         16.321108   0.000000
     48         16.492949   0.000000
 
  0.2105263E+00  0.0000000E+00  0.0000000E+00  0.2293315E-03
      1        -12.636979   1.000000
      2        -11.734368   1.000000
      3         -8.614664   1.000000
      4         -8.402227   1.000000
      5         -5.971461   1.000000
      6         -5.680759   1.000000
      7         -4.795001   1.000000
      8         -3.838061   1.000000
      9         -3.501848   1.000000
     10         -2.930147   1.000000
     11         -2.466655   1.000000
     12         -2.377962   1.000000
     13         -2.268713   1.000000
     14         -1.693103   1.000000
     15         -0.110533   1.000000
     16          0.055642   1.000000
     17          0.132264   1.000000
     18          0.172748   1.000000
     19          0.414181   1.000000
     20          1.896937   0.298258
     21          1.952336   0.018026
     22          1.961678   0.009123
     23          5.584496   0.000000
     24          5.711045   0.000000
     25          6.046537   0.000000
     26          6.612501   0.000000
     27          6.622297   0.000000
     28          6.950153   0.000000
     29          8.149432   0.000000
     30          8.887409   0.000000
     31          8.995980   0.000000
     32          9.392311   0.000000
     33          9.407578   0.000000
     34         10.360888   0.000000
     35         10.584175   0.000000
     36         10.773925   0.000000
     37         11.305186   0.000000
     38         11.723002   0.000000
     39         12.303392   0.000000
     40         12.601252   0.000000
     41         12.840104   0.000000
     42         13.079902   0.000000
     43         14.487837   0.000000
     44         14.747215   0.000000
     45         15.441948   0.000000
     46         15.978324   0.000000
     47         16.216543   0.000000
     48         16.490783   0.000000
 
  0.2631579E+00  0.0000000E+00  0.0000000E+00  0.2293315E-03
      1        -12.584181   1.000000
      2        -11.813272   1.000000
      3         -8.587559   1.000000
      4         -8.395393   1.000000
      5         -5.983096   1.000000
      6         -5.837652   1.000000
      7         -4.714543   1.000000
      8         -3.763313   1.000000
      9         -3.233580   1.000000
     10         -2.675619   1.000000
     11         -2.599678   1.000000
     12         -2.353151   1.000000
     13         -2.281401   1.000000
     14         -1.978350   1.000000
     15         -0.254919   1.000000
     16          0.058537   1.000000
     17          0.102816   1.000000
     18          0.187813   1.000000
     19          0.454389   1.000000
     20          1.810633   0.972037
     21          1.816273   0.960122
     22          1.885278   0.420870
     23          5.645609   0.000000
     24          5.686830   0.000000
     25          6.258200   0.000000
     26          6.545358   0.000000
     27          6.811807   0.000000
     28          6.906445   0.000000
     29          8.223976   0.000000
     30          8.930010   0.000000
     31          8.935659   0.000000
     32          9.633525   0.000000
     33          9.668201   0.000000
     34         10.213628   0.000000
     35         10.517648   0.000000
     36         10.589326   0.000000
     37         11.369875   0.000000
     38         11.841433   0.000000
     39         12.390579   0.000000
     40         12.526226   0.000000
     41         12.824135   0.000000
     42         12.841982   0.000000
     43         14.832269   0.000000
     44         14.868769   0.000000
     45         15.129262   0.000000
     46         15.967076   0.000000
     47         16.095362   0.000000
     48         16.136844   0.000000
 
  0.3157895E+00  0.0000000E+00  0.0000000E+00  0.2293315E-03
      1        -12.521035   1.000000
      2        -11.901373   1.000000
      3         -8.555578   1.000000
      4         -8.392356   1.000000
      5         -6.023839   1.000000
      6         -5.966819   1.000000
      7         -4.554196   1.000000
      8         -3.673399   1.000000
      9         -3.002617   1.000000
     10         -2.743473   1.000000
     11         -2.434364   1.000000
     12         -2.371941   1.000000
     13         -2.284571   1.000000
     14         -2.207298   1.000000
     15         -0.415002   1.000000
     16         -0.112130   1.000000
     17          0.154851   1.000000
     18          0.239683   1.000000
     19          0.542238   1.000000
     20          1.647670   1.000000
     21          1.737939   0.999964
     22          1.806061   0.979372
     23          5.674333   0.000000
     24          5.694949   0.000000
     25          6.487414   0.000000
     26          6.525292   0.000000
     27          6.697934   0.000000
     28          7.216530   0.000000
     29          8.291599   0.000000
     30          8.841910   0.000000
     31          8.870365   0.000000
     32          9.819368   0.000000
     33          9.884203   0.000000
     34          9.936794   0.000000
     35         10.398137   0.000000
     36         10.897491   0.000000
     37         11.404015   0.000000
     38         12.022335   0.000000
     39         12.195032   0.000000
     40         12.456153   0.000000
     41         12.503028   0.000000
     42         13.082697   0.000000
     43         14.840751   0.000000
     44         14.954588   0.000000
     45         15.243924   0.000000
     46         15.602588   0.000000
     47         15.659209   0.000000
     48         16.289032   0.000000
 
  0.3684211E+00  0.0000000E+00  0.0000000E+00  0.2293315E-03
      1        -12.448455   1.000000
      2        -11.995158   1.000000
      3         -8.520662   1.000000
      4         -8.395454   1.000000
      5         -6.076621   1.000000
      6         -6.064196   1.000000
      7         -4.330428   1.000000
      8         -3.569274   1.000000
      9         -2.920040   1.000000
     10         -2.892128   1.000000
     11         -2.525531   1.000000
     12         -2.349016   1.000000
     13         -2.177209   1.000000
     14         -2.154188   1.000000
     15         -0.574953   1.000000
     16         -0.307942   1.000000
     17          0.207530   1.000000
     18          0.281159   1.000000
     19          0.657221   1.000000
     20          1.471636   1.000000
     21          1.671953   1.000000
     22          1.731284   0.999984
     23          5.675320   0.000000
     24          5.725676   0.000000
     25          6.447948   0.000000
     26          6.605896   0.000000
     27          6.839197   0.000000
     28          7.547936   0.000000
     29          8.354695   0.000000
     30          8.653311   0.000000
     31          8.744518   0.000000
     32          9.419625   0.000000
     33         10.143290   0.000000
     34         10.192393   0.000000
     35         10.451249   0.000000
     36         11.275922   0.000000
     37         11.386772   0.000000
     38         11.856769   0.000000
     39         12.130145   0.000000
     40         12.253595   0.000000
     41         12.510186   0.000000
     42         13.288913   0.000000
     43         14.618210   0.000000
     44         15.013306   0.000000
     45         15.136805   0.000000
     46         15.334191   0.000000
     47         15.602390   0.000000
     48         16.412668   0.000000
 
  0.4210526E+00  0.0000000E+00  0.0000000E+00  0.2293315E-03
      1        -12.367604   1.000000
      2        -12.091378   1.000000
      3         -8.485418   1.000000
      4         -8.406421   1.000000
      5         -6.127469   1.000000
      6         -6.124144   1.000000
      7         -4.061205   1.000000
      8         -3.452172   1.000000
      9         -3.133759   1.000000
     10         -3.040838   1.000000
     11         -2.503603   1.000000
     12         -2.367580   1.000000
     13         -2.058185   1.000000
     14         -1.974973   1.000000
     15         -0.703301   1.000000
     16         -0.505183   1.000000
     17          0.255218   1.000000
     18          0.305891   1.000000
     19          0.793052   1.000000
     20          1.291148   1.000000
     21          1.627732   1.000000
     22          1.668840   1.000000
     23          5.687977   0.000000
     24          5.735001   0.000000
     25          6.433266   0.000000
     26          6.533240   0.000000
     27          7.190040   0.000000
     28          7.896973   0.000000
     29          8.327835   0.000000
     30          8.417505   0.000000
     31          8.648889   0.000000
     32          9.024118   0.000000
     33         10.395585   0.000000
     34         10.416801   0.000000
     35         10.635101   0.000000
     36         11.331858   0.000000
     37         11.520521   0.000000
     38         11.682908   0.000000
     39         11.783764   0.000000
     40         12.509895   0.000000
     41         12.514076   0.000000
     42         13.311671   0.000000
     43         14.540325   0.000000
     44         14.816130   0.000000
     45         14.972264   0.000000
     46         15.027540   0.000000
     47         15.931535   0.000000
     48         16.468025   0.000000
 
  0.4736842E+00  0.0000000E+00  0.0000000E+00  0.2293315E-03
      1        -12.279918   1.000000
      2        -12.187135   1.000000
      3         -8.452860   1.000000
      4         -8.425830   1.000000
      5         -6.156491   1.000000
      6         -6.153634   1.000000
      7         -3.761393   1.000000
      8         -3.444865   1.000000
      9         -3.323671   1.000000
     10         -3.185727   1.000000
     11         -2.443936   1.000000
     12         -2.399717   1.000000
     13         -1.934890   1.000000
     14         -1.890432   1.000000
     15         -0.746641   1.000000
     16         -0.669290   1.000000
     17          0.291296   1.000000
     18          0.309435   1.000000
     19          0.946444   1.000000
     20          1.114009   1.000000
     21          1.612010   1.000000
     22          1.626809   1.000000
     23          5.707467   0.000000
     24          5.726221   0.000000
     25          6.444590   0.000000
     26          6.479023   0.000000
     27          7.566255   0.000000
     28          7.952951   0.000000
     29          8.260786   0.000000
     30          8.485106   0.000000
     31          8.561695   0.000000
     32          8.637125   0.000000
     33         10.574092   0.000000
     34         10.576933   0.000000
     35         10.894386   0.000000
     36         11.195722   0.000000
     37         11.317136   0.000000
     38         11.470021   0.000000
     39         12.093167   0.000000
     40         12.382043   0.000000
     41         12.802880   0.000000
     42         13.101805   0.000000
     43         14.621687   0.000000
     44         14.737421   0.000000
     45         14.779743   0.000000
     46         14.851853   0.000000
     47         16.211153   0.000000
     48         16.404063   0.000000
 
  0.0000000E+00  0.3703704E-01  0.0000000E+00  0.2293315E-03
      1        -12.729949   1.000000
      2        -11.573229   1.000000
      3         -8.659440   1.000000
      4         -8.421601   1.000000
      5         -6.073715   1.000000
      6         -5.054209   1.000000
      7         -4.635182   1.000000
      8         -4.358954   1.000000
      9         -4.049396   1.000000
     10         -3.595126   1.000000
     11         -2.600883   1.000000
     12         -2.323951   1.000000
     13         -1.809723   1.000000
     14         -1.052043   1.000000
     15         -0.077451   1.000000
     16         -0.050797   1.000000
     17          0.152035   1.000000
     18          0.195722   1.000000
     19          0.580994   1.000000
     20          2.027341   0.000012
     21          2.088823   0.000000
     22          2.235619   0.000000
     23          5.447580   0.000000
     24          5.759734   0.000000
     25          5.861054   0.000000
     26          5.877740   0.000000
     27          6.828688   0.000000
     28          7.728488   0.000000
     29          7.729512   0.000000
     30          8.509202   0.000000
     31          8.752587   0.000000
     32          8.920967   0.000000
     33          9.049020   0.000000
     34         10.115266   0.000000
     35         11.177867   0.000000
     36         11.388152   0.000000
     37         11.758453   0.000000
     38         11.817529   0.000000
     39         11.913371   0.000000
     40         12.394542   0.000000
     41         12.806219   0.000000
     42         13.349137   0.000000
     43         13.526535   0.000000
     44         15.538741   0.000000
     45         15.549409   0.000000
     46         15.953430   0.000000
     47         16.332201   0.000000
     48         16.483880   0.000000
 
  0.5263158E-01  0.3703704E-01  0.0000000E+00  0.4586630E-03
      1        -12.723845   1.000000
      2        -11.583868   1.000000
      3         -8.656616   1.000000
      4         -8.419795   1.000000
      5         -6.060837   1.000000
      6         -5.136594   1.000000
      7         -4.667038   1.000000
      8         -4.266559   1.000000
      9         -4.036209   1.000000
     10         -3.536010   1.000000
     11         -2.610392   1.000000
     12         -2.321193   1.000000
     13         -1.822362   1.000000
     14         -1.098163   1.000000
     15         -0.071513   1.000000
     16         -0.042052   1.000000
     17          0.159385   1.000000
     18          0.178865   1.000000
     19          0.566906   1.000000
     20          2.014706   0.000057
     21          2.077390   0.000000
     22          2.218726   0.000000
     23          5.461731   0.000000
     24          5.747186   0.000000
     25          5.839534   0.000000
     26          5.964765   0.000000
     27          6.815470   0.000000
     28          7.540942   0.000000
     29          7.886937   0.000000
     30          8.530553   0.000000
     31          8.808993   0.000000
     32          8.957292   0.000000
     33          9.053213   0.000000
     34         10.129827   0.000000
     35         11.187795   0.000000
     36         11.328406   0.000000
     37         11.654803   0.000000
     38         11.780625   0.000000
     39         11.946258   0.000000
     40         12.406557   0.000000
     41         12.876109   0.000000
     42         13.458690   0.000000
     43         13.469493   0.000000
     44         15.368439   0.000000
     45         15.572080   0.000000
     46         16.067895   0.000000
     47         16.316576   0.000000
     48         16.356630   0.000000
 
  0.1052632E+00  0.3703704E-01  0.0000000E+00  0.4586630E-03
      1        -12.705605   1.000000
      2        -11.615135   1.000000
      3         -8.647964   1.000000
      4         -8.414694   1.000000
      5         -6.027362   1.000000
      6         -5.309300   1.000000
      7         -4.736026   1.000000
      8         -4.093208   1.000000
      9         -3.967749   1.000000
     10         -3.381454   1.000000
     11         -2.639216   1.000000
     12         -2.312865   1.000000
     13         -1.857645   1.000000
     14         -1.230793   1.000000
     15         -0.054224   1.000000
     16         -0.021396   1.000000
     17          0.132977   1.000000
     18          0.179664   1.000000
     19          0.525205   1.000000
     20          1.977856   0.002415
     21          2.044088   0.000001
     22          2.168121   0.000000
     23          5.501267   0.000000
     24          5.754319   0.000000
     25          5.829148   0.000000
     26          6.126837   0.000000
     27          6.777942   0.000000
     28          7.345492   0.000000
     29          8.007766   0.000000
     30          8.591107   0.000000
     31          8.959779   0.000000
     32          9.057924   0.000000
     33          9.067751   0.000000
     34         10.174464   0.000000
     35         11.157699   0.000000
     36         11.218043   0.000000
     37         11.398827   0.000000
     38         11.720921   0.000000
     39         12.041619   0.000000
     40         12.442200   0.000000
     41         13.027138   0.000000
     42         13.311039   0.000000
     43         13.725062   0.000000
     44         15.073741   0.000000
     45         15.660774   0.000000
     46         16.056432   0.000000
     47         16.185455   0.000000
     48         16.431670   0.000000
 
  0.1578947E+00  0.3703704E-01  0.0000000E+00  0.4586630E-03
      1        -12.675432   1.000000
      2        -11.665206   1.000000
      3         -8.633154   1.000000
      4         -8.407275   1.000000
      5         -5.988755   1.000000
      6         -5.498177   1.000000
      7         -4.792185   1.000000
      8         -4.007112   1.000000
      9         -3.751498   1.000000
     10         -3.170214   1.000000
     11         -2.687657   1.000000
     12         -2.298780   1.000000
     13         -1.908793   1.000000
     14         -1.435214   1.000000
     15         -0.027413   1.000000
     16         -0.026170   1.000000
     17          0.093323   1.000000
     18          0.203553   1.000000
     19          0.463760   1.000000
     20          1.919962   0.118868
     21          1.991713   0.000663
     22          2.084421   0.000000
     23          5.558458   0.000000
     24          5.756369   0.000000
     25          5.880434   0.000000
     26          6.337406   0.000000
     27          6.721953   0.000000
     28          7.163216   0.000000
     29          8.103109   0.000000
     30          8.679270   0.000000
     31          9.059143   0.000000
     32          9.165976   0.000000
     33          9.238062   0.000000
     34         10.254356   0.000000
     35         10.898215   0.000000
     36         11.081072   0.000000
     37         11.268366   0.000000
     38         11.702322   0.000000
     39         12.183014   0.000000
     40         12.507233   0.000000
     41         13.078319   0.000000
     42         13.137956   0.000000
     43         14.058844   0.000000
     44         14.847288   0.000000
     45         15.736225   0.000000
     46         15.814120   0.000000
     47         16.220088   0.000000
     48         16.527611   0.000000
 
  0.2105263E+00  0.3703704E-01  0.0000000E+00  0.4586630E-03
      1        -12.633687   1.000000
      2        -11.731343   1.000000
      3         -8.612020   1.000000
      4         -8.399128   1.000000
      5         -5.967280   1.000000
      6         -5.676555   1.000000
      7         -4.792528   1.000000
      8         -3.943464   1.000000
      9         -3.482571   1.000000
     10         -2.933701   1.000000
     11         -2.751352   1.000000
     12         -2.278733   1.000000
     13         -1.967659   1.000000
     14         -1.692145   1.000000
     15         -0.117326   1.000000
     16          0.003281   1.000000
     17          0.118790   1.000000
     18          0.194144   1.000000
     19          0.423152   1.000000
     20          1.845983   0.819053
     21          1.924636   0.094613
     22          1.970162   0.004654
     23          5.623047   0.000000
     24          5.733178   0.000000
     25          6.022692   0.000000
     26          6.582367   0.000000
     27          6.655784   0.000000
     28          7.008310   0.000000
     29          8.185045   0.000000
     30          8.770714   0.000000
     31          9.036315   0.000000
     32          9.396600   0.000000
     33          9.463035   0.000000
     34         10.372756   0.000000
     35         10.581149   0.000000
     36         10.768882   0.000000
     37         11.332618   0.000000
     38         11.755116   0.000000
     39         12.322463   0.000000
     40         12.632723   0.000000
     41         12.798888   0.000000
     42         13.084895   0.000000
     43         14.401835   0.000000
     44         14.807826   0.000000
     45         15.453619   0.000000
     46         15.924645   0.000000
     47         16.144601   0.000000
     48         16.501679   0.000000
 
  0.2631579E+00  0.3703704E-01  0.0000000E+00  0.4586630E-03
      1        -12.580907   1.000000
      2        -11.810227   1.000000
      3         -8.584903   1.000000
      4         -8.392354   1.000000
      5         -5.978741   1.000000
      6         -5.833417   1.000000
      7         -4.712304   1.000000
      8         -3.869877   1.000000
      9         -3.212984   1.000000
     10         -2.862395   1.000000
     11         -2.655698   1.000000
     12         -2.255012   1.000000
     13         -2.027500   1.000000
     14         -1.976558   1.000000
     15         -0.254700   1.000000
     16          0.001888   1.000000
     17          0.133833   1.000000
     18          0.168544   1.000000
     19          0.458001   1.000000
     20          1.759683   0.999600
     21          1.833493   0.897071
     22          1.848353   0.800867
     23          5.684536   0.000000
     24          5.711658   0.000000
     25          6.232450   0.000000
     26          6.588987   0.000000
     27          6.790533   0.000000
     28          6.947497   0.000000
     29          8.258447   0.000000
     30          8.819894   0.000000
     31          8.987470   0.000000
     32          9.638380   0.000000
     33          9.716231   0.000000
     34         10.187882   0.000000
     35         10.461693   0.000000
     36         10.653455   0.000000
     37         11.392570   0.000000
     38         11.881231   0.000000
     39         12.413694   0.000000
     40         12.484183   0.000000
     41         12.847531   0.000000
     42         12.855538   0.000000
     43         14.696270   0.000000
     44         14.982685   0.000000
     45         15.150572   0.000000
     46         15.937914   0.000000
     47         15.949993   0.000000
     48         16.251098   0.000000
 
  0.3157895E+00  0.3703704E-01  0.0000000E+00  0.4586630E-03
      1        -12.517778   1.000000
      2        -11.898300   1.000000
      3         -8.552907   1.000000
      4         -8.389383   1.000000
      5         -6.019389   1.000000
      6         -5.962535   1.000000
      7         -4.552119   1.000000
      8         -3.783645   1.000000