  14  14   0   0
  0.1021960E+02  0.5697000E-09  0.4047900E-09  0.6204200E-09  0.5000000E-15
  1.000000000000000E-004
  CAR 
 Kpoints                                 
     18.02238696    -14.19465123  301      1.87997585      1.00000000
    -14.195  0.0000E+00  0.0000E+00
    -14.087  0.0000E+00  0.0000E+00
    -13.980  0.0000E+00  0.0000E+00
    -13.872  0.0000E+00  0.0000E+00
    -13.765  0.0000E+00  0.0000E+00
    -13.658  0.0000E+00  0.0000E+00
    -13.550  0.0000E+00  0.0000E+00
    -13.443  0.0000E+00  0.0000E+00
    -13.336  0.0000E+00  0.0000E+00
    -13.228  0.0000E+00  0.0000E+00
    -13.121  0.0000E+00  0.0000E+00
    -13.013  0.1559E-16  0.1674E-17
    -12.906  0.1322E-07  0.1420E-08
    -12.799  0.2448E-02  0.2628E-03
    -12.691  0.4385E+00  0.4736E-01
    -12.584  0.2296E+01  0.2939E+00
    -12.476  0.3532E+01  0.6732E+00
    -12.369  0.4343E+01  0.1140E+01
    -12.262  0.3552E+01  0.1521E+01
    -12.154  0.2866E+01  0.1829E+01
    -12.047  0.2631E+01  0.2111E+01
    -11.939  0.2589E+01  0.2389E+01
    -11.832  0.2748E+01  0.2685E+01
    -11.725  0.3330E+01  0.3042E+01
    -11.617  0.3620E+01  0.3431E+01
    -11.510  0.3118E+01  0.3766E+01
    -11.403  0.1717E+01  0.3950E+01
    -11.295  0.4556E+00  0.3999E+01
    -11.188  0.8899E-02  0.4000E+01
    -11.080  0.3495E-06  0.4000E+01
    -10.973  0.3604E-14  0.4000E+01
    -10.866  0.0000E+00  0.4000E+01
    -10.758  0.0000E+00  0.4000E+01
    -10.651  0.0000E+00  0.4000E+01
    -10.543  0.0000E+00  0.4000E+01
    -10.436  0.0000E+00  0.4000E+01
    -10.329  0.0000E+00  0.4000E+01
    -10.221  0.0000E+00  0.4000E+01
    -10.114  0.0000E+00  0.4000E+01
    -10.006  0.0000E+00  0.4000E+01
     -9.899  0.0000E+00  0.4000E+01
     -9.792  0.0000E+00  0.4000E+01
     -9.684  0.0000E+00  0.4000E+01
     -9.577  0.0000E+00  0.4000E+01
     -9.469  0.0000E+00  0.4000E+01
     -9.362  0.0000E+00  0.4000E+01
     -9.255  0.0000E+00  0.4000E+01
     -9.147  0.0000E+00  0.4000E+01
     -9.040  0.7603E-09  0.4000E+01
     -8.933  0.5819E-03  0.4000E+01
     -8.825  0.2803E+00  0.4030E+01
     -8.718  0.2111E+01  0.4257E+01
     -8.610  0.5332E+01  0.4829E+01
     -8.503  0.7009E+01  0.5582E+01
     -8.396  0.6260E+01  0.6254E+01
     -8.288  0.5310E+01  0.6825E+01
     -8.181  0.4878E+01  0.7348E+01
     -8.073  0.3793E+01  0.7756E+01
     -7.966  0.1663E+01  0.7934E+01
     -7.859  0.5652E+00  0.7995E+01
     -7.751  0.4603E-01  0.8000E+01
     -7.644  0.3423E-04  0.8000E+01
     -7.536  0.1164E-10  0.8000E+01
     -7.429  0.0000E+00  0.8000E+01
     -7.322  0.0000E+00  0.8000E+01
     -7.214  0.2014E-14  0.8000E+01
     -7.107  0.1858E-06  0.8000E+01
     -7.000  0.3278E-02  0.8000E+01
     -6.892  0.1014E+00  0.8011E+01
     -6.785  0.2826E+00  0.8042E+01
     -6.677  0.4708E+00  0.8092E+01
     -6.570  0.6713E+00  0.8164E+01
     -6.463  0.9457E+00  0.8266E+01
     -6.355  0.1409E+01  0.8417E+01
     -6.248  0.2127E+01  0.8646E+01
     -6.140  0.2949E+01  0.8962E+01
     -6.033  0.3960E+01  0.9388E+01
     -5.926  0.3982E+01  0.9815E+01
     -5.818  0.3998E+01  0.1024E+02
     -5.711  0.4145E+01  0.1069E+02
     -5.603  0.4012E+01  0.1112E+02
     -5.496  0.4094E+01  0.1156E+02
     -5.389  0.4479E+01  0.1204E+02
     -5.281  0.4765E+01  0.1255E+02
     -5.174  0.4389E+01  0.1302E+02
     -5.066  0.3923E+01  0.1345E+02
     -4.959  0.3367E+01  0.1381E+02
     -4.852  0.2493E+01  0.1407E+02
     -4.744  0.2392E+01  0.1433E+02
     -4.637  0.3001E+01  0.1465E+02
     -4.530  0.3597E+01  0.1504E+02
     -4.422  0.3434E+01  0.1541E+02
     -4.315  0.3178E+01  0.1575E+02
     -4.207  0.2883E+01  0.1606E+02
     -4.100  0.2898E+01  0.1637E+02
     -3.993  0.3003E+01  0.1669E+02
     -3.885  0.3001E+01  0.1702E+02
     -3.778  0.2962E+01  0.1733E+02
     -3.670  0.2943E+01  0.1765E+02
     -3.563  0.2783E+01  0.1795E+02
     -3.456  0.2808E+01  0.1825E+02
     -3.348  0.2823E+01  0.1855E+02
     -3.241  0.2692E+01  0.1884E+02
     -3.133  0.2762E+01  0.1914E+02
     -3.026  0.3009E+01  0.1946E+02
     -2.919  0.2936E+01  0.1978E+02
     -2.811  0.2884E+01  0.2009E+02
     -2.704  0.2493E+01  0.2036E+02
     -2.597  0.2454E+01  0.2062E+02
     -2.489  0.3055E+01  0.2095E+02
     -2.382  0.3166E+01  0.2129E+02
     -2.274  0.3762E+01  0.2169E+02
     -2.167  0.3401E+01  0.2206E+02
     -2.060  0.3386E+01  0.2242E+02
     -1.952  0.3952E+01  0.2284E+02
     -1.845  0.5050E+01  0.2339E+02
     -1.737  0.5364E+01  0.2396E+02
     -1.630  0.5959E+01  0.2460E+02
     -1.523  0.6040E+01  0.2525E+02
     -1.415  0.6099E+01  0.2591E+02
     -1.308  0.5590E+01  0.2651E+02
     -1.200  0.5335E+01  0.2708E+02
     -1.093  0.5150E+01  0.2763E+02
     -0.986  0.3992E+01  0.2806E+02
     -0.878  0.2780E+01  0.2836E+02
     -0.771  0.2269E+01  0.2860E+02
     -0.663  0.3463E+01  0.2897E+02
     -0.556  0.5036E+01  0.2952E+02
     -0.449  0.5894E+01  0.3015E+02
     -0.341  0.6470E+01  0.3084E+02
     -0.234  0.6183E+01  0.3151E+02
     -0.127  0.6738E+01  0.3223E+02
     -0.019  0.6925E+01  0.3297E+02
      0.088  0.6324E+01  0.3365E+02
      0.196  0.6771E+01  0.3438E+02
      0.303  0.8482E+01  0.3529E+02
      0.410  0.8377E+01  0.3619E+02
      0.518  0.8631E+01  0.3712E+02
      0.625  0.4474E+01  0.3760E+02
      0.733  0.3040E+01  0.3793E+02
      0.840  0.3014E+01  0.3825E+02
      0.947  0.3429E+01  0.3862E+02
      1.055  0.3379E+01  0.3898E+02
      1.162  0.3632E+01  0.3937E+02
      1.270  0.3892E+01  0.3979E+02
      1.377  0.3554E+01  0.4017E+02
      1.484  0.3956E+01  0.4059E+02
      1.592  0.4039E+01  0.4103E+02
      1.699  0.3562E+01  0.4141E+02
      1.806  0.3489E+01  0.4179E+02
      1.914  0.2795E+01  0.4209E+02
      2.021  0.2522E+01  0.4236E+02
      2.129  0.2820E+01  0.4266E+02
      2.236  0.2388E+01  0.4292E+02
      2.343  0.1755E+01  0.4310E+02
      2.451  0.1454E+01  0.4326E+02
      2.558  0.1066E+01  0.4338E+02
      2.666  0.7234E+00  0.4345E+02
      2.773  0.4804E+00  0.4350E+02
      2.880  0.6390E+00  0.4357E+02
      2.988  0.5892E+00  0.4364E+02
      3.095  0.5092E+00  0.4369E+02
      3.203  0.3420E+00  0.4373E+02
      3.310  0.4934E+00  0.4378E+02
      3.417  0.4436E+00  0.4383E+02
      3.525  0.3096E+00  0.4386E+02
      3.632  0.3321E+00  0.4390E+02
      3.740  0.3402E+00  0.4393E+02
      3.847  0.2712E+00  0.4396E+02
      3.954  0.2301E+00  0.4399E+02
      4.062  0.1127E+00  0.4400E+02
      4.169  0.3120E-02  0.4400E+02
      4.276  0.5593E-01  0.4401E+02
      4.384  0.2425E+00  0.4403E+02
      4.491  0.3710E+00  0.4407E+02
      4.599  0.5214E+00  0.4413E+02
      4.706  0.7417E+00  0.4421E+02
      4.813  0.7990E+00  0.4429E+02
      4.921  0.9062E+00  0.4439E+02
      5.028  0.9732E+00  0.4450E+02
      5.136  0.1140E+01  0.4462E+02
      5.243  0.1366E+01  0.4476E+02
      5.350  0.1722E+01  0.4495E+02
      5.458  0.2166E+01  0.4518E+02
      5.565  0.2560E+01  0.4546E+02
      5.673  0.3005E+01  0.4578E+02
      5.780  0.3253E+01  0.4613E+02
      5.887  0.3707E+01  0.4653E+02
      5.995  0.4178E+01  0.4698E+02
      6.102  0.4514E+01  0.4746E+02
      6.209  0.4588E+01  0.4795E+02
      6.317  0.4176E+01  0.4840E+02
      6.424  0.4164E+01  0.4885E+02
      6.532  0.4386E+01  0.4932E+02
      6.639  0.3909E+01  0.4974E+02
      6.746  0.3522E+01  0.5012E+02
      6.854  0.4003E+01  0.5055E+02
      6.961  0.4491E+01  0.5103E+02
      7.069  0.4740E+01  0.5154E+02
      7.176  0.5084E+01  0.5209E+02
      7.283  0.5082E+01  0.5263E+02
      7.391  0.4550E+01  0.5312E+02
      7.498  0.4469E+01  0.5360E+02
      7.606  0.4122E+01  0.5404E+02
      7.713  0.3390E+01  0.5441E+02
      7.820  0.3121E+01  0.5474E+02
      7.928  0.3154E+01  0.5508E+02
      8.035  0.3416E+01  0.5545E+02
      8.142  0.3604E+01  0.5583E+02
      8.250  0.3816E+01  0.5624E+02
      8.357  0.4120E+01  0.5669E+02
      8.465  0.4134E+01  0.5713E+02
      8.572  0.3975E+01  0.5756E+02
      8.679  0.4241E+01  0.5801E+02
      8.787  0.4975E+01  0.5855E+02
      8.894  0.5102E+01  0.5909E+02
      9.002  0.5090E+01  0.5964E+02
      9.109  0.4960E+01  0.6017E+02
      9.216  0.5214E+01  0.6073E+02
      9.324  0.4992E+01  0.6127E+02
      9.431  0.4670E+01  0.6177E+02
      9.539  0.4675E+01  0.6227E+02
      9.646  0.4685E+01  0.6278E+02
      9.753  0.5043E+01  0.6332E+02
      9.861  0.5277E+01  0.6389E+02
      9.968  0.4876E+01  0.6441E+02
     10.076  0.4049E+01  0.6484E+02
     10.183  0.4084E+01  0.6528E+02
     10.290  0.4368E+01  0.6575E+02
     10.398  0.5133E+01  0.6630E+02
     10.505  0.5663E+01  0.6691E+02
     10.612  0.4919E+01  0.6744E+02
     10.720  0.4303E+01  0.6790E+02
     10.827  0.3957E+01  0.6833E+02
     10.935  0.3448E+01  0.6870E+02
     11.042  0.4744E+01  0.6921E+02
     11.149  0.5468E+01  0.6979E+02
     11.257  0.6243E+01  0.7046E+02
     11.364  0.5924E+01  0.7110E+02
     11.472  0.4757E+01  0.7161E+02
     11.579  0.4692E+01  0.7211E+02
     11.686  0.4702E+01  0.7262E+02
     11.794  0.4749E+01  0.7313E+02
     11.901  0.5242E+01  0.7369E+02
     12.009  0.6109E+01  0.7435E+02
     12.116  0.5919E+01  0.7498E+02
     12.223  0.5601E+01  0.7559E+02
     12.331  0.5157E+01  0.7614E+02
     12.438  0.5565E+01  0.7674E+02
     12.545  0.6004E+01  0.7738E+02
     12.653  0.5892E+01  0.7801E+02
     12.760  0.5812E+01  0.7864E+02
     12.868  0.5927E+01  0.7927E+02
     12.975  0.5910E+01  0.7991E+02
     13.082  0.6115E+01  0.8057E+02
     13.190  0.6169E+01  0.8123E+02
     13.297  0.5978E+01  0.8187E+02
     13.405  0.5587E+01  0.8247E+02
     13.512  0.5369E+01  0.8305E+02
     13.619  0.5385E+01  0.8363E+02
     13.727  0.5477E+01  0.8421E+02
     13.834  0.5772E+01  0.8483E+02
     13.942  0.5454E+01  0.8542E+02
     14.049  0.5613E+01  0.8602E+02
     14.156  0.4918E+01  0.8655E+02
     14.264  0.5128E+01  0.8710E+02
     14.371  0.4805E+01  0.8762E+02
     14.479  0.4844E+01  0.8814E+02
     14.586  0.5370E+01  0.8871E+02
     14.693  0.5160E+01  0.8927E+02
     14.801  0.4398E+01  0.8974E+02
     14.908  0.4409E+01  0.9021E+02
     15.015  0.5579E+01  0.9081E+02
     15.123  0.6032E+01  0.9146E+02
     15.230  0.5939E+01  0.9210E+02
     15.338  0.5718E+01  0.9271E+02
     15.445  0.5836E+01  0.9334E+02
     15.552  0.6159E+01  0.9400E+02
     15.660  0.5126E+01  0.9455E+02
     15.767  0.3759E+01  0.9495E+02
     15.875  0.2659E+01  0.9524E+02
     15.982  0.2191E+01  0.9548E+02
     16.089  0.1432E+01  0.9563E+02
     16.197  0.1154E+01  0.9575E+02
     16.304  0.9437E+00  0.9585E+02
     16.412  0.8310E+00  0.9594E+02
     16.519  0.4496E+00  0.9599E+02
     16.626  0.7264E-01  0.9600E+02
     16.734  0.8298E-03  0.9600E+02
     16.841  0.9507E-08  0.9600E+02
     16.948  0.1641E-16  0.9600E+02
     17.056  0.0000E+00  0.9600E+02
     17.163  0.0000E+00  0.9600E+02
     17.271  0.0000E+00  0.9600E+02
     17.378  0.0000E+00  0.9600E+02
     17.485  0.0000E+00  0.9600E+02
     17.593  0.0000E+00  0.9600E+02
     17.700  0.0000E+00  0.9600E+02
     17.808  0.0000E+00  0.9600E+02
     17.915  0.0000E+00  0.9600E+02
     18.022  0.0000E+00  0.9600E+02
