 vasp.6.4.3 19Mar24 (build May 31 2024 16:31:43) complex                        
  
 executed on             LinuxIFC date 2024.10.31  00:22:38
 running   24 mpi-ranks, with    1 threads/rank, on    1 nodes
 distrk:  each k-point on   24 cores,    1 groups
 distr:  one band on NCORE=   1 cores,   24 groups


--------------------------------------------------------------------------------------------------------


 INCAR:
   SYSTEM = Kpoints
   ISTART = 0
   ICHARG = 2
   PREC = Accurate
   ENCUT = 480
   LCHARG = .FALSE.
   LWAVE = .FALSE.
   ALGO = Normal
   NELM = 100
   EDIFF = 1E-6
   EDIFFG = -1E-3
   SIGMA = 0.05
   ISMEAR = 0
   ISPIN = 1
   NSW = 0
   IBRION = -1
   POTIM = .5
   ISIF = 2
   GGA = PE

 POTCAR:    PAW_PBE B 06Sep2000                   
 POTCAR:    PAW_PBE B 06Sep2000                   
   SHA256 =  a32ced30f5ae56fd4d10b4325ff17eb3e4e38ee0f4288bc219fb012fddfa6e97 B/POTCAR              
   COPYR  = (c) Copyright 06Sep2000 Georg Kresse                                                    
   COPYR  = This file is part of the software VASP. Any use, copying, and all other rights are regul
   COPYR  = If you do not have a valid VASP license, you may not use, copy or distribute this file. 
   VRHFIN =B: s2p1                                                                                  
   LEXCH  = PE                                                                                      
   EATOM  =    71.1703 eV,    5.2309 Ry                                                             
                                                                                                    
   TITEL  = PAW_PBE B 06Sep2000                                                                     
   LULTRA =        F    use ultrasoft PP ?                                                          
   IUNSCR =        1    unscreen: 0-lin 1-nonlin 2-no                                               
   RPACOR =    1.200    partial core radius                                                         
   POMASS =   10.811; ZVAL   =    3.000    mass and valenz                                          
   RCORE  =    1.700    outmost cutoff radius                                                       
   RWIGS  =    1.710; RWIGS  =    0.905    wigner-seitz radius (au A)                               
   ENMAX  =  318.614; ENMIN  =  238.960 eV                                                          
   ICORE  =        2    local potential                                                             
   LCOR   =        T    correct aug charges                                                         
   LPAW   =        T    paw PP                                                                      
   EAUG   =  535.514                                                                                
   DEXC   =    0.000                                                                                
   RMAX   =    1.732    core radius for proj-oper                                                   
   RAUG   =    1.300    factor for augmentation sphere                                              
   RDEP   =    1.757    radius for radial grids                                                     
   RDEPT  =    1.436    core radius for aug-charge                                                  
                                                                                                    
   Atomic configuration                                                                             
    4 entries                                                                                       
     n  l   j            E        occ.                                                              
     1  0  0.50      -180.5896   2.0000                                                             
     2  0  0.50        -9.4431   2.0000                                                             
     2  1  0.50        -3.6068   1.0000                                                             
     3  2  1.50        -4.0817   0.0000                                                             
   Description                                                                                      
     l       E           TYP  RCUT    TYP  RCUT                                                     
     0     -9.4430752     23  1.500                                                                 
     0      0.8675899     23  1.500                                                                 
     1     -3.6067955     23  1.700                                                                 
     1      6.1086146     23  1.700                                                                 
     2     -4.0817478      7  1.700                                                                 
  local pseudopotential read in
  partial core-charges read in
  partial kinetic energy density read in
  atomic valenz-charges read in
  non local Contribution for L=           0  read in
    real space projection operators read in
  non local Contribution for L=           0  read in
    real space projection operators read in
  non local Contribution for L=           1  read in
    real space projection operators read in
  non local Contribution for L=           1  read in
    real space projection operators read in
    PAW grid and wavefunctions read in
 
   number of l-projection  operators is LMAX  =           4
   number of lm-projection operators is LMMAX =           8
 
  PAW_PBE B 06Sep2000                   :
 energy of atom  1       EATOM=  -71.1703
 kinetic energy error for atom=    0.0013 (will be added to EATOM!!)
 
 
 POSCAR: o-B14
  positions in direct lattice
  No initial velocities read in


 exchange-correlation table for PE
   RHO(1)=    0.500       N(1)  =     2000
   RHO(2)=  100.500       N(2)  =     4000
 


--------------------------------------------------------------------------------------------------------


 ion  position               nearest neighbor table
   1  0.521  0.500  0.638-  14 1.64   5 1.69  13 1.70   2 1.73   9 1.85  11 1.85
   2  0.479  0.500  0.362-  13 1.64   6 1.69  14 1.70   1 1.73  10 1.85  12 1.85
   3  0.979  0.500  0.638-  14 1.64   7 1.69  13 1.70   4 1.73   9 1.85  11 1.85
   4  0.021  0.500  0.362-  13 1.64   8 1.69  14 1.70   3 1.73  10 1.85  12 1.85
   5  0.601  0.500  0.900-   1 1.69   6 1.69   7 1.70   9 1.80  11 1.80
   6  0.399  0.500  0.100-   2 1.69   5 1.69   8 1.70  10 1.80  12 1.80
   7  0.899  0.500  0.900-   3 1.69   8 1.69   5 1.70   9 1.80  11 1.80
   8  0.101  0.500  0.100-   4 1.69   7 1.69   6 1.70  10 1.80  12 1.80
   9  0.750  0.792  0.730-  11 1.69   7 1.80   5 1.80   3 1.85   1 1.85  14 1.97
  10  0.250  0.208  0.270-  12 1.69   8 1.80   6 1.80   4 1.85   2 1.85  13 1.97
  11  0.750  0.208  0.730-   9 1.69   7 1.80   5 1.80   3 1.85   1 1.85  14 1.97
  12  0.250  0.792  0.270-  10 1.69   8 1.80   6 1.80   4 1.85   2 1.85  13 1.97
  13  0.250  0.500  0.524-   2 1.64   4 1.64   3 1.70   1 1.70  10 1.97  12 1.97
  14  0.750  0.500  0.476-   1 1.64   3 1.64   2 1.70   4 1.70   9 1.97  11 1.97
 
  LATTYP: Found a simple orthorhombic cell.
 ALAT       =     4.0479000000
 B/A-ratio  =     1.4073964278
 C/A-ratio  =     1.5326959658
  
  Lattice vectors:
  
 A1 = (   0.0000000000,  -4.0479000000,   0.0000000000)
 A2 = (   5.6970000000,   0.0000000000,   0.0000000000)
 A3 = (   0.0000000000,   0.0000000000,   6.2042000000)


Analysis of symmetry for initial positions (statically):
=====================================================================
 Subroutine PRICEL returns:
 Original cell was already a primitive cell.
 

 Routine SETGRP: Setting up the symmetry group for a 
 simple orthorhombic supercell.


 Subroutine GETGRP returns: Found  8 space group operations
 (whereof  4 operations were pure point group operations)
 out of a pool of  8 trial point group operations.


The static configuration has the point symmetry C_2h.
 The point group associated with its full space group is D_2h.


Analysis of symmetry for dynamics (positions and initial velocities):
=====================================================================
 Subroutine PRICEL returns:
 Original cell was already a primitive cell.
 

 Routine SETGRP: Setting up the symmetry group for a 
 simple orthorhombic supercell.


 Subroutine GETGRP returns: Found  8 space group operations
 (whereof  4 operations were pure point group operations)
 out of a pool of  8 trial point group operations.


The dynamic configuration has the point symmetry C_2h.
 The point group associated with its full space group is D_2h.


 Subroutine INISYM returns: Found  8 space group operations
 (whereof  4 operations are pure point group operations),
 and found     1 'primitive' translations


----------------------------------------------------------------------------------------

                                     Primitive cell                                     

  volume of cell :     143.0744

  direct lattice vectors                    reciprocal lattice vectors
     5.697000000  0.000000000  0.000000000     0.175530981  0.000000000  0.000000000
     0.000000000  4.047900000  0.000000000     0.000000000  0.247041676  0.000000000
     0.000000000  0.000000000  6.204200000     0.000000000  0.000000000  0.161181135

  length of vectors
     5.697000000  4.047900000  6.204200000     0.175530981  0.247041676  0.161181135

  position of ions in fractional coordinates (direct lattice)
     0.521230000  0.500000000  0.637960000
     0.478770000  0.500000000  0.362040000
     0.978770000  0.500000000  0.637960000
     0.021230000  0.500000000  0.362040000
     0.600900000  0.500000000  0.899910000
     0.399100000  0.500000000  0.100090000
     0.899100000  0.500000000  0.899910000
     0.100900000  0.500000000  0.100090000
     0.750000000  0.791710000  0.729730000
     0.250000000  0.208290000  0.270270000
     0.750000000  0.208290000  0.729730000
     0.250000000  0.791710000  0.270270000
     0.250000000  0.500000000  0.523670000
     0.750000000  0.500000000  0.476330000

  ion indices of the primitive-cell ions
   primitive index   ion index
                 1           1
                 2           2
                 3           3
                 4           4
                 5           5
                 6           6
                 7           7
                 8           8
                 9           9
                10          10
                11          11
                12          12
                13          13
                14          14

----------------------------------------------------------------------------------------

 
 
 KPOINTS: k-points                                

Automatic generation of k-mesh.
 Grid dimensions read from file:
 generate k-points for:   20   28   18

 Generating k-lattice:

  Cartesian coordinates                     Fractional coordinates (reciprocal lattice)
     0.008776549  0.000000000  0.000000000     0.050000000  0.000000000  0.000000000
     0.000000000  0.008822917  0.000000000     0.000000000  0.035714286  0.000000000
     0.000000000  0.000000000  0.008954508     0.000000000  0.000000000  0.055555556

  Length of vectors
     0.008776549  0.008822917  0.008954508

  Shift w.r.t. Gamma in fractional coordinates (k-lattice)
     0.500000000  0.500000000  0.500000000

 
 Subroutine IBZKPT returns following result:
 ===========================================
 
 Found   1260 irreducible k-points:
 
 Following reciprocal coordinates:
            Coordinates               Weight
  0.025000  0.017857  0.027778      8.000000
  0.075000  0.017857  0.027778      8.000000
  0.125000  0.017857  0.027778      8.000000
  0.175000  0.017857  0.027778      8.000000
  0.225000  0.017857  0.027778      8.000000
  0.275000  0.017857  0.027778      8.000000
  0.325000  0.017857  0.027778      8.000000
  0.375000  0.017857  0.027778      8.000000
  0.425000  0.017857  0.027778      8.000000
  0.475000  0.017857  0.027778      8.000000
  0.025000  0.053571  0.027778      8.000000
  0.075000  0.053571  0.027778      8.000000
  0.125000  0.053571  0.027778      8.000000
  0.175000  0.053571  0.027778      8.000000
  0.225000  0.053571  0.027778      8.000000
  0.275000  0.053571  0.027778      8.000000
  0.325000  0.053571  0.027778      8.000000
  0.375000  0.053571  0.027778      8.000000
  0.425000  0.053571  0.027778      8.000000
  0.475000  0.053571  0.027778      8.000000
  0.025000  0.089286  0.027778      8.000000
  0.075000  0.089286  0.027778      8.000000
  0.125000  0.089286  0.027778      8.000000
  0.175000  0.089286  0.027778      8.000000
  0.225000  0.089286  0.027778      8.000000
  0.275000  0.089286  0.027778      8.000000
  0.325000  0.089286  0.027778      8.000000
  0.375000  0.089286  0.027778      8.000000
  0.425000  0.089286  0.027778      8.000000
  0.475000  0.089286  0.027778      8.000000
  0.025000  0.125000  0.027778      8.000000
  0.075000  0.125000  0.027778      8.000000
  0.125000  0.125000  0.027778      8.000000
  0.175000  0.125000  0.027778      8.000000
  0.225000  0.125000  0.027778      8.000000
  0.275000  0.125000  0.027778      8.000000
  0.325000  0.125000  0.027778      8.000000
  0.375000  0.125000  0.027778      8.000000
  0.425000  0.125000  0.027778      8.000000
  0.475000  0.125000  0.027778      8.000000
  0.025000  0.160714  0.027778      8.000000
  0.075000  0.160714  0.027778      8.000000
  0.125000  0.160714  0.027778      8.000000
  0.175000  0.160714  0.027778      8.000000
  0.225000  0.160714  0.027778      8.000000
  0.275000  0.160714  0.027778      8.000000
  0.325000  0.160714  0.027778      8.000000
  0.375000  0.160714  0.027778      8.000000
  0.425000  0.160714  0.027778      8.000000
  0.475000  0.160714  0.027778      8.000000
  0.025000  0.196429  0.027778      8.000000
  0.075000  0.196429  0.027778      8.000000
  0.125000  0.196429  0.027778      8.000000
  0.175000  0.196429  0.027778      8.000000
  0.225000  0.196429  0.027778      8.000000
  0.275000  0.196429  0.027778      8.000000
  0.325000  0.196429  0.027778      8.000000
  0.375000  0.196429  0.027778      8.000000
  0.425000  0.196429  0.027778      8.000000
  0.475000  0.196429  0.027778      8.000000
  0.025000  0.232143  0.027778      8.000000
  0.075000  0.232143  0.027778      8.000000
  0.125000  0.232143  0.027778      8.000000
  0.175000  0.232143  0.027778      8.000000
  0.225000  0.232143  0.027778      8.000000
  0.275000  0.232143  0.027778      8.000000
  0.325000  0.232143  0.027778      8.000000
  0.375000  0.232143  0.027778      8.000000
  0.425000  0.232143  0.027778      8.000000
  0.475000  0.232143  0.027778      8.000000
  0.025000  0.267857  0.027778      8.000000
  0.075000  0.267857  0.027778      8.000000
  0.125000  0.267857  0.027778      8.000000
  0.175000  0.267857  0.027778      8.000000
  0.225000  0.267857  0.027778      8.000000
  0.275000  0.267857  0.027778      8.000000
  0.325000  0.267857  0.027778      8.000000
  0.375000  0.267857  0.027778      8.000000
  0.425000  0.267857  0.027778      8.000000
  0.475000  0.267857  0.027778      8.000000
  0.025000  0.303571  0.027778      8.000000
  0.075000  0.303571  0.027778      8.000000
  0.125000  0.303571  0.027778      8.000000
  0.175000  0.303571  0.027778      8.000000
  0.225000  0.303571  0.027778      8.000000
  0.275000  0.303571  0.027778      8.000000
  0.325000  0.303571  0.027778      8.000000
  0.375000  0.303571  0.027778      8.000000
  0.425000  0.303571  0.027778      8.000000
  0.475000  0.303571  0.027778      8.000000
  0.025000  0.339286  0.027778      8.000000
  0.075000  0.339286  0.027778      8.000000
  0.125000  0.339286  0.027778      8.000000
  0.175000  0.339286  0.027778      8.000000
  0.225000  0.339286  0.027778      8.000000
  0.275000  0.339286  0.027778      8.000000
  0.325000  0.339286  0.027778      8.000000
  0.375000  0.339286  0.027778      8.000000
  0.425000  0.339286  0.027778      8.000000
  0.475000  0.339286  0.027778      8.000000
  0.025000  0.375000  0.027778      8.000000
  0.075000  0.375000  0.027778      8.000000
  0.125000  0.375000  0.027778      8.000000
  0.175000  0.375000  0.027778      8.000000
  0.225000  0.375000  0.027778      8.000000
  0.275000  0.375000  0.027778      8.000000
  0.325000  0.375000  0.027778      8.000000
  0.375000  0.375000  0.027778      8.000000
  0.425000  0.375000  0.027778      8.000000
  0.475000  0.375000  0.027778      8.000000
  0.025000  0.410714  0.027778      8.000000
  0.075000  0.410714  0.027778      8.000000
  0.125000  0.410714  0.027778      8.000000
  0.175000  0.410714  0.027778      8.000000
  0.225000  0.410714  0.027778      8.000000
  0.275000  0.410714  0.027778      8.000000
  0.325000  0.410714  0.027778      8.000000
  0.375000  0.410714  0.027778      8.000000
  0.425000  0.410714  0.027778      8.000000
  0.475000  0.410714  0.027778      8.000000
  0.025000  0.446429  0.027778      8.000000
  0.075000  0.446429  0.027778      8.000000
  0.125000  0.446429  0.027778      8.000000
  0.175000  0.446429  0.027778      8.000000
  0.225000  0.446429  0.027778      8.000000
  0.275000  0.446429  0.027778      8.000000
  0.325000  0.446429  0.027778      8.000000
  0.375000  0.446429  0.027778      8.000000
  0.425000  0.446429  0.027778      8.000000
  0.475000  0.446429  0.027778      8.000000
  0.025000  0.482143  0.027778      8.000000
  0.075000  0.482143  0.027778      8.000000
  0.125000  0.482143  0.027778      8.000000
  0.175000  0.482143  0.027778      8.000000
  0.225000  0.482143  0.027778      8.000000
  0.275000  0.482143  0.027778      8.000000
  0.325000  0.482143  0.027778      8.000000
  0.375000  0.482143  0.027778      8.000000
  0.425000  0.482143  0.027778      8.000000
  0.475000  0.482143  0.027778      8.000000
  0.025000  0.017857  0.083333      8.000000
  0.075000  0.017857  0.083333      8.000000
  0.125000  0.017857  0.083333      8.000000
  0.175000  0.017857  0.083333      8.000000
  0.225000  0.017857  0.083333      8.000000
  0.275000  0.017857  0.083333      8.000000
  0.325000  0.017857  0.083333      8.000000
  0.375000  0.017857  0.083333      8.000000
  0.425000  0.017857  0.083333      8.000000
  0.475000  0.017857  0.083333      8.000000
  0.025000  0.053571  0.083333      8.000000
  0.075000  0.053571  0.083333      8.000000
  0.125000  0.053571  0.083333      8.000000
  0.175000  0.053571  0.083333      8.000000
  0.225000  0.053571  0.083333      8.000000
  0.275000  0.053571  0.083333      8.000000
  0.325000  0.053571  0.083333      8.000000
  0.375000  0.053571  0.083333      8.000000
  0.425000  0.053571  0.083333      8.000000
  0.475000  0.053571  0.083333      8.000000
  0.025000  0.089286  0.083333      8.000000
  0.075000  0.089286  0.083333      8.000000
  0.125000  0.089286  0.083333      8.000000
  0.175000  0.089286  0.083333      8.000000
  0.225000  0.089286  0.083333      8.000000
  0.275000  0.089286  0.083333      8.000000
  0.325000  0.089286  0.083333      8.000000
  0.375000  0.089286  0.083333      8.000000
  0.425000  0.089286  0.083333      8.000000
  0.475000  0.089286  0.083333      8.000000
  0.025000  0.125000  0.083333      8.000000
  0.075000  0.125000  0.083333      8.000000
  0.125000  0.125000  0.083333      8.000000
  0.175000  0.125000  0.083333      8.000000
  0.225000  0.125000  0.083333      8.000000
  0.275000  0.125000  0.083333      8.000000
  0.325000  0.125000  0.083333      8.000000
  0.375000  0.125000  0.083333      8.000000
  0.425000  0.125000  0.083333      8.000000
  0.475000  0.125000  0.083333      8.000000
  0.025000  0.160714  0.083333      8.000000
  0.075000  0.160714  0.083333      8.000000
  0.125000  0.160714  0.083333      8.000000
  0.175000  0.160714  0.083333      8.000000
  0.225000  0.160714  0.083333      8.000000
  0.275000  0.160714  0.083333      8.000000
  0.325000  0.160714  0.083333      8.000000
  0.375000  0.160714  0.083333      8.000000
  0.425000  0.160714  0.083333      8.000000
  0.475000  0.160714  0.083333      8.000000
  0.025000  0.196429  0.083333      8.000000
  0.075000  0.196429  0.083333      8.000000
  0.125000  0.196429  0.083333      8.000000
  0.175000  0.196429  0.083333      8.000000
  0.225000  0.196429  0.083333      8.000000
  0.275000  0.196429  0.083333      8.000000
  0.325000  0.196429  0.083333      8.000000
  0.375000  0.196429  0.083333      8.000000
  0.425000  0.196429  0.083333      8.000000
  0.475000  0.196429  0.083333      8.000000
  0.025000  0.232143  0.083333      8.000000
  0.075000  0.232143  0.083333      8.000000
  0.125000  0.232143  0.083333      8.000000
  0.175000  0.232143  0.083333      8.000000
  0.225000  0.232143  0.083333      8.000000
  0.275000  0.232143  0.083333      8.000000
  0.325000  0.232143  0.083333      8.000000
  0.375000  0.232143  0.083333      8.000000
  0.425000  0.232143  0.083333      8.000000
  0.475000  0.232143  0.083333      8.000000
  0.025000  0.267857  0.083333      8.000000
  0.075000  0.267857  0.083333      8.000000
  0.125000  0.267857  0.083333      8.000000
  0.175000  0.267857  0.083333      8.000000
  0.225000  0.267857  0.083333      8.000000
  0.275000  0.267857  0.083333      8.000000
  0.325000  0.267857  0.083333      8.000000
  0.375000  0.267857  0.083333      8.000000
  0.425000  0.267857  0.083333      8.000000
  0.475000  0.267857  0.083333      8.000000
  0.025000  0.303571  0.083333      8.000000
  0.075000  0.303571  0.083333      8.000000
  0.125000  0.303571  0.083333      8.000000
  0.175000  0.303571  0.083333      8.000000
  0.225000  0.303571  0.083333      8.000000
  0.275000  0.303571  0.083333      8.000000
  0.325000  0.303571  0.083333      8.000000
  0.375000  0.303571  0.083333      8.000000
  0.425000  0.303571  0.083333      8.000000
  0.475000  0.303571  0.083333      8.000000
  0.025000  0.339286  0.083333      8.000000
  0.075000  0.339286  0.083333      8.000000
  0.125000  0.339286  0.083333      8.000000
  0.175000  0.339286  0.083333      8.000000
  0.225000  0.339286  0.083333      8.000000
  0.275000  0.339286  0.083333      8.000000
  0.325000  0.339286  0.083333      8.000000
  0.375000  0.339286  0.083333      8.000000
  0.425000  0.339286  0.083333      8.000000
  0.475000  0.339286  0.083333      8.000000
  0.025000  0.375000  0.083333      8.000000
  0.075000  0.375000  0.083333      8.000000
  0.125000  0.375000  0.083333      8.000000
  0.175000  0.375000  0.083333      8.000000
  0.225000  0.375000  0.083333      8.000000
  0.275000  0.375000  0.083333      8.000000
  0.325000  0.375000  0.083333      8.000000
  0.375000  0.375000  0.083333      8.000000
  0.425000  0.375000  0.083333      8.000000
  0.475000  0.375000  0.083333      8.000000
  0.025000  0.410714  0.083333      8.000000
  0.075000  0.410714  0.083333      8.000000
  0.125000  0.410714  0.083333      8.000000
  0.175000  0.410714  0.083333      8.000000
  0.225000  0.410714  0.083333      8.000000
  0.275000  0.410714  0.083333      8.000000
  0.325000  0.410714  0.083333      8.000000
  0.375000  0.410714  0.083333      8.000000
  0.425000  0.410714  0.083333      8.000000
  0.475000  0.410714  0.083333      8.000000
  0.025000  0.446429  0.083333      8.000000
  0.075000  0.446429  0.083333      8.000000
  0.125000  0.446429  0.083333      8.000000
  0.175000  0.446429  0.083333      8.000000
  0.225000  0.446429  0.083333      8.000000
  0.275000  0.446429  0.083333      8.000000
  0.325000  0.446429  0.083333      8.000000
  0.375000  0.446429  0.083333      8.000000
  0.425000  0.446429  0.083333      8.000000
  0.475000  0.446429  0.083333      8.000000
  0.025000  0.482143  0.083333      8.000000
  0.075000  0.482143  0.083333      8.000000
  0.125000  0.482143  0.083333      8.000000
  0.175000  0.482143  0.083333      8.000000
  0.225000  0.482143  0.083333      8.000000
  0.275000  0.482143  0.083333      8.000000
  0.325000  0.482143  0.083333      8.000000
  0.375000  0.482143  0.083333      8.000000
  0.425000  0.482143  0.083333      8.000000
  0.475000  0.482143  0.083333      8.000000
  0.025000  0.017857  0.138889      8.000000
  0.075000  0.017857  0.138889      8.000000
  0.125000  0.017857  0.138889      8.000000
  0.175000  0.017857  0.138889      8.000000
  0.225000  0.017857  0.138889      8.000000
  0.275000  0.017857  0.138889      8.000000
  0.325000  0.017857  0.138889      8.000000
  0.375000  0.017857  0.138889      8.000000
  0.425000  0.017857  0.138889      8.000000
  0.475000  0.017857  0.138889      8.000000
  0.025000  0.053571  0.138889      8.000000
  0.075000  0.053571  0.138889      8.000000
  0.125000  0.053571  0.138889      8.000000
  0.175000  0.053571  0.138889      8.000000
  0.225000  0.053571  0.138889      8.000000
  0.275000  0.053571  0.138889      8.000000
  0.325000  0.053571  0.138889      8.000000
  0.375000  0.053571  0.138889      8.000000
  0.425000  0.053571  0.138889      8.000000
  0.475000  0.053571  0.138889      8.000000
  0.025000  0.089286  0.138889      8.000000
  0.075000  0.089286  0.138889      8.000000
  0.125000  0.089286  0.138889      8.000000
  0.175000  0.089286  0.138889      8.000000
  0.225000  0.089286  0.138889      8.000000
  0.275000  0.089286  0.138889      8.000000
  0.325000  0.089286  0.138889      8.000000
  0.375000  0.089286  0.138889      8.000000
  0.425000  0.089286  0.138889      8.000000
  0.475000  0.089286  0.138889      8.000000
  0.025000  0.125000  0.138889      8.000000
  0.075000  0.125000  0.138889      8.000000
  0.125000  0.125000  0.138889      8.000000
  0.175000  0.125000  0.138889      8.000000
  0.225000  0.125000  0.138889      8.000000
  0.275000  0.125000  0.138889      8.000000
  0.325000  0.125000  0.138889      8.000000
  0.375000  0.125000  0.138889      8.000000
  0.425000  0.125000  0.138889      8.000000
  0.475000  0.125000  0.138889      8.000000
  0.025000  0.160714  0.138889      8.000000
  0.075000  0.160714  0.138889      8.000000
  0.125000  0.160714  0.138889      8.000000
  0.175000  0.160714  0.138889      8.000000
  0.225000  0.160714  0.138889      8.000000
  0.275000  0.160714  0.138889      8.000000
  0.325000  0.160714  0.138889      8.000000
  0.375000  0.160714  0.138889      8.000000
  0.425000  0.160714  0.138889      8.000000
  0.475000  0.160714  0.138889      8.000000
  0.025000  0.196429  0.138889      8.000000
  0.075000  0.196429  0.138889      8.000000
  0.125000  0.196429  0.138889      8.000000
  0.175000  0.196429  0.138889      8.000000
  0.225000  0.196429  0.138889      8.000000
  0.275000  0.196429  0.138889      8.000000
  0.325000  0.196429  0.138889      8.000000
  0.375000  0.196429  0.138889      8.000000
  0.425000  0.196429  0.138889      8.000000
  0.475000  0.196429  0.138889      8.000000
  0.025000  0.232143  0.138889      8.000000
  0.075000  0.232143  0.138889      8.000000
  0.125000  0.232143  0.138889      8.000000
  0.175000  0.232143  0.138889      8.000000
  0.225000  0.232143  0.138889      8.000000
  0.275000  0.232143  0.138889      8.000000
  0.325000  0.232143  0.138889      8.000000
  0.375000  0.232143  0.138889      8.000000
  0.425000  0.232143  0.138889      8.000000
  0.475000  0.232143  0.138889      8.000000
  0.025000  0.267857  0.138889      8.000000
  0.075000  0.267857  0.138889      8.000000
  0.125000  0.267857  0.138889      8.000000
  0.175000  0.267857  0.138889      8.000000
  0.225000  0.267857  0.138889      8.000000
  0.275000  0.267857  0.138889      8.000000
  0.325000  0.267857  0.138889      8.000000
  0.375000  0.267857  0.138889      8.000000
  0.425000  0.267857  0.138889      8.000000
  0.475000  0.267857  0.138889      8.000000
  0.025000  0.303571  0.138889      8.000000
  0.075000  0.303571  0.138889      8.000000
  0.125000  0.303571  0.138889      8.000000
  0.175000  0.303571  0.138889      8.000000
  0.225000  0.303571  0.138889      8.000000
  0.275000  0.303571  0.138889      8.000000
  0.325000  0.303571  0.138889      8.000000
  0.375000  0.303571  0.138889      8.000000
  0.425000  0.303571  0.138889      8.000000
  0.475000  0.303571  0.138889      8.000000
  0.025000  0.339286  0.138889      8.000000
  0.075000  0.339286  0.138889      8.000000
  0.125000  0.339286  0.138889      8.000000
  0.175000  0.339286  0.138889      8.000000
  0.225000  0.339286  0.138889      8.000000
  0.275000  0.339286  0.138889      8.000000
  0.325000  0.339286  0.138889      8.000000
  0.375000  0.339286  0.138889      8.000000
  0.425000  0.339286  0.138889      8.000000
  0.475000  0.339286  0.138889      8.000000
  0.025000  0.375000  0.138889      8.000000
  0.075000  0.375000  0.138889      8.000000
  0.125000  0.375000  0.138889      8.000000
  0.175000  0.375000  0.138889      8.000000
  0.225000  0.375000  0.138889      8.000000
  0.275000  0.375000  0.138889      8.000000
  0.325000  0.375000  0.138889      8.000000
  0.375000  0.375000  0.138889      8.000000
  0.425000  0.375000  0.138889      8.000000
  0.475000  0.375000  0.138889      8.000000
  0.025000  0.410714  0.138889      8.000000
  0.075000  0.410714  0.138889      8.000000
  0.125000  0.410714  0.138889      8.000000
  0.175000  0.410714  0.138889      8.000000
  0.225000  0.410714  0.138889      8.000000
  0.275000  0.410714  0.138889      8.000000
  0.325000  0.410714  0.138889      8.000000
  0.375000  0.410714  0.138889      8.000000
  0.425000  0.410714  0.138889      8.000000
  0.475000  0.410714  0.138889      8.000000
  0.025000  0.446429  0.138889      8.000000
  0.075000  0.446429  0.138889      8.000000
  0.125000  0.446429  0.138889      8.000000
  0.175000  0.446429  0.138889      8.000000
  0.225000  0.446429  0.138889      8.000000
  0.275000  0.446429  0.138889      8.000000
  0.325000  0.446429  0.138889      8.000000
  0.375000  0.446429  0.138889      8.000000
  0.425000  0.446429  0.138889      8.000000
  0.475000  0.446429  0.138889      8.000000
  0.025000  0.482143  0.138889      8.000000
  0.075000  0.482143  0.138889      8.000000
  0.125000  0.482143  0.138889      8.000000
  0.175000  0.482143  0.138889      8.000000
  0.225000  0.482143  0.138889      8.000000
  0.275000  0.482143  0.138889      8.000000
  0.325000  0.482143  0.138889      8.000000
  0.375000  0.482143  0.138889      8.000000
  0.425000  0.482143  0.138889      8.000000
  0.475000  0.482143  0.138889      8.000000
  0.025000  0.017857  0.194444      8.000000
  0.075000  0.017857  0.194444      8.000000
  0.125000  0.017857  0.194444      8.000000
  0.175000  0.017857  0.194444      8.000000
  0.225000  0.017857  0.194444      8.000000
  0.275000  0.017857  0.194444      8.000000
  0.325000  0.017857  0.194444      8.000000
  0.375000  0.017857  0.194444      8.000000
  0.425000  0.017857  0.194444      8.000000
  0.475000  0.017857  0.194444      8.000000
  0.025000  0.053571  0.194444      8.000000
  0.075000  0.053571  0.194444      8.000000
  0.125000  0.053571  0.194444      8.000000
  0.175000  0.053571  0.194444      8.000000
  0.225000  0.053571  0.194444      8.000000
  0.275000  0.053571  0.194444      8.000000
  0.325000  0.053571  0.194444      8.000000
  0.375000  0.053571  0.194444      8.000000
  0.425000  0.053571  0.194444      8.000000
  0.475000  0.053571  0.194444      8.000000
  0.025000  0.089286  0.194444      8.000000
  0.075000  0.089286  0.194444      8.000000
  0.125000  0.089286  0.194444      8.000000
  0.175000  0.089286  0.194444      8.000000
  0.225000  0.089286  0.194444      8.000000
  0.275000  0.089286  0.194444      8.000000
  0.325000  0.089286  0.194444      8.000000
  0.375000  0.089286  0.194444      8.000000
  0.425000  0.089286  0.194444      8.000000
  0.475000  0.089286  0.194444      8.000000
  0.025000  0.125000  0.194444      8.000000
  0.075000  0.125000  0.194444      8.000000
  0.125000  0.125000  0.194444      8.000000
  0.175000  0.125000  0.194444      8.000000
  0.225000  0.125000  0.194444      8.000000
  0.275000  0.125000  0.194444      8.000000
  0.325000  0.125000  0.194444      8.000000
  0.375000  0.125000  0.194444      8.000000
  0.425000  0.125000  0.194444      8.000000
  0.475000  0.125000  0.194444      8.000000
  0.025000  0.160714  0.194444      8.000000
  0.075000  0.160714  0.194444      8.000000
  0.125000  0.160714  0.194444      8.000000
  0.175000  0.160714  0.194444      8.000000
  0.225000  0.160714  0.194444      8.000000
  0.275000  0.160714  0.194444      8.000000
  0.325000  0.160714  0.194444      8.000000
  0.375000  0.160714  0.194444      8.000000
  0.425000  0.160714  0.194444      8.000000
  0.475000  0.160714  0.194444      8.000000
  0.025000  0.196429  0.194444      8.000000
  0.075000  0.196429  0.194444      8.000000
  0.125000  0.196429  0.194444      8.000000
  0.175000  0.196429  0.194444      8.000000
  0.225000  0.196429  0.194444      8.000000
  0.275000  0.196429  0.194444      8.000000
  0.325000  0.196429  0.194444      8.000000
  0.375000  0.196429  0.194444      8.000000
  0.425000  0.196429  0.194444      8.000000
  0.475000  0.196429  0.194444      8.000000
  0.025000  0.232143  0.194444      8.000000
  0.075000  0.232143  0.194444      8.000000
  0.125000  0.232143  0.194444      8.000000
  0.175000  0.232143  0.194444      8.000000
  0.225000  0.232143  0.194444      8.000000
  0.275000  0.232143  0.194444      8.000000
  0.325000  0.232143  0.194444      8.000000
  0.375000  0.232143  0.194444      8.000000
  0.425000  0.232143  0.194444      8.000000
  0.475000  0.232143  0.194444      8.000000
  0.025000  0.267857  0.194444      8.000000
  0.075000  0.267857  0.194444      8.000000
  0.125000  0.267857  0.194444      8.000000
  0.175000  0.267857  0.194444      8.000000
  0.225000  0.267857  0.194444      8.000000
  0.275000  0.267857  0.194444      8.000000
  0.325000  0.267857  0.194444      8.000000
  0.375000  0.267857  0.194444      8.000000
  0.425000  0.267857  0.194444      8.000000
  0.475000  0.267857  0.194444      8.000000
  0.025000  0.303571  0.194444      8.000000
  0.075000  0.303571  0.194444      8.000000
  0.125000  0.303571  0.194444      8.000000
  0.175000  0.303571  0.194444      8.000000
  0.225000  0.303571  0.194444      8.000000
  0.275000  0.303571  0.194444      8.000000
  0.325000  0.303571  0.194444      8.000000
  0.375000  0.303571  0.194444      8.000000
  0.425000  0.303571  0.194444      8.000000
  0.475000  0.303571  0.194444      8.000000
  0.025000  0.339286  0.194444      8.000000
  0.075000  0.339286  0.194444      8.000000
  0.125000  0.339286  0.194444      8.000000
  0.175000  0.339286  0.194444      8.000000
  0.225000  0.339286  0.194444      8.000000
  0.275000  0.339286  0.194444      8.000000
  0.325000  0.339286  0.194444      8.000000
  0.375000  0.339286  0.194444      8.000000
  0.425000  0.339286  0.194444      8.000000
  0.475000  0.339286  0.194444      8.000000
  0.025000  0.375000  0.194444      8.000000
  0.075000  0.375000  0.194444      8.000000
  0.125000  0.375000  0.194444      8.000000
  0.175000  0.375000  0.194444      8.000000
  0.225000  0.375000  0.194444      8.000000
  0.275000  0.375000  0.194444      8.000000
  0.325000  0.375000  0.194444      8.000000
  0.375000  0.375000  0.194444      8.000000
  0.425000  0.375000  0.194444      8.000000
  0.475000  0.375000  0.194444      8.000000
  0.025000  0.410714  0.194444      8.000000
  0.075000  0.410714  0.194444      8.000000
  0.125000  0.410714  0.194444      8.000000
  0.175000  0.410714  0.194444      8.000000
  0.225000  0.410714  0.194444      8.000000
  0.275000  0.410714  0.194444      8.000000
  0.325000  0.410714  0.194444      8.000000
  0.375000  0.410714  0.194444      8.000000
  0.425000  0.410714  0.194444      8.000000
  0.475000  0.410714  0.194444      8.000000
  0.025000  0.446429  0.194444      8.000000
  0.075000  0.446429  0.194444      8.000000
  0.125000  0.446429  0.194444      8.000000
  0.175000  0.446429  0.194444      8.000000
  0.225000  0.446429  0.194444      8.000000
  0.275000  0.446429  0.194444      8.000000
  0.325000  0.446429  0.194444      8.000000
  0.375000  0.446429  0.194444      8.000000
  0.425000  0.446429  0.194444      8.000000
  0.475000  0.446429  0.194444      8.000000
  0.025000  0.482143  0.194444      8.000000
  0.075000  0.482143  0.194444      8.000000
  0.125000  0.482143  0.194444      8.000000
  0.175000  0.482143  0.194444      8.000000
  0.225000  0.482143  0.194444      8.000000
  0.275000  0.482143  0.194444      8.000000
  0.325000  0.482143  0.194444      8.000000
  0.375000  0.482143  0.194444      8.000000
  0.425000  0.482143  0.194444      8.000000
  0.475000  0.482143  0.194444      8.000000
  0.025000  0.017857  0.250000      8.000000
  0.075000  0.017857  0.250000      8.000000
  0.125000  0.017857  0.250000      8.000000
  0.175000  0.017857  0.250000      8.000000
  0.225000  0.017857  0.250000      8.000000
  0.275000  0.017857  0.250000      8.000000
  0.325000  0.017857  0.250000      8.000000
  0.375000  0.017857  0.250000      8.000000
  0.425000  0.017857  0.250000      8.000000
  0.475000  0.017857  0.250000      8.000000
  0.025000  0.053571  0.250000      8.000000
  0.075000  0.053571  0.250000      8.000000
  0.125000  0.053571  0.250000      8.000000
  0.175000  0.053571  0.250000      8.000000
  0.225000  0.053571  0.250000      8.000000
  0.275000  0.053571  0.250000      8.000000
  0.325000  0.053571  0.250000      8.000000
  0.375000  0.053571  0.250000      8.000000
  0.425000  0.053571  0.250000      8.000000
  0.475000  0.053571  0.250000      8.000000
  0.025000  0.089286  0.250000      8.000000
  0.075000  0.089286  0.250000      8.000000
  0.125000  0.089286  0.250000      8.000000
  0.175000  0.089286  0.250000      8.000000
  0.225000  0.089286  0.250000      8.000000
  0.275000  0.089286  0.250000      8.000000
  0.325000  0.089286  0.250000      8.000000
  0.375000  0.089286  0.250000      8.000000
  0.425000  0.089286  0.250000      8.000000
  0.475000  0.089286  0.250000      8.000000
  0.025000  0.125000  0.250000      8.000000
  0.075000  0.125000  0.250000      8.000000
  0.125000  0.125000  0.250000      8.000000
  0.175000  0.125000  0.250000      8.000000
  0.225000  0.125000  0.250000      8.000000
  0.275000  0.125000  0.250000      8.000000
  0.325000  0.125000  0.250000      8.000000
  0.375000  0.125000  0.250000      8.000000
  0.425000  0.125000  0.250000      8.000000
  0.475000  0.125000  0.250000      8.000000
  0.025000  0.160714  0.250000      8.000000
  0.075000  0.160714  0.250000      8.000000
  0.125000  0.160714  0.250000      8.000000
  0.175000  0.160714  0.250000      8.000000
  0.225000  0.160714  0.250000      8.000000
  0.275000  0.160714  0.250000      8.000000
  0.325000  0.160714  0.250000      8.000000
  0.375000  0.160714  0.250000      8.000000
  0.425000  0.160714  0.250000      8.000000
  0.475000  0.160714  0.250000      8.000000
  0.025000  0.196429  0.250000      8.000000
  0.075000  0.196429  0.250000      8.000000
  0.125000  0.196429  0.250000      8.000000
  0.175000  0.196429  0.250000      8.000000
  0.225000  0.196429  0.250000      8.000000
  0.275000  0.196429  0.250000      8.000000
  0.325000  0.196429  0.250000      8.000000
  0.375000  0.196429  0.250000      8.000000
  0.425000  0.196429  0.250000      8.000000
  0.475000  0.196429  0.250000      8.000000
  0.025000  0.232143  0.250000      8.000000
  0.075000  0.232143  0.250000      8.000000
  0.125000  0.232143  0.250000      8.000000
  0.175000  0.232143  0.250000      8.000000
  0.225000  0.232143  0.250000      8.000000
  0.275000  0.232143  0.250000      8.000000
  0.325000  0.232143  0.250000      8.000000
  0.375000  0.232143  0.250000      8.000000
  0.425000  0.232143  0.250000      8.000000
  0.475000  0.232143  0.250000      8.000000
  0.025000  0.267857  0.250000      8.000000
  0.075000  0.267857  0.250000      8.000000
  0.125000  0.267857  0.250000      8.000000
  0.175000  0.267857  0.250000      8.000000
  0.225000  0.267857  0.250000      8.000000
  0.275000  0.267857  0.250000      8.000000
  0.325000  0.267857  0.250000      8.000000
  0.375000  0.267857  0.250000      8.000000
  0.425000  0.267857  0.250000      8.000000
  0.475000  0.267857  0.250000      8.000000
  0.025000  0.303571  0.250000      8.000000
  0.075000  0.303571  0.250000      8.000000
  0.125000  0.303571  0.250000      8.000000
  0.175000  0.303571  0.250000      8.000000
  0.225000  0.303571  0.250000      8.000000
  0.275000  0.303571  0.250000      8.000000
  0.325000  0.303571  0.250000      8.000000
  0.375000  0.303571  0.250000      8.000000
  0.425000  0.303571  0.250000      8.000000
  0.475000  0.303571  0.250000      8.000000
  0.025000  0.339286  0.250000      8.000000
  0.075000  0.339286  0.250000      8.000000
  0.125000  0.339286  0.250000      8.000000
  0.175000  0.339286  0.250000      8.000000
  0.225000  0.339286  0.250000      8.000000
  0.275000  0.339286  0.250000      8.000000
  0.325000  0.339286  0.250000      8.000000
  0.375000  0.339286  0.250000      8.000000
  0.425000  0.339286  0.250000      8.000000
  0.475000  0.339286  0.250000      8.000000
  0.025000  0.375000  0.250000      8.000000
  0.075000  0.375000  0.250000      8.000000
  0.125000  0.375000  0.250000      8.000000
  0.175000  0.375000  0.250000      8.000000
  0.225000  0.375000  0.250000      8.000000
  0.275000  0.375000  0.250000      8.000000
  0.325000  0.375000  0.250000      8.000000
  0.375000  0.375000  0.250000      8.000000
  0.425000  0.375000  0.250000      8.000000
  0.475000  0.375000  0.250000      8.000000
  0.025000  0.410714  0.250000      8.000000
  0.075000  0.410714  0.250000      8.000000
  0.125000  0.410714  0.250000      8.000000
  0.175000  0.410714  0.250000      8.000000
  0.225000  0.410714  0.250000      8.000000
  0.275000  0.410714  0.250000      8.000000
  0.325000  0.410714  0.250000      8.000000
  0.375000  0.410714  0.250000      8.000000
  0.425000  0.410714  0.250000      8.000000
  0.475000  0.410714  0.250000      8.000000
  0.025000  0.446429  0.250000      8.000000
  0.075000  0.446429  0.250000      8.000000
  0.125000  0.446429  0.250000      8.000000
  0.175000  0.446429  0.250000      8.000000
  0.225000  0.446429  0.250000      8.000000
  0.275000  0.446429  0.250000      8.000000
  0.325000  0.446429  0.250000      8.000000
  0.375000  0.446429  0.250000      8.000000
  0.425000  0.446429  0.250000      8.000000
  0.475000  0.446429  0.250000      8.000000
  0.025000  0.482143  0.250000      8.000000
  0.075000  0.482143  0.250000      8.000000
  0.125000  0.482143  0.250000      8.000000
  0.175000  0.482143  0.250000      8.000000
  0.225000  0.482143  0.250000      8.000000
  0.275000  0.482143  0.250000      8.000000
  0.325000  0.482143  0.250000      8.000000
  0.375000  0.482143  0.250000      8.000000
  0.425000  0.482143  0.250000      8.000000
  0.475000  0.482143  0.250000      8.000000
  0.025000  0.017857  0.305556      8.000000
  0.075000  0.017857  0.305556      8.000000
  0.125000  0.017857  0.305556      8.000000
  0.175000  0.017857  0.305556      8.000000
  0.225000  0.017857  0.305556      8.000000
  0.275000  0.017857  0.305556      8.000000
  0.325000  0.017857  0.305556      8.000000
  0.375000  0.017857  0.305556      8.000000
  0.425000  0.017857  0.305556      8.000000
  0.475000  0.017857  0.305556      8.000000
  0.025000  0.053571  0.305556      8.000000
  0.075000  0.053571  0.305556      8.000000
  0.125000  0.053571  0.305556      8.000000
  0.175000  0.053571  0.305556      8.000000
  0.225000  0.053571  0.305556      8.000000
  0.275000  0.053571  0.305556      8.000000
  0.325000  0.053571  0.305556      8.000000
  0.375000  0.053571  0.305556      8.000000
  0.425000  0.053571  0.305556      8.000000
  0.475000  0.053571  0.305556      8.000000
  0.025000  0.089286  0.305556      8.000000
  0.075000  0.089286  0.305556      8.000000
  0.125000  0.089286  0.305556      8.000000
  0.175000  0.089286  0.305556      8.000000
  0.225000  0.089286  0.305556      8.000000
  0.275000  0.089286  0.305556      8.000000
  0.325000  0.089286  0.305556      8.000000
  0.375000  0.089286  0.305556      8.000000
  0.425000  0.089286  0.305556      8.000000
  0.475000  0.089286  0.305556      8.000000
  0.025000  0.125000  0.305556      8.000000
  0.075000  0.125000  0.305556      8.000000
  0.125000  0.125000  0.305556      8.000000
  0.175000  0.125000  0.305556      8.000000
  0.225000  0.125000  0.305556      8.000000
  0.275000  0.125000  0.305556      8.000000
  0.325000  0.125000  0.305556      8.000000
  0.375000  0.125000  0.305556      8.000000
  0.425000  0.125000  0.305556      8.000000
  0.475000  0.125000  0.305556      8.000000
  0.025000  0.160714  0.305556      8.000000
  0.075000  0.160714  0.305556      8.000000
  0.125000  0.160714  0.305556      8.000000
  0.175000  0.160714  0.305556      8.000000
  0.225000  0.160714  0.305556      8.000000
  0.275000  0.160714  0.305556      8.000000
  0.325000  0.160714  0.305556      8.000000
  0.375000  0.160714  0.305556      8.000000
  0.425000  0.160714  0.305556      8.000000
  0.475000  0.160714  0.305556      8.000000
  0.025000  0.196429  0.305556      8.000000
  0.075000  0.196429  0.305556      8.000000
  0.125000  0.196429  0.305556      8.000000
  0.175000  0.196429  0.305556      8.000000
  0.225000  0.196429  0.305556      8.000000
  0.275000  0.196429  0.305556      8.000000
  0.325000  0.196429  0.305556      8.000000
  0.375000  0.196429  0.305556      8.000000
  0.425000  0.196429  0.305556      8.000000
  0.475000  0.196429  0.305556      8.000000
  0.025000  0.232143  0.305556      8.000000
  0.075000  0.232143  0.305556      8.000000
  0.125000  0.232143  0.305556      8.000000
  0.175000  0.232143  0.305556      8.000000
  0.225000  0.232143  0.305556      8.000000
  0.275000  0.232143  0.305556      8.000000
  0.325000  0.232143  0.305556      8.000000
  0.375000  0.232143  0.305556      8.000000
  0.425000  0.232143  0.305556      8.000000
  0.475000  0.232143  0.305556      8.000000
  0.025000  0.267857  0.305556      8.000000
  0.075000  0.267857  0.305556      8.000000
  0.125000  0.267857  0.305556      8.000000
  0.175000  0.267857  0.305556      8.000000
  0.225000  0.267857  0.305556      8.000000
  0.275000  0.267857  0.305556      8.000000
  0.325000  0.267857  0.305556      8.000000
  0.375000  0.267857  0.305556      8.000000
  0.425000  0.267857  0.305556      8.000000
  0.475000  0.267857  0.305556      8.000000
  0.025000  0.303571  0.305556      8.000000
  0.075000  0.303571  0.305556      8.000000
  0.125000  0.303571  0.305556      8.000000
  0.175000  0.303571  0.305556      8.000000
  0.225000  0.303571  0.305556      8.000000
  0.275000  0.303571  0.305556      8.000000
  0.325000  0.303571  0.305556      8.000000
  0.375000  0.303571  0.305556      8.000000
  0.425000  0.303571  0.305556      8.000000
  0.475000  0.303571  0.305556      8.000000
  0.025000  0.339286  0.305556      8.000000
  0.075000  0.339286  0.305556      8.000000
  0.125000  0.339286  0.305556      8.000000
  0.175000  0.339286  0.305556      8.000000
  0.225000  0.339286  0.305556      8.000000
  0.275000  0.339286  0.305556      8.000000
  0.325000  0.339286  0.305556      8.000000
  0.375000  0.339286  0.305556      8.000000
  0.425000  0.339286  0.305556      8.000000
  0.475000  0.339286  0.305556      8.000000
  0.025000  0.375000  0.305556      8.000000
  0.075000  0.375000  0.305556      8.000000
  0.125000  0.375000  0.305556      8.000000
  0.175000  0.375000  0.305556      8.000000
  0.225000  0.375000  0.305556      8.000000
  0.275000  0.375000  0.305556      8.000000
  0.325000  0.375000  0.305556      8.000000
  0.375000  0.375000  0.305556      8.000000
  0.425000  0.375000  0.305556      8.000000
  0.475000  0.375000  0.305556      8.000000
  0.025000  0.410714  0.305556      8.000000
  0.075000  0.410714  0.305556      8.000000
  0.125000  0.410714  0.305556      8.000000
  0.175000  0.410714  0.305556      8.000000
  0.225000  0.410714  0.305556      8.000000
  0.275000  0.410714  0.305556      8.000000
  0.325000  0.410714  0.305556      8.000000
  0.375000  0.410714  0.305556      8.000000
  0.425000  0.410714  0.305556      8.000000
  0.475000  0.410714  0.305556      8.000000
  0.025000  0.446429  0.305556      8.000000
  0.075000  0.446429  0.305556      8.000000
  0.125000  0.446429  0.305556      8.000000
  0.175000  0.446429  0.305556      8.000000
  0.225000  0.446429  0.305556      8.000000
  0.275000  0.446429  0.305556      8.000000
  0.325000  0.446429  0.305556      8.000000
  0.375000  0.446429  0.305556      8.000000
  0.425000  0.446429  0.305556      8.000000
  0.475000  0.446429  0.305556      8.000000
  0.025000  0.482143  0.305556      8.000000
  0.075000  0.482143  0.305556      8.000000
  0.125000  0.482143  0.305556      8.000000
  0.175000  0.482143  0.305556      8.000000
  0.225000  0.482143  0.305556      8.000000
  0.275000  0.482143  0.305556      8.000000
  0.325000  0.482143  0.305556      8.000000
  0.375000  0.482143  0.305556      8.000000
  0.425000  0.482143  0.305556      8.000000
  0.475000  0.482143  0.305556      8.000000
  0.025000  0.017857  0.361111      8.000000
  0.075000  0.017857  0.361111      8.000000
  0.125000  0.017857  0.361111      8.000000
  0.175000  0.017857  0.361111      8.000000
  0.225000  0.017857  0.361111      8.000000
  0.275000  0.017857  0.361111      8.000000
  0.325000  0.017857  0.361111      8.000000
  0.375000  0.017857  0.361111      8.000000
  0.425000  0.017857  0.361111      8.000000
  0.475000  0.017857  0.361111      8.000000
  0.025000  0.053571  0.361111      8.000000
  0.075000  0.053571  0.361111      8.000000
  0.125000  0.053571  0.361111      8.000000
  0.175000  0.053571  0.361111      8.000000
  0.225000  0.053571  0.361111      8.000000
  0.275000  0.053571  0.361111      8.000000
  0.325000  0.053571  0.361111      8.000000
  0.375000  0.053571  0.361111      8.000000
  0.425000  0.053571  0.361111      8.000000
  0.475000  0.053571  0.361111      8.000000
  0.025000  0.089286  0.361111      8.000000
  0.075000  0.089286  0.361111      8.000000
  0.125000  0.089286  0.361111      8.000000
  0.175000  0.089286  0.361111      8.000000
  0.225000  0.089286  0.361111      8.000000
  0.275000  0.089286  0.361111      8.000000
  0.325000  0.089286  0.361111      8.000000
  0.375000  0.089286  0.361111      8.000000
  0.425000  0.089286  0.361111      8.000000
  0.475000  0.089286  0.361111      8.000000
  0.025000  0.125000  0.361111      8.000000
  0.075000  0.125000  0.361111      8.000000
  0.125000  0.125000  0.361111      8.000000
  0.175000  0.125000  0.361111      8.000000
  0.225000  0.125000  0.361111      8.000000
  0.275000  0.125000  0.361111      8.000000
  0.325000  0.125000  0.361111      8.000000
  0.375000  0.125000  0.361111      8.000000
  0.425000  0.125000  0.361111      8.000000
  0.475000  0.125000  0.361111      8.000000
  0.025000  0.160714  0.361111      8.000000
  0.075000  0.160714  0.361111      8.000000
  0.125000  0.160714  0.361111      8.000000
  0.175000  0.160714  0.361111      8.000000
  0.225000  0.160714  0.361111      8.000000
  0.275000  0.160714  0.361111      8.000000
  0.325000  0.160714  0.361111      8.000000
  0.375000  0.160714  0.361111      8.000000
  0.425000  0.160714  0.361111      8.000000
  0.475000  0.160714  0.361111      8.000000
  0.025000  0.196429  0.361111      8.000000
  0.075000  0.196429  0.361111      8.000000
  0.125000  0.196429  0.361111      8.000000
  0.175000  0.196429  0.361111      8.000000
  0.225000  0.196429  0.361111      8.000000
  0.275000  0.196429  0.361111      8.000000
  0.325000  0.196429  0.361111      8.000000
  0.375000  0.196429  0.361111      8.000000
  0.425000  0.196429  0.361111      8.000000
  0.475000  0.196429  0.361111      8.000000
  0.025000  0.232143  0.361111      8.000000
  0.075000  0.232143  0.361111      8.000000
  0.125000  0.232143  0.361111      8.000000
  0.175000  0.232143  0.361111      8.000000
  0.225000  0.232143  0.361111      8.000000
  0.275000  0.232143  0.361111      8.000000
  0.325000  0.232143  0.361111      8.000000
  0.375000  0.232143  0.361111      8.000000
  0.425000  0.232143  0.361111      8.000000
  0.475000  0.232143  0.361111      8.000000
  0.025000  0.267857  0.361111      8.000000
  0.075000  0.267857  0.361111      8.000000
  0.125000  0.267857  0.361111      8.000000
  0.175000  0.267857  0.361111      8.000000
  0.225000  0.267857  0.361111      8.000000
  0.275000  0.267857  0.361111      8.000000
  0.325000  0.267857  0.361111      8.000000
  0.375000  0.267857  0.361111      8.000000
  0.425000  0.267857  0.361111      8.000000
  0.475000  0.267857  0.361111      8.000000
  0.025000  0.303571  0.361111      8.000000
  0.075000  0.303571  0.361111      8.000000
  0.125000  0.303571  0.361111      8.000000
  0.175000  0.303571  0.361111      8.000000
  0.225000  0.303571  0.361111      8.000000
  0.275000  0.303571  0.361111      8.000000
  0.325000  0.303571  0.361111      8.000000
  0.375000  0.303571  0.361111      8.000000
  0.425000  0.303571  0.361111      8.000000
  0.475000  0.303571  0.361111      8.000000
  0.025000  0.339286  0.361111      8.000000
  0.075000  0.339286  0.361111      8.000000
  0.125000  0.339286  0.361111      8.000000
  0.175000  0.339286  0.361111      8.000000
  0.225000  0.339286  0.361111      8.000000
  0.275000  0.339286  0.361111      8.000000
  0.325000  0.339286  0.361111      8.000000
  0.375000  0.339286  0.361111      8.000000
  0.425000  0.339286  0.361111      8.000000
  0.475000  0.339286  0.361111      8.000000
  0.025000  0.375000  0.361111      8.000000
  0.075000  0.375000  0.361111      8.000000
  0.125000  0.375000  0.361111      8.000000
  0.175000  0.375000  0.361111      8.000000
  0.225000  0.375000  0.361111      8.000000
  0.275000  0.375000  0.361111      8.000000
  0.325000  0.375000  0.361111      8.000000
  0.375000  0.375000  0.361111      8.000000
  0.425000  0.375000  0.361111      8.000000
  0.475000  0.375000  0.361111      8.000000
  0.025000  0.410714  0.361111      8.000000
  0.075000  0.410714  0.361111      8.000000
  0.125000  0.410714  0.361111      8.000000
  0.175000  0.410714  0.361111      8.000000
  0.225000  0.410714  0.361111      8.000000
  0.275000  0.410714  0.361111      8.000000
  0.325000  0.410714  0.361111      8.000000
  0.375000  0.410714  0.361111      8.000000
  0.425000  0.410714  0.361111      8.000000
  0.475000  0.410714  0.361111      8.000000
  0.025000  0.446429  0.361111      8.000000
  0.075000  0.446429  0.361111      8.000000
  0.125000  0.446429  0.361111      8.000000
  0.175000  0.446429  0.361111      8.000000
  0.225000  0.446429  0.361111      8.000000
  0.275000  0.446429  0.361111      8.000000
  0.325000  0.446429  0.361111      8.000000
  0.375000  0.446429  0.361111      8.000000
  0.425000  0.446429  0.361111      8.000000
  0.475000  0.446429  0.361111      8.000000
  0.025000  0.482143  0.361111      8.000000
  0.075000  0.482143  0.361111      8.000000
  0.125000  0.482143  0.361111      8.000000
  0.175000  0.482143  0.361111      8.000000
  0.225000  0.482143  0.361111      8.000000
  0.275000  0.482143  0.361111      8.000000
  0.325000  0.482143  0.361111      8.000000
  0.375000  0.482143  0.361111      8.000000
  0.425000  0.482143  0.361111      8.000000
  0.475000  0.482143  0.361111      8.000000
  0.025000  0.017857  0.416667      8.000000
  0.075000  0.017857  0.416667      8.000000
  0.125000  0.017857  0.416667      8.000000
  0.175000  0.017857  0.416667      8.000000
  0.225000  0.017857  0.416667      8.000000
  0.275000  0.017857  0.416667      8.000000
  0.325000  0.017857  0.416667      8.000000
  0.375000  0.017857  0.416667      8.000000
  0.425000  0.017857  0.416667      8.000000
  0.475000  0.017857  0.416667      8.000000
  0.025000  0.053571  0.416667      8.000000
  0.075000  0.053571  0.416667      8.000000
  0.125000  0.053571  0.416667      8.000000
  0.175000  0.053571  0.416667      8.000000
  0.225000  0.053571  0.416667      8.000000
  0.275000  0.053571  0.416667      8.000000
  0.325000  0.053571  0.416667      8.000000
  0.375000  0.053571  0.416667      8.000000
  0.425000  0.053571  0.416667      8.000000
  0.475000  0.053571  0.416667      8.000000
  0.025000  0.089286  0.416667      8.000000
  0.075000  0.089286  0.416667      8.000000
  0.125000  0.089286  0.416667      8.000000
  0.175000  0.089286  0.416667      8.000000
  0.225000  0.089286  0.416667      8.000000
  0.275000  0.089286  0.416667      8.000000
  0.325000  0.089286  0.416667      8.000000
  0.375000  0.089286  0.416667      8.000000
  0.425000  0.089286  0.416667      8.000000
  0.475000  0.089286  0.416667      8.000000
  0.025000  0.125000  0.416667      8.000000
  0.075000  0.125000  0.416667      8.000000
  0.125000  0.125000  0.416667      8.000000
  0.175000  0.125000  0.416667      8.000000
  0.225000  0.125000  0.416667      8.000000
  0.275000  0.125000  0.416667      8.000000
  0.325000  0.125000  0.416667      8.000000
  0.375000  0.125000  0.416667      8.000000
  0.425000  0.125000  0.416667      8.000000
  0.475000  0.125000  0.416667      8.000000
  0.025000  0.160714  0.416667      8.000000
  0.075000  0.160714  0.416667      8.000000
  0.125000  0.160714  0.416667      8.000000
  0.175000  0.160714  0.416667      8.000000
  0.225000  0.160714  0.416667      8.000000
  0.275000  0.160714  0.416667      8.000000
  0.325000  0.160714  0.416667      8.000000
  0.375000  0.160714  0.416667      8.000000
  0.425000  0.160714  0.416667      8.000000
  0.475000  0.160714  0.416667      8.000000
  0.025000  0.196429  0.416667      8.000000
  0.075000  0.196429  0.416667      8.000000
  0.125000  0.196429  0.416667      8.000000
  0.175000  0.196429  0.416667      8.000000
  0.225000  0.196429  0.416667      8.000000
  0.275000  0.196429  0.416667      8.000000
  0.325000  0.196429  0.416667      8.000000
  0.375000  0.196429  0.416667      8.000000
  0.425000  0.196429  0.416667      8.000000
  0.475000  0.196429  0.416667      8.000000
  0.025000  0.232143  0.416667      8.000000
  0.075000  0.232143  0.416667      8.000000
  0.125000  0.232143  0.416667      8.000000
  0.175000  0.232143  0.416667      8.000000
  0.225000  0.232143  0.416667      8.000000
  0.275000  0.232143  0.416667      8.000000
  0.325000  0.232143  0.416667      8.000000
  0.375000  0.232143  0.416667      8.000000
  0.425000  0.232143  0.416667      8.000000
  0.475000  0.232143  0.416667      8.000000
  0.025000  0.267857  0.416667      8.000000
  0.075000  0.267857  0.416667      8.000000
  0.125000  0.267857  0.416667      8.000000
  0.175000  0.267857  0.416667      8.000000
  0.225000  0.267857  0.416667      8.000000
  0.275000  0.267857  0.416667      8.000000
  0.325000  0.267857  0.416667      8.000000
  0.375000  0.267857  0.416667      8.000000
  0.425000  0.267857  0.416667      8.000000
  0.475000  0.267857  0.416667      8.000000
  0.025000  0.303571  0.416667      8.000000
  0.075000  0.303571  0.416667      8.000000
  0.125000  0.303571  0.416667      8.000000
  0.175000  0.303571  0.416667      8.000000
  0.225000  0.303571  0.416667      8.000000
  0.275000  0.303571  0.416667      8.000000
  0.325000  0.303571  0.416667      8.000000
  0.375000  0.303571  0.416667      8.000000
  0.425000  0.303571  0.416667      8.000000
  0.475000  0.303571  0.416667      8.000000
  0.025000  0.339286  0.416667      8.000000
  0.075000  0.339286  0.416667      8.000000
  0.125000  0.339286  0.416667      8.000000
  0.175000  0.339286  0.416667      8.000000
  0.225000  0.339286  0.416667      8.000000
  0.275000  0.339286  0.416667      8.000000
  0.325000  0.339286  0.416667      8.000000
  0.375000  0.339286  0.416667      8.000000
  0.425000  0.339286  0.416667      8.000000
  0.475000  0.339286  0.416667      8.000000
  0.025000  0.375000  0.416667      8.000000
  0.075000  0.375000  0.416667      8.000000
  0.125000  0.375000  0.416667      8.000000
  0.175000  0.375000  0.416667      8.000000
  0.225000  0.375000  0.416667      8.000000
  0.275000  0.375000  0.416667      8.000000
  0.325000  0.375000  0.416667      8.000000
  0.375000  0.375000  0.416667      8.000000
  0.425000  0.375000  0.416667      8.000000
  0.475000  0.375000  0.416667      8.000000
  0.025000  0.410714  0.416667      8.000000
  0.075000  0.410714  0.416667      8.000000
  0.125000  0.410714  0.416667      8.000000
  0.175000  0.410714  0.416667      8.000000
  0.225000  0.410714  0.416667      8.000000
  0.275000  0.410714  0.416667      8.000000
  0.325000  0.410714  0.416667      8.000000
  0.375000  0.410714  0.416667      8.000000
  0.425000  0.410714  0.416667      8.000000
  0.475000  0.410714  0.416667      8.000000
  0.025000  0.446429  0.416667      8.000000
  0.075000  0.446429  0.416667      8.000000
  0.125000  0.446429  0.416667      8.000000
  0.175000  0.446429  0.416667      8.000000
  0.225000  0.446429  0.416667      8.000000
  0.275000  0.446429  0.416667      8.000000
  0.325000  0.446429  0.416667      8.000000
  0.375000  0.446429  0.416667      8.000000
  0.425000  0.446429  0.416667      8.000000
  0.475000  0.446429  0.416667      8.000000
  0.025000  0.482143  0.416667      8.000000
  0.075000  0.482143  0.416667      8.000000
  0.125000  0.482143  0.416667      8.000000
  0.175000  0.482143  0.416667      8.000000
  0.225000  0.482143  0.416667      8.000000
  0.275000  0.482143  0.416667      8.000000
  0.325000  0.482143  0.416667      8.000000
  0.375000  0.482143  0.416667      8.000000
  0.425000  0.482143  0.416667      8.000000
  0.475000  0.482143  0.416667      8.000000
  0.025000  0.017857  0.472222      8.000000
  0.075000  0.017857  0.472222      8.000000
  0.125000  0.017857  0.472222      8.000000
  0.175000  0.017857  0.472222      8.000000
  0.225000  0.017857  0.472222      8.000000
  0.275000  0.017857  0.472222      8.000000
  0.325000  0.017857  0.472222      8.000000
  0.375000  0.017857  0.472222      8.000000
  0.425000  0.017857  0.472222      8.000000
  0.475000  0.017857  0.472222      8.000000
  0.025000  0.053571  0.472222      8.000000
  0.075000  0.053571  0.472222      8.000000
  0.125000  0.053571  0.472222      8.000000
  0.175000  0.053571  0.472222      8.000000
  0.225000  0.053571  0.472222      8.000000
  0.275000  0.053571  0.472222      8.000000
  0.325000  0.053571  0.472222      8.000000
  0.375000  0.053571  0.472222      8.000000
  0.425000  0.053571  0.472222      8.000000
  0.475000  0.053571  0.472222      8.000000
  0.025000  0.089286  0.472222      8.000000
  0.075000  0.089286  0.472222      8.000000
  0.125000  0.089286  0.472222      8.000000
  0.175000  0.089286  0.472222      8.000000
  0.225000  0.089286  0.472222      8.000000
  0.275000  0.089286  0.472222      8.000000
  0.325000  0.089286  0.472222      8.000000
  0.375000  0.089286  0.472222      8.000000
  0.425000  0.089286  0.472222      8.000000
  0.475000  0.089286  0.472222      8.000000
  0.025000  0.125000  0.472222      8.000000
  0.075000  0.125000  0.472222      8.000000
  0.125000  0.125000  0.472222      8.000000
  0.175000  0.125000  0.472222      8.000000
  0.225000  0.125000  0.472222      8.000000
  0.275000  0.125000  0.472222      8.000000
  0.325000  0.125000  0.472222      8.000000
  0.375000  0.125000  0.472222      8.000000
  0.425000  0.125000  0.472222      8.000000
  0.475000  0.125000  0.472222      8.000000
  0.025000  0.160714  0.472222      8.000000
  0.075000  0.160714  0.472222      8.000000
  0.125000  0.160714  0.472222      8.000000
  0.175000  0.160714  0.472222      8.000000
  0.225000  0.160714  0.472222      8.000000
  0.275000  0.160714  0.472222      8.000000
  0.325000  0.160714  0.472222      8.000000
  0.375000  0.160714  0.472222      8.000000
  0.425000  0.160714  0.472222      8.000000
  0.475000  0.160714  0.472222      8.000000
  0.025000  0.196429  0.472222      8.000000
  0.075000  0.196429  0.472222      8.000000
  0.125000  0.196429  0.472222      8.000000
  0.175000  0.196429  0.472222      8.000000
  0.225000  0.196429  0.472222      8.000000
  0.275000  0.196429  0.472222      8.000000
  0.325000  0.196429  0.472222      8.000000
  0.375000  0.196429  0.472222      8.000000
  0.425000  0.196429  0.472222      8.000000
  0.475000  0.196429  0.472222      8.000000
  0.025000  0.232143  0.472222      8.000000
  0.075000  0.232143  0.472222      8.000000
  0.125000  0.232143  0.472222      8.000000
  0.175000  0.232143  0.472222      8.000000
  0.225000  0.232143  0.472222      8.000000
  0.275000  0.232143  0.472222      8.000000
  0.325000  0.232143  0.472222      8.000000
  0.375000  0.232143  0.472222      8.000000
  0.425000  0.232143  0.472222      8.000000
  0.475000  0.232143  0.472222      8.000000
  0.025000  0.267857  0.472222      8.000000
  0.075000  0.267857  0.472222      8.000000
  0.125000  0.267857  0.472222      8.000000
  0.175000  0.267857  0.472222      8.000000
  0.225000  0.267857  0.472222      8.000000
  0.275000  0.267857  0.472222      8.000000
  0.325000  0.267857  0.472222      8.000000
  0.375000  0.267857  0.472222      8.000000
  0.425000  0.267857  0.472222      8.000000
  0.475000  0.267857  0.472222      8.000000
  0.025000  0.303571  0.472222      8.000000
  0.075000  0.303571  0.472222      8.000000
  0.125000  0.303571  0.472222      8.000000
  0.175000  0.303571  0.472222      8.000000
  0.225000  0.303571  0.472222      8.000000
  0.275000  0.303571  0.472222      8.000000
  0.325000  0.303571  0.472222      8.000000
  0.375000  0.303571  0.472222      8.000000
  0.425000  0.303571  0.472222      8.000000
  0.475000  0.303571  0.472222      8.000000
  0.025000  0.339286  0.472222      8.000000
  0.075000  0.339286  0.472222      8.000000
  0.125000  0.339286  0.472222      8.000000
  0.175000  0.339286  0.472222      8.000000
  0.225000  0.339286  0.472222      8.000000
  0.275000  0.339286  0.472222      8.000000
  0.325000  0.339286  0.472222      8.000000
  0.375000  0.339286  0.472222      8.000000
  0.425000  0.339286  0.472222      8.000000
  0.475000  0.339286  0.472222      8.000000
  0.025000  0.375000  0.472222      8.000000
  0.075000  0.375000  0.472222      8.000000
  0.125000  0.375000  0.472222      8.000000
  0.175000  0.375000  0.472222      8.000000
  0.225000  0.375000  0.472222      8.000000
  0.275000  0.375000  0.472222      8.000000
  0.325000  0.375000  0.472222      8.000000
  0.375000  0.375000  0.472222      8.000000
  0.425000  0.375000  0.472222      8.000000
  0.475000  0.375000  0.472222      8.000000
  0.025000  0.410714  0.472222      8.000000
  0.075000  0.410714  0.472222      8.000000
  0.125000  0.410714  0.472222      8.000000
  0.175000  0.410714  0.472222      8.000000
  0.225000  0.410714  0.472222      8.000000
  0.275000  0.410714  0.472222      8.000000
  0.325000  0.410714  0.472222      8.000000
  0.375000  0.410714  0.472222      8.000000
  0.425000  0.410714  0.472222      8.000000
  0.475000  0.410714  0.472222      8.000000
  0.025000  0.446429  0.472222      8.000000
  0.075000  0.446429  0.472222      8.000000
  0.125000  0.446429  0.472222      8.000000
  0.175000  0.446429  0.472222      8.000000
  0.225000  0.446429  0.472222      8.000000
  0.275000  0.446429  0.472222      8.000000
  0.325000  0.446429  0.472222      8.000000
  0.375000  0.446429  0.472222      8.000000
  0.425000  0.446429  0.472222      8.000000
  0.475000  0.446429  0.472222      8.000000
  0.025000  0.482143  0.472222      8.000000
  0.075000  0.482143  0.472222      8.000000
  0.125000  0.482143  0.472222      8.000000
  0.175000  0.482143  0.472222      8.000000
  0.225000  0.482143  0.472222      8.000000
  0.275000  0.482143  0.472222      8.000000
  0.325000  0.482143  0.472222      8.000000
  0.375000  0.482143  0.472222      8.000000
  0.425000  0.482143  0.472222      8.000000
  0.475000  0.482143  0.472222      8.000000
 
 Following cartesian coordinates:
            Coordinates               Weight
  0.004388  0.004411  0.004477      8.000000
  0.013165  0.004411  0.004477      8.000000
  0.021941  0.004411  0.004477      8.000000
  0.030718  0.004411  0.004477      8.000000
  0.039494  0.004411  0.004477      8.000000
  0.048271  0.004411  0.004477      8.000000
  0.057048  0.004411  0.004477      8.000000
  0.065824  0.004411  0.004477      8.000000
  0.074601  0.004411  0.004477      8.000000
  0.083377  0.004411  0.004477      8.000000
  0.004388  0.013234  0.004477      8.000000
  0.013165  0.013234  0.004477      8.000000
  0.021941  0.013234  0.004477      8.000000
  0.030718  0.013234  0.004477      8.000000
  0.039494  0.013234  0.004477      8.000000
  0.048271  0.013234  0.004477      8.000000
  0.057048  0.013234  0.004477      8.000000
  0.065824  0.013234  0.004477      8.000000
  0.074601  0.013234  0.004477      8.000000
  0.083377  0.013234  0.004477      8.000000
  0.004388  0.022057  0.004477      8.000000
  0.013165  0.022057  0.004477      8.000000
  0.021941  0.022057  0.004477      8.000000
  0.030718  0.022057  0.004477      8.000000
  0.039494  0.022057  0.004477      8.000000
  0.048271  0.022057  0.004477      8.000000
  0.057048  0.022057  0.004477      8.000000
  0.065824  0.022057  0.004477      8.000000
  0.074601  0.022057  0.004477      8.000000
  0.083377  0.022057  0.004477      8.000000
  0.004388  0.030880  0.004477      8.000000
  0.013165  0.030880  0.004477      8.000000
  0.021941  0.030880  0.004477      8.000000
  0.030718  0.030880  0.004477      8.000000
  0.039494  0.030880  0.004477      8.000000
  0.048271  0.030880  0.004477      8.000000
  0.057048  0.030880  0.004477      8.000000
  0.065824  0.030880  0.004477      8.000000
  0.074601  0.030880  0.004477      8.000000
  0.083377  0.030880  0.004477      8.000000
  0.004388  0.039703  0.004477      8.000000
  0.013165  0.039703  0.004477      8.000000
  0.021941  0.039703  0.004477      8.000000
  0.030718  0.039703  0.004477      8.000000
  0.039494  0.039703  0.004477      8.000000
  0.048271  0.039703  0.004477      8.000000
  0.057048  0.039703  0.004477      8.000000
  0.065824  0.039703  0.004477      8.000000
  0.074601  0.039703  0.004477      8.000000
  0.083377  0.039703  0.004477      8.000000
  0.004388  0.048526  0.004477      8.000000
  0.013165  0.048526  0.004477      8.000000
  0.021941  0.048526  0.004477      8.000000
  0.030718  0.048526  0.004477      8.000000
  0.039494  0.048526  0.004477      8.000000
  0.048271  0.048526  0.004477      8.000000
  0.057048  0.048526  0.004477      8.000000
  0.065824  0.048526  0.004477      8.000000
  0.074601  0.048526  0.004477      8.000000
  0.083377  0.048526  0.004477      8.000000
  0.004388  0.057349  0.004477      8.000000
  0.013165  0.057349  0.004477      8.000000
  0.021941  0.057349  0.004477      8.000000
  0.030718  0.057349  0.004477      8.000000
  0.039494  0.057349  0.004477      8.000000
  0.048271  0.057349  0.004477      8.000000
  0.057048  0.057349  0.004477      8.000000
  0.065824  0.057349  0.004477      8.000000
  0.074601  0.057349  0.004477      8.000000
  0.083377  0.057349  0.004477      8.000000
  0.004388  0.066172  0.004477      8.000000
  0.013165  0.066172  0.004477      8.000000
  0.021941  0.066172  0.004477      8.000000
  0.030718  0.066172  0.004477      8.000000
  0.039494  0.066172  0.004477      8.000000
  0.048271  0.066172  0.004477      8.000000
  0.057048  0.066172  0.004477      8.000000
  0.065824  0.066172  0.004477      8.000000
  0.074601  0.066172  0.004477      8.000000
  0.083377  0.066172  0.004477      8.000000
  0.004388  0.074995  0.004477      8.000000
  0.013165  0.074995  0.004477      8.000000
  0.021941  0.074995  0.004477      8.000000
  0.030718  0.074995  0.004477      8.000000
  0.039494  0.074995  0.004477      8.000000
  0.048271  0.074995  0.004477      8.000000
  0.057048  0.074995  0.004477      8.000000
  0.065824  0.074995  0.004477      8.000000
  0.074601  0.074995  0.004477      8.000000
  0.083377  0.074995  0.004477      8.000000
  0.004388  0.083818  0.004477      8.000000
  0.013165  0.083818  0.004477      8.000000
  0.021941  0.083818  0.004477      8.000000
  0.030718  0.083818  0.004477      8.000000
  0.039494  0.083818  0.004477      8.000000
  0.048271  0.083818  0.004477      8.000000
  0.057048  0.083818  0.004477      8.000000
  0.065824  0.083818  0.004477      8.000000
  0.074601  0.083818  0.004477      8.000000
  0.083377  0.083818  0.004477      8.000000
  0.004388  0.092641  0.004477      8.000000
  0.013165  0.092641  0.004477      8.000000
  0.021941  0.092641  0.004477      8.000000
  0.030718  0.092641  0.004477      8.000000
  0.039494  0.092641  0.004477      8.000000
  0.048271  0.092641  0.004477      8.000000
  0.057048  0.092641  0.004477      8.000000
  0.065824  0.092641  0.004477      8.000000
  0.074601  0.092641  0.004477      8.000000
  0.083377  0.092641  0.004477      8.000000
  0.004388  0.101464  0.004477      8.000000
  0.013165  0.101464  0.004477      8.000000
  0.021941  0.101464  0.004477      8.000000
  0.030718  0.101464  0.004477      8.000000
  0.039494  0.101464  0.004477      8.000000
  0.048271  0.101464  0.004477      8.000000
  0.057048  0.101464  0.004477      8.000000
  0.065824  0.101464  0.004477      8.000000
  0.074601  0.101464  0.004477      8.000000
  0.083377  0.101464  0.004477      8.000000
  0.004388  0.110286  0.004477      8.000000
  0.013165  0.110286  0.004477      8.000000
  0.021941  0.110286  0.004477      8.000000
  0.030718  0.110286  0.004477      8.000000
  0.039494  0.110286  0.004477      8.000000
  0.048271  0.110286  0.004477      8.000000
  0.057048  0.110286  0.004477      8.000000
  0.065824  0.110286  0.004477      8.000000
  0.074601  0.110286  0.004477      8.000000
  0.083377  0.110286  0.004477      8.000000
  0.004388  0.119109  0.004477      8.000000
  0.013165  0.119109  0.004477      8.000000
  0.021941  0.119109  0.004477      8.000000
  0.030718  0.119109  0.004477      8.000000
  0.039494  0.119109  0.004477      8.000000
  0.048271  0.119109  0.004477      8.000000
  0.057048  0.119109  0.004477      8.000000
  0.065824  0.119109  0.004477      8.000000
  0.074601  0.119109  0.004477      8.000000
  0.083377  0.119109  0.004477      8.000000
  0.004388  0.004411  0.013432      8.000000
  0.013165  0.004411  0.013432      8.000000
  0.021941  0.004411  0.013432      8.000000
  0.030718  0.004411  0.013432      8.000000
  0.039494  0.004411  0.013432      8.000000
  0.048271  0.004411  0.013432      8.000000
  0.057048  0.004411  0.013432      8.000000
  0.065824  0.004411  0.013432      8.000000
  0.074601  0.004411  0.013432      8.000000
  0.083377  0.004411  0.013432      8.000000
  0.004388  0.013234  0.013432      8.000000
  0.013165  0.013234  0.013432      8.000000
  0.021941  0.013234  0.013432      8.000000
  0.030718  0.013234  0.013432      8.000000
  0.039494  0.013234  0.013432      8.000000
  0.048271  0.013234  0.013432      8.000000
  0.057048  0.013234  0.013432      8.000000
  0.065824  0.013234  0.013432      8.000000
  0.074601  0.013234  0.013432      8.000000
  0.083377  0.013234  0.013432      8.000000
  0.004388  0.022057  0.013432      8.000000
  0.013165  0.022057  0.013432      8.000000
  0.021941  0.022057  0.013432      8.000000
  0.030718  0.022057  0.013432      8.000000
  0.039494  0.022057  0.013432      8.000000
  0.048271  0.022057  0.013432      8.000000
  0.057048  0.022057  0.013432      8.000000
  0.065824  0.022057  0.013432      8.000000
  0.074601  0.022057  0.013432      8.000000
  0.083377  0.022057  0.013432      8.000000
  0.004388  0.030880  0.013432      8.000000
  0.013165  0.030880  0.013432      8.000000
  0.021941  0.030880  0.013432      8.000000
  0.030718  0.030880  0.013432      8.000000
  0.039494  0.030880  0.013432      8.000000
  0.048271  0.030880  0.013432      8.000000
  0.057048  0.030880  0.013432      8.000000
  0.065824  0.030880  0.013432      8.000000
  0.074601  0.030880  0.013432      8.000000
  0.083377  0.030880  0.013432      8.000000
  0.004388  0.039703  0.013432      8.000000
  0.013165  0.039703  0.013432      8.000000
  0.021941  0.039703  0.013432      8.000000
  0.030718  0.039703  0.013432      8.000000
  0.039494  0.039703  0.013432      8.000000
  0.048271  0.039703  0.013432      8.000000
  0.057048  0.039703  0.013432      8.000000
  0.065824  0.039703  0.013432      8.000000
  0.074601  0.039703  0.013432      8.000000
  0.083377  0.039703  0.013432      8.000000
  0.004388  0.048526  0.013432      8.000000
  0.013165  0.048526  0.013432      8.000000
  0.021941  0.048526  0.013432      8.000000
  0.030718  0.048526  0.013432      8.000000
  0.039494  0.048526  0.013432      8.000000
  0.048271  0.048526  0.013432      8.000000
  0.057048  0.048526  0.013432      8.000000
  0.065824  0.048526  0.013432      8.000000
  0.074601  0.048526  0.013432      8.000000
  0.083377  0.048526  0.013432      8.000000
  0.004388  0.057349  0.013432      8.000000
  0.013165  0.057349  0.013432      8.000000
  0.021941  0.057349  0.013432      8.000000
  0.030718  0.057349  0.013432      8.000000
  0.039494  0.057349  0.013432      8.000000
  0.048271  0.057349  0.013432      8.000000
  0.057048  0.057349  0.013432      8.000000
  0.065824  0.057349  0.013432      8.000000
  0.074601  0.057349  0.013432      8.000000
  0.083377  0.057349  0.013432      8.000000
  0.004388  0.066172  0.013432      8.000000
  0.013165  0.066172  0.013432      8.000000
  0.021941  0.066172  0.013432      8.000000
  0.030718  0.066172  0.013432      8.000000
  0.039494  0.066172  0.013432      8.000000
  0.048271  0.066172  0.013432      8.000000
  0.057048  0.066172  0.013432      8.000000
  0.065824  0.066172  0.013432      8.000000
  0.074601  0.066172  0.013432      8.000000
  0.083377  0.066172  0.013432      8.000000
  0.004388  0.074995  0.013432      8.000000
  0.013165  0.074995  0.013432      8.000000
  0.021941  0.074995  0.013432      8.000000
  0.030718  0.074995  0.013432      8.000000
  0.039494  0.074995  0.013432      8.000000
  0.048271  0.074995  0.013432      8.000000
  0.057048  0.074995  0.013432      8.000000
  0.065824  0.074995  0.013432      8.000000
  0.074601  0.074995  0.013432      8.000000
  0.083377  0.074995  0.013432      8.000000
  0.004388  0.083818  0.013432      8.000000
  0.013165  0.083818  0.013432      8.000000
  0.021941  0.083818  0.013432      8.000000
  0.030718  0.083818  0.013432      8.000000
  0.039494  0.083818  0.013432      8.000000
  0.048271  0.083818  0.013432      8.000000
  0.057048  0.083818  0.013432      8.000000
  0.065824  0.083818  0.013432      8.000000
  0.074601  0.083818  0.013432      8.000000
  0.083377  0.083818  0.013432      8.000000
  0.004388  0.092641  0.013432      8.000000
  0.013165  0.092641  0.013432      8.000000
  0.021941  0.092641  0.013432      8.000000
  0.030718  0.092641  0.013432      8.000000
  0.039494  0.092641  0.013432      8.000000
  0.048271  0.092641  0.013432      8.000000
  0.057048  0.092641  0.013432      8.000000
  0.065824  0.092641  0.013432      8.000000
  0.074601  0.092641  0.013432      8.000000
  0.083377  0.092641  0.013432      8.000000
  0.004388  0.101464  0.013432      8.000000
  0.013165  0.101464  0.013432      8.000000
  0.021941  0.101464  0.013432      8.000000
  0.030718  0.101464  0.013432      8.000000
  0.039494  0.101464  0.013432      8.000000
  0.048271  0.101464  0.013432      8.000000
  0.057048  0.101464  0.013432      8.000000
[...]
     43      13.5102      0.00000
     44      13.6005      0.00000
     45      14.4504      0.00000
     46      14.6954      0.00000
     47      15.4267      0.00000
     48      15.4727      0.00000

 k-point  1255 :       0.2250    0.4821    0.4722
  band No.  band energies     occupation 
      1     -12.2708      2.00000
      2     -11.6061      2.00000
      3      -8.5611      2.00000
      4      -8.0680      2.00000
      5      -6.1630      2.00000
      6      -6.0270      2.00000
      7      -5.6787      2.00000
      8      -5.1641      2.00000
      9      -3.6369      2.00000
     10      -2.7079      2.00000
     11      -2.5214      2.00000
     12      -1.9418      2.00000
     13      -1.7296      2.00000
     14      -1.3988      2.00000
     15      -1.1718      2.00000
     16      -0.5665      2.00000
     17      -0.1731      2.00000
     18       0.0113      2.00000
     19       0.4467      2.00000
     20       1.7156      2.00000
     21       2.0463      0.00000
     22       2.6255      0.00000
     23       5.0088      0.00000
     24       6.3873      0.00000
     25       6.7102      0.00000
     26       6.7617      0.00000
     27       7.8953      0.00000
     28       8.4649      0.00000
     29       8.6217      0.00000
     30       9.0509      0.00000
     31       9.5576      0.00000
     32      10.1897      0.00000
     33      10.8286      0.00000
     34      11.1169      0.00000
     35      11.3126      0.00000
     36      11.4583      0.00000
     37      11.8498      0.00000
     38      12.2082      0.00000
     39      12.4507      0.00000
     40      12.5935      0.00000
     41      13.2344      0.00000
     42      13.4226      0.00000
     43      13.7065      0.00000
     44      13.7969      0.00000
     45      14.2556      0.00000
     46      14.6733      0.00000
     47      15.3861      0.00000
     48      15.4279      0.00000

 k-point  1256 :       0.2750    0.4821    0.4722
  band No.  band energies     occupation 
      1     -12.2255      2.00000
      2     -11.6559      2.00000
      3      -8.5876      2.00000
      4      -8.1519      2.00000
      5      -6.1204      2.00000
      6      -5.7790      2.00000
      7      -5.7014      2.00000
      8      -5.0657      2.00000
      9      -3.7977      2.00000
     10      -2.9857      2.00000
     11      -2.4456      2.00000
     12      -2.0470      2.00000
     13      -1.8536      2.00000
     14      -1.3361      2.00000
     15      -1.1074      2.00000
     16      -0.4075      2.00000
     17      -0.0109      2.00000
     18       0.1569      2.00000
     19       0.4747      2.00000
     20       1.6872      2.00000
     21       1.9864      0.00261
     22       2.2033      0.00000
     23       5.1961      0.00000
     24       6.3058      0.00000
     25       6.6347      0.00000
     26       7.0014      0.00000
     27       7.9035      0.00000
     28       8.6346      0.00000
     29       8.7281      0.00000
     30       8.8257      0.00000
     31       9.6695      0.00000
     32      10.0170      0.00000
     33      10.8089      0.00000
     34      11.0248      0.00000
     35      11.2973      0.00000
     36      11.4304      0.00000
     37      11.7509      0.00000
     38      12.0559      0.00000
     39      12.6112      0.00000
     40      12.7972      0.00000
     41      13.4787      0.00000
     42      13.6187      0.00000
     43      13.8179      0.00000
     44      13.9365      0.00000
     45      14.0387      0.00000
     46      14.8758      0.00000
     47      15.3059      0.00000
     48      15.4348      0.00000

 k-point  1257 :       0.3250    0.4821    0.4722
  band No.  band energies     occupation 
      1     -12.1728      2.00000
      2     -11.7133      2.00000
      3      -8.5984      2.00000
      4      -8.2383      2.00000
      5      -6.0722      2.00000
      6      -5.7330      2.00000
      7      -5.5070      2.00000
      8      -4.9535      2.00000
      9      -3.9628      2.00000
     10      -3.2828      2.00000
     11      -2.3512      2.00000
     12      -2.1285      2.00000
     13      -1.9649      2.00000
     14      -1.4252      2.00000
     15      -0.8934      2.00000
     16      -0.2508      2.00000
     17       0.1379      2.00000
     18       0.2845      2.00000
     19       0.5026      2.00000
     20       1.6615      2.00000
     21       1.7879      1.99082
     22       1.9181      0.28152
     23       5.4027      0.00000
     24       6.2285      0.00000
     25       6.5973      0.00000
     26       7.1887      0.00000
     27       7.7974      0.00000
     28       8.4174      0.00000
     29       8.9146      0.00000
     30       9.0179      0.00000
     31       9.7345      0.00000
     32       9.9251      0.00000
     33      10.7216      0.00000
     34      11.0106      0.00000
     35      11.2459      0.00000
     36      11.4298      0.00000
     37      11.6528      0.00000
     38      11.9128      0.00000
     39      12.7505      0.00000
     40      13.0640      0.00000
     41      13.5131      0.00000
     42      13.7776      0.00000
     43      13.8472      0.00000
     44      14.0345      0.00000
     45      14.2494      0.00000
     46      15.0408      0.00000
     47      15.1812      0.00000
     48      15.4091      0.00000

 k-point  1258 :       0.3750    0.4821    0.4722
  band No.  band energies     occupation 
      1     -12.1139      2.00000
      2     -11.7766      2.00000
      3      -8.5917      2.00000
      4      -8.3227      2.00000
      5      -6.0202      2.00000
      6      -5.7695      2.00000
      7      -5.2229      2.00000
      8      -4.8275      2.00000
      9      -4.1279      2.00000
     10      -3.5894      2.00000
     11      -2.2435      2.00000
     12      -2.1829      2.00000
     13      -2.0595      2.00000
     14      -1.5565      2.00000
     15      -0.6329      2.00000
     16      -0.1116      2.00000
     17       0.2672      2.00000
     18       0.3847      2.00000
     19       0.5228      2.00000
     20       1.3900      2.00000
     21       1.6449      2.00000
     22       1.8452      1.67446
     23       5.6069      0.00000
     24       6.1534      0.00000
     25       6.6284      0.00000
     26       7.3168      0.00000
     27       7.6812      0.00000
     28       8.0463      0.00000
     29       9.1316      0.00000
     30       9.3439      0.00000
     31       9.7489      0.00000
     32       9.9104      0.00000
     33      10.6037      0.00000
     34      11.0544      0.00000
     35      11.1222      0.00000
     36      11.4439      0.00000
     37      11.5727      0.00000
     38      11.7793      0.00000
     39      12.8982      0.00000
     40      13.3134      0.00000
     41      13.3413      0.00000
     42      13.9908      0.00000
     43      14.0845      0.00000
     44      14.1976      0.00000
     45      14.3827      0.00000
     46      14.9884      0.00000
     47      15.1134      0.00000
     48      15.2870      0.00000

 k-point  1259 :       0.4250    0.4821    0.4722
  band No.  band energies     occupation 
      1     -12.0500      2.00000
      2     -11.8439      2.00000
      3      -8.5673      2.00000
      4      -8.4010      2.00000
      5      -5.9663      2.00000
      6      -5.8123      2.00000
      7      -4.9377      2.00000
      8      -4.6844      2.00000
      9      -4.2891      2.00000
     10      -3.8985      2.00000
     11      -2.2131      2.00000
     12      -2.1341      2.00000
     13      -2.1197      2.00000
     14      -1.7007      2.00000
     15      -0.3595      2.00000
     16      -0.0113      2.00000
     17       0.3701      2.00000
     18       0.4478      2.00000
     19       0.5387      2.00000
     20       1.0268      2.00000
     21       1.6448      2.00000
     22       1.7739      1.99730
     23       5.7799      0.00000
     24       6.0785      0.00000
     25       6.7555      0.00000
     26       7.3982      0.00000
     27       7.5844      0.00000
     28       7.6652      0.00000
     29       9.3355      0.00000
     30       9.6437      0.00000
     31       9.7390      0.00000
     32       9.9392      0.00000
     33      10.4976      0.00000
     34      10.9122      0.00000
     35      11.1537      0.00000
     36      11.4634      0.00000
     37      11.5244      0.00000
     38      11.6302      0.00000
     39      13.0347      0.00000
     40      13.2159      0.00000
     41      13.6258      0.00000
     42      14.1214      0.00000
     43      14.2341      0.00000
     44      14.3750      0.00000
     45      14.4844      0.00000
     46      14.8043      0.00000
     47      15.0104      0.00000
     48      15.1244      0.00000

 k-point  1260 :       0.4750    0.4821    0.4722
  band No.  band energies     occupation 
      1     -11.9825      2.00000
      2     -11.9132      2.00000
      3      -8.5260      2.00000
      4      -8.4698      2.00000
      5      -5.9124      2.00000
      6      -5.8604      2.00000
      7      -4.6848      2.00000
      8      -4.5474      2.00000
      9      -4.4023      2.00000
     10      -4.1962      2.00000
     11      -2.2127      2.00000
     12      -2.1859      2.00000
     13      -1.9876      2.00000
     14      -1.8465      2.00000
     15      -0.1174      2.00000
     16       0.0077      2.00000
     17       0.4391      2.00000
     18       0.4664      2.00000
     19       0.5834      2.00000
     20       0.7376      2.00000
     21       1.6670      2.00000
     22       1.7118      2.00000
     23       5.9068      0.00000
     24       5.9999      0.00000
     25       6.9870      0.00000
     26       7.3000      0.00000
     27       7.4566      0.00000
     28       7.5144      0.00000
     29       9.5107      0.00000
     30       9.6412      0.00000
     31       9.8856      0.00000
     32       9.9684      0.00000
     33      10.4965      0.00000
     34      10.6736      0.00000
     35      11.2882      0.00000
     36      11.4461      0.00000
     37      11.4845      0.00000
     38      11.5117      0.00000
     39      13.1315      0.00000
     40      13.1794      0.00000
     41      13.9164      0.00000
     42      14.1678      0.00000
     43      14.2521      0.00000
     44      14.2969      0.00000
     45      14.6881      0.00000
     46      14.7685      0.00000
     47      14.8262      0.00000
     48      14.9466      0.00000


--------------------------------------------------------------------------------------------------------


 soft charge-density along one line, spin component           1
         0         1         2         3         4         5         6         7         8         9
 total charge-density along one line
 
 pseudopotential strength for first ion, spin component:           1
  6.446   9.814   0.000  -0.009   0.005   0.000  -0.014   0.008
  9.814  14.938   0.000  -0.013   0.007   0.000  -0.021   0.011
  0.000   0.000  -2.174   0.000   0.000  -3.695   0.000   0.000
 -0.009  -0.013   0.000  -2.178  -0.001   0.000  -3.705  -0.002
  0.005   0.007   0.000  -0.001  -2.177   0.000  -0.002  -3.703
  0.000   0.000  -3.695   0.000   0.000  -6.081   0.000   0.000
 -0.014  -0.021   0.000  -3.705  -0.002   0.000  -6.102  -0.004
  0.008   0.011   0.000  -0.002  -3.703   0.000  -0.004  -6.098
 total augmentation occupancy for first ion, spin component:           1
  3.643  -0.977   0.000  -0.245   0.416   0.000   0.124  -0.176
 -0.977   0.286   0.000   0.161  -0.197   0.000  -0.056   0.073
  0.000   0.000   2.276   0.000   0.000  -0.543   0.000   0.000
 -0.245   0.161   0.000   3.776   0.326   0.000  -1.053  -0.120
  0.416  -0.197   0.000   0.326   3.602   0.000  -0.120  -0.979
  0.000  -0.000  -0.543   0.000   0.000   0.134   0.000   0.000
  0.124  -0.056   0.000  -1.053  -0.120   0.000   0.303   0.043
 -0.176   0.073   0.000  -0.120  -0.979   0.000   0.043   0.276


------------------------ aborting loop because EDIFF is reached ----------------------------------------


    CHARGE:  cpu time      0.6647: real time      0.6686
    FORLOC:  cpu time      0.0012: real time      0.0012
    FORNL :  cpu time      4.3097: real time      4.3283
    STRESS:  cpu time     20.2284: real time     20.3314
    FORCOR:  cpu time      0.0091: real time      0.0120
    FORHAR:  cpu time      0.0028: real time      0.0028
    MIXING:  cpu time      0.0006: real time      0.0006
    OFIELD:  cpu time      0.0000: real time      0.0000

  FORCE on cell =-STRESS in cart. coord.  units (eV):
  Direction    XX          YY          ZZ          XY          YZ          ZX
  --------------------------------------------------------------------------------------
  Alpha Z    94.24358    94.24358    94.24358
  Ewald     -90.05465  -558.27634  -147.43815    -0.00000    -0.00000     0.00000
  Hartree   187.03482     5.86532   156.20534    -0.00000    -0.00000    -0.00000
  E(xc)    -134.90946  -135.87924  -134.87247    -0.00000    -0.00000    -0.00000
  Local    -493.92892   126.20948  -405.98599    -0.00000     0.00000     0.00000
  n-local    -8.88918   -10.85810    -9.28061    -0.00613    -0.00630     0.05428
  augment     1.31998     1.36706     1.34833     0.00000    -0.00000    -0.00000
  Kinetic   446.47520   477.44372   445.25225     0.24906     0.06857    -1.03855
  Fock        0.00000     0.00000     0.00000     0.00000     0.00000     0.00000
  -------------------------------------------------------------------------------------
  Total       1.29138     0.11547    -0.52773     0.00000     0.00000    -0.00000
  in kB      14.46115     1.29306    -5.90962     0.00000     0.00000    -0.00000
  external pressure =        3.28 kB  Pullay stress =        0.00 kB


 VOLUME and BASIS-vectors are now :
 -----------------------------------------------------------------------------
  energy-cutoff  :      480.00
  volume of cell :      143.07
      direct lattice vectors                 reciprocal lattice vectors
     5.697000000  0.000000000  0.000000000     0.175530981  0.000000000  0.000000000
     0.000000000  4.047900000  0.000000000     0.000000000  0.247041676  0.000000000
     0.000000000  0.000000000  6.204200000     0.000000000  0.000000000  0.161181135

  length of vectors
     5.697000000  4.047900000  6.204200000     0.175530981  0.247041676  0.161181135


 FORCES acting on ions
    electron-ion (+dipol)            ewald-force                    non-local-force                 convergence-correction
 -----------------------------------------------------------------------------------------------
   0.497E+02 -.315E-12 -.250E+02   -.515E+02 0.211E-14 0.284E+02   0.182E+01 -.112E-19 -.332E+01   -.777E-04 0.232E-14 0.862E-04
   -.497E+02 -.324E-12 0.250E+02   0.515E+02 0.448E-16 -.284E+02   -.182E+01 0.276E-19 0.332E+01   0.777E-04 0.521E-14 -.862E-04
   -.497E+02 -.280E-12 -.250E+02   0.515E+02 0.587E-14 0.284E+02   -.182E+01 -.414E-19 -.332E+01   0.777E-04 0.209E-14 0.862E-04
   0.497E+02 -.634E-14 0.250E+02   -.515E+02 0.181E-14 -.284E+02   0.182E+01 -.274E-19 0.332E+01   -.777E-04 0.526E-14 -.862E-04
   0.313E+02 0.805E-12 -.527E+02   -.341E+02 0.342E-14 0.571E+02   0.194E+01 -.687E-19 -.409E+01   -.653E-04 0.338E-14 -.173E-04
   -.313E+02 0.251E-12 0.527E+02   0.341E+02 0.354E-14 -.571E+02   -.194E+01 -.729E-19 0.409E+01   0.653E-04 0.357E-14 0.173E-04
   -.313E+02 0.840E-12 -.527E+02   0.341E+02 0.299E-14 0.571E+02   -.194E+01 0.735E-19 -.409E+01   0.653E-04 0.366E-14 -.173E-04
   0.313E+02 0.876E-14 0.527E+02   -.341E+02 0.353E-14 -.571E+02   0.194E+01 0.717E-19 0.409E+01   -.653E-04 0.362E-14 0.173E-04
   -.177E-13 -.558E+02 -.155E+02   -.720E-14 0.613E+02 0.166E+02   0.137E-17 -.539E+01 -.113E+01   0.137E-13 0.133E-03 0.115E-03
   -.365E-13 0.558E+02 0.155E+02   0.108E-13 -.613E+02 -.166E+02   0.330E-18 0.539E+01 0.113E+01   0.242E-14 -.133E-03 -.115E-03
   -.183E-13 0.558E+02 -.155E+02   0.393E-14 -.613E+02 0.166E+02   0.235E-17 0.539E+01 -.113E+01   0.138E-13 -.133E-03 0.115E-03
   -.362E-13 -.558E+02 0.155E+02   0.643E-14 0.613E+02 -.166E+02   0.229E-17 -.539E+01 0.113E+01   0.253E-14 0.133E-03 -.115E-03
   -.162E-13 0.176E-13 -.623E+02   0.123E-13 0.532E-14 0.649E+02   -.904E-19 -.158E-18 -.256E+01   -.947E-14 0.363E-14 0.825E-04
   -.130E-13 0.645E-12 0.623E+02   0.173E-13 0.235E-14 -.649E+02   0.795E-19 -.249E-18 0.256E+01   0.920E-14 0.400E-14 -.825E-04
 -----------------------------------------------------------------------------------------------
   -.452E-13 0.122E-11 -.148E-11   0.152E-13 0.767E-14 -.284E-13   -.438E-15 -.889E-15 -.888E-15   0.402E-13 0.326E-13 -.443E-13
 
 
 POSITION                                       TOTAL-FORCE (eV/Angst)
 -----------------------------------------------------------------------------------
      2.96945      2.02395      3.95803        -0.008544     -0.000000      0.055159
      2.72755      2.02395      2.24617         0.008544      0.000000     -0.055159
      5.57605      2.02395      3.95803         0.008544      0.000000      0.055159
      0.12095      2.02395      2.24617        -0.008544     -0.000000     -0.055159
      3.42333      2.02395      5.58322        -0.828437      0.000000      0.283928
      2.27367      2.02395      0.62098         0.828437     -0.000000     -0.283928
      5.12217      2.02395      5.58322         0.828437     -0.000000      0.283928
      0.57483      2.02395      0.62098        -0.828437     -0.000000     -0.283928
      4.27275      3.20476      4.52739         0.000000      0.053517     -0.079572
      1.42425      0.84314      1.67681         0.000000     -0.053517      0.079572
      4.27275      0.84314      4.52739         0.000000     -0.053517     -0.079572
      1.42425      3.20476      1.67681         0.000000      0.053517      0.079572
      1.42425      2.02395      3.24895         0.000000      0.000000      0.072686
      4.27275      2.02395      2.95525         0.000000     -0.000000     -0.072686
 -----------------------------------------------------------------------------------
    total drift:                                0.000000      0.000000     -0.000000


--------------------------------------------------------------------------------------------------------



  FREE ENERGIE OF THE ION-ELECTRON SYSTEM (eV)
  ---------------------------------------------------
  free  energy   TOTEN  =       -90.58375860 eV

  energy  without entropy=      -90.58048191  energy(sigma->0) =      -90.58212026
 


--------------------------------------------------------------------------------------------------------


    POTLOK:  cpu time      0.0141: real time      0.0167


--------------------------------------------------------------------------------------------------------


     LOOP+:  cpu time    655.1593: real time    660.0156
    4ORBIT:  cpu time      0.0000: real time      0.0000

 total amount of memory used by VASP MPI-rank0   458271. kBytes
=======================================================================

   base      :      30000. kBytes
   nonl-proj :     279465. kBytes
   fftplans  :       1019. kBytes
   grid      :       3560. kBytes
   one-center:         43. kBytes
   wavefun   :     144184. kBytes
 
  
  
 General timing and accounting informations for this job:
 ========================================================
  
                  Total CPU time used (sec):      685.469
                            User time (sec):      676.144
                          System time (sec):        9.325
                         Elapsed time (sec):      713.937
  
                   Maximum memory used (kb):      923408.
                   Average memory used (kb):          N/A
  
                          Minor page faults:      2315476
                          Major page faults:          842
                 Voluntary context switches:        32570
