  14  14   0   0
  0.1021960E+02  0.5697000E-09  0.4047900E-09  0.6204200E-09  0.5000000E-15
  1.000000000000000E-004
  CAR 
 Kpoints                                 
     18.01281983    -14.19542847  301      1.88334630      1.00000000
    -14.195  0.0000E+00  0.0000E+00
    -14.088  0.0000E+00  0.0000E+00
    -13.981  0.0000E+00  0.0000E+00
    -13.873  0.0000E+00  0.0000E+00
    -13.766  0.0000E+00  0.0000E+00
    -13.659  0.0000E+00  0.0000E+00
    -13.551  0.0000E+00  0.0000E+00
    -13.444  0.0000E+00  0.0000E+00
    -13.337  0.0000E+00  0.0000E+00
    -13.229  0.0000E+00  0.0000E+00
    -13.122  0.0000E+00  0.0000E+00
    -13.014  0.1290E-16  0.1385E-17
    -12.907  0.1162E-07  0.1248E-08
    -12.800  0.2288E-02  0.2457E-03
    -12.692  0.4282E+00  0.4622E-01
    -12.585  0.2280E+01  0.2910E+00
    -12.478  0.3524E+01  0.6693E+00
    -12.370  0.4343E+01  0.1136E+01
    -12.263  0.3561E+01  0.1518E+01
    -12.156  0.2867E+01  0.1826E+01
    -12.048  0.2633E+01  0.2108E+01
    -11.941  0.2591E+01  0.2387E+01
    -11.833  0.2741E+01  0.2681E+01
    -11.726  0.3323E+01  0.3038E+01
    -11.619  0.3622E+01  0.3427E+01
    -11.511  0.3129E+01  0.3763E+01
    -11.404  0.1735E+01  0.3949E+01
    -11.297  0.4671E+00  0.3999E+01
    -11.189  0.9623E-02  0.4000E+01
    -11.082  0.4157E-06  0.4000E+01
    -10.975  0.4846E-14  0.4000E+01
    -10.867  0.0000E+00  0.4000E+01
    -10.760  0.0000E+00  0.4000E+01
    -10.653  0.0000E+00  0.4000E+01
    -10.545  0.0000E+00  0.4000E+01
    -10.438  0.0000E+00  0.4000E+01
    -10.330  0.0000E+00  0.4000E+01
    -10.223  0.0000E+00  0.4000E+01
    -10.116  0.0000E+00  0.4000E+01
    -10.008  0.0000E+00  0.4000E+01
     -9.901  0.0000E+00  0.4000E+01
     -9.794  0.0000E+00  0.4000E+01
     -9.686  0.0000E+00  0.4000E+01
     -9.579  0.0000E+00  0.4000E+01
     -9.472  0.0000E+00  0.4000E+01
     -9.364  0.0000E+00  0.4000E+01
     -9.257  0.0000E+00  0.4000E+01
     -9.149  0.0000E+00  0.4000E+01
     -9.042  0.5697E-09  0.4000E+01
     -8.935  0.4964E-03  0.4000E+01
     -8.827  0.2645E+00  0.4028E+01
     -8.720  0.2070E+01  0.4251E+01
     -8.613  0.5270E+01  0.4816E+01
     -8.505  0.7010E+01  0.5569E+01
     -8.398  0.6282E+01  0.6244E+01
     -8.291  0.5316E+01  0.6814E+01
     -8.183  0.4884E+01  0.7339E+01
     -8.076  0.3835E+01  0.7750E+01
     -7.969  0.1694E+01  0.7932E+01
     -7.861  0.5815E+00  0.7995E+01
     -7.754  0.5009E-01  0.8000E+01
     -7.646  0.4271E-04  0.8000E+01
     -7.539  0.1805E-10  0.8000E+01
     -7.432  0.0000E+00  0.8000E+01
     -7.324  0.0000E+00  0.8000E+01
     -7.217  0.2536E-14  0.8000E+01
     -7.110  0.1846E-06  0.8000E+01
     -7.002  0.2871E-02  0.8000E+01
     -6.895  0.9860E-01  0.8011E+01
     -6.788  0.2792E+00  0.8041E+01
     -6.680  0.4539E+00  0.8090E+01
     -6.573  0.6987E+00  0.8165E+01
     -6.465  0.9006E+00  0.8261E+01
     -6.358  0.1416E+01  0.8413E+01
     -6.251  0.2093E+01  0.8638E+01
     -6.143  0.2951E+01  0.8955E+01
     -6.036  0.3898E+01  0.9373E+01
     -5.929  0.4017E+01  0.9805E+01
     -5.821  0.3989E+01  0.1023E+02
     -5.714  0.4142E+01  0.1068E+02
     -5.607  0.3998E+01  0.1111E+02
     -5.499  0.4116E+01  0.1155E+02
     -5.392  0.4413E+01  0.1202E+02
     -5.284  0.4821E+01  0.1254E+02
     -5.177  0.4370E+01  0.1301E+02
     -5.070  0.3970E+01  0.1344E+02
     -4.962  0.3363E+01  0.1380E+02
     -4.855  0.2506E+01  0.1407E+02
     -4.748  0.2406E+01  0.1432E+02
     -4.640  0.2973E+01  0.1464E+02
     -4.533  0.3588E+01  0.1503E+02
     -4.426  0.3467E+01  0.1540E+02
     -4.318  0.3147E+01  0.1574E+02
     -4.211  0.2931E+01  0.1605E+02
     -4.104  0.2859E+01  0.1636E+02
     -3.996  0.3006E+01  0.1668E+02
     -3.889  0.2995E+01  0.1700E+02
     -3.781  0.3004E+01  0.1733E+02
     -3.674  0.2895E+01  0.1764E+02
     -3.567  0.2826E+01  0.1794E+02
     -3.459  0.2827E+01  0.1824E+02
     -3.352  0.2744E+01  0.1854E+02
     -3.245  0.2767E+01  0.1884E+02
     -3.137  0.2764E+01  0.1913E+02
     -3.030  0.2886E+01  0.1944E+02
     -2.923  0.3110E+01  0.1978E+02
     -2.815  0.2785E+01  0.2008E+02
     -2.708  0.2494E+01  0.2034E+02
     -2.600  0.2502E+01  0.2061E+02
     -2.493  0.3004E+01  0.2093E+02
     -2.386  0.3183E+01  0.2128E+02
     -2.278  0.3698E+01  0.2167E+02
     -2.171  0.3480E+01  0.2205E+02
     -2.064  0.3280E+01  0.2240E+02
     -1.956  0.4144E+01  0.2284E+02
     -1.849  0.4578E+01  0.2334E+02
     -1.742  0.5907E+01  0.2397E+02
     -1.634  0.5552E+01  0.2457E+02
     -1.527  0.6119E+01  0.2522E+02
     -1.419  0.6158E+01  0.2588E+02
     -1.312  0.5621E+01  0.2649E+02
     -1.205  0.5217E+01  0.2705E+02
     -1.097  0.5297E+01  0.2762E+02
     -0.990  0.4027E+01  0.2805E+02
     -0.883  0.2756E+01  0.2834E+02
     -0.775  0.2388E+01  0.2860E+02
     -0.668  0.3265E+01  0.2895E+02
     -0.561  0.5003E+01  0.2949E+02
     -0.453  0.5968E+01  0.3013E+02
     -0.346  0.6348E+01  0.3081E+02
     -0.239  0.6206E+01  0.3148E+02
     -0.131  0.6725E+01  0.3220E+02
     -0.024  0.6974E+01  0.3295E+02
      0.084  0.6306E+01  0.3362E+02
      0.191  0.6677E+01  0.3434E+02
      0.298  0.8538E+01  0.3526E+02
      0.406  0.8331E+01  0.3615E+02
      0.513  0.8623E+01  0.3708E+02
      0.620  0.4788E+01  0.3759E+02
      0.728  0.2947E+01  0.3791E+02
      0.835  0.3074E+01  0.3824E+02
      0.942  0.3236E+01  0.3859E+02
      1.050  0.3613E+01  0.3897E+02
      1.157  0.3527E+01  0.3935E+02
      1.265  0.3835E+01  0.3976E+02
      1.372  0.3636E+01  0.4015E+02
      1.479  0.3863E+01  0.4057E+02
      1.587  0.4056E+01  0.4100E+02
      1.694  0.3737E+01  0.4141E+02
      1.801  0.3238E+01  0.4175E+02
      1.909  0.2980E+01  0.4207E+02
      2.016  0.2632E+01  0.4236E+02
      2.123  0.2633E+01  0.4264E+02
      2.231  0.2438E+01  0.4290E+02
      2.338  0.1848E+01  0.4310E+02
      2.445  0.1491E+01  0.4326E+02
      2.553  0.1050E+01  0.4337E+02
      2.660  0.6410E+00  0.4344E+02
      2.768  0.6247E+00  0.4351E+02
      2.875  0.6246E+00  0.4357E+02
      2.982  0.5379E+00  0.4363E+02
      3.090  0.4410E+00  0.4368E+02
      3.197  0.5188E+00  0.4374E+02
      3.304  0.4233E+00  0.4378E+02
      3.412  0.3610E+00  0.4382E+02
      3.519  0.3954E+00  0.4386E+02
      3.626  0.3448E+00  0.4390E+02
      3.734  0.2872E+00  0.4393E+02
      3.841  0.2978E+00  0.4396E+02
      3.949  0.2328E+00  0.4399E+02
      4.056  0.1182E+00  0.4400E+02
      4.163  0.5547E-02  0.4400E+02
      4.271  0.4807E-01  0.4401E+02
      4.378  0.2330E+00  0.4403E+02
      4.485  0.3625E+00  0.4407E+02
      4.593  0.5152E+00  0.4412E+02
      4.700  0.7300E+00  0.4420E+02
      4.807  0.8044E+00  0.4429E+02
      4.915  0.8838E+00  0.4438E+02
      5.022  0.9726E+00  0.4449E+02
      5.130  0.1149E+01  0.4461E+02
      5.237  0.1319E+01  0.4475E+02
      5.344  0.1729E+01  0.4494E+02
      5.452  0.2123E+01  0.4517E+02
      5.559  0.2553E+01  0.4544E+02
      5.666  0.2924E+01  0.4576E+02
      5.774  0.3315E+01  0.4611E+02
      5.881  0.3660E+01  0.4650E+02
      5.988  0.4105E+01  0.4694E+02
      6.096  0.4587E+01  0.4744E+02
      6.203  0.4514E+01  0.4792E+02
      6.310  0.4221E+01  0.4837E+02
      6.418  0.4152E+01  0.4882E+02
      6.525  0.4393E+01  0.4929E+02
      6.633  0.3966E+01  0.4972E+02
      6.740  0.3509E+01  0.5009E+02
      6.847  0.3981E+01  0.5052E+02
      6.955  0.4366E+01  0.5099E+02
      7.062  0.4854E+01  0.5151E+02
      7.169  0.5019E+01  0.5205E+02
      7.277  0.5077E+01  0.5260E+02
      7.384  0.4608E+01  0.5309E+02
      7.491  0.4453E+01  0.5357E+02
      7.599  0.4155E+01  0.5401E+02
      7.706  0.3472E+01  0.5439E+02
      7.814  0.3068E+01  0.5472E+02
      7.921  0.3238E+01  0.5506E+02
      8.028  0.3284E+01  0.5542E+02
      8.136  0.3576E+01  0.5580E+02
      8.243  0.3953E+01  0.5623E+02
      8.350  0.4005E+01  0.5666E+02
      8.458  0.4116E+01  0.5710E+02
      8.565  0.3995E+01  0.5753E+02
      8.672  0.4303E+01  0.5799E+02
      8.780  0.4806E+01  0.5850E+02
      8.887  0.5197E+01  0.5906E+02
      8.995  0.4990E+01  0.5960E+02
      9.102  0.5097E+01  0.6015E+02
      9.209  0.5134E+01  0.6070E+02
      9.317  0.4971E+01  0.6123E+02
      9.424  0.4827E+01  0.6175E+02
      9.531  0.4492E+01  0.6223E+02
      9.639  0.4829E+01  0.6275E+02
      9.746  0.4964E+01  0.6328E+02
      9.853  0.5184E+01  0.6384E+02
      9.961  0.5032E+01  0.6438E+02
     10.068  0.4059E+01  0.6481E+02
     10.175  0.4022E+01  0.6525E+02
     10.283  0.4405E+01  0.6572E+02
     10.390  0.5060E+01  0.6626E+02
     10.498  0.5606E+01  0.6686E+02
     10.605  0.5077E+01  0.6741E+02
     10.712  0.4301E+01  0.6787E+02
     10.820  0.4002E+01  0.6830E+02
     10.927  0.3359E+01  0.6866E+02
     11.034  0.4693E+01  0.6917E+02
     11.142  0.5445E+01  0.6975E+02
     11.249  0.6294E+01  0.7043E+02
     11.356  0.5747E+01  0.7104E+02
     11.464  0.4937E+01  0.7157E+02
     11.571  0.4761E+01  0.7208E+02
     11.679  0.4600E+01  0.7258E+02
     11.786  0.4815E+01  0.7309E+02
     11.893  0.5055E+01  0.7364E+02
     12.001  0.6200E+01  0.7430E+02
     12.108  0.5906E+01  0.7494E+02
     12.215  0.5614E+01  0.7554E+02
     12.323  0.5176E+01  0.7610E+02
     12.430  0.5569E+01  0.7669E+02
     12.537  0.5935E+01  0.7733E+02
     12.645  0.5923E+01  0.7797E+02
     12.752  0.5820E+01  0.7859E+02
     12.860  0.5880E+01  0.7922E+02
     12.967  0.5966E+01  0.7986E+02
     13.074  0.6000E+01  0.8051E+02
     13.182  0.6314E+01  0.8118E+02
     13.289  0.5946E+01  0.8182E+02
     13.396  0.5477E+01  0.8241E+02
     13.504  0.5627E+01  0.8302E+02
     13.611  0.5260E+01  0.8358E+02
     13.718  0.5431E+01  0.8416E+02
     13.826  0.5783E+01  0.8478E+02
     13.933  0.5525E+01  0.8538E+02
     14.040  0.5517E+01  0.8597E+02
     14.148  0.5052E+01  0.8651E+02
     14.255  0.5037E+01  0.8705E+02
     14.363  0.4930E+01  0.8758E+02
     14.470  0.4708E+01  0.8809E+02
     14.577  0.5377E+01  0.8866E+02
     14.685  0.5236E+01  0.8923E+02
     14.792  0.4424E+01  0.8970E+02
     14.899  0.4374E+01  0.9017E+02
     15.007  0.5440E+01  0.9076E+02
     15.114  0.6155E+01  0.9142E+02
     15.221  0.5768E+01  0.9204E+02
     15.329  0.5874E+01  0.9267E+02
     15.436  0.5797E+01  0.9329E+02
     15.544  0.6058E+01  0.9394E+02
     15.651  0.5306E+01  0.9451E+02
     15.758  0.3887E+01  0.9493E+02
     15.866  0.2763E+01  0.9522E+02
     15.973  0.2164E+01  0.9545E+02
     16.080  0.1555E+01  0.9562E+02
     16.188  0.1104E+01  0.9574E+02
     16.295  0.1008E+01  0.9585E+02
     16.402  0.8250E+00  0.9594E+02
     16.510  0.4929E+00  0.9599E+02
     16.617  0.9268E-01  0.9600E+02
     16.724  0.6982E-03  0.9600E+02
     16.832  0.6040E-08  0.9600E+02
     16.939  0.9217E-17  0.9600E+02
     17.047  0.0000E+00  0.9600E+02
     17.154  0.0000E+00  0.9600E+02
     17.261  0.0000E+00  0.9600E+02
     17.369  0.0000E+00  0.9600E+02
     17.476  0.0000E+00  0.9600E+02
     17.583  0.0000E+00  0.9600E+02
     17.691  0.0000E+00  0.9600E+02
     17.798  0.0000E+00  0.9600E+02
     17.905  0.0000E+00  0.9600E+02
     18.013  0.0000E+00  0.9600E+02
