Automatically generated mesh
    2244
Reciprocal lattice
    0.02083333333334    0.01470588235294    0.02272727272727             8
    0.06250000000000    0.01470588235294    0.02272727272727             8
    0.10416666666666    0.01470588235294    0.02272727272727             8
    0.14583333333334    0.01470588235294    0.02272727272727             8
    0.18750000000000    0.01470588235294    0.02272727272727             8
    0.22916666666666    0.01470588235294    0.02272727272727             8
    0.27083333333334    0.01470588235294    0.02272727272727             8
    0.31250000000000    0.01470588235294    0.02272727272727             8
    0.35416666666666    0.01470588235294    0.02272727272727             8
    0.39583333333334    0.01470588235294    0.02272727272727             8
    0.43750000000000    0.01470588235294    0.02272727272727             8
    0.47916666666666    0.01470588235294    0.02272727272727             8
    0.02083333333334    0.04411764705883    0.02272727272727             8
    0.06250000000000    0.04411764705883    0.02272727272727             8
    0.10416666666666    0.04411764705883    0.02272727272727             8
    0.14583333333334    0.04411764705883    0.02272727272727             8
    0.18750000000000    0.04411764705883    0.02272727272727             8
    0.22916666666666    0.04411764705883    0.02272727272727             8
    0.27083333333334    0.04411764705883    0.02272727272727             8
    0.31250000000000    0.04411764705883    0.02272727272727             8
    0.35416666666666    0.04411764705883    0.02272727272727             8
    0.39583333333334    0.04411764705883    0.02272727272727             8
    0.43750000000000    0.04411764705883    0.02272727272727             8
    0.47916666666666    0.04411764705883    0.02272727272727             8
    0.02083333333334    0.07352941176470    0.02272727272727             8
    0.06250000000000    0.07352941176470    0.02272727272727             8
    0.10416666666666    0.07352941176470    0.02272727272727             8
    0.14583333333334    0.07352941176470    0.02272727272727             8
    0.18750000000000    0.07352941176470    0.02272727272727             8
    0.22916666666666    0.07352941176470    0.02272727272727             8
    0.27083333333334    0.07352941176470    0.02272727272727             8
    0.31250000000000    0.07352941176470    0.02272727272727             8
    0.35416666666666    0.07352941176470    0.02272727272727             8
    0.39583333333334    0.07352941176470    0.02272727272727             8
    0.43750000000000    0.07352941176470    0.02272727272727             8
    0.47916666666666    0.07352941176470    0.02272727272727             8
    0.02083333333334    0.10294117647059    0.02272727272727             8
    0.06250000000000    0.10294117647059    0.02272727272727             8
    0.10416666666666    0.10294117647059    0.02272727272727             8
    0.14583333333334    0.10294117647059    0.02272727272727             8
    0.18750000000000    0.10294117647059    0.02272727272727             8
    0.22916666666666    0.10294117647059    0.02272727272727             8
    0.27083333333334    0.10294117647059    0.02272727272727             8
    0.31250000000000    0.10294117647059    0.02272727272727             8
    0.35416666666666    0.10294117647059    0.02272727272727             8
    0.39583333333334    0.10294117647059    0.02272727272727             8
    0.43750000000000    0.10294117647059    0.02272727272727             8
    0.47916666666666    0.10294117647059    0.02272727272727             8
    0.02083333333334    0.13235294117647    0.02272727272727             8
    0.06250000000000    0.13235294117647    0.02272727272727             8
    0.10416666666666    0.13235294117647    0.02272727272727             8
    0.14583333333334    0.13235294117647    0.02272727272727             8
    0.18750000000000    0.13235294117647    0.02272727272727             8
    0.22916666666666    0.13235294117647    0.02272727272727             8
    0.27083333333334    0.13235294117647    0.02272727272727             8
    0.31250000000000    0.13235294117647    0.02272727272727             8
    0.35416666666666    0.13235294117647    0.02272727272727             8
    0.39583333333334    0.13235294117647    0.02272727272727             8
    0.43750000000000    0.13235294117647    0.02272727272727             8
    0.47916666666666    0.13235294117647    0.02272727272727             8
    0.02083333333334    0.16176470588236    0.02272727272727             8
    0.06250000000000    0.16176470588236    0.02272727272727             8
    0.10416666666666    0.16176470588236    0.02272727272727             8
    0.14583333333334    0.16176470588236    0.02272727272727             8
    0.18750000000000    0.16176470588236    0.02272727272727             8
    0.22916666666666    0.16176470588236    0.02272727272727             8
    0.27083333333334    0.16176470588236    0.02272727272727             8
    0.31250000000000    0.16176470588236    0.02272727272727             8
    0.35416666666666    0.16176470588236    0.02272727272727             8
    0.39583333333334    0.16176470588236    0.02272727272727             8
    0.43750000000000    0.16176470588236    0.02272727272727             8
    0.47916666666666    0.16176470588236    0.02272727272727             8
    0.02083333333334    0.19117647058823    0.02272727272727             8
    0.06250000000000    0.19117647058823    0.02272727272727             8
    0.10416666666666    0.19117647058823    0.02272727272727             8
    0.14583333333334    0.19117647058823    0.02272727272727             8
    0.18750000000000    0.19117647058823    0.02272727272727             8
    0.22916666666666    0.19117647058823    0.02272727272727             8
    0.27083333333334    0.19117647058823    0.02272727272727             8
    0.31250000000000    0.19117647058823    0.02272727272727             8
    0.35416666666666    0.19117647058823    0.02272727272727             8
    0.39583333333334    0.19117647058823    0.02272727272727             8
    0.43750000000000    0.19117647058823    0.02272727272727             8
    0.47916666666666    0.19117647058823    0.02272727272727             8
    0.02083333333334    0.22058823529412    0.02272727272727             8
    0.06250000000000    0.22058823529412    0.02272727272727             8
    0.10416666666666    0.22058823529412    0.02272727272727             8
    0.14583333333334    0.22058823529412    0.02272727272727             8
    0.18750000000000    0.22058823529412    0.02272727272727             8
    0.22916666666666    0.22058823529412    0.02272727272727             8
    0.27083333333334    0.22058823529412    0.02272727272727             8
    0.31250000000000    0.22058823529412    0.02272727272727             8
    0.35416666666666    0.22058823529412    0.02272727272727             8
    0.39583333333334    0.22058823529412    0.02272727272727             8
    0.43750000000000    0.22058823529412    0.02272727272727             8
    0.47916666666666    0.22058823529412    0.02272727272727             8
    0.02083333333334    0.25000000000000    0.02272727272727             8
    0.06250000000000    0.25000000000000    0.02272727272727             8
    0.10416666666666    0.25000000000000    0.02272727272727             8
    0.14583333333334    0.25000000000000    0.02272727272727             8
    0.18750000000000    0.25000000000000    0.02272727272727             8
    0.22916666666666    0.25000000000000    0.02272727272727             8
    0.27083333333334    0.25000000000000    0.02272727272727             8
    0.31250000000000    0.25000000000000    0.02272727272727             8
    0.35416666666666    0.25000000000000    0.02272727272727             8
    0.39583333333334    0.25000000000000    0.02272727272727             8
    0.43750000000000    0.25000000000000    0.02272727272727             8
    0.47916666666666    0.25000000000000    0.02272727272727             8
    0.02083333333334    0.27941176470588    0.02272727272727             8
    0.06250000000000    0.27941176470588    0.02272727272727             8
    0.10416666666666    0.27941176470588    0.02272727272727             8
    0.14583333333334    0.27941176470588    0.02272727272727             8
    0.18750000000000    0.27941176470588    0.02272727272727             8
    0.22916666666666    0.27941176470588    0.02272727272727             8
    0.27083333333334    0.27941176470588    0.02272727272727             8
    0.31250000000000    0.27941176470588    0.02272727272727             8
    0.35416666666666    0.27941176470588    0.02272727272727             8
    0.39583333333334    0.27941176470588    0.02272727272727             8
    0.43750000000000    0.27941176470588    0.02272727272727             8
    0.47916666666666    0.27941176470588    0.02272727272727             8
    0.02083333333334    0.30882352941177    0.02272727272727             8
    0.06250000000000    0.30882352941177    0.02272727272727             8
    0.10416666666666    0.30882352941177    0.02272727272727             8
    0.14583333333334    0.30882352941177    0.02272727272727             8
    0.18750000000000    0.30882352941177    0.02272727272727             8
    0.22916666666666    0.30882352941177    0.02272727272727             8
    0.27083333333334    0.30882352941177    0.02272727272727             8
    0.31250000000000    0.30882352941177    0.02272727272727             8
    0.35416666666666    0.30882352941177    0.02272727272727             8
    0.39583333333334    0.30882352941177    0.02272727272727             8
    0.43750000000000    0.30882352941177    0.02272727272727             8
    0.47916666666666    0.30882352941177    0.02272727272727             8
    0.02083333333334    0.33823529411764    0.02272727272727             8
    0.06250000000000    0.33823529411764    0.02272727272727             8
    0.10416666666666    0.33823529411764    0.02272727272727             8
    0.14583333333334    0.33823529411764    0.02272727272727             8
    0.18750000000000    0.33823529411764    0.02272727272727             8
    0.22916666666666    0.33823529411764    0.02272727272727             8
    0.27083333333334    0.33823529411764    0.02272727272727             8
    0.31250000000000    0.33823529411764    0.02272727272727             8
    0.35416666666666    0.33823529411764    0.02272727272727             8
    0.39583333333334    0.33823529411764    0.02272727272727             8
    0.43750000000000    0.33823529411764    0.02272727272727             8
    0.47916666666666    0.33823529411764    0.02272727272727             8
    0.02083333333334    0.36764705882353    0.02272727272727             8
    0.06250000000000    0.36764705882353    0.02272727272727             8
    0.10416666666666    0.36764705882353    0.02272727272727             8
    0.14583333333334    0.36764705882353    0.02272727272727             8
    0.18750000000000    0.36764705882353    0.02272727272727             8
    0.22916666666666    0.36764705882353    0.02272727272727             8
    0.27083333333334    0.36764705882353    0.02272727272727             8
    0.31250000000000    0.36764705882353    0.02272727272727             8
    0.35416666666666    0.36764705882353    0.02272727272727             8
    0.39583333333334    0.36764705882353    0.02272727272727             8
    0.43750000000000    0.36764705882353    0.02272727272727             8
    0.47916666666666    0.36764705882353    0.02272727272727             8
    0.02083333333334    0.39705882352941    0.02272727272727             8
    0.06250000000000    0.39705882352941    0.02272727272727             8
    0.10416666666666    0.39705882352941    0.02272727272727             8
    0.14583333333334    0.39705882352941    0.02272727272727             8
    0.18750000000000    0.39705882352941    0.02272727272727             8
    0.22916666666666    0.39705882352941    0.02272727272727             8
    0.27083333333334    0.39705882352941    0.02272727272727             8
    0.31250000000000    0.39705882352941    0.02272727272727             8
    0.35416666666666    0.39705882352941    0.02272727272727             8
    0.39583333333334    0.39705882352941    0.02272727272727             8
    0.43750000000000    0.39705882352941    0.02272727272727             8
    0.47916666666666    0.39705882352941    0.02272727272727             8
    0.02083333333334    0.42647058823530    0.02272727272727             8
    0.06250000000000    0.42647058823530    0.02272727272727             8
    0.10416666666666    0.42647058823530    0.02272727272727             8
    0.14583333333334    0.42647058823530    0.02272727272727             8
    0.18750000000000    0.42647058823530    0.02272727272727             8
    0.22916666666666    0.42647058823530    0.02272727272727             8
    0.27083333333334    0.42647058823530    0.02272727272727             8
    0.31250000000000    0.42647058823530    0.02272727272727             8
    0.35416666666666    0.42647058823530    0.02272727272727             8
    0.39583333333334    0.42647058823530    0.02272727272727             8
    0.43750000000000    0.42647058823530    0.02272727272727             8
    0.47916666666666    0.42647058823530    0.02272727272727             8
    0.02083333333334    0.45588235294117    0.02272727272727             8
    0.06250000000000    0.45588235294117    0.02272727272727             8
    0.10416666666666    0.45588235294117    0.02272727272727             8
    0.14583333333334    0.45588235294117    0.02272727272727             8
    0.18750000000000    0.45588235294117    0.02272727272727             8
    0.22916666666666    0.45588235294117    0.02272727272727             8
    0.27083333333334    0.45588235294117    0.02272727272727             8
    0.31250000000000    0.45588235294117    0.02272727272727             8
    0.35416666666666    0.45588235294117    0.02272727272727             8
    0.39583333333334    0.45588235294117    0.02272727272727             8
    0.43750000000000    0.45588235294117    0.02272727272727             8
    0.47916666666666    0.45588235294117    0.02272727272727             8
    0.02083333333334    0.48529411764706    0.02272727272727             8
    0.06250000000000    0.48529411764706    0.02272727272727             8
    0.10416666666666    0.48529411764706    0.02272727272727             8
    0.14583333333334    0.48529411764706    0.02272727272727             8
    0.18750000000000    0.48529411764706    0.02272727272727             8
    0.22916666666666    0.48529411764706    0.02272727272727             8
    0.27083333333334    0.48529411764706    0.02272727272727             8
    0.31250000000000    0.48529411764706    0.02272727272727             8
    0.35416666666666    0.48529411764706    0.02272727272727             8
    0.39583333333334    0.48529411764706    0.02272727272727             8
    0.43750000000000    0.48529411764706    0.02272727272727             8
    0.47916666666666    0.48529411764706    0.02272727272727             8
    0.02083333333334    0.01470588235294    0.06818181818182             8
    0.06250000000000    0.01470588235294    0.06818181818182             8
    0.10416666666666    0.01470588235294    0.06818181818182             8
    0.14583333333334    0.01470588235294    0.06818181818182             8
    0.18750000000000    0.01470588235294    0.06818181818182             8
    0.22916666666666    0.01470588235294    0.06818181818182             8
    0.27083333333334    0.01470588235294    0.06818181818182             8
    0.31250000000000    0.01470588235294    0.06818181818182             8
    0.35416666666666    0.01470588235294    0.06818181818182             8
    0.39583333333334    0.01470588235294    0.06818181818182             8
    0.43750000000000    0.01470588235294    0.06818181818182             8
    0.47916666666666    0.01470588235294    0.06818181818182             8
    0.02083333333334    0.04411764705883    0.06818181818182             8
    0.06250000000000    0.04411764705883    0.06818181818182             8
    0.10416666666666    0.04411764705883    0.06818181818182             8
    0.14583333333334    0.04411764705883    0.06818181818182             8
    0.18750000000000    0.04411764705883    0.06818181818182             8
    0.22916666666666    0.04411764705883    0.06818181818182             8
    0.27083333333334    0.04411764705883    0.06818181818182             8
    0.31250000000000    0.04411764705883    0.06818181818182             8
    0.35416666666666    0.04411764705883    0.06818181818182             8
    0.39583333333334    0.04411764705883    0.06818181818182             8
    0.43750000000000    0.04411764705883    0.06818181818182             8
    0.47916666666666    0.04411764705883    0.06818181818182             8
    0.02083333333334    0.07352941176470    0.06818181818182             8
    0.06250000000000    0.07352941176470    0.06818181818182             8
    0.10416666666666    0.07352941176470    0.06818181818182             8
    0.14583333333334    0.07352941176470    0.06818181818182             8
    0.18750000000000    0.07352941176470    0.06818181818182             8
    0.22916666666666    0.07352941176470    0.06818181818182             8
    0.27083333333334    0.07352941176470    0.06818181818182             8
    0.31250000000000    0.07352941176470    0.06818181818182             8
    0.35416666666666    0.07352941176470    0.06818181818182             8
    0.39583333333334    0.07352941176470    0.06818181818182             8
    0.43750000000000    0.07352941176470    0.06818181818182             8
    0.47916666666666    0.07352941176470    0.06818181818182             8
    0.02083333333334    0.10294117647059    0.06818181818182             8
    0.06250000000000    0.10294117647059    0.06818181818182             8
    0.10416666666666    0.10294117647059    0.06818181818182             8
    0.14583333333334    0.10294117647059    0.06818181818182             8
    0.18750000000000    0.10294117647059    0.06818181818182             8
    0.22916666666666    0.10294117647059    0.06818181818182             8
    0.27083333333334    0.10294117647059    0.06818181818182             8
    0.31250000000000    0.10294117647059    0.06818181818182             8
    0.35416666666666    0.10294117647059    0.06818181818182             8
    0.39583333333334    0.10294117647059    0.06818181818182             8
    0.43750000000000    0.10294117647059    0.06818181818182             8
    0.47916666666666    0.10294117647059    0.06818181818182             8
    0.02083333333334    0.13235294117647    0.06818181818182             8
    0.06250000000000    0.13235294117647    0.06818181818182             8
    0.10416666666666    0.13235294117647    0.06818181818182             8
    0.14583333333334    0.13235294117647    0.06818181818182             8
    0.18750000000000    0.13235294117647    0.06818181818182             8
    0.22916666666666    0.13235294117647    0.06818181818182             8
    0.27083333333334    0.13235294117647    0.06818181818182             8
    0.31250000000000    0.13235294117647    0.06818181818182             8
    0.35416666666666    0.13235294117647    0.06818181818182             8
    0.39583333333334    0.13235294117647    0.06818181818182             8
    0.43750000000000    0.13235294117647    0.06818181818182             8
    0.47916666666666    0.13235294117647    0.06818181818182             8
    0.02083333333334    0.16176470588236    0.06818181818182             8
    0.06250000000000    0.16176470588236    0.06818181818182             8
    0.10416666666666    0.16176470588236    0.06818181818182             8
    0.14583333333334    0.16176470588236    0.06818181818182             8
    0.18750000000000    0.16176470588236    0.06818181818182             8
    0.22916666666666    0.16176470588236    0.06818181818182             8
    0.27083333333334    0.16176470588236    0.06818181818182             8
    0.31250000000000    0.16176470588236    0.06818181818182             8
    0.35416666666666    0.16176470588236    0.06818181818182             8
    0.39583333333334    0.16176470588236    0.06818181818182             8
    0.43750000000000    0.16176470588236    0.06818181818182             8
    0.47916666666666    0.16176470588236    0.06818181818182             8
    0.02083333333334    0.19117647058823    0.06818181818182             8
    0.06250000000000    0.19117647058823    0.06818181818182             8
    0.10416666666666    0.19117647058823    0.06818181818182             8
    0.14583333333334    0.19117647058823    0.06818181818182             8
    0.18750000000000    0.19117647058823    0.06818181818182             8
    0.22916666666666    0.19117647058823    0.06818181818182             8
    0.27083333333334    0.19117647058823    0.06818181818182             8
    0.31250000000000    0.19117647058823    0.06818181818182             8
    0.35416666666666    0.19117647058823    0.06818181818182             8
    0.39583333333334    0.19117647058823    0.06818181818182             8
    0.43750000000000    0.19117647058823    0.06818181818182             8
    0.47916666666666    0.19117647058823    0.06818181818182             8
    0.02083333333334    0.22058823529412    0.06818181818182             8
    0.06250000000000    0.22058823529412    0.06818181818182             8
    0.10416666666666    0.22058823529412    0.06818181818182             8
    0.14583333333334    0.22058823529412    0.06818181818182             8
    0.18750000000000    0.22058823529412    0.06818181818182             8
    0.22916666666666    0.22058823529412    0.06818181818182             8
    0.27083333333334    0.22058823529412    0.06818181818182             8
    0.31250000000000    0.22058823529412    0.06818181818182             8
    0.35416666666666    0.22058823529412    0.06818181818182             8
    0.39583333333334    0.22058823529412    0.06818181818182             8
    0.43750000000000    0.22058823529412    0.06818181818182             8
    0.47916666666666    0.22058823529412    0.06818181818182             8
    0.02083333333334    0.25000000000000    0.06818181818182             8
    0.06250000000000    0.25000000000000    0.06818181818182             8
    0.10416666666666    0.25000000000000    0.06818181818182             8
    0.14583333333334    0.25000000000000    0.06818181818182             8
    0.18750000000000    0.25000000000000    0.06818181818182             8
    0.22916666666666    0.25000000000000    0.06818181818182             8
    0.27083333333334    0.25000000000000    0.06818181818182             8
    0.31250000000000    0.25000000000000    0.06818181818182             8
    0.35416666666666    0.25000000000000    0.06818181818182             8
    0.39583333333334    0.25000000000000    0.06818181818182             8
    0.43750000000000    0.25000000000000    0.06818181818182             8
    0.47916666666666    0.25000000000000    0.06818181818182             8
    0.02083333333334    0.27941176470588    0.06818181818182             8
    0.06250000000000    0.27941176470588    0.06818181818182             8
    0.10416666666666    0.27941176470588    0.06818181818182             8
    0.14583333333334    0.27941176470588    0.06818181818182             8
    0.18750000000000    0.27941176470588    0.06818181818182             8
    0.22916666666666    0.27941176470588    0.06818181818182             8
    0.27083333333334    0.27941176470588    0.06818181818182             8
    0.31250000000000    0.27941176470588    0.06818181818182             8
    0.35416666666666    0.27941176470588    0.06818181818182             8
    0.39583333333334    0.27941176470588    0.06818181818182             8
    0.43750000000000    0.27941176470588    0.06818181818182             8
    0.47916666666666    0.27941176470588    0.06818181818182             8
    0.02083333333334    0.30882352941177    0.06818181818182             8
    0.06250000000000    0.30882352941177    0.06818181818182             8
    0.10416666666666    0.30882352941177    0.06818181818182             8
    0.14583333333334    0.30882352941177    0.06818181818182             8
    0.18750000000000    0.30882352941177    0.06818181818182             8
    0.22916666666666    0.30882352941177    0.06818181818182             8
    0.27083333333334    0.30882352941177    0.06818181818182             8
    0.31250000000000    0.30882352941177    0.06818181818182             8
    0.35416666666666    0.30882352941177    0.06818181818182             8
    0.39583333333334    0.30882352941177    0.06818181818182             8
    0.43750000000000    0.30882352941177    0.06818181818182             8
    0.47916666666666    0.30882352941177    0.06818181818182             8
    0.02083333333334    0.33823529411764    0.06818181818182             8
    0.06250000000000    0.33823529411764    0.06818181818182             8
    0.10416666666666    0.33823529411764    0.06818181818182             8
    0.14583333333334    0.33823529411764    0.06818181818182             8
    0.18750000000000    0.33823529411764    0.06818181818182             8
    0.22916666666666    0.33823529411764    0.06818181818182             8
    0.27083333333334    0.33823529411764    0.06818181818182             8
    0.31250000000000    0.33823529411764    0.06818181818182             8
    0.35416666666666    0.33823529411764    0.06818181818182             8
    0.39583333333334    0.33823529411764    0.06818181818182             8
    0.43750000000000    0.33823529411764    0.06818181818182             8
    0.47916666666666    0.33823529411764    0.06818181818182             8
    0.02083333333334    0.36764705882353    0.06818181818182             8
    0.06250000000000    0.36764705882353    0.06818181818182             8
    0.10416666666666    0.36764705882353    0.06818181818182             8
    0.14583333333334    0.36764705882353    0.06818181818182             8
    0.18750000000000    0.36764705882353    0.06818181818182             8
    0.22916666666666    0.36764705882353    0.06818181818182             8
    0.27083333333334    0.36764705882353    0.06818181818182             8
    0.31250000000000    0.36764705882353    0.06818181818182             8
    0.35416666666666    0.36764705882353    0.06818181818182             8
    0.39583333333334    0.36764705882353    0.06818181818182             8
    0.43750000000000    0.36764705882353    0.06818181818182             8
    0.47916666666666    0.36764705882353    0.06818181818182             8
    0.02083333333334    0.39705882352941    0.06818181818182             8
    0.06250000000000    0.39705882352941    0.06818181818182             8
    0.10416666666666    0.39705882352941    0.06818181818182             8
    0.14583333333334    0.39705882352941    0.06818181818182             8
    0.18750000000000    0.39705882352941    0.06818181818182             8
    0.22916666666666    0.39705882352941    0.06818181818182             8
    0.27083333333334    0.39705882352941    0.06818181818182             8
    0.31250000000000    0.39705882352941    0.06818181818182             8
    0.35416666666666    0.39705882352941    0.06818181818182             8
    0.39583333333334    0.39705882352941    0.06818181818182             8
    0.43750000000000    0.39705882352941    0.06818181818182             8
    0.47916666666666    0.39705882352941    0.06818181818182             8
    0.02083333333334    0.42647058823530    0.06818181818182             8
    0.06250000000000    0.42647058823530    0.06818181818182             8
    0.10416666666666    0.42647058823530    0.06818181818182             8
    0.14583333333334    0.42647058823530    0.06818181818182             8
    0.18750000000000    0.42647058823530    0.06818181818182             8
    0.22916666666666    0.42647058823530    0.06818181818182             8
    0.27083333333334    0.42647058823530    0.06818181818182             8
    0.31250000000000    0.42647058823530    0.06818181818182             8
    0.35416666666666    0.42647058823530    0.06818181818182             8
    0.39583333333334    0.42647058823530    0.06818181818182             8
    0.43750000000000    0.42647058823530    0.06818181818182             8
    0.47916666666666    0.42647058823530    0.06818181818182             8
    0.02083333333334    0.45588235294117    0.06818181818182             8
    0.06250000000000    0.45588235294117    0.06818181818182             8
    0.10416666666666    0.45588235294117    0.06818181818182             8
    0.14583333333334    0.45588235294117    0.06818181818182             8
    0.18750000000000    0.45588235294117    0.06818181818182             8
    0.22916666666666    0.45588235294117    0.06818181818182             8
    0.27083333333334    0.45588235294117    0.06818181818182             8
    0.31250000000000    0.45588235294117    0.06818181818182             8
    0.35416666666666    0.45588235294117    0.06818181818182             8
    0.39583333333334    0.45588235294117    0.06818181818182             8
    0.43750000000000    0.45588235294117    0.06818181818182             8
    0.47916666666666    0.45588235294117    0.06818181818182             8
    0.02083333333334    0.48529411764706    0.06818181818182             8
    0.06250000000000    0.48529411764706    0.06818181818182             8
    0.10416666666666    0.48529411764706    0.06818181818182             8