       N       E                     dE             d eps       ncg     rms          rms(c)
DAV:   1     0.471412292232E+02    0.47141E+02   -0.17016E+04215424   0.688E+02
DAV:   2    -0.931876672322E+02   -0.14033E+03   -0.13225E+03301752   0.145E+02
DAV:   3    -0.975874457178E+02   -0.43998E+01   -0.43791E+01312720   0.231E+01
DAV:   4    -0.976129011027E+02   -0.25455E-01   -0.25454E-01269592   0.200E+00
DAV:   5    -0.976131953343E+02   -0.29423E-03   -0.29423E-03310824   0.208E-01    0.123E+01
DAV:   6    -0.922000071512E+02    0.54132E+01   -0.39552E+00312696   0.657E+00    0.677E+00
DAV:   7    -0.905497897499E+02    0.16502E+01   -0.31957E+00321792   0.583E+00    0.172E+00
DAV:   8    -0.905603987651E+02   -0.10609E-01   -0.22641E-01237264   0.161E+00    0.764E-01
DAV:   9    -0.905751824105E+02   -0.14784E-01   -0.17769E-02304032   0.458E-01    0.206E-01
