   14   14    1    1
  0.1021960E+02  0.5697000E-09  0.4047900E-09  0.6204200E-09  0.5000000E-15
  1.000000000000000E-004
  CAR 
 Kpoints                                 
     42   1053     48
 
  0.2777778E-01  0.0000000E+00  0.0000000E+00  0.2614379E-03
      1        -12.732004   1.000000
      2        -11.579363   1.000000
      3         -8.661983   1.000000
      4         -8.424649   1.000000
      5         -6.074381   1.000000
      6         -5.084906   1.000000
      7         -4.648525   1.000000
      8         -4.321507   1.000000
      9         -3.970010   1.000000
     10         -3.582671   1.000000
     11         -2.418479   1.000000
     12         -2.240110   1.000000
     13         -2.187263   1.000000
     14         -1.066816   1.000000
     15         -0.034143   1.000000
     16          0.000597   1.000000
     17          0.150459   1.000000
     18          0.167585   1.000000
     19          0.560653   1.000000
     20          2.077924   0.000000
     21          2.124213   0.000000
     22          2.209226   0.000000
     23          5.417038   0.000000
     24          5.799587   0.000000
     25          5.808172   0.000000
     26          5.938256   0.000000
     27          6.783393   0.000000
     28          7.590299   0.000000
     29          7.778379   0.000000
     30          8.641182   0.000000
     31          8.768484   0.000000
     32          8.863875   0.000000
     33          9.042327   0.000000
     34         10.035771   0.000000
     35         11.147610   0.000000
     36         11.383834   0.000000
     37         11.740042   0.000000
     38         11.791516   0.000000
     39         11.908492   0.000000
     40         12.359860   0.000000
     41         12.825357   0.000000
     42         13.428893   0.000000
     43         13.560092   0.000000
     44         15.488743   0.000000
     45         15.578338   0.000000
     46         15.994507   0.000000
     47         16.364886   0.000000
     48         16.466337   0.000000
 
  0.8333333E-01  0.0000000E+00  0.0000000E+00  0.2614379E-03
      1        -12.718419   1.000000
      2        -11.602853   1.000000
      3         -8.655627   1.000000
      4         -8.420706   1.000000
      5         -6.047387   1.000000
      6         -5.237805   1.000000
      7         -4.709941   1.000000
      8         -4.135745   1.000000
      9         -3.950977   1.000000
     10         -3.459078   1.000000
     11         -2.412611   1.000000
     12         -2.243902   1.000000
     13         -2.231076   1.000000
     14         -1.167626   1.000000
     15         -0.020600   1.000000
     16          0.022784   1.000000
     17          0.126090   1.000000
     18          0.165823   1.000000
     19          0.529385   1.000000
     20          2.049472   0.000002
     21          2.099047   0.000000
     22          2.172460   0.000000
     23          5.447081   0.000000
     24          5.782551   0.000000
     25          5.800374   0.000000
     26          6.081786   0.000000
     27          6.754592   0.000000
     28          7.383429   0.000000
     29          7.923732   0.000000
     30          8.685463   0.000000
     31          8.886396   0.000000
     32          8.944876   0.000000
     33          9.047680   0.000000
     34         10.076876   0.000000
     35         11.170747   0.000000
     36         11.253488   0.000000
     37         11.529503   0.000000
     38         11.728863   0.000000
     39         11.980647   0.000000
     40         12.386731   0.000000
     41         12.959408   0.000000
     42         13.436817   0.000000
     43         13.649089   0.000000
     44         15.185608   0.000000
     45         15.651879   0.000000
     46         16.186049   0.000000
     47         16.187021   0.000000
     48         16.399714   0.000000
 
  0.1388889E+00  0.0000000E+00  0.0000000E+00  0.2614379E-03
      1        -12.691417   1.000000
      2        -11.648295   1.000000
      3         -8.642585   1.000000
      4         -8.413647   1.000000
      5         -6.006306   1.000000
      6         -5.435314   1.000000
      7         -4.780368   1.000000
      8         -3.913088   1.000000
      9         -3.873629   1.000000
     10         -3.254640   1.000000
     11         -2.400639   1.000000
     12         -2.313906   1.000000
     13         -2.251383   1.000000
     14         -1.356134   1.000000
     15          0.005885   1.000000
     16          0.045134   1.000000
     17          0.063483   1.000000
     18          0.189743   1.000000
     19          0.470775   1.000000
     20          1.995576   0.000937
     21          2.051085   0.000001
     22          2.098797   0.000000
     23          5.500507   0.000000
     24          5.753301   0.000000
     25          5.860061   0.000000
     26          6.288667   0.000000
     27          6.702045   0.000000
     28          7.180662   0.000000
     29          8.034727   0.000000
     30          8.766035   0.000000
     31          9.035681   0.000000
     32          9.084355   0.000000
     33          9.112670   0.000000
     34         10.163198   0.000000
     35         11.012537   0.000000
     36         11.211918   0.000000
     37         11.217485   0.000000
     38         11.681024   0.000000
     39         12.114225   0.000000
     40         12.442234   0.000000
     41         13.107800   0.000000
     42         13.217052   0.000000
     43         13.987809   0.000000
     44         14.892194   0.000000
     45         15.777427   0.000000
     46         15.872443   0.000000
     47         16.310315   0.000000
     48         16.465688   0.000000
 
  0.1944444E+00  0.0000000E+00  0.0000000E+00  0.2614379E-03
      1        -12.651344   1.000000
      2        -11.712830   1.000000
      3         -8.622507   1.000000
      4         -8.405061   1.000000
      5         -5.975217   1.000000
      6         -5.628939   1.000000
      7         -4.804209   1.000000
      8         -3.856698   1.000000
      9         -3.586657   1.000000
     10         -3.007033   1.000000
     11         -2.427764   1.000000
     12         -2.382041   1.000000
     13         -2.262252   1.000000
     14         -1.611363   1.000000
     15         -0.071292   1.000000
     16          0.044049   1.000000
     17          0.116622   1.000000
     18          0.188751   1.000000
     19          0.416312   1.000000
     20          1.922273   0.150058
     21          1.984788   0.002521
     22          1.989179   0.001703
     23          5.566405   0.000000
     24          5.720095   0.000000
     25          5.994414   0.000000
     26          6.542480   0.000000
     27          6.634561   0.000000
     28          6.999312   0.000000
     29          8.126447   0.000000
     30          8.862840   0.000000
     31          9.010821   0.000000
     32          9.320493   0.000000
     33          9.333934   0.000000
     34         10.306698   0.000000
     35         10.690278   0.000000
     36         10.869014   0.000000
     37         11.284401   0.000000
     38         11.702138   0.000000
     39         12.267175   0.000000
     40         12.552265   0.000000
     41         12.932833   0.000000
     42         13.118338   0.000000
     43         14.374355   0.000000
     44         14.749825   0.000000
     45         15.541020   0.000000
     46         15.931686   0.000000
     47         16.271026   0.000000
     48         16.572440   0.000000
 
  0.2500000E+00  0.0000000E+00  0.0000000E+00  0.2614379E-03
      1        -12.598773   1.000000
      2        -11.792756   1.000000
      3         -8.595573   1.000000
      4         -8.397234   1.000000
      5         -5.977240   1.000000
      6         -5.801620   1.000000
      7         -4.744037   1.000000
      8         -3.782381   1.000000
      9         -3.299407   1.000000
     10         -2.740055   1.000000
     11         -2.563787   1.000000
     12         -2.356863   1.000000
     13         -2.275555   1.000000
     14         -1.907483   1.000000
     15         -0.217243   1.000000
     16          0.091784   1.000000
     17          0.093882   1.000000
     18          0.175078   1.000000
     19          0.437000   1.000000
     20          1.838239   0.909986
     21          1.847118   0.862040
     22          1.906216   0.280273
     23          5.632651   0.000000
     24          5.691971   0.000000
     25          6.200109   0.000000
     26          6.562948   0.000000
     27          6.833870   0.000000
     28          6.845864   0.000000
     29          8.207340   0.000000
     30          8.932386   0.000000
     31          8.949642   0.000000
     32          9.572337   0.000000
     33          9.601937   0.000000
     34         10.310703   0.000000
     35         10.525219   0.000000
     36         10.572637   0.000000
     37         11.355971   0.000000
     38         11.806458   0.000000
     39         12.373088   0.000000
     40         12.608819   0.000000
     41         12.763244   0.000000
     42         12.914804   0.000000
     43         14.775696   0.000000
     44         14.803435   0.000000
     45         15.208262   0.000000
     46         16.038405   0.000000
     47         16.098117   0.000000
     48         16.209875   0.000000
 
  0.3055556E+00  0.0000000E+00  0.0000000E+00  0.2614379E-03
      1        -12.534463   1.000000
      2        -11.883917   1.000000
      3         -8.562805   1.000000
      4         -8.392960   1.000000
      5         -6.014669   1.000000
      6         -5.944881   1.000000
      7         -4.592430   1.000000
      8         -3.690930   1.000000
      9         -3.042071   1.000000
     10         -2.713614   1.000000
     11         -2.477292   1.000000
     12         -2.351906   1.000000
     13         -2.284736   1.000000
     14         -2.181892   1.000000
     15         -0.383589   1.000000
     16         -0.076553   1.000000
     17          0.145883   1.000000
     18          0.231291   1.000000
     19          0.521225   1.000000
     20          1.679349   1.000000
     21          1.754105   0.999901
     22          1.822662   0.962564
     23          5.675844   0.000000
     24          5.688111   0.000000
     25          6.469721   0.000000
     26          6.498878   0.000000
     27          6.720212   0.000000
     28          7.155624   0.000000
     29          8.280087   0.000000
     30          8.860760   0.000000
     31          8.896003   0.000000
     32          9.834706   0.000000
     33          9.885675   0.000000
     34          9.898347   0.000000
     35         10.408660   0.000000
     36         10.831645   0.000000
     37         11.401641   0.000000
     38         11.984295   0.000000
     39         12.262207   0.000000
     40         12.444922   0.000000
     41         12.573249   0.000000
     42         13.034292   0.000000
     43         14.895460   0.000000
     44         14.934895   0.000000
     45         15.174025   0.000000
     46         15.700402   0.000000
     47         15.722871   0.000000
     48         16.261769   0.000000
 
  0.3611111E+00  0.0000000E+00  0.0000000E+00  0.2614379E-03
      1        -12.459424   1.000000
      2        -11.982170   1.000000
      3         -8.526271   1.000000
      4         -8.395045   1.000000
      5         -6.069615   1.000000
      6         -6.053425   1.000000
      7         -4.366040   1.000000
      8         -3.583414   1.000000
      9         -2.913601   1.000000
     10         -2.870066   1.000000
     11         -2.512317   1.000000
     12         -2.346568   1.000000
     13         -2.188603   1.000000
     14         -2.182063   1.000000
     15         -0.554059   1.000000
     16         -0.280454   1.000000
     17          0.201698   1.000000
     18          0.277408   1.000000
     19          0.638445   1.000000
     20          1.495183   1.000000
     21          1.681552   1.000000
     22          1.742440   0.999974
     23          5.674653   0.000000
     24          5.723985   0.000000
     25          6.453576   0.000000
     26          6.619452   0.000000
     27          6.793481   0.000000
     28          7.502039   0.000000
     29          8.347144   0.000000
     30          8.692233   0.000000
     31          8.758751   0.000000
     32          9.476556   0.000000
     33         10.107148   0.000000
     34         10.158969   0.000000
     35         10.435734   0.000000
     36         11.220176   0.000000
     37         11.392818   0.000000
     38         11.905649   0.000000
     39         12.177387   0.000000
     40         12.225574   0.000000
     41         12.505437   0.000000
     42         13.268968   0.000000
     43         14.644366   0.000000
     44         15.012604   0.000000
     45         15.196346   0.000000
     46         15.380425   0.000000
     47         15.556100   0.000000
     48         16.399571   0.000000
 
  0.4166667E+00  0.0000000E+00  0.0000000E+00  0.2614379E-03
      1        -12.374970   1.000000
      2        -12.083616   1.000000
      3         -8.488934   1.000000
      4         -8.405678   1.000000
      5         -6.124207   1.000000
      6         -6.121173   1.000000
      7         -4.086363   1.000000
      8         -3.461236   1.000000
      9         -3.110749   1.000000
     10         -3.027281   1.000000
     11         -2.507090   1.000000
     12         -2.362637   1.000000
     13         -2.068982   1.000000
     14         -1.987717   1.000000
     15         -0.695462   1.000000
     16         -0.489855   1.000000
     17          0.252904   1.000000
     18          0.305781   1.000000
     19          0.779559   1.000000
     20          1.304758   1.000000
     21          1.631858   1.000000
     22          1.674708   1.000000
     23          5.686971   0.000000
     24          5.736062   0.000000
     25          6.435193   0.000000
     26          6.540574   0.000000
     27          7.160025   0.000000
     28          7.868638   0.000000
     29          8.358106   0.000000
     30          8.413102   0.000000
     31          8.657227   0.000000
     32          9.058329   0.000000
     33         10.375991   0.000000
     34         10.400551   0.000000
     35         10.617585   0.000000
     36         11.337150   0.000000
     37         11.549950   0.000000
     38         11.652578   0.000000
     39         11.807876   0.000000
     40         12.492733   0.000000
     41         12.514651   0.000000
     42         13.320925   0.000000
     43         14.541193   0.000000
     44         14.835415   0.000000
     45         14.981111   0.000000
     46         15.052719   0.000000
     47         15.907688   0.000000
     48         16.468737   0.000000
 
  0.4722222E+00  0.0000000E+00  0.0000000E+00  0.2614379E-03
      1        -12.282753   1.000000
      2        -12.184806   1.000000
      3         -8.454294   1.000000
      4         -8.425726   1.000000
      5         -6.156754   1.000000
      6         -6.153679   1.000000
      7         -3.771309   1.000000
      8         -3.437216   1.000000
      9         -3.326186   1.000000
     10         -3.180561   1.000000
     11         -2.443018   1.000000
     12         -2.396049   1.000000
     13         -1.937749   1.000000
     14         -1.891337   1.000000
     15         -0.747573   1.000000
     16         -0.666127   1.000000
     17          0.291800   1.000000
     18          0.310885   1.000000
     19          0.940525   1.000000
     20          1.117391   1.000000
     21          1.613440   1.000000
     22          1.628995   1.000000
     23          5.707472   0.000000
     24          5.727444   0.000000
     25          6.445804   0.000000
     26          6.482219   0.000000
     27          7.556009   0.000000
     28          7.964132   0.000000
     29          8.251941   0.000000
     30          8.483961   0.000000
     31          8.564696   0.000000
     32          8.649245   0.000000
     33         10.571816   0.000000
     34         10.574287   0.000000
     35         10.887957   0.000000
     36         11.206074   0.000000
     37         11.316232   0.000000
     38         11.477165   0.000000
     39         12.083451   0.000000
     40         12.388322   0.000000
     41         12.796125   0.000000
     42         13.111038   0.000000
     43         14.619512   0.000000
     44         14.737694   0.000000
     45         14.786642   0.000000
     46         14.857534   0.000000
     47         16.206321   0.000000
     48         16.409468   0.000000
 
  0.2777778E-01  0.4000000E-01  0.0000000E+00  0.5228758E-03
      1        -12.728136   1.000000
      2        -11.575891   1.000000
      3         -8.658945   1.000000
      4         -8.420908   1.000000
      5         -6.070091   1.000000
      6         -5.079101   1.000000
      7         -4.644979   1.000000
      8         -4.334028   1.000000
      9         -4.055948   1.000000
     10         -3.578671   1.000000
     11         -2.631481   1.000000
     12         -2.305251   1.000000
     13         -1.778544   1.000000
     14         -1.066069   1.000000
     15         -0.080868   1.000000
     16         -0.054441   1.000000
     17          0.153319   1.000000
     18          0.193763   1.000000
     19          0.579284   1.000000
     20          2.017603   0.000095
     21          2.080861   0.000000
     22          2.232607   0.000000
     23          5.458939   0.000000
     24          5.749917   0.000000
     25          5.851843   0.000000
     26          5.907440   0.000000
     27          6.833130   0.000000
     28          7.640703   0.000000
     29          7.825514   0.000000
     30          8.499966   0.000000
     31          8.768453   0.000000
     32          8.939145   0.000000
     33          9.052362   0.000000
     34         10.133979   0.000000
     35         11.186633   0.000000
     36         11.370354   0.000000
     37         11.727927   0.000000
     38         11.808337   0.000000
     39         11.925059   0.000000
     40         12.406315   0.000000
     41         12.827235   0.000000
     42         13.376079   0.000000
     43         13.505230   0.000000
     44         15.488262   0.000000
     45         15.544228   0.000000
     46         15.997586   0.000000
     47         16.336659   0.000000
     48         16.410426   0.000000
 
  0.8333333E-01  0.4000000E-01  0.0000000E+00  0.5228758E-03
      1        -12.714549   1.000000
      2        -11.599371   1.000000
      3         -8.652581   1.000000
      4         -8.416988   1.000000
      5         -6.043012   1.000000
      6         -5.232605   1.000000
      7         -4.706477   1.000000
      8         -4.168867   1.000000
      9         -4.016079   1.000000
     10         -3.455261   1.000000
     11         -2.652768   1.000000
     12         -2.299059   1.000000
     13         -1.806019   1.000000
     14         -1.166859   1.000000
     15         -0.067853   1.000000
     16         -0.036734   1.000000
     17          0.157868   1.000000
     18          0.169285   1.000000
     19          0.547895   1.000000
     20          1.989890   0.001596
     21          2.055725   0.000001
     22          2.194831   0.000000
     23          5.489610   0.000000
     24          5.743548   0.000000
     25          5.834910   0.000000
     26          6.048688   0.000000
     27          6.804420   0.000000
     28          7.435169   0.000000
     29          7.969485   0.000000
     30          8.546507   0.000000
     31          8.887965   0.000000
     32          9.019084   0.000000
     33          9.061088   0.000000
     34         10.165249   0.000000
     35         11.208811   0.000000
     36         11.240162   0.000000
     37         11.516738   0.000000
     38         11.746760   0.000000
     39         11.997396   0.000000
     40         12.432769   0.000000
     41         12.961960   0.000000
     42         13.382614   0.000000
     43         13.596488   0.000000
     44         15.198104   0.000000
     45         15.614091   0.000000
     46         16.141125   0.000000
     47         16.167439   0.000000
     48         16.395805   0.000000
 
  0.1388889E+00  0.4000000E-01  0.0000000E+00  0.5228758E-03
      1        -12.687557   1.000000
      2        -11.644798   1.000000
      3         -8.639526   1.000000
      4         -8.409966   1.000000
      5         -6.001757   1.000000
      6         -5.430370   1.000000
      7         -4.777107   1.000000
      8         -4.044970   1.000000
      9         -3.840375   1.000000
     10         -3.251436   1.000000
     11         -2.695628   1.000000
     12         -2.286540   1.000000
     13         -1.854989   1.000000
     14         -1.355281   1.000000
     15         -0.043312   1.000000
     16         -0.021857   1.000000
     17          0.104534   1.000000
     18          0.195630   1.000000
     19          0.488660   1.000000
     20          1.937036   0.073008
     21          2.007831   0.000274
     22          2.119627   0.000000
     23          5.544076   0.000000
     24          5.760605   0.000000
     25          5.849577   0.000000
     26          6.252437   0.000000
     27          6.752046   0.000000
     28          7.235959   0.000000
     29          8.078410   0.000000
     30          8.630543   0.000000
     31          9.064486   0.000000
     32          9.087828   0.000000
     33          9.177369   0.000000
     34         10.231063   0.000000
     35         10.999589   0.000000
     36         11.197744   0.000000
     37         11.253668   0.000000
     38         11.705792   0.000000
     39         12.131423   0.000000
     40         12.487253   0.000000
     41         13.111863   0.000000
     42         13.164074   0.000000
     43         13.928666   0.000000
     44         14.916942   0.000000
     45         15.725273   0.000000
     46         15.881368   0.000000
     47         16.206141   0.000000
     48         16.497560   0.000000
 
  0.1944444E+00  0.4000000E-01  0.0000000E+00  0.5228758E-03
      1        -12.647506   1.000000
      2        -11.709318   1.000000
      3         -8.619432   1.000000
      4         -8.401427   1.000000
      5         -5.970413   1.000000
      6         -5.624049   1.000000
      7         -4.801245   1.000000
      8         -3.978039   1.000000
      9         -3.564571   1.000000
     10         -3.007364   1.000000
     11         -2.757866   1.000000
     12         -2.267450   1.000000
     13         -1.916311   1.000000
     14         -1.610329   1.000000
     15         -0.084517   1.000000
     16         -0.011623   1.000000
     17          0.105810   1.000000
     18          0.205714   1.000000
     19          0.429455   1.000000
     20          1.864118   0.728631
     21          1.941642   0.056593
     22          2.008977   0.000243
     23          5.611039   0.000000
     24          5.744037   0.000000
     25          5.968116   0.000000
     26          6.500291   0.000000
     27          6.684816   0.000000
     28          7.062183   0.000000
     29          8.168416   0.000000
     30          8.730492   0.000000
     31          9.050164   0.000000
     32          9.325251   0.000000
     33          9.398451   0.000000
     34         10.339288   0.000000
     35         10.680671   0.000000
     36         10.858816   0.000000
     37         11.317501   0.000000
     38         11.736672   0.000000
     39         12.287429   0.000000
     40         12.592659   0.000000
     41         12.882614   0.000000
     42         13.123882   0.000000
     43         14.290707   0.000000
     44         14.802666   0.000000
     45         15.548776   0.000000
     46         15.880763   0.000000
     47         16.170791   0.000000
     48         16.571446   0.000000
 
  0.2500000E+00  0.4000000E-01  0.0000000E+00  0.5228758E-03
      1        -12.594952   1.000000
      2        -11.789215   1.000000
      3         -8.592474   1.000000
      4         -8.393672   1.000000
      5         -5.972203   1.000000
      6         -5.796699   1.000000
      7         -4.741362   1.000000
      8         -3.904056   1.000000
      9         -3.277107   1.000000
     10         -2.868740   1.000000
     11         -2.715914   1.000000
     12         -2.242750   1.000000
     13         -1.981380   1.000000
     14         -1.905899   1.000000
     15         -0.218260   1.000000
     16          0.004552   1.000000
     17          0.150305   1.000000
     18          0.153689   1.000000
     19          0.442183   1.000000
     20          1.776919   0.998948
     21          1.863224   0.736947
     22          1.869372   0.677271
     23          5.677936   0.000000
     24          5.720172   0.000000
     25          6.170504   0.000000
     26          6.613590   0.000000
     27          6.755205   0.000000
     28          6.947152   0.000000
     29          8.247905   0.000000
     30          8.802620   0.000000
     31          9.006813   0.000000
     32          9.577851   0.000000
     33          9.660235   0.000000
     34         10.275637   0.000000
     35         10.480831   0.000000
     36         10.636920   0.000000
     37         11.383960   0.000000
     38         11.850791   0.000000
     39         12.399722   0.000000
     40         12.557119   0.000000
     41         12.801821   0.000000
     42         12.921099   0.000000
     43         14.619143   0.000000
     44         14.933421   0.000000
     45         15.230106   0.000000
     46         15.965240   0.000000
     47         15.993109   0.000000
     48         16.303939   0.000000
 
  0.3055556E+00  0.4000000E-01  0.0000000E+00  0.5228758E-03
      1        -12.530664   1.000000
      2        -11.880349   1.000000
      3         -8.559691   1.000000
      4         -8.389475   1.000000
      5         -6.009489   1.000000
      6         -5.939896   1.000000
      7         -4.589965   1.000000
      8         -3.816459   1.000000
      9         -3.015340   1.000000
     10         -2.966491   1.000000
     11         -2.452998   1.000000
     12         -2.270040   1.000000
     13         -2.148823   1.000000
     14         -2.044554   1.000000
     15         -0.380531   1.000000
     16         -0.095797   1.000000
     17          0.137102   1.000000
     18          0.207058   1.000000
     19          0.523754   1.000000
     20          1.664260   1.000000
     21          1.729467   0.999995
     22          1.779843   0.998616
     23          5.706374   0.000000
     24          5.733209   0.000000
     25          6.439042   0.000000
     26          6.550122   0.000000
     27          6.755361   0.000000
     28          7.144862   0.000000
     29          8.319181   0.000000
     30          8.786618   0.000000
     31          8.921943   0.000000
     32          9.840869   0.000000
     33          9.852707   0.000000
     34          9.946373   0.000000
     35         10.370876   0.000000
     36         10.862305   0.000000
     37         11.420989   0.000000
     38         12.036155   0.000000
     39         12.216178   0.000000
     40         12.477573   0.000000
     41         12.580518   0.000000
     42         13.068328   0.000000
     43         14.859587   0.000000
     44         14.925917   0.000000
     45         15.221184   0.000000
     46         15.646339   0.000000
     47         15.719410   0.000000
     48         16.285430   0.000000
 
  0.3611111E+00  0.4000000E-01  0.0000000E+00  0.5228758E-03
      1        -12.455651   1.000000
      2        -11.978563   1.000000
      3         -8.523138   1.000000
      4         -8.391651   1.000000
      5         -6.064386   1.000000
      6         -6.048370   1.000000
      7         -4.363740   1.000000
      8         -3.715325   1.000000
      9         -3.086904   1.000000
     10         -2.893347   1.000000
     11         -2.457525   1.000000
     12         -2.200469   1.000000
     13         -2.115962   1.000000
     14         -2.101070   1.000000
     15         -0.549105   1.000000
     16         -0.285712   1.000000
     17          0.180136   1.000000
     18          0.252045   1.000000
     19          0.640231   1.000000
     20          1.494360   1.000000
     21          1.642089   1.000000
     22          1.699760   1.000000
     23          5.707205   0.000000
     24          5.767862   0.000000
     25          6.505670   0.000000
     26          6.666166   0.000000
     27          6.762492   0.000000
     28          7.480856   0.000000
     29          8.384470   0.000000
     30          8.634167   0.000000
     31          8.790372   0.000000
     32          9.447043   0.000000
     33         10.114188   0.000000
     34         10.166058   0.000000
     35         10.422712   0.000000
     36         11.234695   0.000000
     37         11.396683   0.000000
     38         11.872076   0.000000
     39         12.185295   0.000000
     40         12.282737   0.000000
     41         12.540116   0.000000
     42         13.303814   0.000000
     43         14.678881   0.000000
     44         14.986159   0.000000
     45         15.168253   0.000000
     46         15.331536   0.000000
     47         15.626742   0.000000
     48         16.400938   0.000000
 
  0.4166667E+00  0.4000000E-01  0.0000000E+00  0.5228758E-03
      1        -12.371230   1.000000
      2        -12.079975   1.000000
      3         -8.485774   1.000000
      4         -8.402360   1.000000
      5         -6.119083   1.000000
      6         -6.115936   1.000000
      7         -4.084205   1.000000
      8         -3.602225   1.000000