  14  14   0   0
  0.1021318E+02  0.5700971E-09  0.4044058E-09  0.6201871E-09  0.5000000E-15
  1.000000000000000E-004
  CAR 
 SC                                      
     17.97120339    -14.15824186  301      1.91488859      1.00000000
    -14.158  0.0000E+00  0.0000E+00
    -14.051  0.0000E+00  0.0000E+00
    -13.944  0.0000E+00  0.0000E+00
    -13.837  0.0000E+00  0.0000E+00
    -13.730  0.0000E+00  0.0000E+00
    -13.623  0.0000E+00  0.0000E+00
    -13.516  0.0000E+00  0.0000E+00
    -13.409  0.0000E+00  0.0000E+00
    -13.301  0.0000E+00  0.0000E+00
    -13.194  0.6117E-13  0.6551E-14
    -13.087  0.1372E-08  0.1469E-09
    -12.980  0.3611E-05  0.3869E-06
    -12.873  0.1224E-02  0.1315E-03
    -12.766  0.6330E-01  0.6910E-02
    -12.659  0.6663E+00  0.7827E-01
    -12.552  0.2130E+01  0.3064E+00
    -12.445  0.3408E+01  0.6714E+00
    -12.338  0.4012E+01  0.1101E+01
    -12.230  0.3573E+01  0.1484E+01
    -12.123  0.2913E+01  0.1796E+01
    -12.016  0.2621E+01  0.2077E+01
    -11.909  0.2551E+01  0.2350E+01
    -11.802  0.2680E+01  0.2637E+01
    -11.695  0.3089E+01  0.2968E+01
    -11.588  0.3424E+01  0.3334E+01
    -11.481  0.3115E+01  0.3668E+01
    -11.374  0.2074E+01  0.3890E+01
    -11.267  0.8582E+00  0.3982E+01
    -11.159  0.1598E+00  0.3999E+01
    -11.052  0.8035E-02  0.4000E+01
    -10.945  0.7210E-04  0.4000E+01
    -10.838  0.9052E-07  0.4000E+01
    -10.731  0.1396E-10  0.4000E+01
    -10.624  0.2421E-15  0.4000E+01
    -10.517  0.0000E+00  0.4000E+01
    -10.410  0.0000E+00  0.4000E+01
    -10.303  0.0000E+00  0.4000E+01
    -10.196  0.0000E+00  0.4000E+01
    -10.089  0.0000E+00  0.4000E+01
     -9.981  0.0000E+00  0.4000E+01
     -9.874  0.0000E+00  0.4000E+01
     -9.767  0.0000E+00  0.4000E+01
     -9.660  0.0000E+00  0.4000E+01
     -9.553  0.0000E+00  0.4000E+01
     -9.446  0.0000E+00  0.4000E+01
     -9.339  0.1398E-13  0.4000E+01
     -9.232  0.4258E-09  0.4000E+01
     -9.125  0.1508E-05  0.4000E+01
     -9.018  0.6738E-03  0.4000E+01
     -8.910  0.4439E-01  0.4005E+01
     -8.803  0.5780E+00  0.4067E+01
     -8.696  0.2424E+01  0.4326E+01
     -8.589  0.5109E+01  0.4873E+01
     -8.482  0.6344E+01  0.5553E+01
     -8.375  0.5506E+01  0.6143E+01
     -8.268  0.4791E+01  0.6656E+01
     -8.161  0.4658E+01  0.7155E+01
     -8.054  0.3987E+01  0.7582E+01
     -7.947  0.2454E+01  0.7844E+01
     -7.839  0.1080E+01  0.7960E+01
     -7.732  0.3291E+00  0.7995E+01
     -7.625  0.4187E-01  0.8000E+01
     -7.518  0.1263E-02  0.8000E+01
     -7.411  0.6257E-05  0.8000E+01
     -7.304  0.1596E-07  0.8000E+01
     -7.197  0.1048E-04  0.8000E+01
     -7.090  0.1266E-02  0.8000E+01
     -6.983  0.2629E-01  0.8003E+01
     -6.876  0.1363E+00  0.8018E+01
     -6.768  0.3050E+00  0.8050E+01
     -6.661  0.4963E+00  0.8103E+01
     -6.554  0.7078E+00  0.8179E+01
     -6.447  0.9767E+00  0.8284E+01
     -6.340  0.1477E+01  0.8442E+01
     -6.233  0.2219E+01  0.8680E+01
     -6.126  0.3156E+01  0.9018E+01
     -6.019  0.3833E+01  0.9428E+01
     -5.912  0.4015E+01  0.9858E+01
     -5.805  0.4086E+01  0.1030E+02
     -5.697  0.4111E+01  0.1074E+02
     -5.590  0.4058E+01  0.1117E+02
     -5.483  0.4230E+01  0.1162E+02
     -5.376  0.4567E+01  0.1211E+02
     -5.269  0.4644E+01  0.1261E+02
     -5.162  0.4274E+01  0.1307E+02
     -5.055  0.3780E+01  0.1347E+02
     -4.948  0.3112E+01  0.1381E+02
     -4.841  0.2581E+01  0.1408E+02
     -4.734  0.2740E+01  0.1438E+02
     -4.627  0.3268E+01  0.1473E+02
     -4.519  0.3515E+01  0.1510E+02
     -4.412  0.3318E+01  0.1546E+02
     -4.305  0.3032E+01  0.1578E+02
     -4.198  0.2924E+01  0.1610E+02
     -4.091  0.2895E+01  0.1641E+02
     -3.984  0.2962E+01  0.1672E+02
     -3.877  0.2982E+01  0.1704E+02
     -3.770  0.3010E+01  0.1736E+02
     -3.663  0.2924E+01  0.1768E+02
     -3.556  0.2812E+01  0.1798E+02
     -3.448  0.2719E+01  0.1827E+02
     -3.341  0.2651E+01  0.1855E+02
     -3.234  0.2670E+01  0.1884E+02
     -3.127  0.2767E+01  0.1914E+02
     -3.020  0.2929E+01  0.1945E+02
     -2.913  0.2991E+01  0.1977E+02
     -2.806  0.2653E+01  0.2005E+02
     -2.699  0.2354E+01  0.2031E+02
     -2.592  0.2469E+01  0.2057E+02
     -2.485  0.2902E+01  0.2088E+02
     -2.377  0.3312E+01  0.2124E+02
     -2.270  0.3633E+01  0.2163E+02
     -2.163  0.3600E+01  0.2201E+02
     -2.056  0.3475E+01  0.2238E+02
     -1.949  0.3976E+01  0.2281E+02
     -1.842  0.4577E+01  0.2330E+02
     -1.735  0.5606E+01  0.2390E+02
     -1.628  0.5921E+01  0.2453E+02
     -1.521  0.6242E+01  0.2520E+02
     -1.414  0.6159E+01  0.2586E+02
     -1.306  0.5553E+01  0.2646E+02
     -1.199  0.5227E+01  0.2702E+02
     -1.092  0.5100E+01  0.2756E+02
     -0.985  0.4177E+01  0.2801E+02
     -0.878  0.2982E+01  0.2833E+02
     -0.771  0.2876E+01  0.2864E+02
     -0.664  0.3839E+01  0.2905E+02
     -0.557  0.4902E+01  0.2957E+02
     -0.450  0.5634E+01  0.3018E+02
     -0.343  0.6066E+01  0.3083E+02
     -0.235  0.6245E+01  0.3150E+02
     -0.128  0.6447E+01  0.3219E+02
     -0.021  0.6641E+01  0.3290E+02
      0.086  0.7029E+01  0.3365E+02
      0.193  0.8601E+01  0.3457E+02
      0.300  0.8762E+01  0.3551E+02
      0.407  0.7890E+01  0.3635E+02
      0.514  0.6085E+01  0.3701E+02
      0.621  0.4251E+01  0.3746E+02
      0.728  0.3372E+01  0.3782E+02
      0.835  0.3150E+01  0.3816E+02
      0.943  0.3289E+01  0.3851E+02
      1.050  0.3599E+01  0.3890E+02
      1.157  0.3616E+01  0.3928E+02
      1.264  0.3657E+01  0.3968E+02
      1.371  0.3704E+01  0.4007E+02
      1.478  0.3757E+01  0.4048E+02
      1.585  0.3895E+01  0.4089E+02
      1.692  0.3713E+01  0.4129E+02
      1.799  0.3356E+01  0.4165E+02
      1.906  0.3049E+01  0.4198E+02
      2.014  0.2696E+01  0.4226E+02
      2.121  0.2590E+01  0.4254E+02
      2.228  0.2448E+01  0.4280E+02
      2.335  0.2050E+01  0.4302E+02
      2.442  0.1648E+01  0.4320E+02
      2.549  0.1212E+01  0.4333E+02
      2.656  0.7848E+00  0.4341E+02
      2.763  0.6122E+00  0.4348E+02
      2.870  0.6123E+00  0.4355E+02
      2.977  0.5504E+00  0.4360E+02
      3.085  0.4649E+00  0.4365E+02
      3.192  0.4735E+00  0.4370E+02
      3.299  0.4496E+00  0.4375E+02
      3.406  0.3769E+00  0.4379E+02
      3.513  0.3676E+00  0.4383E+02
      3.620  0.3568E+00  0.4387E+02
      3.727  0.3011E+00  0.4390E+02
      3.834  0.2823E+00  0.4393E+02
      3.941  0.2652E+00  0.4396E+02
      4.048  0.2079E+00  0.4398E+02
      4.156  0.1232E+00  0.4400E+02
      4.263  0.6873E-01  0.4400E+02
      4.370  0.1806E+00  0.4402E+02
      4.477  0.3423E+00  0.4406E+02
      4.584  0.5202E+00  0.4412E+02
      4.691  0.7121E+00  0.4419E+02
      4.798  0.8299E+00  0.4428E+02
      4.905  0.9257E+00  0.4438E+02
      5.012  0.1033E+01  0.4449E+02
      5.119  0.1187E+01  0.4462E+02
      5.227  0.1377E+01  0.4477E+02
      5.334  0.1682E+01  0.4495E+02
      5.441  0.2074E+01  0.4517E+02
      5.548  0.2571E+01  0.4544E+02
      5.655  0.2925E+01  0.4576E+02
      5.762  0.3193E+01  0.4610E+02
      5.869  0.3658E+01  0.4649E+02
      5.976  0.4320E+01  0.4695E+02
      6.083  0.4617E+01  0.4745E+02
      6.190  0.4504E+01  0.4793E+02
      6.298  0.4263E+01  0.4839E+02
      6.405  0.4126E+01  0.4883E+02
      6.512  0.4082E+01  0.4927E+02
      6.619  0.3725E+01  0.4966E+02
      6.726  0.3578E+01  0.5005E+02
      6.833  0.3971E+01  0.5047E+02
      6.940  0.4349E+01  0.5094E+02
      7.047  0.4624E+01  0.5143E+02
      7.154  0.4828E+01  0.5195E+02
      7.261  0.4876E+01  0.5247E+02
      7.368  0.4650E+01  0.5297E+02
      7.476  0.4425E+01  0.5345E+02
      7.583  0.4205E+01  0.5390E+02
      7.690  0.3724E+01  0.5429E+02
      7.797  0.3253E+01  0.5464E+02
      7.904  0.3234E+01  0.5499E+02
      8.011  0.3351E+01  0.5535E+02
      8.118  0.3523E+01  0.5573E+02
      8.225  0.3843E+01  0.5614E+02
      8.332  0.4032E+01  0.5657E+02
      8.439  0.4070E+01  0.5700E+02
      8.547  0.4003E+01  0.5743E+02
      8.654  0.3963E+01  0.5786E+02
      8.761  0.4355E+01  0.5832E+02
      8.868  0.4950E+01  0.5885E+02
      8.975  0.5297E+01  0.5942E+02
      9.082  0.5303E+01  0.5999E+02
      9.189  0.5337E+01  0.6056E+02
      9.296  0.5246E+01  0.6112E+02
      9.403  0.4929E+01  0.6165E+02
      9.510  0.4774E+01  0.6216E+02
      9.618  0.4884E+01  0.6269E+02
      9.725  0.5106E+01  0.6323E+02
      9.832  0.5264E+01  0.6380E+02
      9.939  0.5079E+01  0.6434E+02
     10.046  0.4346E+01  0.6481E+02
     10.153  0.4161E+01  0.6525E+02
     10.260  0.4545E+01  0.6574E+02
     10.367  0.5029E+01  0.6628E+02
     10.474  0.5320E+01  0.6685E+02
     10.581  0.4906E+01  0.6737E+02
     10.689  0.4299E+01  0.6783E+02
     10.796  0.3923E+01  0.6825E+02
     10.903  0.3594E+01  0.6864E+02
     11.010  0.4180E+01  0.6908E+02
     11.117  0.5190E+01  0.6964E+02
     11.224  0.5586E+01  0.7024E+02
     11.331  0.5613E+01  0.7084E+02
     11.438  0.5239E+01  0.7140E+02
     11.545  0.4927E+01  0.7193E+02
     11.652  0.4907E+01  0.7245E+02
     11.760  0.5001E+01  0.7299E+02
     11.867  0.5225E+01  0.7355E+02
     11.974  0.5670E+01  0.7416E+02
     12.081  0.5803E+01  0.7478E+02
     12.188  0.5687E+01  0.7539E+02
     12.295  0.5467E+01  0.7597E+02
     12.402  0.5613E+01  0.7657E+02
     12.509  0.5899E+01  0.7721E+02
     12.616  0.6041E+01  0.7785E+02
     12.723  0.5862E+01  0.7848E+02
     12.830  0.5628E+01  0.7908E+02
     12.938  0.5547E+01  0.7968E+02
     13.045  0.5817E+01  0.8030E+02
     13.152  0.6005E+01  0.8094E+02
     13.259  0.5969E+01  0.8158E+02
     13.366  0.5656E+01  0.8219E+02
     13.473  0.5655E+01  0.8279E+02
     13.580  0.5725E+01  0.8341E+02
     13.687  0.5676E+01  0.8401E+02
     13.794  0.5721E+01  0.8463E+02
     13.901  0.5626E+01  0.8523E+02
     14.009  0.5470E+01  0.8582E+02
     14.116  0.5188E+01  0.8637E+02
     14.223  0.5184E+01  0.8693E+02
     14.330  0.5075E+01  0.8747E+02
     14.437  0.4962E+01  0.8800E+02
     14.544  0.5145E+01  0.8855E+02
     14.651  0.5097E+01  0.8910E+02
     14.758  0.4563E+01  0.8959E+02
     14.865  0.4460E+01  0.9006E+02
     14.972  0.5095E+01  0.9061E+02
     15.080  0.5825E+01  0.9123E+02
     15.187  0.5945E+01  0.9187E+02
     15.294  0.5766E+01  0.9249E+02
     15.401  0.6006E+01  0.9313E+02
     15.508  0.6233E+01  0.9380E+02
     15.615  0.5494E+01  0.9439E+02
     15.722  0.4200E+01  0.9484E+02
     15.829  0.3095E+01  0.9517E+02
     15.936  0.2286E+01  0.9541E+02
     16.043  0.1671E+01  0.9559E+02
     16.151  0.1203E+01  0.9572E+02
     16.258  0.9920E+00  0.9583E+02
     16.365  0.8539E+00  0.9592E+02
     16.472  0.5479E+00  0.9598E+02
     16.579  0.1850E+00  0.9600E+02
     16.686  0.1968E-01  0.9600E+02
     16.793  0.4294E-03  0.9600E+02
     16.900  0.1451E-05  0.9600E+02
     17.007  0.6356E-09  0.9600E+02
     17.114  0.3252E-13  0.9600E+02
     17.222  0.0000E+00  0.9600E+02
     17.329  0.0000E+00  0.9600E+02
     17.436  0.0000E+00  0.9600E+02
     17.543  0.0000E+00  0.9600E+02
     17.650  0.0000E+00  0.9600E+02
     17.757  0.0000E+00  0.9600E+02
     17.864  0.0000E+00  0.9600E+02
     17.971  0.0000E+00  0.9600E+02
