   14   14    1    1
  0.1021318E+02  0.5700971E-09  0.4044058E-09  0.6201871E-09  0.5000000E-15
  1.000000000000000E-004
  CAR 
 SC                                      
     42   2244     48
 
  0.2083333E-01  0.1470588E-01  0.2272727E-01  0.4456328E-03
      1        -12.697813   1.000000
      2        -11.520398   1.000000
      3         -8.658509   1.000000
      4         -8.364559   1.000000
      5         -6.057232   1.000000
      6         -5.116725   1.000000
      7         -4.671898   1.000000
      8         -4.354598   1.000000
      9         -3.946487   1.000000
     10         -3.512147   1.000000
     11         -2.388024   1.000000
     12         -2.333323   1.000000
     13         -1.999018   1.000000
     14         -1.074967   1.000000
     15         -0.035794   1.000000
     16          0.025703   1.000000
     17          0.039963   1.000000
     18          0.083826   1.000000
     19          0.662201   1.000000
     20          2.105789   0.003470
     21          2.140458   0.000711
     22          2.261115   0.000000
     23          5.512106   0.000000
     24          5.713218   0.000000
     25          5.748134   0.000000
     26          5.975278   0.000000
     27          6.735208   0.000000
     28          7.638917   0.000000
     29          7.782636   0.000000
     30          8.606473   0.000000
     31          8.832068   0.000000
     32          8.912208   0.000000
     33          9.056268   0.000000
     34         10.046413   0.000000
     35         11.199617   0.000000
     36         11.393233   0.000000
     37         11.520815   0.000000
     38         11.740820   0.000000
     39         11.962473   0.000000
     40         12.305327   0.000000
     41         12.939270   0.000000
     42         13.344199   0.000000
     43         13.531133   0.000000
     44         15.525187   0.000000
     45         15.529172   0.000000
     46         15.934880   0.000000
     47         16.309874   0.000000
     48         16.462862   0.000000
 
  0.6250000E-01  0.1470588E-01  0.2272727E-01  0.4456328E-03
      1        -12.690076   1.000000
      2        -11.534141   1.000000
      3         -8.654261   1.000000
      4         -8.362118   1.000000
      5         -6.041974   1.000000
      6         -5.206854   1.000000
      7         -4.712209   1.000000
      8         -4.241434   1.000000
      9         -3.935277   1.000000
     10         -3.441878   1.000000
     11         -2.384774   1.000000
     12         -2.343421   1.000000
     13         -2.017355   1.000000
     14         -1.132193   1.000000
     15         -0.035241   1.000000
     16          0.011370   1.000000
     17          0.053340   1.000000
     18          0.093948   1.000000
     19          0.644157   1.000000
     20          2.081294   0.009303
     21          2.132537   0.001042
     22          2.239029   0.000002
     23          5.526133   0.000000
     24          5.713232   0.000000
     25          5.749811   0.000000
     26          6.043737   0.000000
     27          6.719680   0.000000
     28          7.486171   0.000000
     29          7.903806   0.000000
     30          8.632972   0.000000
     31          8.884517   0.000000
     32          8.963577   0.000000
     33          9.066680   0.000000
     34         10.060187   0.000000
     35         11.212247   0.000000
     36         11.317853   0.000000
     37         11.508414   0.000000
     38         11.610283   0.000000
     39         12.002831   0.000000
     40         12.321173   0.000000
     41         13.005105   0.000000
     42         13.432188   0.000000
     43         13.508480   0.000000
     44         15.307319   0.000000
     45         15.571134   0.000000
     46         16.080374   0.000000
     47         16.277975   0.000000
     48         16.335379   0.000000
 
  0.1041667E+00  0.1470588E-01  0.2272727E-01  0.4456328E-03
      1        -12.674656   1.000000
      2        -11.561084   1.000000
      3         -8.645654   1.000000
      4         -8.357559   1.000000
      5         -6.015862   1.000000
      6         -5.339943   1.000000
      7         -4.768828   1.000000
      8         -4.069164   1.000000
      9         -3.911840   1.000000
     10         -3.316466   1.000000
     11         -2.378221   1.000000
     12         -2.365308   1.000000
     13         -2.050448   1.000000
     14         -1.242283   1.000000
     15         -0.062031   1.000000
     16          0.012326   1.000000
     17          0.077981   1.000000
     18          0.112304   1.000000
     19          0.608096   1.000000
     20          2.039527   0.038980
     21          2.111228   0.002746
     22          2.194940   0.000037
     23          5.551199   0.000000
     24          5.708537   0.000000
     25          5.776760   0.000000
     26          6.162517   0.000000
     27          6.690185   0.000000
     28          7.331891   0.000000
     29          8.003506   0.000000
     30          8.683368   0.000000
     31          8.980743   0.000000
     32          9.036797   0.000000
     33          9.108628   0.000000
     34         10.090605   0.000000
     35         11.172931   0.000000
     36         11.238460   0.000000
     37         11.397002   0.000000
     38         11.500740   0.000000
     39         12.080757   0.000000
     40         12.352462   0.000000
     41         13.108038   0.000000
     42         13.320372   0.000000
     43         13.713629   0.000000
     44         15.058983   0.000000
     45         15.647580   0.000000
     46         16.056243   0.000000
     47         16.202592   0.000000
     48         16.385300   0.000000
 
  0.1458333E+00  0.1470588E-01  0.2272727E-01  0.4456328E-03
      1        -12.651662   1.000000
      2        -11.600217   1.000000
      3         -8.632549   1.000000
      4         -8.351522   1.000000
      5         -5.987846   1.000000
      6         -5.483155   1.000000
      7         -4.817195   1.000000
      8         -3.901357   1.000000
      9         -3.845840   1.000000
     10         -3.153904   1.000000
     11         -2.402209   1.000000
     12         -2.368226   1.000000
     13         -2.091804   1.000000
     14         -1.397652   1.000000
     15         -0.122622   1.000000
     16          0.034109   1.000000
     17          0.112338   1.000000
     18          0.136031   1.000000
     19          0.556040   1.000000
     20          1.985069   0.160476
     21          2.075163   0.011707
     22          2.129471   0.001204
     23          5.580738   0.000000
     24          5.700436   0.000000
     25          5.843865   0.000000
     26          6.317687   0.000000
     27          6.649677   0.000000
     28          7.185174   0.000000
     29          8.085369   0.000000
     30          8.752073   0.000000
     31          9.051950   0.000000
     32          9.115285   0.000000
     33          9.239205   0.000000
     34         10.144700   0.000000
     35         10.969791   0.000000
     36         11.146365   0.000000
     37         11.277622   0.000000
     38         11.518038   0.000000
     39         12.184693   0.000000
     40         12.404484   0.000000
     41         13.144173   0.000000
     42         13.197925   0.000000
     43         13.982081   0.000000
     44         14.846944   0.000000
     45         15.746369   0.000000
     46         15.823618   0.000000
     47         16.252597   0.000000
     48         16.452480   0.000000
 
  0.1875000E+00  0.1470588E-01  0.2272727E-01  0.4456328E-03
      1        -12.621256   1.000000
      2        -11.650130   1.000000
      3         -8.614861   1.000000
      4         -8.344922   1.000000
      5         -5.970378   1.000000
      6         -5.621275   1.000000
      7         -4.835003   1.000000
      8         -3.845407   1.000000
      9         -3.645352   1.000000
     10         -2.968187   1.000000
     11         -2.457435   1.000000
     12         -2.354596   1.000000
     13         -2.133943   1.000000
     14         -1.588900   1.000000
     15         -0.204849   1.000000
     16          0.064526   1.000000
     17          0.145803   1.000000
     18          0.164006   1.000000
     19          0.497015   1.000000
     20          1.921604   0.462170
     21          2.022348   0.064292
     22          2.047008   0.030850
     23          5.603382   0.000000
     24          5.701969   0.000000
     25          5.951627   0.000000
     26          6.500992   0.000000
     27          6.602232   0.000000
     28          7.051718   0.000000
     29          8.154763   0.000000
     30          8.828808   0.000000
     31          9.038464   0.000000
     32          9.275663   0.000000
     33          9.412178   0.000000
     34         10.233239   0.000000
     35         10.719365   0.000000
     36         10.889994   0.000000
     37         11.328620   0.000000
     38         11.573051   0.000000
     39         12.280863   0.000000
     40         12.502298   0.000000
     41         12.932870   0.000000
     42         13.211419   0.000000
     43         14.272243   0.000000
     44         14.727239   0.000000
     45         15.576057   0.000000
     46         15.864318   0.000000
     47         16.208109   0.000000
     48         16.484328   0.000000
 
  0.2291667E+00  0.1470588E-01  0.2272727E-01  0.4456328E-03
      1        -12.583675   1.000000
      2        -11.709157   1.000000
      3         -8.592713   1.000000
      4         -8.338907   1.000000
      5         -5.975043   1.000000
      6         -5.746478   1.000000
      7         -4.805503   1.000000
      8         -3.791559   1.000000
      9         -3.429884   1.000000
     10         -2.770050   1.000000
     11         -2.531292   1.000000
     12         -2.337213   1.000000
     13         -2.171668   1.000000
     14         -1.805383   1.000000
     15         -0.304111   1.000000
     16          0.096197   1.000000
     17          0.142807   1.000000
     18          0.207902   1.000000
     19          0.456371   1.000000
     20          1.852917   0.809596
     21          1.929829   0.416329
     22          1.975016   0.197571
     23          5.610824   0.000000
     24          5.720787   0.000000
     25          6.098743   0.000000
     26          6.552521   0.000000
     27          6.705789   0.000000
     28          6.935515   0.000000
     29          8.215351   0.000000
     30          8.893607   0.000000
     31          9.003667   0.000000
     32          9.454596   0.000000
     33          9.607149   0.000000
     34         10.362701   0.000000
     35         10.437942   0.000000
     36         10.655375   0.000000
     37         11.385017   0.000000
     38         11.669066   0.000000
     39         12.339168   0.000000
     40         12.662994   0.000000
     41         12.699785   0.000000
     42         13.108130   0.000000
     43         14.562287   0.000000
     44         14.735160   0.000000
     45         15.330613   0.000000
     46         15.982189   0.000000
     47         16.067875   0.000000
     48         16.305078   0.000000
 
  0.2708333E+00  0.1470588E-01  0.2272727E-01  0.4456328E-03
      1        -12.539208   1.000000
      2        -11.775487   1.000000
      3         -8.566482   1.000000
      4         -8.334800   1.000000
      5         -6.005502   1.000000
      6         -5.854309   1.000000
      7         -4.722317   1.000000
      8         -3.728892   1.000000
      9         -3.220576   1.000000
     10         -2.633240   1.000000
     11         -2.555971   1.000000
     12         -2.318337   1.000000
     13         -2.203746   1.000000
     14         -2.031414   1.000000
     15         -0.416520   1.000000
     16          0.057549   1.000000
     17          0.152349   1.000000
     18          0.255791   1.000000
     19          0.465432   1.000000
     20          1.781799   0.970093
     21          1.810133   0.930760
     22          1.908640   0.535208
     23          5.611340   0.000000
     24          5.746660   0.000000
     25          6.282685   0.000000
     26          6.506249   0.000000
     27          6.819808   0.000000
     28          6.944904   0.000000
     29          8.269107   0.000000
     30          8.903445   0.000000
     31          8.964987   0.000000
     32          9.641509   0.000000
     33          9.816536   0.000000
     34         10.125525   0.000000
     35         10.459815   0.000000
     36         10.568068   0.000000
     37         11.434485   0.000000
     38         11.802840   0.000000
     39         12.373993   0.000000
     40         12.445558   0.000000
     41         12.836905   0.000000
     42         12.940444   0.000000
     43         14.759744   0.000000
     44         14.910984   0.000000
     45         15.099657   0.000000
     46         15.858692   0.000000
     47         15.948759   0.000000
     48         16.143183   0.000000
 
  0.3125000E+00  0.1470588E-01  0.2272727E-01  0.4456328E-03
      1        -12.488222   1.000000
      2        -11.847265   1.000000
      3         -8.536881   1.000000
      4         -8.333973   1.000000
      5         -6.053978   1.000000
      6         -5.944037   1.000000
      7         -4.589722   1.000000
      8         -3.657109   1.000000
      9         -3.036213   1.000000
     10         -2.730591   1.000000
     11         -2.370211   1.000000
     12         -2.341159   1.000000
     13         -2.233483   1.000000
     14         -2.192999   1.000000
     15         -0.536646   1.000000
     16         -0.063112   1.000000
     17          0.194932   1.000000
     18          0.300907   1.000000
     19          0.520118   1.000000
     20          1.669313   0.999743
     21          1.721918   0.996824
     22          1.840355   0.854074
     23          5.614749   0.000000
     24          5.767085   0.000000
     25          6.468795   0.000000
     26          6.499968   0.000000
     27          6.737480   0.000000
     28          7.181427   0.000000
     29          8.317490   0.000000
     30          8.843775   0.000000
     31          8.904213   0.000000
     32          9.804862   0.000000
     33          9.835910   0.000000
     34         10.031740   0.000000
     35         10.371571   0.000000
     36         10.804711   0.000000
     37         11.460981   0.000000
     38         11.967868   0.000000
     39         12.184169   0.000000
     40         12.392590   0.000000
     41         12.650301   0.000000
     42         13.099185   0.000000
     43         14.782521   0.000000
     44         14.958590   0.000000
     45         15.199265   0.000000
     46         15.561223   0.000000
     47         15.639120   0.000000
     48         16.257362   0.000000
 
  0.3541667E+00  0.1470588E-01  0.2272727E-01  0.4456328E-03
      1        -12.431165   1.000000
      2        -11.922696   1.000000
      3         -8.504947   1.000000
      4         -8.337702   1.000000
      5         -6.105514   1.000000
      6         -6.018735   1.000000
      7         -4.417072   1.000000
      8         -3.576566   1.000000
      9         -2.932318   1.000000
     10         -2.840710   1.000000
     11         -2.487112   1.000000
     12         -2.274386   1.000000
     13         -2.210725   1.000000
     14         -2.131275   1.000000
     15         -0.655462   1.000000
     16         -0.215017   1.000000
     17          0.240730   1.000000
     18          0.338882   1.000000
     19          0.602522   1.000000
     20          1.525536   1.000000
     21          1.665595   0.999789
     22          1.773187   0.977463
     23          5.625035   0.000000
     24          5.775468   0.000000
     25          6.444921   0.000000
     26          6.662850   0.000000
     27          6.746626   0.000000
     28          7.436565   0.000000
     29          8.362320   0.000000
     30          8.737974   0.000000
     31          8.783115   0.000000
     32          9.492472   0.000000
     33         10.023679   0.000000
     34         10.237719   0.000000
     35         10.392024   0.000000
     36         11.094462   0.000000
     37         11.453367   0.000000
     38         11.918345   0.000000
     39         12.154227   0.000000
     40         12.295531   0.000000
     41         12.509636   0.000000
     42         13.281629   0.000000
     43         14.633653   0.000000
     44         14.978947   0.000000
     45         15.191173   0.000000
     46         15.379192   0.000000
     47         15.498188   0.000000
     48         16.369478   0.000000
 
  0.3958333E+00  0.1470588E-01  0.2272727E-01  0.4456328E-03
      1        -12.368583   1.000000
      2        -12.000096   1.000000
      3         -8.472027   1.000000
      4         -8.346960   1.000000
      5         -6.147077   1.000000
      6         -6.080765   1.000000
      7         -4.213800   1.000000
      8         -3.487848   1.000000
      9         -3.023597   1.000000
     10         -2.954448   1.000000
     11         -2.509845   1.000000
     12         -2.294998   1.000000
     13         -2.128590   1.000000
     14         -1.983839   1.000000
     15         -0.756450   1.000000
     16         -0.380729   1.000000
     17          0.285364   1.000000
     18          0.365746   1.000000
     19          0.703504   1.000000
     20          1.376903   1.000000
     21          1.624514   0.999980
     22          1.711224   0.998013
     23          5.642905   0.000000
     24          5.769796   0.000000
     25          6.437232   0.000000
     26          6.599328   0.000000
     27          7.017616   0.000000
     28          7.702944   0.000000
     29          8.406120   0.000000
     30          8.514441   0.000000
     31          8.697924   0.000000
     32          9.179571   0.000000
     33         10.214005   0.000000
     34         10.421917   0.000000
     35         10.509406   0.000000
     36         11.395636   0.000000
     37         11.436448   0.000000
     38         11.654138   0.000000
     39         12.040744   0.000000
     40         12.357081   0.000000
     41         12.511637   0.000000
     42         13.372868   0.000000
     43         14.525541   0.000000
     44         14.862034   0.000000
     45         14.986654   0.000000
     46         15.152474   0.000000
     47         15.766732   0.000000
     48         16.451418   0.000000
 
  0.4375000E+00  0.1470588E-01  0.2272727E-01  0.4456328E-03
      1        -12.301137   1.000000
      2        -12.077937   1.000000
      3         -8.439693   1.000000
      4         -8.362228   1.000000
      5         -6.171660   1.000000
      6         -6.129328   1.000000
      7         -3.987796   1.000000
      8         -3.391935   1.000000
      9         -3.244335   1.000000
     10         -3.068521   1.000000
     11         -2.451713   1.000000
     12         -2.323235   1.000000
     13         -2.024442   1.000000
     14         -1.880515   1.000000
     15         -0.811533   1.000000
     16         -0.546104   1.000000
     17          0.325210   1.000000
     18          0.378277   1.000000
     19          0.818996   1.000000
     20          1.228362   1.000000
     21          1.602274   0.999995
     22          1.658941   0.999852
     23          5.667316   0.000000
     24          5.751775   0.000000
     25          6.445578   0.000000
     26          6.545760   0.000000
     27          7.307913   0.000000
     28          7.971588   0.000000
     29          8.242951   0.000000
     30          8.451841   0.000000
     31          8.624348   0.000000
     32          8.872402   0.000000
     33         10.394007   0.000000
     34         10.565723   0.000000
     35         10.682332   0.000000
     36         11.349788   0.000000
     37         11.424007   0.000000
     38         11.728731   0.000000
     39         11.812192   0.000000
     40         12.417552   0.000000
     41         12.630254   0.000000
     42         13.305391   0.000000
     43         14.525171   0.000000
     44         14.681441   0.000000
     45         14.888628   0.000000
     46         14.973150   0.000000
     47         16.020883   0.000000
     48         16.472311   0.000000
 
  0.4791667E+00  0.1470588E-01  0.2272727E-01  0.4456328E-03
      1        -12.229591   1.000000
      2        -12.154845   1.000000
      3         -8.409617   1.000000
      4         -8.383372   1.000000
      5         -6.176686   1.000000
      6         -6.162082   1.000000
      7         -3.745860   1.000000
      8         -3.495010   1.000000
      9         -3.288394   1.000000
     10         -3.180500   1.000000
     11         -2.397923   1.000000
     12         -2.356544   1.000000
     13         -1.920998   1.000000
     14         -1.860304   1.000000
     15         -0.790453   1.000000
     16         -0.692248   1.000000
     17          0.356309   1.000000
     18          0.374902   1.000000
     19          0.946518   1.000000
     20          1.083832   1.000000
     21          1.601134   0.999995
     22          1.620889   0.999984
     23          5.695968   0.000000
     24          5.725548   0.000000
     25          6.467869   0.000000
     26          6.501782   0.000000
     27          7.610754   0.000000
     28          7.914257   0.000000
     29          8.282996   0.000000
     30          8.502353   0.000000
     31          8.554819   0.000000
     32          8.576330   0.000000
     33         10.541645   0.000000
     34         10.613687   0.000000
     35         10.892065   0.000000
     36         11.126770   0.000000
     37         11.432061   0.000000
     38         11.570040   0.000000
     39         12.059849   0.000000
     40         12.291318   0.000000
     41         12.862322   0.000000
     42         13.105827   0.000000
     43         14.585148   0.000000
     44         14.630824   0.000000
     45         14.787607   0.000000
     46         14.850156   0.000000
     47         16.240711   0.000000
     48         16.401293   0.000000
 
  0.2083333E-01  0.4411765E-01  0.2272727E-01  0.4456328E-03
      1        -12.693579   1.000000
      2        -11.516575   1.000000
      3         -8.655189   1.000000
      4         -8.360462   1.000000
      5         -6.052615   1.000000
      6         -5.110431   1.000000
      7         -4.668060   1.000000
      8         -4.364252   1.000000
      9         -4.043095   1.000000
     10         -3.507558   1.000000
     11         -2.631801   1.000000
     12         -2.266365   1.000000
     13         -1.681818   1.000000
     14         -1.074136   1.000000
     15         -0.104788   1.000000
     16         -0.013239   1.000000
     17          0.064299   1.000000
     18          0.088335   1.000000
     19          0.683518   1.000000
     20          2.057838   0.021608
     21          2.077688   0.010658
     22          2.284796   0.000000
     23          5.556480   0.000000
     24          5.673576   0.000000
     25          5.789135   0.000000
     26          5.933100   0.000000
     27          6.787954   0.000000
     28          7.693609   0.000000
     29          7.834684   0.000000
     30          8.470122   0.000000
     31          8.853023   0.000000
     32          8.958391   0.000000
     33          9.066047   0.000000
     34         10.151759   0.000000
     35         11.241933   0.000000
     36         11.379366   0.000000
     37         11.536847   0.000000
     38         11.730996   0.000000
     39         11.979196   0.000000
     40         12.354725   0.000000
     41         12.937074   0.000000
     42         13.294378   0.000000
     43         13.473433   0.000000
     44         15.493198   0.000000
     45         15.521977   0.000000
     46         15.935930   0.000000
     47         16.280980   0.000000
     48         16.402851   0.000000
 
  0.6250000E-01  0.4411765E-01  0.2272727E-01  0.4456328E-03
      1        -12.685846   1.000000
      2        -11.530311   1.000000
      3         -8.650937   1.000000
      4         -8.358033   1.000000
      5         -6.037307   1.000000
      6         -5.201013   1.000000
      7         -4.708487   1.000000
      8         -4.256783   1.000000
      9         -4.025963   1.000000
     10         -3.437365   1.000000
     11         -2.643548   1.000000
     12         -2.262892   1.000000
     13         -1.699417   1.000000
     14         -1.131361   1.000000
     15         -0.101521   1.000000
     16         -0.007058   1.000000
     17          0.054804   1.000000
     18          0.098950   1.000000
     19          0.665430   1.000000
     20          2.030438   0.051118
     21          2.073139   0.012611
     22          2.262083   0.000000
     23          5.570547   0.000000
     24          5.680217   0.000000
     25          5.782801   0.000000
     26          6.002907   0.000000
     27          6.772473   0.000000
     28          7.541800   0.000000
     29          7.954905   0.000000
     30          8.497289   0.000000
     31          8.909370   0.000000
     32          9.007857   0.000000
     33          9.077019   0.000000
     34         10.159261   0.000000
     35         11.252355   0.000000
     36         11.305161   0.000000
     37         11.527734   0.000000
     38         11.598322   0.000000
     39         12.019690   0.000000
     40         12.370231   0.000000
     41         13.004435   0.000000
     42         13.376527   0.000000
     43         13.456608   0.000000
     44         15.315042   0.000000
     45         15.533541   0.000000
     46         16.048987   0.000000
     47         16.251329   0.000000
     48         16.321025   0.000000
 
  0.1041667E+00  0.4411765E-01  0.2272727E-01  0.4456328E-03
      1        -12.670434   1.000000
      2        -11.557251   1.000000
      3         -8.642322   1.000000
      4         -8.353502   1.000000
      5         -6.011090   1.000000
      6         -5.334439   1.000000
      7         -4.765211   1.000000
      8         -4.114370   1.000000
      9         -3.972870   1.000000
     10         -3.312144   1.000000
     11         -2.667169   1.000000
     12         -2.255915   1.000000
     13         -1.732341   1.000000
     14         -1.241385   1.000000
     15         -0.106063   1.000000
     16         -0.004200   1.000000
     17          0.055853   1.000000
     18          0.118144   1.000000
     19          0.629337   1.000000
     20          1.987696   0.151588
     21          2.053686   0.024829
     22          2.216874   0.000010
     23          5.595319   0.000000
     24          5.700845   0.000000
     25          5.784469   0.000000
     26          6.121802   0.000000
     27          6.743098   0.000000
     28          7.389526   0.000000
     29          8.053024   0.000000
     30          8.548936   0.000000
     31          9.004189   0.000000
     32          9.089183   0.000000
     33          9.117514   0.000000
     34         10.176955   0.000000
     35         11.156170   0.000000
     36         11.280702   0.000000
     37         11.382812   0.000000
     38         11.526594   0.000000
     39         12.097829   0.000000
     40         12.400957   0.000000
     41         13.109238   0.000000
     42         13.263448   0.000000
     43         13.661254   0.000000
     44         15.074666   0.000000
     45         15.604844   0.000000
     46         16.045803   0.000000
     47         16.134405   0.000000
     48         16.394116   0.000000
 
  0.1458333E+00  0.4411765E-01  0.2272727E-01  0.4456328E-03
      1        -12.647448   1.000000
      2        -11.596375   1.000000
      3         -8.629201   1.000000
      4         -8.347504   1.000000
      5         -5.982901   1.000000
      6         -5.477807   1.000000
      7         -4.813745   1.000000
      8         -4.027168   1.000000
      9         -3.826827   1.000000
     10         -3.150109   1.000000
     11         -2.702654   1.000000
     12         -2.245349   1.000000
     13         -1.776674   1.000000
     14         -1.396620   1.000000
     15         -0.140958   1.000000
     16          0.000674   1.000000
     17          0.081087   1.000000
     18          0.143909   1.000000
     19          0.577197   1.000000
     20          1.933045   0.398677
     21          2.019066   0.070336
     22          2.149860   0.000445
     23          5.623230   0.000000
     24          5.720795   0.000000
     25          5.825676   0.000000
     26          6.275738   0.000000
     27          6.702797   0.000000
     28          7.245988   0.000000
     29          8.133295   0.000000
     30          8.619325   0.000000
     31          9.068183   0.000000
     32          9.174410   0.000000
     33          9.256460   0.000000
     34         10.211918   0.000000
     35         10.952625   0.000000
     36         11.131925   0.000000
     37         11.317575   0.000000
     38         11.552061   0.000000
     39         12.202686   0.000000
     40         12.451509   0.000000
     41         13.088291   0.000000
     42         13.201116   0.000000
     43         13.922419   0.000000
     44         14.872571   0.000000
     45         15.688370   0.000000
     46         15.838682   0.000000
     47         16.157013   0.000000
     48         16.473045   0.000000
 
  0.1875000E+00  0.4411765E-01  0.2272727E-01  0.4456328E-03
      1        -12.617051   1.000000
      2        -11.646267   1.000000
      3         -8.611494   1.000000
      4         -8.340949   1.000000
      5         -5.965219   1.000000
      6         -5.615976   1.000000
      7         -4.831783   1.000000
      8         -3.973897   1.000000