       N       E                     dE             d eps       ncg     rms          rms(c)
DAV:   1     0.141956397804E+03    0.14196E+03   -0.25976E+04 16800   0.125E+03
DAV:   2    -0.886437214262E+02   -0.23060E+03   -0.21378E+03 22272   0.205E+02
DAV:   3    -0.976012969861E+02   -0.89576E+01   -0.88809E+01 25080   0.355E+01
DAV:   4    -0.976568389041E+02   -0.55542E-01   -0.55539E-01 18816   0.322E+00
DAV:   5    -0.976574033218E+02   -0.56442E-03   -0.56440E-03 25152   0.309E-01    0.123E+01
DAV:   6    -0.922411238783E+02    0.54163E+01   -0.39488E+00 24216   0.659E+00    0.680E+00
DAV:   7    -0.905895189291E+02    0.16516E+01   -0.32196E+00 25176   0.587E+00    0.171E+00
DAV:   8    -0.906019831556E+02   -0.12464E-01   -0.23563E-01 18480   0.169E+00    0.704E-01
DAV:   9    -0.906161524857E+02   -0.14169E-01   -0.16951E-02 23424   0.442E-01    0.198E-01
DAV:  10    -0.906202040095E+02   -0.40515E-02   -0.20998E-03 19176   0.163E-01    0.610E-02
DAV:  11    -0.906212754370E+02   -0.10714E-02   -0.63191E-04 21840   0.887E-02    0.321E-02
DAV:  12    -0.906213909657E+02   -0.11553E-03   -0.92973E-05 20640   0.385E-02    0.429E-03
DAV:  13    -0.906213958815E+02   -0.49158E-05   -0.41889E-06 23568   0.937E-03    0.182E-03
DAV:  14    -0.906213965731E+02   -0.69163E-06   -0.29290E-07 20424   0.249E-03
   1 F= -.90621397E+02 E0= -.90619790E+02  d E =-.321362E-02
