       N       E                     dE             d eps       ncg     rms          rms(c)
DAV:   1     0.882632149792E+02    0.88263E+02   -0.20989E+04 16800   0.919E+02
DAV:   2    -0.914227209886E+02   -0.17969E+03   -0.16811E+03 22752   0.174E+02
DAV:   3    -0.976127354207E+02   -0.61900E+01   -0.61528E+01 25032   0.286E+01
DAV:   4    -0.976492651213E+02   -0.36530E-01   -0.36528E-01 19608   0.255E+00
DAV:   5    -0.976496665206E+02   -0.40140E-03   -0.40139E-03 25032   0.255E-01    0.123E+01
DAV:   6    -0.922338451903E+02    0.54158E+01   -0.39491E+00 24240   0.659E+00    0.680E+00
DAV:   7    -0.905823172758E+02    0.16515E+01   -0.32209E+00 25152   0.586E+00    0.171E+00
DAV:   8    -0.905947302885E+02   -0.12413E-01   -0.23512E-01 18720   0.168E+00    0.705E-01
DAV:   9    -0.906088963701E+02   -0.14166E-01   -0.16935E-02 23376   0.440E-01    0.198E-01
DAV:  10    -0.906129489701E+02   -0.40526E-02   -0.21012E-03 18936   0.162E-01    0.609E-02
DAV:  11    -0.906140188633E+02   -0.10699E-02   -0.62976E-04 21840   0.875E-02    0.321E-02
DAV:  12    -0.906141348288E+02   -0.11597E-03   -0.93279E-05 20472   0.375E-02    0.429E-03
DAV:  13    -0.906141397002E+02   -0.48714E-05   -0.41230E-06 23568   0.890E-03    0.182E-03
