<?xml version="1.0" encoding="ISO-8859-1"?>
<modeling>
 <generator>
  <i name="program" type="string">vasp </i>
  <i name="version" type="string">6.4.3  </i>
  <i name="subversion" type="string">19Mar24 (build May 31 2024 16:31:43) complex                          parallel </i>
  <i name="platform" type="string">LinuxIFC </i>
  <i name="date" type="string">2024 10 30 </i>
  <i name="time" type="string">19:01:25 </i>
 </generator>
 <incar>
  <i type="string" name="SYSTEM">Kpoints</i>
  <i type="int" name="ISTART">     0</i>
  <i type="string" name="PREC">Accurate</i>
  <i type="string" name="ALGO">Normal</i>
  <i type="int" name="ISPIN">     1</i>
  <i type="int" name="ICHARG">     2</i>
  <i type="int" name="NELM">   100</i>
  <i type="int" name="IBRION">    -1</i>
  <i name="EDIFF">      0.00000100</i>
  <i name="EDIFFG">     -0.00100000</i>
  <i type="int" name="NSW">     0</i>
  <i type="int" name="ISIF">     2</i>
  <i name="ENCUT">    650.00000000</i>
  <i name="POTIM">      0.50000000</i>
  <i type="int" name="ISMEAR">     0</i>
  <i name="SIGMA">      0.05000000</i>
  <i type="logical" name="LWAVE"> F  </i>
  <i type="logical" name="LCHARG"> F  </i>
  <i type="string" name="GGA">PE</i>
 </incar>
 <primitive_cell>
  <structure name="primitive_cell" >
   <crystal>
    <varray name="basis" >
     <v>       5.69700000       0.00000000       0.00000000 </v>
     <v>       0.00000000       4.04790000       0.00000000 </v>
     <v>       0.00000000       0.00000000       6.20420000 </v>
    </varray>
    <i name="volume">    143.07435078 </i>
    <varray name="rec_basis" >
     <v>       0.17553098       0.00000000       0.00000000 </v>
     <v>       0.00000000       0.24704168       0.00000000 </v>
     <v>       0.00000000       0.00000000       0.16118114 </v>
    </varray>
   </crystal>
   <varray name="positions" >
    <v>       0.52123000       0.50000000       0.63796000 </v>
    <v>       0.47877000       0.50000000       0.36204000 </v>
    <v>       0.97877000       0.50000000       0.63796000 </v>
    <v>       0.02123000       0.50000000       0.36204000 </v>
    <v>       0.60090000       0.50000000       0.89991000 </v>
    <v>       0.39910000       0.50000000       0.10009000 </v>
    <v>       0.89910000       0.50000000       0.89991000 </v>
    <v>       0.10090000       0.50000000       0.10009000 </v>
    <v>       0.75000000       0.79171000       0.72973000 </v>
    <v>       0.25000000       0.20829000       0.27027000 </v>
    <v>       0.75000000       0.20829000       0.72973000 </v>
    <v>       0.25000000       0.79171000       0.27027000 </v>
    <v>       0.25000000       0.50000000       0.52367000 </v>
    <v>       0.75000000       0.50000000       0.47633000 </v>
   </varray>
  </structure>
  <varray name="primitive_index" >
   <v type="int" >        1 </v>
   <v type="int" >        2 </v>
   <v type="int" >        3 </v>
   <v type="int" >        4 </v>
   <v type="int" >        5 </v>
   <v type="int" >        6 </v>
   <v type="int" >        7 </v>
   <v type="int" >        8 </v>
   <v type="int" >        9 </v>
   <v type="int" >       10 </v>
   <v type="int" >       11 </v>
   <v type="int" >       12 </v>
   <v type="int" >       13 </v>
   <v type="int" >       14 </v>
  </varray>
 </primitive_cell>
 <kpoints>
  <generation param="Monkhorst-Pack">
   <v type="int" name="divisions">      10       14        9 </v>
   <v name="usershift">      0.00000000       0.00000000       0.00000000 </v>
   <v name="genvec1">      0.10000000       0.00000000       0.00000000 </v>
   <v name="genvec2">      0.00000000       0.07142857       0.00000000 </v>
   <v name="genvec3">      0.00000000       0.00000000       0.11111111 </v>
   <v name="shift">      0.50000000       0.50000000       0.00000000 </v>
  </generation>
  <varray name="kpointlist" >
   <v>       0.05000000       0.03571429       0.00000000 </v>
   <v>       0.15000000       0.03571429       0.00000000 </v>
   <v>       0.25000000       0.03571429       0.00000000 </v>
   <v>       0.35000000       0.03571429       0.00000000 </v>
   <v>       0.45000000       0.03571429       0.00000000 </v>
   <v>       0.05000000       0.10714286       0.00000000 </v>
   <v>       0.15000000       0.10714286       0.00000000 </v>
   <v>       0.25000000       0.10714286       0.00000000 </v>
   <v>       0.35000000       0.10714286       0.00000000 </v>
   <v>       0.45000000       0.10714286       0.00000000 </v>
   <v>       0.05000000       0.17857143       0.00000000 </v>
   <v>       0.15000000       0.17857143       0.00000000 </v>
   <v>       0.25000000       0.17857143       0.00000000 </v>
   <v>       0.35000000       0.17857143       0.00000000 </v>
   <v>       0.45000000       0.17857143       0.00000000 </v>
   <v>       0.05000000       0.25000000       0.00000000 </v>
   <v>       0.15000000       0.25000000       0.00000000 </v>
   <v>       0.25000000       0.25000000       0.00000000 </v>
   <v>       0.35000000       0.25000000       0.00000000 </v>
   <v>       0.45000000       0.25000000       0.00000000 </v>
   <v>       0.05000000       0.32142857       0.00000000 </v>
   <v>       0.15000000       0.32142857       0.00000000 </v>
   <v>       0.25000000       0.32142857       0.00000000 </v>
   <v>       0.35000000       0.32142857       0.00000000 </v>
   <v>       0.45000000       0.32142857       0.00000000 </v>
   <v>       0.05000000       0.39285714       0.00000000 </v>
   <v>       0.15000000       0.39285714       0.00000000 </v>
   <v>       0.25000000       0.39285714       0.00000000 </v>
   <v>       0.35000000       0.39285714       0.00000000 </v>
   <v>       0.45000000       0.39285714       0.00000000 </v>
   <v>       0.05000000       0.46428571       0.00000000 </v>
   <v>       0.15000000       0.46428571       0.00000000 </v>
   <v>       0.25000000       0.46428571       0.00000000 </v>
   <v>       0.35000000       0.46428571       0.00000000 </v>
   <v>       0.45000000       0.46428571       0.00000000 </v>
   <v>       0.05000000       0.03571429       0.11111111 </v>
   <v>       0.15000000       0.03571429       0.11111111 </v>
   <v>       0.25000000       0.03571429       0.11111111 </v>
   <v>       0.35000000       0.03571429       0.11111111 </v>
   <v>       0.45000000       0.03571429       0.11111111 </v>
   <v>       0.05000000       0.10714286       0.11111111 </v>
   <v>       0.15000000       0.10714286       0.11111111 </v>
   <v>       0.25000000       0.10714286       0.11111111 </v>
   <v>       0.35000000       0.10714286       0.11111111 </v>
   <v>       0.45000000       0.10714286       0.11111111 </v>
   <v>       0.05000000       0.17857143       0.11111111 </v>
   <v>       0.15000000       0.17857143       0.11111111 </v>
   <v>       0.25000000       0.17857143       0.11111111 </v>
   <v>       0.35000000       0.17857143       0.11111111 </v>
   <v>       0.45000000       0.17857143       0.11111111 </v>
   <v>       0.05000000       0.25000000       0.11111111 </v>
   <v>       0.15000000       0.25000000       0.11111111 </v>
   <v>       0.25000000       0.25000000       0.11111111 </v>
   <v>       0.35000000       0.25000000       0.11111111 </v>
   <v>       0.45000000       0.25000000       0.11111111 </v>
   <v>       0.05000000       0.32142857       0.11111111 </v>
   <v>       0.15000000       0.32142857       0.11111111 </v>
   <v>       0.25000000       0.32142857       0.11111111 </v>
   <v>       0.35000000       0.32142857       0.11111111 </v>
   <v>       0.45000000       0.32142857       0.11111111 </v>
   <v>       0.05000000       0.39285714       0.11111111 </v>
   <v>       0.15000000       0.39285714       0.11111111 </v>
   <v>       0.25000000       0.39285714       0.11111111 </v>
   <v>       0.35000000       0.39285714       0.11111111 </v>
   <v>       0.45000000       0.39285714       0.11111111 </v>
   <v>       0.05000000       0.46428571       0.11111111 </v>
   <v>       0.15000000       0.46428571       0.11111111 </v>
   <v>       0.25000000       0.46428571       0.11111111 </v>
   <v>       0.35000000       0.46428571       0.11111111 </v>
   <v>       0.45000000       0.46428571       0.11111111 </v>
   <v>       0.05000000       0.03571429       0.22222222 </v>
   <v>       0.15000000       0.03571429       0.22222222 </v>
   <v>       0.25000000       0.03571429       0.22222222 </v>
   <v>       0.35000000       0.03571429       0.22222222 </v>
   <v>       0.45000000       0.03571429       0.22222222 </v>
   <v>       0.05000000       0.10714286       0.22222222 </v>
   <v>       0.15000000       0.10714286       0.22222222 </v>
   <v>       0.25000000       0.10714286       0.22222222 </v>
   <v>       0.35000000       0.10714286       0.22222222 </v>
   <v>       0.45000000       0.10714286       0.22222222 </v>
   <v>       0.05000000       0.17857143       0.22222222 </v>
   <v>       0.15000000       0.17857143       0.22222222 </v>
   <v>       0.25000000       0.17857143       0.22222222 </v>
   <v>       0.35000000       0.17857143       0.22222222 </v>
   <v>       0.45000000       0.17857143       0.22222222 </v>
   <v>       0.05000000       0.25000000       0.22222222 </v>
   <v>       0.15000000       0.25000000       0.22222222 </v>
   <v>       0.25000000       0.25000000       0.22222222 </v>
   <v>       0.35000000       0.25000000       0.22222222 </v>
   <v>       0.45000000       0.25000000       0.22222222 </v>
   <v>       0.05000000       0.32142857       0.22222222 </v>
   <v>       0.15000000       0.32142857       0.22222222 </v>
   <v>       0.25000000       0.32142857       0.22222222 </v>
   <v>       0.35000000       0.32142857       0.22222222 </v>
   <v>       0.45000000       0.32142857       0.22222222 </v>
   <v>       0.05000000       0.39285714       0.22222222 </v>
   <v>       0.15000000       0.39285714       0.22222222 </v>
   <v>       0.25000000       0.39285714       0.22222222 </v>
   <v>       0.35000000       0.39285714       0.22222222 </v>
   <v>       0.45000000       0.39285714       0.22222222 </v>
   <v>       0.05000000       0.46428571       0.22222222 </v>
   <v>       0.15000000       0.46428571       0.22222222 </v>
   <v>       0.25000000       0.46428571       0.22222222 </v>
   <v>       0.35000000       0.46428571       0.22222222 </v>
   <v>       0.45000000       0.46428571       0.22222222 </v>
   <v>       0.05000000       0.03571429       0.33333333 </v>
   <v>       0.15000000       0.03571429       0.33333333 </v>
   <v>       0.25000000       0.03571429       0.33333333 </v>
   <v>       0.35000000       0.03571429       0.33333333 </v>
   <v>       0.45000000       0.03571429       0.33333333 </v>
   <v>       0.05000000       0.10714286       0.33333333 </v>
   <v>       0.15000000       0.10714286       0.33333333 </v>
   <v>       0.25000000       0.10714286       0.33333333 </v>
   <v>       0.35000000       0.10714286       0.33333333 </v>
   <v>       0.45000000       0.10714286       0.33333333 </v>
   <v>       0.05000000       0.17857143       0.33333333 </v>
   <v>       0.15000000       0.17857143       0.33333333 </v>
   <v>       0.25000000       0.17857143       0.33333333 </v>
   <v>       0.35000000       0.17857143       0.33333333 </v>
   <v>       0.45000000       0.17857143       0.33333333 </v>
   <v>       0.05000000       0.25000000       0.33333333 </v>
   <v>       0.15000000       0.25000000       0.33333333 </v>
   <v>       0.25000000       0.25000000       0.33333333 </v>
   <v>       0.35000000       0.25000000       0.33333333 </v>
   <v>       0.45000000       0.25000000       0.33333333 </v>
   <v>       0.05000000       0.32142857       0.33333333 </v>
   <v>       0.15000000       0.32142857       0.33333333 </v>
   <v>       0.25000000       0.32142857       0.33333333 </v>
   <v>       0.35000000       0.32142857       0.33333333 </v>
   <v>       0.45000000       0.32142857       0.33333333 </v>
   <v>       0.05000000       0.39285714       0.33333333 </v>
   <v>       0.15000000       0.39285714       0.33333333 </v>
   <v>       0.25000000       0.39285714       0.33333333 </v>
   <v>       0.35000000       0.39285714       0.33333333 </v>
   <v>       0.45000000       0.39285714       0.33333333 </v>
   <v>       0.05000000       0.46428571       0.33333333 </v>
   <v>       0.15000000       0.46428571       0.33333333 </v>
   <v>       0.25000000       0.46428571       0.33333333 </v>
   <v>       0.35000000       0.46428571       0.33333333 </v>
   <v>       0.45000000       0.46428571       0.33333333 </v>
   <v>       0.05000000       0.03571429       0.44444444 </v>
   <v>       0.15000000       0.03571429       0.44444444 </v>
   <v>       0.25000000       0.03571429       0.44444444 </v>
   <v>       0.35000000       0.03571429       0.44444444 </v>
   <v>       0.45000000       0.03571429       0.44444444 </v>
   <v>       0.05000000       0.10714286       0.44444444 </v>
   <v>       0.15000000       0.10714286       0.44444444 </v>
   <v>       0.25000000       0.10714286       0.44444444 </v>
   <v>       0.35000000       0.10714286       0.44444444 </v>
   <v>       0.45000000       0.10714286       0.44444444 </v>
   <v>       0.05000000       0.17857143       0.44444444 </v>
   <v>       0.15000000       0.17857143       0.44444444 </v>
   <v>       0.25000000       0.17857143       0.44444444 </v>
   <v>       0.35000000       0.17857143       0.44444444 </v>
   <v>       0.45000000       0.17857143       0.44444444 </v>
   <v>       0.05000000       0.25000000       0.44444444 </v>
   <v>       0.15000000       0.25000000       0.44444444 </v>
   <v>       0.25000000       0.25000000       0.44444444 </v>
   <v>       0.35000000       0.25000000       0.44444444 </v>
   <v>       0.45000000       0.25000000       0.44444444 </v>
   <v>       0.05000000       0.32142857       0.44444444 </v>
   <v>       0.15000000       0.32142857       0.44444444 </v>
   <v>       0.25000000       0.32142857       0.44444444 </v>
   <v>       0.35000000       0.32142857       0.44444444 </v>
   <v>       0.45000000       0.32142857       0.44444444 </v>
   <v>       0.05000000       0.39285714       0.44444444 </v>
   <v>       0.15000000       0.39285714       0.44444444 </v>
   <v>       0.25000000       0.39285714       0.44444444 </v>
   <v>       0.35000000       0.39285714       0.44444444 </v>
   <v>       0.45000000       0.39285714       0.44444444 </v>
   <v>       0.05000000       0.46428571       0.44444444 </v>
   <v>       0.15000000       0.46428571       0.44444444 </v>
   <v>       0.25000000       0.46428571       0.44444444 </v>
   <v>       0.35000000       0.46428571       0.44444444 </v>
   <v>       0.45000000       0.46428571       0.44444444 </v>
  </varray>
  <varray name="weights" >
   <v>       0.00317460 </v>
   <v>       0.00317460 </v>
   <v>       0.00317460 </v>
   <v>       0.00317460 </v>
   <v>       0.00317460 </v>
   <v>       0.00317460 </v>
   <v>       0.00317460 </v>
   <v>       0.00317460 </v>
   <v>       0.00317460 </v>
   <v>       0.00317460 </v>
   <v>       0.00317460 </v>
   <v>       0.00317460 </v>
   <v>       0.00317460 </v>
   <v>       0.00317460 </v>
   <v>       0.00317460 </v>
   <v>       0.00317460 </v>
   <v>       0.00317460 </v>
   <v>       0.00317460 </v>
   <v>       0.00317460 </v>
   <v>       0.00317460 </v>
   <v>       0.00317460 </v>
   <v>       0.00317460 </v>
   <v>       0.00317460 </v>
   <v>       0.00317460 </v>
   <v>       0.00317460 </v>
   <v>       0.00317460 </v>
   <v>       0.00317460 </v>
   <v>       0.00317460 </v>
   <v>       0.00317460 </v>
   <v>       0.00317460 </v>
   <v>       0.00317460 </v>
   <v>       0.00317460 </v>
   <v>       0.00317460 </v>
   <v>       0.00317460 </v>
   <v>       0.00317460 </v>
   <v>       0.00634921 </v>
   <v>       0.00634921 </v>
   <v>       0.00634921 </v>
   <v>       0.00634921 </v>
   <v>       0.00634921 </v>
   <v>       0.00634921 </v>
   <v>       0.00634921 </v>
   <v>       0.00634921 </v>
   <v>       0.00634921 </v>
   <v>       0.00634921 </v>
   <v>       0.00634921 </v>
   <v>       0.00634921 </v>
   <v>       0.00634921 </v>
   <v>       0.00634921 </v>
   <v>       0.00634921 </v>
   <v>       0.00634921 </v>
   <v>       0.00634921 </v>
   <v>       0.00634921 </v>
   <v>       0.00634921 </v>
   <v>       0.00634921 </v>
   <v>       0.00634921 </v>
   <v>       0.00634921 </v>
   <v>       0.00634921 </v>
   <v>       0.00634921 </v>
   <v>       0.00634921 </v>
   <v>       0.00634921 </v>
   <v>       0.00634921 </v>
   <v>       0.00634921 </v>
   <v>       0.00634921 </v>
   <v>       0.00634921 </v>
   <v>       0.00634921 </v>
   <v>       0.00634921 </v>
   <v>       0.00634921 </v>
   <v>       0.00634921 </v>
   <v>       0.00634921 </v>
   <v>       0.00634921 </v>
   <v>       0.00634921 </v>
   <v>       0.00634921 </v>
   <v>       0.00634921 </v>
   <v>       0.00634921 </v>
   <v>       0.00634921 </v>
   <v>       0.00634921 </v>
   <v>       0.00634921 </v>
   <v>       0.00634921 </v>
   <v>       0.00634921 </v>
   <v>       0.00634921 </v>
   <v>       0.00634921 </v>
   <v>       0.00634921 </v>
   <v>       0.00634921 </v>
   <v>       0.00634921 </v>
   <v>       0.00634921 </v>
   <v>       0.00634921 </v>
   <v>       0.00634921 </v>
   <v>       0.00634921 </v>
   <v>       0.00634921 </v>
   <v>       0.00634921 </v>
   <v>       0.00634921 </v>
   <v>       0.00634921 </v>
   <v>       0.00634921 </v>
   <v>       0.00634921 </v>
   <v>       0.00634921 </v>
   <v>       0.00634921 </v>
   <v>       0.00634921 </v>
   <v>       0.00634921 </v>
   <v>       0.00634921 </v>
   <v>       0.00634921 </v>
   <v>       0.00634921 </v>
   <v>       0.00634921 </v>
   <v>       0.00634921 </v>
   <v>       0.00634921 </v>
   <v>       0.00634921 </v>
   <v>       0.00634921 </v>
   <v>       0.00634921 </v>
   <v>       0.00634921 </v>
   <v>       0.00634921 </v>
   <v>       0.00634921 </v>
   <v>       0.00634921 </v>
   <v>       0.00634921 </v>
   <v>       0.00634921 </v>
   <v>       0.00634921 </v>
   <v>       0.00634921 </v>
   <v>       0.00634921 </v>
   <v>       0.00634921 </v>
   <v>       0.00634921 </v>
   <v>       0.00634921 </v>
   <v>       0.00634921 </v>
   <v>       0.00634921 </v>
   <v>       0.00634921 </v>
   <v>       0.00634921 </v>
   <v>       0.00634921 </v>
   <v>       0.00634921 </v>
   <v>       0.00634921 </v>
   <v>       0.00634921 </v>
   <v>       0.00634921 </v>
   <v>       0.00634921 </v>
   <v>       0.00634921 </v>
   <v>       0.00634921 </v>
   <v>       0.00634921 </v>
   <v>       0.00634921 </v>
   <v>       0.00634921 </v>
   <v>       0.00634921 </v>
   <v>       0.00634921 </v>
   <v>       0.00634921 </v>
   <v>       0.00634921 </v>
   <v>       0.00634921 </v>
   <v>       0.00634921 </v>
   <v>       0.00634921 </v>
   <v>       0.00634921 </v>
   <v>       0.00634921 </v>
   <v>       0.00634921 </v>
   <v>       0.00634921 </v>
   <v>       0.00634921 </v>
   <v>       0.00634921 </v>
   <v>       0.00634921 </v>
   <v>       0.00634921 </v>
   <v>       0.00634921 </v>
   <v>       0.00634921 </v>
   <v>       0.00634921 </v>
   <v>       0.00634921 </v>
   <v>       0.00634921 </v>
   <v>       0.00634921 </v>
   <v>       0.00634921 </v>
   <v>       0.00634921 </v>
   <v>       0.00634921 </v>
   <v>       0.00634921 </v>
   <v>       0.00634921 </v>
   <v>       0.00634921 </v>
   <v>       0.00634921 </v>
   <v>       0.00634921 </v>
   <v>       0.00634921 </v>
   <v>       0.00634921 </v>
   <v>       0.00634921 </v>
   <v>       0.00634921 </v>
   <v>       0.00634921 </v>
   <v>       0.00634921 </v>
   <v>       0.00634921 </v>
   <v>       0.00634921 </v>
   <v>       0.00634921 </v>
   <v>       0.00634921 </v>
   <v>       0.00634921 </v>
  </varray>
 </kpoints>
 <parameters>
  <separator name="general" >
   <i type="string" name="SYSTEM">Kpoints</i>
   <i type="logical" name="LCOMPAT"> F  </i>
  </separator>
  <separator name="electronic" >
   <i type="string" name="PREC">accura</i>
   <i name="ENMAX">    650.00000000</i>
   <i name="ENAUG">    535.51400000</i>
   <i name="EDIFF">      0.00000100</i>
   <i type="int" name="IALGO">    38</i>
   <i type="int" name="IWAVPR">    10</i>
   <i type="int" name="NBANDS">    48</i>
   <i type="int" name="NBANDSLOW">    -1</i>
   <i type="int" name="NBANDSHIGH">    -1</i>
   <i name="NELECT">     42.00000000</i>
   <i type="int" name="TURBO">     0</i>
   <i type="int" name="IRESTART">     0</i>
   <i type="int" name="NREBOOT">     0</i>
   <i type="int" name="NMIN">     0</i>
   <i name="EREF">      0.00000000</i>
   <separator name="electronic smearing" >
    <i type="int" name="ISMEAR">     0</i>
    <i name="SIGMA">      0.05000000</i>
    <i name="KSPACING">      0.50000000</i>
    <i type="logical" name="KGAMMA"> T  </i>
    <i type="logical" name="KBLOWUP"> T  </i>
   </separator>
   <separator name="electronic projectors" >
    <i type="logical" name="LREAL"> F  </i>
    <v name="ROPT">      0.00000000</v>
    <i type="int" name="LMAXPAW">  -100</i>
    <i type="int" name="LMAXMIX">     2</i>
    <i type="logical" name="NLSPLINE"> F  </i>
   </separator>
   <separator name="electronic startup" >
    <i type="int" name="ISTART">     0</i>
    <i type="int" name="ICHARG">     2</i>
    <i type="int" name="INIWAV">     1</i>
   </separator>
   <separator name="electronic spin" >
    <i type="int" name="ISPIN">     1</i>
    <i type="logical" name="LNONCOLLINEAR"> F  </i>
    <v name="MAGMOM">      1.00000000      1.00000000      1.00000000      1.00000000      1.00000000      1.00000000      1.00000000      1.00000000      1.00000000      1.00000000      1.00000000      1.00000000      1.00000000      1.00000000</v>
    <i name="NUPDOWN">     -1.00000000</i>
    <i type="logical" name="LSORBIT"> F  </i>
    <v name="SAXIS">      0.00000000      0.00000000      1.00000000</v>
    <i type="logical" name="LSPIRAL"> F  </i>
    <v name="QSPIRAL">      0.00000000      0.00000000      0.00000000</v>
    <i type="logical" name="LZEROZ"> F  </i>
   </separator>
   <separator name="electronic exchange-correlation" >
    <i type="logical" name="LASPH"> F  </i>
   </separator>
   <separator name="electronic convergence" >
    <i type="int" name="NELM">   100</i>
    <i type="int" name="NELMDL">    -5</i>
    <i type="int" name="NELMIN">     2</i>
    <i name="ENINI">    650.00000000</i>
    <separator name="electronic convergence detail" >
     <i type="logical" name="LDIAG"> T  </i>
     <i type="logical" name="LSUBROT"> F  </i>
     <i name="WEIMIN">      0.00000000</i>
     <i name="EBREAK">      0.00000001</i>
     <i name="DEPER">      0.30000000</i>
     <i type="int" name="NRMM">     4</i>
     <i name="TIME">      0.40000000</i>
    </separator>
   </separator>
   <separator name="electronic mixer" >
    <i name="AMIX">      0.40000000</i>
    <i name="BMIX">      1.00000000</i>
    <i name="AMIN">      0.10000000</i>
    <i name="AMIX_MAG">      1.60000000</i>
    <i name="BMIX_MAG">      1.00000000</i>
    <separator name="electronic mixer details" >
     <i type="int" name="IMIX">     4</i>
     <i type="logical" name="MIXFIRST"> F  </i>
     <i type="int" name="MAXMIX">   -45</i>
     <i name="WC">    100.00000000</i>
     <i type="int" name="INIMIX">     1</i>
     <i type="int" name="MIXPRE">     1</i>
     <i type="int" name="MREMOVE">     5</i>
    </separator>
   </separator>
   <separator name="electronic dipolcorrection" >
    <i type="logical" name="LDIPOL"> F  </i>
    <i type="logical" name="LMONO"> F  </i>
    <i type="int" name="IDIPOL">     0</i>
    <i name="EPSILON">      1.00000000</i>
    <v name="DIPOL">   -100.00000000   -100.00000000   -100.00000000</v>
    <i name="EFIELD">      0.00000000</i>
    <i type="logical" name="LVACPOTAV"> F  </i>
   </separator>
  </separator>
  <separator name="grids" >
   <i type="int" name="NGX">    48</i>
   <i type="int" name="NGY">    36</i>
   <i type="int" name="NGZ">    54</i>
   <i type="int" name="NGXF">    96</i>
   <i type="int" name="NGYF">    72</i>
   <i type="int" name="NGZF">   108</i>
   <i type="logical" name="ADDGRID"> F  </i>
  </separator>
  <separator name="ionic" >
   <i type="int" name="NSW">     0</i>
   <i type="int" name="IBRION">    -1</i>
   <i type="int" name="MDALGO">     0</i>
   <i type="int" name="ISIF">     2</i>
   <i name="PSTRESS">      0.00000000</i>
   <i name="EDIFFG">     -0.00100000</i>
   <i type="int" name="NFREE">     0</i>
   <i name="POTIM">      0.50000000</i>
   <i name="SMASS">     -3.00000000</i>
   <i name="SCALEE">      1.00000000</i>
  </separator>
  <separator name="ionic md" >
   <i name="TEBEG">      0.00010000</i>
   <i name="TEEND">      0.00010000</i>
   <i type="int" name="NBLOCK">     1</i>
   <i type="int" name="KBLOCK">     1</i>
   <i type="int" name="NPACO">   256</i>
   <i name="APACO">     10.00000000</i>
  </separator>
  <separator name="symmetry" >
   <i type="int" name="ISYM">     2</i>
   <i name="SYMPREC">      0.00001000</i>
  </separator>
  <separator name="dos" >
   <i type="int" name="LORBIT">     0</i>
   <v name="RWIGS">     -1.00000000</v>
   <i type="int" name="NEDOS">   301</i>
   <i name="EMIN">     10.00000000</i>
   <i name="EMAX">    -10.00000000</i>
   <i name="EFERMI">      0.00000000</i>
  </separator>
  <separator name="writing" >
   <i type="int" name="NWRITE">     2</i>
   <i type="logical" name="LWAVE"> F  </i>
   <i type="logical" name="LDOWNSAMPLE"> F  </i>
   <i type="logical" name="LCHARG"> F  </i>
   <i type="logical" name="LPARD"> F  </i>
   <i type="logical" name="LVTOT"> F  </i>
   <i type="logical" name="LVHAR"> F  </i>
   <i type="logical" name="LELF"> F  </i>
   <i type="logical" name="LOPTICS"> F  </i>
   <v name="STM">      0.00000000      0.00000000      0.00000000      0.00000000      0.00000000      0.00000000      0.00000000</v>
  </separator>
  <separator name="performance" >
   <i type="int" name="NPAR">    24</i>
   <i type="int" name="NSIM">     4</i>
   <i type="int" name="NBLK">    -1</i>
   <i type="logical" name="LPLANE"> T  </i>
   <i type="logical" name="LSCALAPACK"> T  </i>
   <i type="logical" name="LSCAAWARE"> F  </i>
   <i type="logical" name="LSCALU"> F  </i>
   <i type="logical" name="LASYNC"> F  </i>
   <i type="logical" name="LORBITALREAL"> F  </i>
  </separator>
  <separator name="miscellaneous" >
   <i type="int" name="IDIOT">     3</i>
   <i type="int" name="PHON_NSTRUCT">    -1</i>
   <i type="logical" name="LMUSIC"> F  </i>
   <v name="POMASS">     10.81100000</v>
   <v name="DARWINR">      0.00000000</v>
   <v name="DARWINV">      1.00000000</v>
   <i type="logical" name="LCORR"> T  </i>
  </separator>
  <i type="logical" name="GGA_COMPAT"> T  </i>
  <i type="logical" name="LBERRY"> F  </i>
  <i type="int" name="ICORELEVEL">     0</i>
  <i type="logical" name="LDAU"> F  </i>
  <i type="int" name="I_CONSTRAINED_M">     0</i>
  <separator name="electronic exchange-correlation" >
   <i type="string" name="GGA    ">PE</i>
   <i type="string" name="XC_C">1</i>
   <i type="int" name="VOSKOWN">     0</i>
   <i type="logical" name="LHFCALC"> F  </i>
   <i type="string" name="PRECFOCK"></i>
   <i type="logical" name="LSYMGRAD"> F  </i>
   <i type="logical" name="LHFONE"> F  </i>
   <i type="logical" name="LRHFCALC"> F  </i>
   <i type="logical" name="LTHOMAS"> F  </i>
   <i type="logical" name="LMODELHF"> F  </i>
   <i type="logical" name="LFOCKACE"> F  </i>
   <i name="ENCUT4O">     -1.00000000</i>
   <i type="int" name="EXXOEP">     0</i>
   <i type="int" name="FOURORBIT">     0</i>
   <i name="AEXX">      0.00000000</i>
   <i name="HFALPHA">      0.00000000</i>
   <i name="MCALPHA">      0.00000000</i>
   <i name="ALDAX">      1.00000000</i>
   <i name="AGGAX">      1.00000000</i>
   <i name="AMGGAX">      1.00000000</i>
   <i name="ALDAC">      1.00000000</i>
   <i name="AGGAC">      1.00000000</i>
   <i name="AMGGAC">      1.00000000</i>
   <i type="int" name="NKREDX">     1</i>
   <i type="int" name="NKREDY">     1</i>
   <i type="int" name="NKREDZ">     1</i>
   <i type="logical" name="SHIFTRED"> F  </i>
   <i type="logical" name="ODDONLY"> F  </i>
   <i type="logical" name="EVENONLY"> F  </i>
   <i type="int" name="LMAXFOCK">     0</i>
   <i type="int" name="NMAXFOCKAE">     0</i>
   <i type="logical" name="LFOCKAEDFT"> F  </i>
   <i name="HFSCREEN">      0.00000000</i>
   <i name="HFSCREENC">      0.00000000</i>
   <i type="int" name="NBANDSGWLOW">     0</i>
  </separator>
  <separator name="vdW DFT" >
   <i type="logical" name="LUSE_VDW"> F  </i>
   <i type="int" name="IVDW_NL">    -1</i>
   <i type="logical" name="LSPIN_VDW"> F  </i>
   <i name="ZAB_VDW">     -0.84910000</i>
   <i name="GAMMA_VDW">      1.39626340</i>
   <i name="ALPHA_VDW">      0.00000000</i>
   <i name="PARAM1">      0.12340000</i>
   <i name="PARAM2">      1.00000000</i>
   <i name="BPARAM">      6.30000000</i>
   <i name="CPARAM">      0.00930000</i>
  </separator>
  <separator name="model GW" >
   <i type="int" name="MODEL_GW">     0</i>
   <i name="MODEL_EPS0">      6.13175789</i>
   <i name="MODEL_ALPHA">      1.00000000</i>
  </separator>
  <separator name="linear response parameters" >
   <i type="logical" name="LEPSILON"> F  </i>
   <i type="logical" name="LRPA"> F  </i>
   <i type="logical" name="LNABLA"> F  </i>
   <i type="logical" name="LVEL"> F  </i>
   <i name="CSHIFT">      0.10000000</i>
   <i name="OMEGAMAX">     -1.00000000</i>
   <i name="DEG_THRESHOLD">      0.00200000</i>
   <i name="RTIME">     -0.10000000</i>
   <i name="WPLASMAI">      0.00000000</i>
   <v name="DFIELD">      0.00000000      0.00000000      0.00000000</v>
   <v name="WPLASMA">      0.00000000      0.00000000      0.00000000      0.00000000      0.00000000      0.00000000      0.00000000      0.00000000      0.00000000</v>
  </separator>
  <separator name="orbital magnetization" >
   <i type="logical" name="NUCIND"> F  </i>
   <v name="MAGPOS">      0.00000000      0.00000000      0.00000000</v>
   <i type="logical" name="LNICSALL"> T  </i>
   <i type="logical" name="ORBITALMAG"> F  </i>
   <i type="logical" name="LMAGBLOCH"> F  </i>
   <i type="logical" name="LCHIMAG"> F  </i>
   <i type="logical" name="LGAUGE"> T  </i>
   <i type="int" name="MAGATOM">     0</i>
   <v name="MAGDIPOL">      0.00000000      0.00000000      0.00000000</v>
   <v name="AVECCONST">      0.00000000      0.00000000      0.00000000</v>
  </separator>
  <separator name="response functions" >
   <i type="logical" name="LALL_IN_ONE"> F  </i>
   <i type="int" name="IALL_IN_ONE">    -1</i>
   <i type="int" name="NBANDS_WAVE">    -1</i>
   <i type="logical" name="LFINITE_TEMPERATURE"> F  </i>
   <i type="logical" name="LADDER"> F  </i>
   <i type="logical" name="LRPAFORCE"> F  </i>
   <i type="logical" name="LFXC"> F  </i>
   <i type="logical" name="LHARTREE"> T  </i>
   <i type="int" name="IBSE">     0</i>
   <v type="int" name="KPOINT">    -1     0     0     0</v>
   <i type="logical" name="LTCTC"> F  </i>
   <i type="logical" name="LTCTE"> F  </i>
   <i type="logical" name="LTETE"> F  </i>
   <i type="logical" name="LTRIPLET"> F  </i>
   <i type="logical" name="LFXCEPS"> F  </i>
   <i type="logical" name="LFXHEG"> F  </i>
   <i type="int" name="NATURALO">     2</i>
   <i type="logical" name="LHOLEGF"> F  </i>
   <i type="logical" name="L2ORDER"> F  </i>
   <i type="logical" name="LDMP1"> F  </i>
   <i type="logical" name="LMP2LT"> F  </i>
   <i type="logical" name="LSMP2LT"> F  </i>
   <i type="logical" name="LGWLF"> F  </i>
   <i name="ENCUTGW">     -1.60000002</i>
   <i name="ENCUTGWSOFT">     -1.60000002</i>
   <i name="ENCUTLF">     -1.00000000</i>
   <i type="logical" name="ESF_SPLINES"> F  </i>
   <i name="ESF_CONV">      0.01000000</i>
   <i type="int" name="ESF_NINTER">    15</i>
   <i type="int" name="LMAXMP2">    -1</i>
   <i name="SCISSOR">      0.00000000</i>
   <i type="int" name="NOMEGA">     0</i>
   <i type="int" name="NOMEGAR">     0</i>
   <i type="int" name="NBANDSGW">    -1</i>
   <i type="int" name="NBANDSO">    -1</i>
   <i type="int" name="NBANDSV">    -1</i>
   <i type="int" name="NELMGW">     1</i>
   <i type="int" name="NELMHF">     1</i>
   <i type="int" name="DIM">     3</i>
   <i type="int" name="IESPILON">     4</i>
   <i type="int" name="ANTIRES">     0</i>
   <i name="OMEGAMAX">    -30.00000000</i>
   <i name="OMEGAMIN">    -30.00000000</i>
   <i name="OMEGATL">   -200.00000000</i>
   <i type="int" name="OMEGAGRID">     0</i>
   <i name="CSHIFT">     -0.10000000</i>
   <i type="logical" name="LSELFENERGY"> F  </i>
   <i type="logical" name="LSPECTRAL"> F  </i>
   <i type="logical" name="LSPECTRALGW"> F  </i>
   <i type="logical" name="LSINGLES"> F  </i>
   <i type="logical" name="LFERMIGW"> F  </i>
   <i type="logical" name="ODDONLYGW"> F  </i>
   <i type="logical" name="EVENONLYGW"> F  </i>
   <i type="int" name="NKREDLFX">     1</i>
   <i type="int" name="NKREDLFY">     1</i>
   <i type="int" name="NKREDLFZ">     1</i>
   <i type="int" name="MAXMEM">  2800</i>
   <i type="int" name="TELESCOPE">     0</i>
   <i type="int" name="NTAUPAR">    -1</i>
   <i type="int" name="NOMEGAPAR">    -1</i>
   <i name="DAMP_NEWTON">      0.80000001</i>
   <i name="LAMBDA">      1.00000000</i>
  </separator>
  <separator name="External order field" >
   <i name="OFIELD_KAPPA">      0.00000000</i>
   <v name="OFIELD_K">      0.00000000      0.00000000      0.00000000</v>
   <i name="OFIELD_Q6_NEAR">      0.00000000</i>
   <i name="OFIELD_Q6_FAR">      0.00000000</i>
   <i name="OFIELD_A">      0.00000000</i>
  </separator>
  <separator name="optional k-points parameters" >
   <i type="int" name="KPOINTS_OPT_MODE">     1</i>
   <i type="logical" name="LKPOINTS_OPT"> F  </i>
  </separator>
 </parameters>
 <atominfo>
  <atoms>      14 </atoms>
  <types>       1 </types>
  <array name="atoms" >
   <dimension dim="1">ion</dimension>
   <field type="string">element</field>
   <field type="int">atomtype</field>
   <set>
    <rc><c>B </c><c>   1</c></rc>
    <rc><c>B </c><c>   1</c></rc>
    <rc><c>B </c><c>   1</c></rc>
    <rc><c>B </c><c>   1</c></rc>
    <rc><c>B </c><c>   1</c></rc>
    <rc><c>B </c><c>   1</c></rc>
    <rc><c>B </c><c>   1</c></rc>
    <rc><c>B </c><c>   1</c></rc>
    <rc><c>B </c><c>   1</c></rc>
    <rc><c>B </c><c>   1</c></rc>
    <rc><c>B </c><c>   1</c></rc>
    <rc><c>B </c><c>   1</c></rc>
    <rc><c>B </c><c>   1</c></rc>
    <rc><c>B </c><c>   1</c></rc>
   </set>
  </array>
  <array name="atomtypes" >
   <dimension dim="1">type</dimension>
   <field type="int">atomspertype</field>
   <field type="string">element</field>
   <field>mass</field>
   <field>valence</field>
   <field type="string">pseudopotential</field>
   <set>
    <rc><c>  14</c><c>B </c><c>     10.81100000</c><c>      3.00000000</c><c>  PAW_PBE B 06Sep2000                   </c></rc>
   </set>
  </array>
 </atominfo>
 <structure name="initialpos" >
  <crystal>
   <varray name="basis" >
    <v>       5.69700000       0.00000000       0.00000000 </v>
    <v>       0.00000000       4.04790000       0.00000000 </v>
    <v>       0.00000000       0.00000000       6.20420000 </v>
   </varray>
   <i name="volume">    143.07435078 </i>
   <varray name="rec_basis" >
    <v>       0.17553098       0.00000000       0.00000000 </v>
    <v>       0.00000000       0.24704168       0.00000000 </v>
    <v>       0.00000000       0.00000000       0.16118114 </v>
   </varray>
  </crystal>
  <varray name="positions" >
   <v>       0.52123000       0.50000000       0.63796000 </v>
   <v>       0.47877000       0.50000000       0.36204000 </v>
   <v>       0.97877000       0.50000000       0.63796000 </v>
   <v>       0.02123000       0.50000000       0.36204000 </v>
   <v>       0.60090000       0.50000000       0.89991000 </v>
   <v>       0.39910000       0.50000000       0.10009000 </v>
   <v>       0.89910000       0.50000000       0.89991000 </v>
   <v>       0.10090000       0.50000000       0.10009000 </v>
   <v>       0.75000000       0.79171000       0.72973000 </v>
   <v>       0.25000000       0.20829000       0.27027000 </v>
   <v>       0.75000000       0.20829000       0.72973000 </v>
   <v>       0.25000000       0.79171000       0.27027000 </v>
   <v>       0.25000000       0.50000000       0.52367000 </v>
   <v>       0.75000000       0.50000000       0.47633000 </v>
  </varray>
 </structure>
 <calculation>
  <scstep>
   <time name="dav">    6.53    6.53</time>
   <time name="total">    6.55    6.55</time>
   <energy>
    <i name="alphaZ">     94.24357992 </i>
    <i name="ewald">   -795.76658092 </i>
    <i name="hartreedc">   -271.33601302 </i>
    <i name="XCdc">     97.50108042 </i>
    <i name="pawpsdc">    608.99811708 </i>
    <i name="pawaedc">   -597.02363782 </i>
    <i name="eentropy">     -0.00250741 </i>
    <i name="bandstr">    -44.72772041 </i>
    <i name="atom">    996.37689714 </i>
    <i name="e_fr_energy">     88.26321498 </i>
    <i name="e_wo_entrp">     88.26572238 </i>
    <i name="e_0_energy">     88.26446868 </i>
   </energy>
  </scstep>
  <scstep>
   <time name="dav">    8.38    8.38</time>
   <time name="total">    8.38    8.38</time>
   <energy>
    <i name="e_fr_energy">    -91.42272099 </i>
    <i name="e_wo_entrp">    -91.41926258 </i>
    <i name="e_0_energy">    -91.42099178 </i>
   </energy>
  </scstep>
  <scstep>
   <time name="dav">    9.14    9.14</time>
   <time name="total">    9.14    9.14</time>
   <energy>
    <i name="e_fr_energy">    -97.61273542 </i>
    <i name="e_wo_entrp">    -97.60908049 </i>
    <i name="e_0_energy">    -97.61090796 </i>
   </energy>
  </scstep>
  <scstep>
   <time name="dav">    7.37    7.37</time>
   <time name="total">    7.38    7.38</time>
   <energy>
    <i name="e_fr_energy">    -97.64926512 </i>
    <i name="e_wo_entrp">    -97.64560913 </i>
    <i name="e_0_energy">    -97.64743713 </i>
   </energy>
  </scstep>
  <scstep>
   <time name="dav">    9.14    9.14</time>
   <time name="total">    9.28    9.29</time>
   <energy>
    <i name="e_fr_energy">    -97.64966652 </i>
    <i name="e_wo_entrp">    -97.64601050 </i>
    <i name="e_0_energy">    -97.64783851 </i>
   </energy>
  </scstep>
  <scstep>
   <time name="dav">    8.88    8.88</time>
   <time name="total">    9.03    9.03</time>
   <energy>
    <i name="e_fr_energy">    -92.23384519 </i>
    <i name="e_wo_entrp">    -92.23041361 </i>
    <i name="e_0_energy">    -92.23212940 </i>
   </energy>
  </scstep>
  <scstep>
   <time name="dav">    9.25    9.25</time>
   <time name="total">    9.39    9.39</time>
   <energy>
    <i name="e_fr_energy">    -90.58231728 </i>
    <i name="e_wo_entrp">    -90.57918257 </i>
    <i name="e_0_energy">    -90.58074992 </i>
   </energy>
  </scstep>
  <scstep>
   <time name="dav">    7.09    7.09</time>
   <time name="total">    7.23    7.23</time>
   <energy>
    <i name="e_fr_energy">    -90.59473029 </i>
    <i name="e_wo_entrp">    -90.59155235 </i>
    <i name="e_0_energy">    -90.59314132 </i>
   </energy>
  </scstep>
  <scstep>
   <time name="dav">    8.67    8.67</time>
   <time name="total">    8.81    8.81</time>
   <energy>
    <i name="e_fr_energy">    -90.60889637 </i>
    <i name="e_wo_entrp">    -90.60563243 </i>
    <i name="e_0_energy">    -90.60726440 </i>
   </energy>
  </scstep>
  <scstep>
   <time name="dav">    7.17    7.17</time>
   <time name="total">    7.30    7.30</time>
   <energy>
    <i name="e_fr_energy">    -90.61294897 </i>
    <i name="e_wo_entrp">    -90.60973111 </i>
    <i name="e_0_energy">    -90.61134004 </i>
   </energy>
  </scstep>
  <scstep>
   <time name="dav">    8.10    8.10</time>
   <time name="total">    8.24    8.24</time>
   <energy>
    <i name="e_fr_energy">    -90.61401886 </i>
    <i name="e_wo_entrp">    -90.61081177 </i>
    <i name="e_0_energy">    -90.61241532 </i>
   </energy>
  </scstep>
  <scstep>
   <time name="dav">    7.65    7.65</time>
   <time name="total">    7.79    7.79</time>
   <energy>
    <i name="e_fr_energy">    -90.61413483 </i>
    <i name="e_wo_entrp">    -90.61092154 </i>
    <i name="e_0_energy">    -90.61252818 </i>
   </energy>
  </scstep>
  <scstep>
   <time name="dav">    8.65    8.65</time>
   <time name="total">    8.79    8.79</time>
   <energy>
    <i name="e_fr_energy">    -90.61413970 </i>
    <i name="e_wo_entrp">    -90.61092612 </i>
    <i name="e_0_energy">    -90.61253291 </i>
   </energy>
  </scstep>
  <scstep>
   <time name="dav">    7.77    7.77</time>
   <time name="total">    7.79    7.79</time>
   <energy>
    <i name="alphaZ">     94.24357992 </i>
    <i name="ewald">   -795.76658092 </i>
    <i name="hartreedc">   -349.11602078 </i>
    <i name="XCdc">    101.59724680 </i>
    <i name="pawpsdc">   3735.25332797 </i>
    <i name="pawaedc">  -3724.43985483 </i>
    <i name="eentropy">     -0.00321369 </i>
    <i name="bandstr">   -148.75952200 </i>
    <i name="atom">    996.37689714 </i>
    <i name="e_fr_energy">    -90.61414039 </i>
    <i name="e_wo_entrp">    -90.61092669 </i>
    <i name="e_0_energy">    -90.61253354 </i>
   </energy>
  </scstep>
  <structure>
   <crystal>
    <varray name="basis" >
     <v>       5.69700000       0.00000000       0.00000000 </v>
     <v>       0.00000000       4.04790000       0.00000000 </v>
     <v>       0.00000000       0.00000000       6.20420000 </v>
    </varray>
    <i name="volume">    143.07435078 </i>
    <varray name="rec_basis" >
     <v>       0.17553098       0.00000000       0.00000000 </v>
     <v>       0.00000000       0.24704168       0.00000000 </v>
     <v>       0.00000000       0.00000000       0.16118114 </v>
    </varray>
   </crystal>
   <varray name="positions" >
    <v>       0.52123000       0.50000000       0.63796000 </v>
    <v>       0.47877000       0.50000000       0.36204000 </v>
    <v>       0.97877000       0.50000000       0.63796000 </v>
    <v>       0.02123000       0.50000000       0.36204000 </v>
    <v>       0.60090000       0.50000000       0.89991000 </v>
    <v>       0.39910000       0.50000000       0.10009000 </v>
    <v>       0.89910000       0.50000000       0.89991000 </v>
    <v>       0.10090000       0.50000000       0.10009000 </v>
    <v>       0.75000000       0.79171000       0.72973000 </v>
    <v>       0.25000000       0.20829000       0.27027000 </v>
    <v>       0.75000000       0.20829000       0.72973000 </v>
    <v>       0.25000000       0.79171000       0.27027000 </v>
    <v>       0.25000000       0.50000000       0.52367000 </v>
    <v>       0.75000000       0.50000000       0.47633000 </v>
   </varray>
  </structure>
  <varray name="forces" >
   <v>      -0.00299315      -0.00000000       0.05124441 </v>
   <v>       0.00299315       0.00000000      -0.05124441 </v>
   <v>       0.00299315       0.00000000       0.05124441 </v>
   <v>      -0.00299315      -0.00000000      -0.05124441 </v>
   <v>      -0.83222734       0.00000000       0.27681610 </v>
   <v>       0.83222734      -0.00000000      -0.27681610 </v>
   <v>       0.83222734      -0.00000000       0.27681610 </v>
   <v>      -0.83222734       0.00000000      -0.27681610 </v>
   <v>      -0.00000000       0.06147884      -0.07861734 </v>
   <v>      -0.00000000      -0.06147884       0.07861734 </v>
   <v>      -0.00000000      -0.06147884      -0.07861734 </v>
   <v>      -0.00000000       0.06147884       0.07861734 </v>
   <v>      -0.00000000       0.00000000       0.07010399 </v>
   <v>      -0.00000000       0.00000000      -0.07010399 </v>
  </varray>
  <varray name="stress" >
   <v>      14.20842874       0.00000000       0.00000000 </v>
   <v>       0.00000000       0.81022594       0.00000000 </v>
   <v>       0.00000000       0.00000000      -6.93889499 </v>
  </varray>
  <energy>
   <i name="e_fr_energy">    -90.61414039 </i>
   <i name="e_wo_entrp">    -90.61092669 </i>
   <i name="e_0_energy">    -90.61253354 </i>
  </energy>
  <time name="totalsc">  120.46  120.49</time>
  <eigenvalues>
   <array>
    <dimension dim="1">band</dimension>
    <dimension dim="2">kpoint</dimension>
    <dimension dim="3">spin</dimension>
    <field>eigene</field>
    <field>occ</field>
    <set>
     <set comment="spin 1">
      <set comment="kpoint 1">
       <r>  -12.7248    1.0000 </r>
       <r>  -11.5829    1.0000 </r>
       <r>   -8.6580    1.0000 </r>
       <r>   -8.4212    1.0000 </r>
       <r>   -6.0637    1.0000 </r>
       <r>   -5.1300    1.0000 </r>
       <r>   -4.6657    1.0000 </r>
       <r>   -4.2749    1.0000 </r>
       <r>   -4.0329    1.0000 </r>
       <r>   -3.5438    1.0000 </r>
       <r>   -2.5936    1.0000 </r>
       <r>   -2.3245    1.0000 </r>
       <r>   -1.8335    1.0000 </r>
       <r>   -1.0960    1.0000 </r>
       <r>   -0.0698    1.0000 </r>
       <r>   -0.0397    1.0000 </r>
       <r>    0.1562    1.0000 </r>
       <r>    0.1778    1.0000 </r>
       <r>    0.5656    1.0000 </r>
       <r>    2.0187    0.0001 </r>
       <r>    2.0817    0.0000 </r>
       <r>    2.2169    0.0000 </r>
       <r>    5.4577    0.0000 </r>
       <r>    5.7488    0.0000 </r>
       <r>    5.8379    0.0000 </r>
       <r>    5.9589    0.0000 </r>
       <r>    6.8142    0.0000 </r>
       <r>    7.5482    0.0000 </r>
       <r>    7.8775    0.0000 </r>
       <r>    8.5352    0.0000 </r>
       <r>    8.8019    0.0000 </r>
       <r>    8.9494    0.0000 </r>
       <r>    9.0517    0.0000 </r>
       <r>   10.1230    0.0000 </r>
       <r>   11.1839    0.0000 </r>
       <r>   11.3339    0.0000 </r>
       <r>   11.6641    0.0000 </r>
       <r>   11.7813    0.0000 </r>
       <r>   11.9406    0.0000 </r>
       <r>   12.4029    0.0000 </r>
       <r>   12.8680    0.0000 </r>
       <r>   13.4517    0.0000 </r>
       <r>   13.4789    0.0000 </r>
       <r>   15.3808    0.0000 </r>
       <r>   15.5702    0.0000 </r>
       <r>   16.0607    0.0000 </r>
       <r>   16.3323    0.0000 </r>
       <r>   16.3553    0.0000 </r>
      </set>
      <set comment="kpoint 2">
       <r>  -12.6811    1.0000 </r>
       <r>  -11.6567    1.0000 </r>
       <r>   -8.6369    1.0000 </r>
       <r>   -8.4097    1.0000 </r>
       <r>   -5.9955    1.0000 </r>
       <r>   -5.4711    1.0000 </r>
       <r>   -4.7883    1.0000 </r>
       <r>   -4.0095    1.0000 </r>
       <r>   -3.7920    1.0000 </r>
       <r>   -3.2062    1.0000 </r>
       <r>   -2.6638    1.0000 </r>
       <r>   -2.3044    1.0000 </r>
       <r>   -1.9121    1.0000 </r>
       <r>   -1.4029    1.0000 </r>
       <r>   -0.0295    1.0000 </r>
       <r>   -0.0183    1.0000 </r>
       <r>    0.0938    1.0000 </r>
       <r>    0.1981    1.0000 </r>
       <r>    0.4706    1.0000 </r>
       <r>    1.9325    0.0843 </r>
       <r>    2.0038    0.0003 </r>
       <r>    2.0958    0.0000 </r>
       <r>    5.5465    0.0000 </r>
       <r>    5.7573    0.0000 </r>
       <r>    5.8657    0.0000 </r>
       <r>    6.3046    0.0000 </r>
       <r>    6.7287    0.0000 </r>
       <r>    7.1865    0.0000 </r>
       <r>    8.0874    0.0000 </r>
       <r>    8.6715    0.0000 </r>
       <r>    9.0588    0.0000 </r>
       <r>    9.1311    0.0000 </r>
       <r>    9.2038    0.0000 </r>
       <r>   10.2358    0.0000 </r>
       <r>   10.9416    0.0000 </r>
       <r>   11.1299    0.0000 </r>
       <r>   11.2568    0.0000 </r>
       <r>   11.6985    0.0000 </r>
       <r>   12.1578    0.0000 </r>
       <r>   12.4923    0.0000 </r>
       <r>   13.1205    0.0000 </r>
       <r>   13.1272    0.0000 </r>
       <r>   14.0104    0.0000 </r>
       <r>   14.8690    0.0000 </r>
       <r>   15.7496    0.0000 </r>
       <r>   15.8286    0.0000 </r>
       <r>   16.2259    0.0000 </r>
       <r>   16.5126    0.0000 </r>
      </set>
      <set comment="kpoint 3">
       <r>  -12.5954    1.0000 </r>
       <r>  -11.7896    1.0000 </r>
       <r>   -8.5933    1.0000 </r>
       <r>   -8.3950    1.0000 </r>
       <r>   -5.9739    1.0000 </r>
       <r>   -5.7977    1.0000 </r>
       <r>   -4.7424    1.0000 </r>
       <r>   -3.8821    1.0000 </r>
       <r>   -3.2810    1.0000 </r>
       <r>   -2.8326    1.0000 </r>
       <r>   -2.7139    1.0000 </r>
       <r>   -2.2640    1.0000 </r>
       <r>   -2.0228    1.0000 </r>
       <r>   -1.9072    1.0000 </r>
       <r>   -0.2192    1.0000 </r>
       <r>    0.0140    1.0000 </r>
       <r>    0.1437    1.0000 </r>
       <r>    0.1571    1.0000 </r>
       <r>    0.4404    1.0000 </r>
       <r>    1.7848    0.9974 </r>
       <r>    1.8661    0.6919 </r>
       <r>    1.8711    0.6408 </r>
       <r>    5.6673    0.0000 </r>
       <r>    5.7138    0.0000 </r>
       <r>    6.1747    0.0000 </r>
       <r>    6.6027    0.0000 </r>
       <r>    6.7631    0.0000 </r>
       <r>    6.9318    0.0000 </r>
       <r>    8.2384    0.0000 </r>
       <r>    8.8199    0.0000 </r>
       <r>    9.0001    0.0000 </r>
       <r>    9.5752    0.0000 </r>
       <r>    9.6478    0.0000 </r>
       <r>   10.2803    0.0000 </r>
       <r>   10.4856    0.0000 </r>
       <r>   10.6254    0.0000 </r>
       <r>   11.3771    0.0000 </r>
       <r>   11.8406    0.0000 </r>
       <r>   12.3927    0.0000 </r>
       <r>   12.5654    0.0000 </r>
       <r>   12.7927    0.0000 </r>
       <r>   12.9179    0.0000 </r>
       <r>   14.6361    0.0000 </r>
       <r>   14.9177    0.0000 </r>
       <r>   15.2254    0.0000 </r>
       <r>   15.9826    0.0000 </r>
       <r>   16.0017    0.0000 </r>
       <r>   16.2903    0.0000 </r>
      </set>
      <set comment="kpoint 4">
       <r>  -12.4719    1.0000 </r>
       <r>  -11.9590    1.0000 </r>
       <r>   -8.5315    1.0000 </r>
       <r>   -8.3918    1.0000 </r>
       <r>   -6.0547    1.0000 </r>
       <r>   -6.0308    1.0000 </r>
       <r>   -4.4149    1.0000 </r>
       <r>   -3.7131    1.0000 </r>
       <r>   -3.0267    1.0000 </r>
       <r>   -2.8965    1.0000 </r>
       <r>   -2.4439    1.0000 </r>
       <r>   -2.2526    1.0000 </r>
       <r>   -2.1456    1.0000 </r>
       <r>   -2.1239    1.0000 </r>
       <r>   -0.5182    1.0000 </r>
       <r>   -0.2451    1.0000 </r>
       <r>    0.1728    1.0000 </r>
       <r>    0.2482    1.0000 </r>
       <r>    0.6135    1.0000 </r>
       <r>    1.5303    1.0000 </r>
       <r>    1.6621    1.0000 </r>
       <r>    1.7228    1.0000 </r>
       <r>    5.6986    0.0000 </r>
       <r>    5.7526    0.0000 </r>
       <r>    6.5013    0.0000 </r>
       <r>    6.6729    0.0000 </r>
       <r>    6.6988    0.0000 </r>
       <r>    7.4129    0.0000 </r>
       <r>    8.3628    0.0000 </r>
       <r>    8.6887    0.0000 </r>
       <r>    8.8093    0.0000 </r>
       <r>    9.5347    0.0000 </r>
       <r>   10.0559    0.0000 </r>
       <r>   10.1182    0.0000 </r>
       <r>   10.3983    0.0000 </r>
       <r>   11.1488    0.0000 </r>
       <r>   11.4045    0.0000 </r>
       <r>   11.9457    0.0000 </r>
       <r>   12.2041    0.0000 </r>
       <r>   12.2753    0.0000 </r>
       <r>   12.5211    0.0000 </r>
       <r>   13.2571    0.0000 </r>
       <r>   14.7130    0.0000 </r>
       <r>   14.9766    0.0000 </r>
       <r>   15.2631    0.0000 </r>
       <r>   15.3744    0.0000 </r>
       <r>   15.5727    0.0000 </r>
       <r>   16.3769    0.0000 </r>
      </set>
      <set comment="kpoint 5">
       <r>  -12.3172    1.0000 </r>
       <r>  -12.1413    1.0000 </r>
       <r>   -8.4654    1.0000 </r>
       <r>   -8.4144    1.0000 </r>
       <r>   -6.1444    1.0000 </r>
       <r>   -6.1400    1.0000 </r>
       <r>   -3.8995    1.0000 </r>
       <r>   -3.5039    1.0000 </r>
       <r>   -3.3002    1.0000 </r>
       <r>   -3.2658    1.0000 </r>
       <r>   -2.3615    1.0000 </r>
       <r>   -2.2330    1.0000 </r>
       <r>   -1.9613    1.0000 </r>
       <r>   -1.9083    1.0000 </r>
       <r>   -0.7387    1.0000 </r>
       <r>   -0.6033    1.0000 </r>
       <r>    0.2560    1.0000 </r>
       <r>    0.2896    1.0000 </r>
       <r>    0.8742    1.0000 </r>
       <r>    1.1916    1.0000 </r>
       <r>    1.5815    1.0000 </r>
       <r>    1.6089    1.0000 </r>
       <r>    5.7266    0.0000 </r>
       <r>    5.7640    0.0000 </r>
       <r>    6.4799    0.0000 </r>
       <r>    6.5438    0.0000 </r>
       <r>    7.3679    0.0000 </r>
       <r>    8.0738    0.0000 </r>
       <r>    8.0954    0.0000 </r>
       <r>    8.4806    0.0000 </r>
       <r>    8.6193    0.0000 </r>
       <r>    8.7895    0.0000 </r>
       <r>   10.5013    0.0000 </r>
       <r>   10.5176    0.0000 </r>
       <r>   10.7610    0.0000 </r>
       <r>   11.2190    0.0000 </r>
       <r>   11.4036    0.0000 </r>
       <r>   11.5998    0.0000 </r>
       <r>   11.9334    0.0000 </r>
       <r>   12.4824    0.0000 </r>
       <r>   12.7165    0.0000 </r>
       <r>   13.2525    0.0000 </r>
       <r>   14.5906    0.0000 </r>
       <r>   14.7349    0.0000 </r>
       <r>   14.8692    0.0000 </r>
       <r>   14.9280    0.0000 </r>
       <r>   16.1017    0.0000 </r>
       <r>   16.4462    0.0000 </r>
      </set>
      <set comment="kpoint 6">
       <r>  -12.7008    1.0000 </r>
       <r>  -11.5614    1.0000 </r>
       <r>   -8.6392    1.0000 </r>
       <r>   -8.3981    1.0000 </r>
       <r>   -6.0369    1.0000 </r>
       <r>   -5.0963    1.0000 </r>
       <r>   -4.6437    1.0000 </r>
       <r>   -4.5731    1.0000 </r>
       <r>   -4.1769    1.0000 </r>
       <r>   -3.5210    1.0000 </r>
       <r>   -3.2868    1.0000 </r>
       <r>   -1.7937    1.0000 </r>
       <r>   -1.0914    1.0000 </r>
       <r>   -1.0347    1.0000 </r>
       <r>   -0.3036    1.0000 </r>
       <r>   -0.2756    1.0000 </r>
       <r>    0.1697    1.0000 </r>
       <r>    0.2481    1.0000 </r>
       <r>    0.6440    1.0000 </r>
       <r>    1.7509    0.9999 </r>
       <r>    1.8308    0.9330 </r>
       <r>    2.2692    0.0000 </r>
       <r>    5.5760    0.0000 </r>
       <r>    5.7076    0.0000 </r>
       <r>    5.7414    0.0000 </r>
       <r>    6.0067    0.0000 </r>
       <r>    7.1002    0.0000 </r>
       <r>    7.8338    0.0000 </r>
       <r>    8.0769    0.0000 </r>
       <r>    8.1876    0.0000 </r>
       <r>    8.8061    0.0000 </r>
       <r>    9.0989    0.0000 </r>
       <r>    9.1501    0.0000 </r>
       <r>   10.5752    0.0000 </r>
       <r>   11.2654    0.0000 </r>
       <r>   11.3989    0.0000 </r>
       <r>   11.5980    0.0000 </r>
       <r>   11.8841    0.0000 </r>
       <r>   12.0513    0.0000 </r>
       <r>   12.6831    0.0000 </r>
       <r>   12.8681    0.0000 </r>
       <r>   13.1884    0.0000 </r>
       <r>   13.1946    0.0000 </r>
       <r>   15.3305    0.0000 </r>
       <r>   15.3801    0.0000 </r>
       <r>   15.8575    0.0000 </r>
       <r>   15.8682    0.0000 </r>
       <r>   16.2196    0.0000 </r>
      </set>
      <set comment="kpoint 7">
       <r>  -12.6571    1.0000 </r>
       <r>  -11.6350    1.0000 </r>
       <r>   -8.6180    1.0000 </r>
       <r>   -8.3870    1.0000 </r>
       <r>   -5.9669    1.0000 </r>
       <r>   -5.4410    1.0000 </r>
       <r>   -4.7682    1.0000 </r>
       <r>   -4.4903    1.0000 </r>
       <r>   -3.7527    1.0000 </r>
       <r>   -3.3676    1.0000 </r>
       <r>   -3.1681    1.0000 </r>
       <r>   -1.7720    1.0000 </r>
       <r>   -1.3975    1.0000 </r>
       <r>   -1.1539    1.0000 </r>
       <r>   -0.2646    1.0000 </r>
       <r>   -0.1949    1.0000 </r>
       <r>    0.1373    1.0000 </r>
       <r>    0.2195    1.0000 </r>
       <r>    0.5413    1.0000 </r>
       <r>    1.6704    1.0000 </r>
       <r>    1.7544    0.9999 </r>
       <r>    2.1383    0.0000 </r>
       <r>    5.6518    0.0000 </r>
       <r>    5.8063    0.0000 </r>
       <r>    5.9349    0.0000 </r>
       <r>    6.1114    0.0000 </r>
       <r>    7.0168    0.0000 </r>
       <r>    7.5086    0.0000 </r>
       <r>    8.2227    0.0000 </r>
       <r>    8.3583    0.0000 </r>
       <r>    9.1299    0.0000 </r>
       <r>    9.1603    0.0000 </r>
       <r>    9.4158    0.0000 </r>
       <r>   10.5002    0.0000 </r>
       <r>   10.8728    0.0000 </r>
       <r>   11.0826    0.0000 </r>
       <r>   11.4535    0.0000 </r>
       <r>   11.8714    0.0000 </r>
       <r>   12.2709    0.0000 </r>
       <r>   12.7381    0.0000 </r>
       <r>   12.8663    0.0000 </r>
       <r>   13.1513    0.0000 </r>
       <r>   13.7278    0.0000 </r>
       <r>   14.9542    0.0000 </r>
       <r>   15.3977    0.0000 </r>
       <r>   15.7495    0.0000 </r>
       <r>   15.7952    0.0000 </r>
       <r>   16.3997    0.0000 </r>
      </set>
      <set comment="kpoint 8">
       <r>  -12.5717    1.0000 </r>
       <r>  -11.7677    1.0000 </r>
       <r>   -8.5742    1.0000 </r>
       <r>   -8.3729    1.0000 </r>
       <r>   -5.9426    1.0000 </r>
       <r>   -5.7673    1.0000 </r>
       <r>   -4.7257    1.0000 </r>
       <r>   -4.3816    1.0000 </r>
       <r>   -3.4896    1.0000 </r>
       <r>   -3.2267    1.0000 </r>
       <r>   -2.7016    1.0000 </r>
       <r>   -1.9026    1.0000 </r>
       <r>   -1.7277    1.0000 </r>
       <r>   -1.3171    1.0000 </r>
       <r>   -0.2215    1.0000 </r>
       <r>   -0.2175    1.0000 </r>
       <r>    0.0526    1.0000 </r>
       <r>    0.2067    1.0000 </r>
       <r>    0.4650    1.0000 </r>
       <r>    1.5354    1.0000 </r>
       <r>    1.6243    1.0000 </r>
       <r>    1.8901    0.4298 </r>
       <r>    5.8555    0.0000 </r>
       <r>    5.9339    0.0000 </r>
       <r>    6.0116    0.0000 </r>
       <r>    6.5603    0.0000 </r>
       <r>    6.8961    0.0000 </r>
       <r>    7.2807    0.0000 </r>
       <r>    8.4289    0.0000 </r>
       <r>    8.4914    0.0000 </r>
       <r>    9.1003    0.0000 </r>
       <r>    9.6129    0.0000 </r>
       <r>    9.8735    0.0000 </r>
       <r>   10.1242    0.0000 </r>
       <r>   10.3528    0.0000 </r>
       <r>   10.8229    0.0000 </r>
       <r>   11.5192    0.0000 </r>
       <r>   12.1058    0.0000 </r>
       <r>   12.3078    0.0000 </r>
       <r>   12.5548    0.0000 </r>
       <r>   12.9575    0.0000 </r>
       <r>   13.0228    0.0000 </r>
       <r>   14.3048    0.0000 </r>
       <r>   15.0857    0.0000 </r>
       <r>   15.1614    0.0000 </r>
       <r>   15.6450    0.0000 </r>
       <r>   15.7083    0.0000 </r>
       <r>   16.4200    0.0000 </r>
      </set>
      <set comment="kpoint 9">
       <r>  -12.4485    1.0000 </r>
       <r>  -11.9367    1.0000 </r>
       <r>   -8.5121    1.0000 </r>
       <r>   -8.3706    1.0000 </r>
       <r>   -6.0221    1.0000 </r>
       <r>   -5.9995    1.0000 </r>
       <r>   -4.4004    1.0000 </r>
       <r>   -4.2345    1.0000 </r>
       <r>   -3.6613    1.0000 </r>
       <r>   -2.8470    1.0000 </r>
       <r>   -2.3623    1.0000 </r>
       <r>   -2.2184    1.0000 </r>
       <r>   -1.6634    1.0000 </r>
       <r>   -1.4804    1.0000 </r>
       <r>   -0.4797    1.0000 </r>
       <r>   -0.3081    1.0000 </r>
       <r>    0.0846    1.0000 </r>
       <r>    0.1145    1.0000 </r>
       <r>    0.6242    1.0000 </r>
       <r>    1.3958    1.0000 </r>
       <r>    1.4789    1.0000 </r>
       <r>    1.5660    1.0000 </r>
       <r>    5.8735    0.0000 </r>
       <r>    6.0075    0.0000 </r>
       <r>    6.5169    0.0000 </r>
       <r>    6.8064    0.0000 </r>
       <r>    6.8793    0.0000 </r>
       <r>    7.3717    0.0000 </r>
       <r>    8.4175    0.0000 </r>
       <r>    8.5993    0.0000 </r>
       <r>    8.9392    0.0000 </r>
       <r>    9.3702    0.0000 </r>
       <r>   10.0718    0.0000 </r>
       <r>   10.0983    0.0000 </r>
       <r>   10.4411    0.0000 </r>
       <r>   11.2259    0.0000 </r>
       <r>   11.3636    0.0000 </r>
       <r>   11.8411    0.0000 </r>
       <r>   12.2926    0.0000 </r>
       <r>   12.5453    0.0000 </r>
       <r>   12.7212    0.0000 </r>
       <r>   13.4595    0.0000 </r>
       <r>   14.7652    0.0000 </r>
       <r>   14.7728    0.0000 </r>
       <r>   15.1535    0.0000 </r>
       <r>   15.3072    0.0000 </r>
       <r>   15.6515    0.0000 </r>
       <r>   16.3900    0.0000 </r>
      </set>
      <set comment="kpoint 10">
       <r>  -12.2941    1.0000 </r>
       <r>  -12.1186    1.0000 </r>
       <r>   -8.4457    1.0000 </r>
       <r>   -8.3941    1.0000 </r>
       <r>   -6.1123    1.0000 </r>
       <r>   -6.1074    1.0000 </r>
       <r>   -4.0553    1.0000 </r>
       <r>   -3.8923    1.0000 </r>
       <r>   -3.8511    1.0000 </r>
       <r>   -3.2873    1.0000 </r>
       <r>   -2.1082    1.0000 </r>
       <r>   -1.9143    1.0000 </r>
       <r>   -1.5952    1.0000 </r>
       <r>   -1.5925    1.0000 </r>
       <r>   -0.7005    1.0000 </r>
       <r>   -0.5995    1.0000 </r>
       <r>    0.1176    1.0000 </r>
       <r>    0.1487    1.0000 </r>
       <r>    0.8836    1.0000 </r>
       <r>    1.1980    1.0000 </r>
       <r>    1.3422    1.0000 </r>
       <r>    1.3664    1.0000 </r>
       <r>    5.9246    0.0000 </r>
       <r>    5.9903    0.0000 </r>
       <r>    6.7954    0.0000 </r>
       <r>    6.8459    0.0000 </r>
       <r>    7.1845    0.0000 </r>
       <r>    7.8970    0.0000 </r>
       <r>    7.9422    0.0000 </r>
       <r>    8.6247    0.0000 </r>
       <r>    8.6920    0.0000 </r>
       <r>    8.8049    0.0000 </r>
       <r>   10.3199    0.0000 </r>
       <r>   10.5682    0.0000 </r>
       <r>   10.8050    0.0000 </r>
       <r>   10.9094    0.0000 </r>
       <r>   11.5507    0.0000 </r>
       <r>   11.6590    0.0000 </r>
       <r>   12.0125    0.0000 </r>
       <r>   12.6517    0.0000 </r>
       <r>   13.0251    0.0000 </r>
       <r>   13.4839    0.0000 </r>
       <r>   14.5484    0.0000 </r>
       <r>   14.7331    0.0000 </r>
       <r>   14.8300    0.0000 </r>
       <r>   15.0476    0.0000 </r>
       <r>   16.1260    0.0000 </r>
       <r>   16.4205    0.0000 </r>
      </set>
      <set comment="kpoint 11">
       <r>  -12.6564    1.0000 </r>
       <r>  -11.5216    1.0000 </r>
       <r>   -8.6048    1.0000 </r>
       <r>   -8.3554    1.0000 </r>
       <r>   -5.9874    1.0000 </r>
       <r>   -5.1300    1.0000 </r>
       <r>   -5.0054    1.0000 </r>
       <r>   -4.6018    1.0000 </r>
       <r>   -4.1608    1.0000 </r>
       <r>   -3.9090    1.0000 </r>
       <r>   -3.4677    1.0000 </r>
       <r>   -1.2046    1.0000 </r>
       <r>   -1.0821    1.0000 </r>
       <r>   -0.6477    1.0000 </r>
       <r>   -0.5417    1.0000 </r>
       <r>   -0.1762    1.0000 </r>
       <r>    0.1909    1.0000 </r>
       <r>    0.3010    1.0000 </r>
       <r>    0.7225    1.0000 </r>
       <r>    1.3681    1.0000 </r>
       <r>    1.4317    1.0000 </r>
       <r>    2.3073    0.0000 </r>
       <r>    5.2867    0.0000 </r>
       <r>    5.4523    0.0000 </r>
       <r>    6.1226    0.0000 </r>
       <r>    6.1951    0.0000 </r>
       <r>    7.5357    0.0000 </r>
       <r>    7.6246    0.0000 </r>
       <r>    8.3164    0.0000 </r>
       <r>    8.7259    0.0000 </r>
       <r>    8.8819    0.0000 </r>
       <r>    9.2407    0.0000 </r>
       <r>    9.3706    0.0000 </r>
       <r>   10.8804    0.0000 </r>
       <r>   11.3172    0.0000 </r>
       <r>   11.5712    0.0000 </r>
       <r>   11.7001    0.0000 </r>
       <r>   12.0848    0.0000 </r>
       <r>   12.2675    0.0000 </r>
       <r>   12.7449    0.0000 </r>
       <r>   12.7583    0.0000 </r>
       <r>   13.0050    0.0000 </r>
       <r>   13.2232    0.0000 </r>
       <r>   14.6745    0.0000 </r>
       <r>   15.1597    0.0000 </r>
       <r>   15.3416    0.0000 </r>
       <r>   15.4292    0.0000 </r>
       <r>   15.9602    0.0000 </r>
      </set>
      <set comment="kpoint 12">
       <r>  -12.6130    1.0000 </r>
       <r>  -11.5949    1.0000 </r>
       <r>   -8.5833    1.0000 </r>
       <r>   -8.3450    1.0000 </r>
       <r>   -5.9140    1.0000 </r>
       <r>   -5.3929    1.0000 </r>
       <r>   -5.0313    1.0000 </r>
       <r>   -4.7305    1.0000 </r>
       <r>   -3.9751    1.0000 </r>
       <r>   -3.7105    1.0000 </r>
       <r>   -3.1287    1.0000 </r>
       <r>   -1.3892    1.0000 </r>
       <r>   -1.1782    1.0000 </r>
       <r>   -0.7549    1.0000 </r>
       <r>   -0.5037    1.0000 </r>
       <r>   -0.0952    1.0000 </r>
       <r>    0.1715    1.0000 </r>
       <r>    0.2447    1.0000 </r>
       <r>    0.6100    1.0000 </r>
       <r>    1.2889    1.0000 </r>
       <r>    1.3620    1.0000 </r>
       <r>    2.1715    0.0000 </r>
       <r>    5.3669    0.0000 </r>
       <r>    5.7983    0.0000 </r>
       <r>    6.1411    0.0000 </r>
       <r>    6.2371    0.0000 </r>
       <r>    7.4550    0.0000 </r>
       <r>    7.7812    0.0000 </r>
       <r>    8.0487    0.0000 </r>
       <r>    8.8167    0.0000 </r>
       <r>    9.2525    0.0000 </r>
       <r>    9.2857    0.0000 </r>
       <r>    9.6553    0.0000 </r>
       <r>   10.5159    0.0000 </r>
       <r>   10.7782    0.0000 </r>
       <r>   11.2751    0.0000 </r>
       <r>   11.7181    0.0000 </r>
       <r>   12.1971    0.0000 </r>
       <r>   12.4298    0.0000 </r>
       <r>   12.4996    0.0000 </r>
       <r>   13.1612    0.0000 </r>
       <r>   13.2716    0.0000 </r>
       <r>   13.4361    0.0000 </r>
       <r>   14.6847    0.0000 </r>
       <r>   14.8212    0.0000 </r>
       <r>   15.2825    0.0000 </r>
       <r>   15.4930    0.0000 </r>
       <r>   15.9864    0.0000 </r>
      </set>
      <set comment="kpoint 13">
       <r>  -12.5279    1.0000 </r>
       <r>  -11.7271    1.0000 </r>
       <r>   -8.5391    1.0000 </r>
       <r>   -8.3323    1.0000 </r>
       <r>   -5.8843    1.0000 </r>
       <r>   -5.7125    1.0000 </r>
       <r>   -4.9396    1.0000 </r>
       <r>   -4.6946    1.0000 </r>
       <r>   -4.0988    1.0000 </r>
       <r>   -3.1764    1.0000 </r>
       <r>   -2.6577    1.0000 </r>
       <r>   -1.8862    1.0000 </r>
       <r>   -1.1376    1.0000 </r>
       <r>   -0.8937    1.0000 </r>
       <r>   -0.4508    1.0000 </r>
       <r>   -0.0860    1.0000 </r>
       <r>    0.0135    1.0000 </r>
       <r>    0.2566    1.0000 </r>
       <r>    0.4949    1.0000 </r>
       <r>    1.1574    1.0000 </r>
       <r>    1.2437    1.0000 </r>
       <r>    1.9149    0.1899 </r>
       <r>    5.6882    0.0000 </r>
       <r>    6.0962    0.0000 </r>
       <r>    6.2746    0.0000 </r>
       <r>    6.3669    0.0000 </r>
       <r>    7.3526    0.0000 </r>
       <r>    7.8594    0.0000 </r>
       <r>    8.0150    0.0000 </r>
       <r>    8.9453    0.0000 </r>
       <r>    9.2461    0.0000 </r>
       <r>    9.7187    0.0000 </r>
       <r>    9.8509    0.0000 </r>
       <r>   10.1373    0.0000 </r>
       <r>   10.2532    0.0000 </r>
       <r>   11.0618    0.0000 </r>
       <r>   11.5859    0.0000 </r>
       <r>   12.1041    0.0000 </r>
       <r>   12.5083    0.0000 </r>
       <r>   12.8004    0.0000 </r>
       <r>   13.0435    0.0000 </r>
       <r>   13.4456    0.0000 </r>
       <r>   13.9585    0.0000 </r>
       <r>   14.5934    0.0000 </r>
       <r>   14.8709    0.0000 </r>
       <r>   15.3027    0.0000 </r>
       <r>   15.5121    0.0000 </r>
       <r>   16.1971    0.0000 </r>
      </set>
      <set comment="kpoint 14">
       <r>  -12.4052    1.0000 </r>
       <r>  -11.8954    1.0000 </r>
       <r>   -8.4765    1.0000 </r>
       <r>   -8.3317    1.0000 </r>
       <r>   -5.9615    1.0000 </r>
       <r>   -5.9418    1.0000 </r>
       <r>   -4.8037    1.0000 </r>
       <r>   -4.3737    1.0000 </r>
       <r>   -4.2635    1.0000 </r>
       <r>   -2.8083    1.0000 </r>
       <r>   -2.3212    1.0000 </r>
       <r>   -2.1773    1.0000 </r>
       <r>   -1.0810    1.0000 </r>
       <r>   -1.0305    1.0000 </r>
       <r>   -0.4560    1.0000 </r>
       <r>   -0.3720    1.0000 </r>
       <r>    0.0574    1.0000 </r>
       <r>    0.0613    1.0000 </r>
       <r>    0.6418    1.0000 </r>
       <r>    1.0279    1.0000 </r>
       <r>    1.1110    1.0000 </r>
       <r>    1.5799    1.0000 </r>
       <r>    6.1074    0.0000 </r>
       <r>    6.2234    0.0000 </r>
       <r>    6.3985    0.0000 </r>
       <r>    6.8017    0.0000 </r>
       <r>    7.2966    0.0000 </r>
       <r>    7.7806    0.0000 </r>
       <r>    8.0700    0.0000 </r>
       <r>    9.0449    0.0000 </r>
       <r>    9.1032    0.0000 </r>
       <r>    9.1757    0.0000 </r>
       <r>    9.8873    0.0000 </r>
       <r>   10.1862    0.0000 </r>
       <r>   10.7007    0.0000 </r>
       <r>   11.0772    0.0000 </r>
       <r>   11.3250    0.0000 </r>
       <r>   11.9502    0.0000 </r>
       <r>   12.3551    0.0000 </r>
       <r>   12.9849    0.0000 </r>
       <r>   13.0359    0.0000 </r>
       <r>   13.7897    0.0000 </r>
       <r>   14.3798    0.0000 </r>
       <r>   14.3957    0.0000 </r>
       <r>   15.0296    0.0000 </r>
       <r>   15.1228    0.0000 </r>
       <r>   15.6134    0.0000 </r>
       <r>   16.3743    0.0000 </r>
      </set>
      <set comment="kpoint 15">
       <r>  -12.2514    1.0000 </r>
       <r>  -12.0767    1.0000 </r>
       <r>   -8.4094    1.0000 </r>
       <r>   -8.3568    1.0000 </r>
       <r>   -6.0527    1.0000 </r>
       <r>   -6.0468    1.0000 </r>
       <r>   -4.6358    1.0000 </r>
       <r>   -4.4500    1.0000 </r>
       <r>   -3.8611    1.0000 </r>
       <r>   -3.2648    1.0000 </r>
       <r>   -2.0393    1.0000 </r>
       <r>   -1.8737    1.0000 </r>
       <r>   -1.1021    1.0000 </r>
       <r>   -1.0405    1.0000 </r>
       <r>   -0.6295    1.0000 </r>
       <r>   -0.6228    1.0000 </r>
       <r>    0.0077    1.0000 </r>
       <r>    0.0513    1.0000 </r>
       <r>    0.8993    1.0000 </r>
       <r>    0.9656    1.0000 </r>
       <r>    1.0064    1.0000 </r>
       <r>    1.2265    1.0000 </r>
       <r>    6.1991    0.0000 </r>
       <r>    6.3173    0.0000 </r>
       <r>    6.8763    0.0000 </r>
       <r>    7.2159    0.0000 </r>
       <r>    7.2745    0.0000 </r>
       <r>    7.6209    0.0000 </r>
       <r>    7.9277    0.0000 </r>
       <r>    8.4392    0.0000 </r>
       <r>    9.1010    0.0000 </r>
       <r>    9.1332    0.0000 </r>
       <r>   10.0111    0.0000 </r>
       <r>   10.4832    0.0000 </r>
       <r>   10.7073    0.0000 </r>
       <r>   10.9776    0.0000 </r>
       <r>   11.7309    0.0000 </r>
       <r>   11.7492    0.0000 </r>
       <r>   12.1335    0.0000 </r>
       <r>   12.9091    0.0000 </r>
       <r>   13.4149    0.0000 </r>
       <r>   13.7623    0.0000 </r>
       <r>   14.2274    0.0000 </r>
       <r>   14.3820    0.0000 </r>
       <r>   14.9924    0.0000 </r>
       <r>   15.1323    0.0000 </r>
       <r>   15.9898    0.0000 </r>
       <r>   16.2936    0.0000 </r>
      </set>
      <set comment="kpoint 16">
       <r>  -12.5990    1.0000 </r>
       <r>  -11.4702    1.0000 </r>
       <r>   -8.5608    1.0000 </r>
       <r>   -8.3002    1.0000 </r>
       <r>   -5.9232    1.0000 </r>
       <r>   -5.6110    1.0000 </r>
       <r>   -4.9351    1.0000 </r>
       <r>   -4.5456    1.0000 </r>
       <r>   -4.4292    1.0000 </r>
       <r>   -4.1214    1.0000 </r>
       <r>   -3.4057    1.0000 </r>
       <r>   -1.2202    1.0000 </r>
       <r>   -1.0678    1.0000 </r>
       <r>   -1.0024    1.0000 </r>
       <r>   -0.1945    1.0000 </r>
       <r>    0.2192    1.0000 </r>
       <r>    0.3444    1.0000 </r>
       <r>    0.5946    1.0000 </r>
       <r>    0.7862    1.0000 </r>
       <r>    0.9829    1.0000 </r>
       <r>    0.9971    1.0000 </r>
       <r>    2.3415    0.0000 </r>
       <r>    4.9431    0.0000 </r>
       <r>    5.1587    0.0000 </r>
       <r>    6.3555    0.0000 </r>
       <r>    6.5850    0.0000 </r>
       <r>    7.2661    0.0000 </r>
       <r>    7.9669    0.0000 </r>
       <r>    8.7002    0.0000 </r>
       <r>    9.0575    0.0000 </r>
       <r>    9.4636    0.0000 </r>
       <r>    9.5784    0.0000 </r>
       <r>    9.6518    0.0000 </r>
       <r>   10.7418    0.0000 </r>
       <r>   11.2677    0.0000 </r>
       <r>   11.9649    0.0000 </r>
       <r>   12.0165    0.0000 </r>
       <r>   12.2936    0.0000 </r>
       <r>   12.4222    0.0000 </r>
       <r>   12.4466    0.0000 </r>
       <r>   12.5636    0.0000 </r>
       <r>   12.9904    0.0000 </r>
       <r>   13.7922    0.0000 </r>
       <r>   13.8788    0.0000 </r>
       <r>   14.4164    0.0000 </r>
       <r>   15.1012    0.0000 </r>
       <r>   15.4017    0.0000 </r>
       <r>   15.8586    0.0000 </r>
      </set>
      <set comment="kpoint 17">
       <r>  -12.5557    1.0000 </r>
       <r>  -11.5432    1.0000 </r>
       <r>   -8.5389    1.0000 </r>
       <r>   -8.2907    1.0000 </r>
       <r>   -5.8452    1.0000 </r>
       <r>   -5.5763    1.0000 </r>
       <r>   -5.2724    1.0000 </r>
       <r>   -4.6806    1.0000 </r>
       <r>   -4.4947    1.0000 </r>
       <r>   -3.6566    1.0000 </r>
       <r>   -3.0671    1.0000 </r>
       <r>   -1.3832    1.0000 </r>
       <r>   -1.1628    1.0000 </r>
       <r>   -1.0171    1.0000 </r>
       <r>   -0.1959    1.0000 </r>
       <r>    0.2043    1.0000 </r>
       <r>    0.2763    1.0000 </r>
       <r>    0.5740    1.0000 </r>
       <r>    0.6649    1.0000 </r>
       <r>    0.9176    1.0000 </r>
       <r>    0.9556    1.0000 </r>
       <r>    2.2037    0.0000 </r>
       <r>    5.0391    0.0000 </r>
       <r>    5.4903    0.0000 </r>
       <r>    6.3017    0.0000 </r>
       <r>    6.7167    0.0000 </r>
       <r>    7.4017    0.0000 </r>
       <r>    7.9243    0.0000 </r>
       <r>    8.6331    0.0000 </r>
       <r>    9.1738    0.0000 </r>
       <r>    9.4274    0.0000 </r>
       <r>    9.7886    0.0000 </r>
       <r>    9.8960    0.0000 </r>
       <r>   10.3341    0.0000 </r>
       <r>   10.7055    0.0000 </r>
       <r>   11.7043    0.0000 </r>
       <r>   11.8842    0.0000 </r>
       <r>   12.2439    0.0000 </r>
       <r>   12.4772    0.0000 </r>
       <r>   12.6409    0.0000 </r>
       <r>   12.9595    0.0000 </r>
       <r>   13.3900    0.0000 </r>
       <r>   13.7900    0.0000 </r>
       <r>   13.9227    0.0000 </r>
       <r>   14.2531    0.0000 </r>
       <r>   15.0761    0.0000 </r>
       <r>   15.4308    0.0000 </r>
       <r>   15.7297    0.0000 </r>
      </set>
      <set comment="kpoint 18">
       <r>  -12.4711    1.0000 </r>
       <r>  -11.6747    1.0000 </r>
       <r>   -8.4941    1.0000 </r>
       <r>   -8.2798    1.0000 </r>
       <r>   -5.8079    1.0000 </r>
       <r>   -5.6605    1.0000 </r>
       <r>   -5.4207    1.0000 </r>
       <r>   -4.6548    1.0000 </r>
       <r>   -4.6171    1.0000 </r>
       <r>   -3.1171    1.0000 </r>
       <r>   -2.5973    1.0000 </r>
       <r>   -1.8673    1.0000 </r>
       <r>   -1.1021    1.0000 </r>
       <r>   -1.0358    1.0000 </r>
       <r>   -0.2142    1.0000 </r>
       <r>   -0.0500    1.0000 </r>
       <r>    0.3146    1.0000 </r>
       <r>    0.5060    1.0000 </r>
       <r>    0.5223    1.0000 </r>
       <r>    0.8291    1.0000 </r>
       <r>    0.8886    1.0000 </r>
       <r>    1.9435    0.0458 </r>
       <r>    5.3648    0.0000 </r>
       <r>    5.9651    0.0000 </r>
       <r>    6.2744    0.0000 </r>
       <r>    6.8296    0.0000 </r>
       <r>    7.5692    0.0000 </r>
       <r>    7.9445    0.0000 </r>
       <r>    8.5587    0.0000 </r>
       <r>    9.3628    0.0000 </r>
       <r>    9.3933    0.0000 </r>
       <r>    9.5907    0.0000 </r>
       <r>   10.0420    0.0000 </r>
       <r>   10.1109    0.0000 </r>
       <r>   10.5587    0.0000 </r>
       <r>   11.3859    0.0000 </r>
       <r>   11.3963    0.0000 </r>
       <r>   12.2373    0.0000 </r>
       <r>   12.7394    0.0000 </r>
       <r>   12.9550    0.0000 </r>
       <r>   13.1786    0.0000 </r>
       <r>   13.5205    0.0000 </r>
       <r>   13.7636    0.0000 </r>
       <r>   14.0150    0.0000 </r>
       <r>   14.3888    0.0000 </r>
       <r>   15.1675    0.0000 </r>
       <r>   15.3570    0.0000 </r>
       <r>   15.9908    0.0000 </r>
      </set>
      <set comment="kpoint 19">
       <r>  -12.3491    1.0000 </r>
       <r>  -11.8421    1.0000 </r>
       <r>   -8.4310    1.0000 </r>
       <r>   -8.2815    1.0000 </r>
       <r>   -5.8819    1.0000 </r>
       <r>   -5.8691    1.0000 </r>
       <r>   -5.3076    1.0000 </r>
       <r>   -4.7816    1.0000 </r>
       <r>   -4.3379    1.0000 </r>
       <r>   -2.7635    1.0000 </r>
       <r>   -2.2787    1.0000 </r>
       <r>   -2.1216    1.0000 </r>
       <r>   -1.0440    1.0000 </r>
       <r>   -1.0174    1.0000 </r>
       <r>   -0.3741    1.0000 </r>
       <r>   -0.3294    1.0000 </r>
       <r>    0.1514    1.0000 </r>
       <r>    0.3754    1.0000 </r>
       <r>    0.6618    1.0000 </r>
       <r>    0.7732    1.0000 </r>
       <r>    0.8224    1.0000 </r>
       <r>    1.6046    1.0000 </r>
       <r>    5.8922    0.0000 </r>
       <r>    6.3066    0.0000 </r>
       <r>    6.5441    0.0000 </r>
       <r>    6.7817    0.0000 </r>
       <r>    7.5686    0.0000 </r>
       <r>    8.0027    0.0000 </r>
       <r>    8.5125    0.0000 </r>
       <r>    8.9139    0.0000 </r>
       <r>    9.2702    0.0000 </r>
       <r>    9.5814    0.0000 </r>
       <r>    9.9033    0.0000 </r>
       <r>   10.3438    0.0000 </r>
       <r>   10.7932    0.0000 </r>
       <r>   11.0919    0.0000 </r>
       <r>   11.4420    0.0000 </r>
       <r>   12.1666    0.0000 </r>
       <r>   12.4208    0.0000 </r>
       <r>   13.1577    0.0000 </r>
       <r>   13.2788    0.0000 </r>
       <r>   13.6586    0.0000 </r>
       <r>   13.8994    0.0000 </r>
       <r>   14.1502    0.0000 </r>
       <r>   14.7565    0.0000 </r>
       <r>   14.9907    0.0000 </r>
       <r>   15.4328    0.0000 </r>
       <r>   16.3265    0.0000 </r>
      </set>
      <set comment="kpoint 20">
       <r>  -12.1962    1.0000 </r>
       <r>  -12.0224    1.0000 </r>
       <r>   -8.3630    1.0000 </r>
       <r>   -8.3088    1.0000 </r>
       <r>   -5.9752    1.0000 </r>
       <r>   -5.9673    1.0000 </r>
       <r>   -5.1462    1.0000 </r>
       <r>   -4.9645    1.0000 </r>
       <r>   -3.8289    1.0000 </r>
       <r>   -3.2346    1.0000 </r>
       <r>   -1.9824    1.0000 </r>
       <r>   -1.8277    1.0000 </r>
       <r>   -0.9807    1.0000 </r>
       <r>   -0.9214    1.0000 </r>
       <r>   -0.6718    1.0000 </r>
       <r>   -0.6288    1.0000 </r>
       <r>    0.1271    1.0000 </r>
       <r>    0.2276    1.0000 </r>
       <r>    0.7577    1.0000 </r>
       <r>    0.7736    1.0000 </r>
       <r>    0.9251    1.0000 </r>
       <r>    1.2481    1.0000 </r>
       <r>    6.4398    0.0000 </r>
       <r>    6.5533    0.0000 </r>
       <r>    6.6190    0.0000 </r>
       <r>    7.1342    0.0000 </r>
       <r>    7.2046    0.0000 </r>
       <r>    7.6913    0.0000 </r>
       <r>    8.5012    0.0000 </r>
       <r>    8.5655    0.0000 </r>
       <r>    9.4645    0.0000 </r>
       <r>    9.6373    0.0000 </r>
       <r>    9.8432    0.0000 </r>
       <r>   10.1403    0.0000 </r>
       <r>   10.8575    0.0000 </r>
       <r>   11.2319    0.0000 </r>
       <r>   11.8683    0.0000 </r>
       <r>   11.9432    0.0000 </r>
       <r>   12.2551    0.0000 </r>
       <r>   13.1457    0.0000 </r>
       <r>   13.4364    0.0000 </r>
       <r>   13.6222    0.0000 </r>
       <r>   13.8375    0.0000 </r>
       <r>   13.9463    0.0000 </r>
       <r>   15.0987    0.0000 </r>
       <r>   15.1163    0.0000 </r>
       <r>   15.6660    0.0000 </r>
       <r>   15.9681    0.0000 </r>
      </set>
      <set comment="kpoint 21">
       <r>  -12.5388    1.0000 </r>
[...]
       <r>   -2.3159    1.0000 </r>
       <r>   -2.1474    1.0000 </r>
       <r>   -1.9835    1.0000 </r>
       <r>   -1.4914    1.0000 </r>
       <r>   -0.7385    1.0000 </r>
       <r>   -0.2026    1.0000 </r>
       <r>    0.1652    1.0000 </r>
       <r>    0.3845    1.0000 </r>
       <r>    0.5124    1.0000 </r>
       <r>    1.5879    1.0000 </r>
       <r>    1.6152    1.0000 </r>
       <r>    1.8706    0.6454 </r>
       <r>    5.5109    0.0000 </r>
       <r>    6.1456    0.0000 </r>
       <r>    6.6662    0.0000 </r>
       <r>    7.2164    0.0000 </r>
       <r>    7.7804    0.0000 </r>
       <r>    8.2235    0.0000 </r>
       <r>    8.9900    0.0000 </r>
       <r>    9.1492    0.0000 </r>
       <r>    9.7187    0.0000 </r>
       <r>    9.9542    0.0000 </r>
       <r>   10.5850    0.0000 </r>
       <r>   11.0295    0.0000 </r>
       <r>   11.2043    0.0000 </r>
       <r>   11.4762    0.0000 </r>
       <r>   11.5650    0.0000 </r>
       <r>   11.9478    0.0000 </r>
       <r>   12.8353    0.0000 </r>
       <r>   13.1425    0.0000 </r>
       <r>   13.3659    0.0000 </r>
       <r>   13.7460    0.0000 </r>
       <r>   13.8701    0.0000 </r>
       <r>   14.1532    0.0000 </r>
       <r>   14.4743    0.0000 </r>
       <r>   14.9647    0.0000 </r>
       <r>   15.0916    0.0000 </r>
       <r>   15.3921    0.0000 </r>
      </set>
      <set comment="kpoint 175">
       <r>  -12.0208    1.0000 </r>
       <r>  -11.8817    1.0000 </r>
       <r>   -8.5472    1.0000 </r>
       <r>   -8.4349    1.0000 </r>
       <r>   -5.9267    1.0000 </r>
       <r>   -5.8205    1.0000 </r>
       <r>   -4.8922    1.0000 </r>
       <r>   -4.5686    1.0000 </r>
       <r>   -4.4139    1.0000 </r>
       <r>   -3.9758    1.0000 </r>
       <r>   -2.1996    1.0000 </r>
       <r>   -2.1380    1.0000 </r>
       <r>   -2.0582    1.0000 </r>
       <r>   -1.7739    1.0000 </r>
       <r>   -0.2203    1.0000 </r>
       <r>   -0.0067    1.0000 </r>
       <r>    0.3875    1.0000 </r>
       <r>    0.4754    1.0000 </r>
       <r>    0.5473    1.0000 </r>
       <r>    0.8735    1.0000 </r>
       <r>    1.6293    1.0000 </r>
       <r>    1.7289    1.0000 </r>
       <r>    5.8580    0.0000 </r>
       <r>    6.0435    0.0000 </r>
       <r>    6.8684    0.0000 </r>
       <r>    7.4052    0.0000 </r>
       <r>    7.4723    0.0000 </r>
       <r>    7.5750    0.0000 </r>
       <r>    9.3946    0.0000 </r>
       <r>    9.5785    0.0000 </r>
       <r>    9.7873    0.0000 </r>
       <r>    9.9649    0.0000 </r>
       <r>   10.4615    0.0000 </r>
       <r>   10.8114    0.0000 </r>
       <r>   11.2339    0.0000 </r>
       <r>   11.5070    0.0000 </r>
       <r>   11.5173    0.0000 </r>
       <r>   11.6105    0.0000 </r>
       <r>   13.0798    0.0000 </r>
       <r>   13.1858    0.0000 </r>
       <r>   13.7189    0.0000 </r>
       <r>   14.0516    0.0000 </r>
       <r>   14.1858    0.0000 </r>
       <r>   14.2886    0.0000 </r>
       <r>   14.5906    0.0000 </r>
       <r>   14.7347    0.0000 </r>
       <r>   14.8831    0.0000 </r>
       <r>   15.0443    0.0000 </r>
      </set>
     </set>
    </set>
   </array>
  </eigenvalues>
  <separator name="orbital magnetization" >
   <v name="MAGDIPOLOUT">      0.00000000      0.00000000      0.00000000</v>
  </separator>
  <dos>
   <i name="efermi">      1.88380571 </i>
   <total>
    <array>
     <dimension dim="1">gridpoints</dimension>
     <dimension dim="2">spin</dimension>
     <field>energy</field>
     <field>total</field>
     <field>integrated</field>
     <set>
      <set comment="spin 1">
       <r>   -14.1867     0.0000     0.0000 </r>
       <r>   -14.0795     0.0000     0.0000 </r>
       <r>   -13.9723     0.0000     0.0000 </r>
       <r>   -13.8651     0.0000     0.0000 </r>
       <r>   -13.7578     0.0000     0.0000 </r>
       <r>   -13.6506     0.0000     0.0000 </r>
       <r>   -13.5434     0.0000     0.0000 </r>
       <r>   -13.4362     0.0000     0.0000 </r>
       <r>   -13.3290     0.0000     0.0000 </r>
       <r>   -13.2218     0.0000     0.0000 </r>
       <r>   -13.1146     0.0000     0.0000 </r>
       <r>   -13.0074     0.0000     0.0000 </r>
       <r>   -12.9002     0.0000     0.0000 </r>
       <r>   -12.7930     0.0038     0.0004 </r>
       <r>   -12.6858     0.5087     0.0549 </r>
       <r>   -12.5786     2.3909     0.3113 </r>
       <r>   -12.4714     3.5647     0.6934 </r>
       <r>   -12.3642     4.3715     1.1620 </r>
       <r>   -12.2570     3.5387     1.5414 </r>
       <r>   -12.1498     2.7350     1.8346 </r>
       <r>   -12.0426     2.7511     2.1295 </r>
       <r>   -11.9354     2.5051     2.3981 </r>
       <r>   -11.8282     2.7710     2.6951 </r>
       <r>   -11.7210     3.4276     3.0626 </r>
       <r>   -11.6138     3.5355     3.4416 </r>
       <r>   -11.5066     3.1143     3.7755 </r>
       <r>   -11.3994     1.6668     3.9542 </r>
       <r>   -11.2922     0.4204     3.9992 </r>
       <r>   -11.1850     0.0072     4.0000 </r>
       <r>   -11.0778     0.0000     4.0000 </r>
       <r>   -10.9706     0.0000     4.0000 </r>
       <r>   -10.8633     0.0000     4.0000 </r>
       <r>   -10.7561     0.0000     4.0000 </r>
       <r>   -10.6489     0.0000     4.0000 </r>
       <r>   -10.5417     0.0000     4.0000 </r>
       <r>   -10.4345     0.0000     4.0000 </r>
       <r>   -10.3273     0.0000     4.0000 </r>
       <r>   -10.2201     0.0000     4.0000 </r>
       <r>   -10.1129     0.0000     4.0000 </r>
       <r>   -10.0057     0.0000     4.0000 </r>
       <r>    -9.8985     0.0000     4.0000 </r>
       <r>    -9.7913     0.0000     4.0000 </r>
       <r>    -9.6841     0.0000     4.0000 </r>
       <r>    -9.5769     0.0000     4.0000 </r>
       <r>    -9.4697     0.0000     4.0000 </r>
       <r>    -9.3625     0.0000     4.0000 </r>
       <r>    -9.2553     0.0000     4.0000 </r>
       <r>    -9.1481     0.0000     4.0000 </r>
       <r>    -9.0409     0.0000     4.0000 </r>
       <r>    -8.9337     0.0006     4.0001 </r>
       <r>    -8.8265     0.2766     4.0297 </r>
       <r>    -8.7193     2.0920     4.2540 </r>
       <r>    -8.6121     5.3339     4.8258 </r>
       <r>    -8.5049     6.9884     5.5750 </r>
       <r>    -8.3977     6.2964     6.2500 </r>
       <r>    -8.2905     5.3254     6.8209 </r>
       <r>    -8.1833     4.8352     7.3393 </r>
       <r>    -8.0761     3.8712     7.7543 </r>
       <r>    -7.9688     1.6644     7.9327 </r>
       <r>    -7.8616     0.5762     7.9945 </r>
       <r>    -7.7544     0.0516     8.0000 </r>
       <r>    -7.6472     0.0000     8.0000 </r>
       <r>    -7.5400     0.0000     8.0000 </r>
       <r>    -7.4328     0.0000     8.0000 </r>
       <r>    -7.3256     0.0000     8.0000 </r>
       <r>    -7.2184     0.0000     8.0000 </r>
       <r>    -7.1112     0.0000     8.0000 </r>
       <r>    -7.0040     0.0004     8.0000 </r>
       <r>    -6.8968     0.1131     8.0122 </r>
       <r>    -6.7896     0.2577     8.0398 </r>
       <r>    -6.6824     0.4263     8.0855 </r>
       <r>    -6.5752     0.7662     8.1676 </r>
       <r>    -6.4680     0.8511     8.2589 </r>
       <r>    -6.3608     1.4449     8.4138 </r>
       <r>    -6.2536     1.9635     8.6243 </r>
       <r>    -6.1464     3.0573     8.9520 </r>
       <r>    -6.0392     3.7836     9.3576 </r>
       <r>    -5.9320     4.1145     9.7987 </r>
       <r>    -5.8248     4.0452    10.2324 </r>
       <r>    -5.7176     3.8618    10.6464 </r>
       <r>    -5.6104     4.0728    11.0830 </r>
       <r>    -5.5032     4.2207    11.5355 </r>
       <r>    -5.3960     4.5453    12.0228 </r>
       <r>    -5.2888     4.5992    12.5158 </r>
       <r>    -5.1815     4.4908    12.9972 </r>
       <r>    -5.0743     3.8689    13.4120 </r>
       <r>    -4.9671     3.2276    13.7580 </r>
       <r>    -4.8599     2.9522    14.0745 </r>
       <r>    -4.7527     2.3370    14.3250 </r>
       <r>    -4.6455     2.8964    14.6355 </r>
       <r>    -4.5383     3.3691    14.9967 </r>
       <r>    -4.4311     3.4718    15.3689 </r>
       <r>    -4.3239     3.3318    15.7261 </r>
       <r>    -4.2167     2.9542    16.0428 </r>
       <r>    -4.1095     2.9074    16.3545 </r>
       <r>    -4.0023     2.9455    16.6702 </r>
       <r>    -3.8951     2.8602    16.9768 </r>
       <r>    -3.7879     3.1201    17.3113 </r>
       <r>    -3.6807     2.8744    17.6195 </r>
       <r>    -3.5735     2.7052    17.9095 </r>
       <r>    -3.4663     3.0652    18.2381 </r>
       <r>    -3.3591     2.6380    18.5209 </r>
       <r>    -3.2519     2.8620    18.8277 </r>
       <r>    -3.1447     2.7438    19.1218 </r>
       <r>    -3.0375     2.7400    19.4156 </r>
       <r>    -2.9303     3.0454    19.7421 </r>
       <r>    -2.8231     2.9747    20.0610 </r>
       <r>    -2.7159     2.4302    20.3215 </r>
       <r>    -2.6087     2.6573    20.6064 </r>
       <r>    -2.5015     3.0215    20.9303 </r>
       <r>    -2.3943     2.9851    21.2503 </r>
       <r>    -2.2870     3.1929    21.5926 </r>
       <r>    -2.1798     4.0096    22.0224 </r>
       <r>    -2.0726     3.6563    22.4144 </r>
       <r>    -1.9654     3.2745    22.7654 </r>
       <r>    -1.8582     5.1296    23.3154 </r>
       <r>    -1.7510     5.5777    23.9133 </r>
       <r>    -1.6438     5.6043    24.5141 </r>
       <r>    -1.5366     6.1838    25.1770 </r>
       <r>    -1.4294     6.1105    25.8321 </r>
       <r>    -1.3222     5.5672    26.4289 </r>
       <r>    -1.2150     4.6833    26.9310 </r>
       <r>    -1.1078     6.4980    27.6276 </r>
       <r>    -1.0006     3.9747    28.0537 </r>
       <r>    -0.8934     2.2701    28.2971 </r>
       <r>    -0.7862     2.6993    28.5865 </r>
       <r>    -0.6790     2.8800    28.8952 </r>
       <r>    -0.5718     4.5242    29.3802 </r>
       <r>    -0.4646     6.8637    30.1160 </r>
       <r>    -0.3574     5.6582    30.7226 </r>
       <r>    -0.2502     6.7062    31.4415 </r>
       <r>    -0.1430     6.3603    32.1234 </r>
       <r>    -0.0358     6.7466    32.8466 </r>
       <r>     0.0714     6.7553    33.5708 </r>
       <r>     0.1786     6.3005    34.2462 </r>
       <r>     0.2858     8.8050    35.1902 </r>
       <r>     0.3930     7.9829    36.0460 </r>
       <r>     0.5002     8.6977    36.9784 </r>
       <r>     0.6075     5.2407    37.5402 </r>
       <r>     0.7147     2.9336    37.8547 </r>
       <r>     0.8219     3.2943    38.2079 </r>
       <r>     0.9291     3.5871    38.5924 </r>
       <r>     1.0363     3.5602    38.9741 </r>
       <r>     1.1435     2.7911    39.2733 </r>
       <r>     1.2507     3.3928    39.6370 </r>
       <r>     1.3579     4.4986    40.1193 </r>
       <r>     1.4651     3.7774    40.5243 </r>
       <r>     1.5723     3.7247    40.9236 </r>
       <r>     1.6795     4.5765    41.4142 </r>
       <r>     1.7867     3.2271    41.7601 </r>
       <r>     1.8939     2.4805    42.0261 </r>
       <r>     2.0011     2.6595    42.3112 </r>
       <r>     2.1083     2.0925    42.5355 </r>
       <r>     2.2155     2.6527    42.8199 </r>
       <r>     2.3227     2.5697    43.0953 </r>
       <r>     2.4299     1.9343    43.3027 </r>
       <r>     2.5371     0.8491    43.3937 </r>
       <r>     2.6443     0.3782    43.4343 </r>
       <r>     2.7515     0.5724    43.4956 </r>
       <r>     2.8587     0.4195    43.5406 </r>
       <r>     2.9659     0.3057    43.5734 </r>
       <r>     3.0731     0.7600    43.6549 </r>
       <r>     3.1803     1.0135    43.7635 </r>
       <r>     3.2875     0.5355    43.8209 </r>
       <r>     3.3947     0.0128    43.8223 </r>
       <r>     3.5020     0.1322    43.8365 </r>
       <r>     3.6092     0.3959    43.8789 </r>
       <r>     3.7164     0.3294    43.9142 </r>
       <r>     3.8236     0.3730    43.9542 </r>
       <r>     3.9308     0.4011    43.9972 </r>
       <r>     4.0380     0.0262    44.0000 </r>
       <r>     4.1452     0.0000    44.0000 </r>
       <r>     4.2524     0.0313    44.0034 </r>
       <r>     4.3596     0.1762    44.0222 </r>
       <r>     4.4668     0.4025    44.0654 </r>
       <r>     4.5740     0.4710    44.1159 </r>
       <r>     4.6812     0.6340    44.1838 </r>
       <r>     4.7884     0.8890    44.2791 </r>
       <r>     4.8956     0.8414    44.3693 </r>
       <r>     5.0028     0.8573    44.4613 </r>
       <r>     5.1100     1.2772    44.5982 </r>
       <r>     5.2172     1.1524    44.7217 </r>
       <r>     5.3244     1.6332    44.8968 </r>
       <r>     5.4316     2.1914    45.1317 </r>
       <r>     5.5388     2.4870    45.3983 </r>
       <r>     5.6460     2.7891    45.6973 </r>
       <r>     5.7532     3.3683    46.0584 </r>
       <r>     5.8604     3.2188    46.4035 </r>
       <r>     5.9676     4.3138    46.8660 </r>
       <r>     6.0748     4.7579    47.3760 </r>
       <r>     6.1820     4.0451    47.8097 </r>
       <r>     6.2893     4.6237    48.3054 </r>
       <r>     6.3965     4.1515    48.7504 </r>
       <r>     6.5037     4.0184    49.1812 </r>
       <r>     6.6109     4.4791    49.6614 </r>
       <r>     6.7181     3.2273    50.0074 </r>
       <r>     6.8253     3.9981    50.4360 </r>
       <r>     6.9325     4.6131    50.9305 </r>
       <r>     7.0397     4.5507    51.4184 </r>
       <r>     7.1469     4.3408    51.8837 </r>
       <r>     7.2541     5.6004    52.4841 </r>
       <r>     7.3613     4.9218    53.0117 </r>
       <r>     7.4685     4.4532    53.4891 </r>
       <r>     7.5757     4.1906    53.9384 </r>
       <r>     7.6829     3.5663    54.3207 </r>
       <r>     7.7901     3.1251    54.6557 </r>
       <r>     7.8973     3.0096    54.9784 </r>
       <r>     8.0045     2.9784    55.2977 </r>
       <r>     8.1117     4.1686    55.7446 </r>
       <r>     8.2189     3.8871    56.1613 </r>
       <r>     8.3261     3.6898    56.5568 </r>
       <r>     8.4333     3.9906    56.9846 </r>
       <r>     8.5405     4.2155    57.4366 </r>
       <r>     8.6477     4.4576    57.9144 </r>
       <r>     8.7549     4.2211    58.3669 </r>
       <r>     8.8621     5.2649    58.9314 </r>
       <r>     8.9693     4.9432    59.4613 </r>
       <r>     9.0765     5.2922    60.0286 </r>
       <r>     9.1838     5.2372    60.5901 </r>
       <r>     9.2910     4.9702    61.1229 </r>
       <r>     9.3982     4.6900    61.6257 </r>
       <r>     9.5054     4.3698    62.0941 </r>
       <r>     9.6126     5.1049    62.6414 </r>
       <r>     9.7198     5.0269    63.1803 </r>
       <r>     9.8270     5.3002    63.7485 </r>
       <r>     9.9342     4.4800    64.2288 </r>
       <r>    10.0414     3.6356    64.6185 </r>
       <r>    10.1486     5.1769    65.1735 </r>
       <r>    10.2558     4.7148    65.6789 </r>
       <r>    10.3630     4.1172    66.1203 </r>
       <r>    10.4702     5.4160    66.7009 </r>
       <r>    10.5774     5.8104    67.3238 </r>
       <r>    10.6846     4.0654    67.7597 </r>
       <r>    10.7918     3.8850    68.1761 </r>
       <r>    10.8990     3.2363    68.5231 </r>
       <r>    11.0062     4.6665    69.0233 </r>
       <r>    11.1134     5.4834    69.6112 </r>
       <r>    11.2206     6.1889    70.2746 </r>
       <r>    11.3278     5.9942    70.9172 </r>
       <r>    11.4350     5.2848    71.4838 </r>
       <r>    11.5422     4.3016    71.9449 </r>
       <r>    11.6494     4.4734    72.4245 </r>
       <r>    11.7566     4.9328    72.9533 </r>
       <r>    11.8638     4.8051    73.4684 </r>
       <r>    11.9710     6.0354    74.1155 </r>
       <r>    12.0783     5.9595    74.7544 </r>
       <r>    12.1855     5.9919    75.3967 </r>
       <r>    12.2927     5.6157    75.9987 </r>
       <r>    12.3999     5.0082    76.5356 </r>
       <r>    12.5071     5.6879    77.1454 </r>
       <r>    12.6143     5.9883    77.7874 </r>
       <r>    12.7215     6.0215    78.4329 </r>
       <r>    12.8287     5.8891    79.0642 </r>
       <r>    12.9359     5.8631    79.6928 </r>
       <r>    13.0431     5.5956    80.2926 </r>
       <r>    13.1503     6.3479    80.9732 </r>
       <r>    13.2575     6.2660    81.6449 </r>
       <r>    13.3647     5.3858    82.2223 </r>
       <r>    13.4719     6.1337    82.8798 </r>
       <r>    13.5791     5.3426    83.4526 </r>
       <r>    13.6863     4.8108    83.9683 </r>
       <r>    13.7935     6.1278    84.6252 </r>
       <r>    13.9007     5.5259    85.2176 </r>
       <r>    14.0079     5.3442    85.7905 </r>
       <r>    14.1151     5.4757    86.3776 </r>
       <r>    14.2223     4.6867    86.8800 </r>
       <r>    14.3295     4.9049    87.4058 </r>
       <r>    14.4367     5.0186    87.9438 </r>
       <r>    14.5439     4.9610    88.4757 </r>
       <r>    14.6511     5.2723    89.0409 </r>
       <r>    14.7583     5.1679    89.5949 </r>
       <r>    14.8655     4.0928    90.0337 </r>
       <r>    14.9728     5.0787    90.5781 </r>
       <r>    15.0800     6.1857    91.2412 </r>
       <r>    15.1872     5.6414    91.8460 </r>
       <r>    15.2944     5.6723    92.4541 </r>
       <r>    15.4016     6.0287    93.1004 </r>
       <r>    15.5088     5.7354    93.7153 </r>
       <r>    15.6160     5.9516    94.3533 </r>
       <r>    15.7232     4.5955    94.8460 </r>
       <r>    15.8304     2.4710    95.1109 </r>
       <r>    15.9376     2.7055    95.4009 </r>
       <r>    16.0448     1.8623    95.6005 </r>
       <r>    16.1520     1.1454    95.7233 </r>
       <r>    16.2592     0.8623    95.8158 </r>
       <r>    16.3664     0.6880    95.8895 </r>
       <r>    16.4736     0.8520    95.9809 </r>
       <r>    16.5808     0.1769    95.9998 </r>
       <r>    16.6880     0.0017    96.0000 </r>
       <r>    16.7952     0.0000    96.0000 </r>
       <r>    16.9024     0.0000    96.0000 </r>
       <r>    17.0096     0.0000    96.0000 </r>
       <r>    17.1168     0.0000    96.0000 </r>
       <r>    17.2240     0.0000    96.0000 </r>
       <r>    17.3312     0.0000    96.0000 </r>
       <r>    17.4384     0.0000    96.0000 </r>
       <r>    17.5456     0.0000    96.0000 </r>
       <r>    17.6528     0.0000    96.0000 </r>
       <r>    17.7601     0.0000    96.0000 </r>
       <r>    17.8673     0.0000    96.0000 </r>
       <r>    17.9745     0.0000    96.0000 </r>
      </set>
     </set>
    </array>
   </total>
  </dos>
 </calculation>
 <structure name="finalpos" >
  <crystal>
   <varray name="basis" >
    <v>       5.69700000       0.00000000       0.00000000 </v>
    <v>       0.00000000       4.04790000       0.00000000 </v>
    <v>       0.00000000       0.00000000       6.20420000 </v>
   </varray>
   <i name="volume">    143.07435078 </i>
   <varray name="rec_basis" >
    <v>       0.17553098       0.00000000       0.00000000 </v>
    <v>       0.00000000       0.24704168       0.00000000 </v>
    <v>       0.00000000       0.00000000       0.16118114 </v>
   </varray>
  </crystal>
  <varray name="positions" >
   <v>       0.52123000       0.50000000       0.63796000 </v>
   <v>       0.47877000       0.50000000       0.36204000 </v>
   <v>       0.97877000       0.50000000       0.63796000 </v>
   <v>       0.02123000       0.50000000       0.36204000 </v>
   <v>       0.60090000       0.50000000       0.89991000 </v>
   <v>       0.39910000       0.50000000       0.10009000 </v>
   <v>       0.89910000       0.50000000       0.89991000 </v>
   <v>       0.10090000       0.50000000       0.10009000 </v>
   <v>       0.75000000       0.79171000       0.72973000 </v>
   <v>       0.25000000       0.20829000       0.27027000 </v>
   <v>       0.75000000       0.20829000       0.72973000 </v>
   <v>       0.25000000       0.79171000       0.27027000 </v>
   <v>       0.25000000       0.50000000       0.52367000 </v>
   <v>       0.75000000       0.50000000       0.47633000 </v>
  </varray>
 </structure>
</modeling>
