<?xml version="1.0" encoding="ISO-8859-1"?>
<modeling>
 <generator>
  <i name="program" type="string">vasp </i>
  <i name="version" type="string">6.4.3  </i>
  <i name="subversion" type="string">19Mar24 (build May 31 2024 16:31:43) complex                          parallel </i>
  <i name="platform" type="string">LinuxIFC </i>
  <i name="date" type="string">2024 11 11 </i>
  <i name="time" type="string">15:58:00 </i>
 </generator>
 <incar>
  <i type="string" name="SYSTEM">Convergence</i>
  <i type="int" name="ISTART">     0</i>
  <i type="string" name="PREC">Accurate</i>
  <i type="string" name="ALGO">Normal</i>
  <i type="int" name="ISPIN">     1</i>
  <i type="int" name="ICHARG">     2</i>
  <i type="int" name="NELM">   100</i>
  <i type="int" name="IBRION">    -1</i>
  <i name="EDIFF">      0.00000100</i>
  <i name="EDIFFG">     -0.00100000</i>
  <i type="int" name="NSW">     0</i>
  <i type="int" name="ISIF">     2</i>
  <i name="ENCUT">    600.00000000</i>
  <i name="POTIM">      0.50000000</i>
  <i type="int" name="ISMEAR">     0</i>
  <i name="SIGMA">      0.05000000</i>
  <i type="logical" name="LWAVE"> F  </i>
  <i type="logical" name="LCHARG"> F  </i>
  <i type="string" name="GGA">PE</i>
 </incar>
 <primitive_cell>
  <structure name="primitive_cell" >
   <crystal>
    <varray name="basis" >
     <v>       5.69643030       0.00000000       0.00000000 </v>
     <v>       0.00000000       4.04749521       0.00000000 </v>
     <v>       0.00000000       0.00000000       6.20357958 </v>
    </varray>
    <i name="volume">    143.03143277 </i>
    <varray name="rec_basis" >
     <v>       0.17554854       0.00000000       0.00000000 </v>
     <v>       0.00000000       0.24706638       0.00000000 </v>
     <v>       0.00000000       0.00000000       0.16119726 </v>
    </varray>
   </crystal>
   <varray name="positions" >
    <v>       0.52123000       0.50000000       0.63796000 </v>
    <v>       0.47877000       0.50000000       0.36204000 </v>
    <v>       0.97877000       0.50000000       0.63796000 </v>
    <v>       0.02123000       0.50000000       0.36204000 </v>
    <v>       0.60090000       0.50000000       0.89991000 </v>
    <v>       0.39910000       0.50000000       0.10009000 </v>
    <v>       0.89910000       0.50000000       0.89991000 </v>
    <v>       0.10090000       0.50000000       0.10009000 </v>
    <v>       0.75000000       0.79171000       0.72973000 </v>
    <v>       0.25000000       0.20829000       0.27027000 </v>
    <v>       0.75000000       0.20829000       0.72973000 </v>
    <v>       0.25000000       0.79171000       0.27027000 </v>
    <v>       0.25000000       0.50000000       0.52367000 </v>
    <v>       0.75000000       0.50000000       0.47633000 </v>
   </varray>
  </structure>
  <varray name="primitive_index" >
   <v type="int" >        1 </v>
   <v type="int" >        2 </v>
   <v type="int" >        3 </v>
   <v type="int" >        4 </v>
   <v type="int" >        5 </v>
   <v type="int" >        6 </v>
   <v type="int" >        7 </v>
   <v type="int" >        8 </v>
   <v type="int" >        9 </v>
   <v type="int" >       10 </v>
   <v type="int" >       11 </v>
   <v type="int" >       12 </v>
   <v type="int" >       13 </v>
   <v type="int" >       14 </v>
  </varray>
 </primitive_cell>
 <kpoints>
  <generation param="Monkhorst-Pack">
   <v type="int" name="divisions">      10       14        9 </v>
   <v name="usershift">      0.00000000       0.00000000       0.00000000 </v>
   <v name="genvec1">      0.10000000       0.00000000       0.00000000 </v>
   <v name="genvec2">      0.00000000       0.07142857       0.00000000 </v>
   <v name="genvec3">      0.00000000       0.00000000       0.11111111 </v>
   <v name="shift">      0.50000000       0.50000000       0.00000000 </v>
  </generation>
  <varray name="kpointlist" >
   <v>       0.05000000       0.03571429       0.00000000 </v>
   <v>       0.15000000       0.03571429       0.00000000 </v>
   <v>       0.25000000       0.03571429       0.00000000 </v>
   <v>       0.35000000       0.03571429       0.00000000 </v>
   <v>       0.45000000       0.03571429       0.00000000 </v>
   <v>       0.05000000       0.10714286       0.00000000 </v>
   <v>       0.15000000       0.10714286       0.00000000 </v>
   <v>       0.25000000       0.10714286       0.00000000 </v>
   <v>       0.35000000       0.10714286       0.00000000 </v>
   <v>       0.45000000       0.10714286       0.00000000 </v>
   <v>       0.05000000       0.17857143       0.00000000 </v>
   <v>       0.15000000       0.17857143       0.00000000 </v>
   <v>       0.25000000       0.17857143       0.00000000 </v>
   <v>       0.35000000       0.17857143       0.00000000 </v>
   <v>       0.45000000       0.17857143       0.00000000 </v>
   <v>       0.05000000       0.25000000       0.00000000 </v>
   <v>       0.15000000       0.25000000       0.00000000 </v>
   <v>       0.25000000       0.25000000       0.00000000 </v>
   <v>       0.35000000       0.25000000       0.00000000 </v>
   <v>       0.45000000       0.25000000       0.00000000 </v>
   <v>       0.05000000       0.32142857       0.00000000 </v>
   <v>       0.15000000       0.32142857       0.00000000 </v>
   <v>       0.25000000       0.32142857       0.00000000 </v>
   <v>       0.35000000       0.32142857       0.00000000 </v>
   <v>       0.45000000       0.32142857       0.00000000 </v>
   <v>       0.05000000       0.39285714       0.00000000 </v>
   <v>       0.15000000       0.39285714       0.00000000 </v>
   <v>       0.25000000       0.39285714       0.00000000 </v>
   <v>       0.35000000       0.39285714       0.00000000 </v>
   <v>       0.45000000       0.39285714       0.00000000 </v>
   <v>       0.05000000       0.46428571       0.00000000 </v>
   <v>       0.15000000       0.46428571       0.00000000 </v>
   <v>       0.25000000       0.46428571       0.00000000 </v>
   <v>       0.35000000       0.46428571       0.00000000 </v>
   <v>       0.45000000       0.46428571       0.00000000 </v>
   <v>       0.05000000       0.03571429       0.11111111 </v>
   <v>       0.15000000       0.03571429       0.11111111 </v>
   <v>       0.25000000       0.03571429       0.11111111 </v>
   <v>       0.35000000       0.03571429       0.11111111 </v>
   <v>       0.45000000       0.03571429       0.11111111 </v>
   <v>       0.05000000       0.10714286       0.11111111 </v>
   <v>       0.15000000       0.10714286       0.11111111 </v>
   <v>       0.25000000       0.10714286       0.11111111 </v>
   <v>       0.35000000       0.10714286       0.11111111 </v>
   <v>       0.45000000       0.10714286       0.11111111 </v>
   <v>       0.05000000       0.17857143       0.11111111 </v>
   <v>       0.15000000       0.17857143       0.11111111 </v>
   <v>       0.25000000       0.17857143       0.11111111 </v>
   <v>       0.35000000       0.17857143       0.11111111 </v>
   <v>       0.45000000       0.17857143       0.11111111 </v>
   <v>       0.05000000       0.25000000       0.11111111 </v>
   <v>       0.15000000       0.25000000       0.11111111 </v>
   <v>       0.25000000       0.25000000       0.11111111 </v>
   <v>       0.35000000       0.25000000       0.11111111 </v>
   <v>       0.45000000       0.25000000       0.11111111 </v>
   <v>       0.05000000       0.32142857       0.11111111 </v>
   <v>       0.15000000       0.32142857       0.11111111 </v>
   <v>       0.25000000       0.32142857       0.11111111 </v>
   <v>       0.35000000       0.32142857       0.11111111 </v>
   <v>       0.45000000       0.32142857       0.11111111 </v>
   <v>       0.05000000       0.39285714       0.11111111 </v>
   <v>       0.15000000       0.39285714       0.11111111 </v>
   <v>       0.25000000       0.39285714       0.11111111 </v>
   <v>       0.35000000       0.39285714       0.11111111 </v>
   <v>       0.45000000       0.39285714       0.11111111 </v>
   <v>       0.05000000       0.46428571       0.11111111 </v>
   <v>       0.15000000       0.46428571       0.11111111 </v>
   <v>       0.25000000       0.46428571       0.11111111 </v>
   <v>       0.35000000       0.46428571       0.11111111 </v>
   <v>       0.45000000       0.46428571       0.11111111 </v>
   <v>       0.05000000       0.03571429       0.22222222 </v>
   <v>       0.15000000       0.03571429       0.22222222 </v>
   <v>       0.25000000       0.03571429       0.22222222 </v>
   <v>       0.35000000       0.03571429       0.22222222 </v>
   <v>       0.45000000       0.03571429       0.22222222 </v>
   <v>       0.05000000       0.10714286       0.22222222 </v>
   <v>       0.15000000       0.10714286       0.22222222 </v>
   <v>       0.25000000       0.10714286       0.22222222 </v>
   <v>       0.35000000       0.10714286       0.22222222 </v>
   <v>       0.45000000       0.10714286       0.22222222 </v>
   <v>       0.05000000       0.17857143       0.22222222 </v>
   <v>       0.15000000       0.17857143       0.22222222 </v>
   <v>       0.25000000       0.17857143       0.22222222 </v>
   <v>       0.35000000       0.17857143       0.22222222 </v>
   <v>       0.45000000       0.17857143       0.22222222 </v>
   <v>       0.05000000       0.25000000       0.22222222 </v>
   <v>       0.15000000       0.25000000       0.22222222 </v>
   <v>       0.25000000       0.25000000       0.22222222 </v>
   <v>       0.35000000       0.25000000       0.22222222 </v>
   <v>       0.45000000       0.25000000       0.22222222 </v>
   <v>       0.05000000       0.32142857       0.22222222 </v>
   <v>       0.15000000       0.32142857       0.22222222 </v>
   <v>       0.25000000       0.32142857       0.22222222 </v>
   <v>       0.35000000       0.32142857       0.22222222 </v>
   <v>       0.45000000       0.32142857       0.22222222 </v>
   <v>       0.05000000       0.39285714       0.22222222 </v>
   <v>       0.15000000       0.39285714       0.22222222 </v>
   <v>       0.25000000       0.39285714       0.22222222 </v>
   <v>       0.35000000       0.39285714       0.22222222 </v>
   <v>       0.45000000       0.39285714       0.22222222 </v>
   <v>       0.05000000       0.46428571       0.22222222 </v>
   <v>       0.15000000       0.46428571       0.22222222 </v>
   <v>       0.25000000       0.46428571       0.22222222 </v>
   <v>       0.35000000       0.46428571       0.22222222 </v>
   <v>       0.45000000       0.46428571       0.22222222 </v>
   <v>       0.05000000       0.03571429       0.33333333 </v>
   <v>       0.15000000       0.03571429       0.33333333 </v>
   <v>       0.25000000       0.03571429       0.33333333 </v>
   <v>       0.35000000       0.03571429       0.33333333 </v>
   <v>       0.45000000       0.03571429       0.33333333 </v>
   <v>       0.05000000       0.10714286       0.33333333 </v>
   <v>       0.15000000       0.10714286       0.33333333 </v>
   <v>       0.25000000       0.10714286       0.33333333 </v>
   <v>       0.35000000       0.10714286       0.33333333 </v>
   <v>       0.45000000       0.10714286       0.33333333 </v>
   <v>       0.05000000       0.17857143       0.33333333 </v>
   <v>       0.15000000       0.17857143       0.33333333 </v>
   <v>       0.25000000       0.17857143       0.33333333 </v>
   <v>       0.35000000       0.17857143       0.33333333 </v>
   <v>       0.45000000       0.17857143       0.33333333 </v>
   <v>       0.05000000       0.25000000       0.33333333 </v>
   <v>       0.15000000       0.25000000       0.33333333 </v>
   <v>       0.25000000       0.25000000       0.33333333 </v>
   <v>       0.35000000       0.25000000       0.33333333 </v>
   <v>       0.45000000       0.25000000       0.33333333 </v>
   <v>       0.05000000       0.32142857       0.33333333 </v>
   <v>       0.15000000       0.32142857       0.33333333 </v>
   <v>       0.25000000       0.32142857       0.33333333 </v>
   <v>       0.35000000       0.32142857       0.33333333 </v>
   <v>       0.45000000       0.32142857       0.33333333 </v>
   <v>       0.05000000       0.39285714       0.33333333 </v>
   <v>       0.15000000       0.39285714       0.33333333 </v>
   <v>       0.25000000       0.39285714       0.33333333 </v>
   <v>       0.35000000       0.39285714       0.33333333 </v>
   <v>       0.45000000       0.39285714       0.33333333 </v>
   <v>       0.05000000       0.46428571       0.33333333 </v>
   <v>       0.15000000       0.46428571       0.33333333 </v>
   <v>       0.25000000       0.46428571       0.33333333 </v>
   <v>       0.35000000       0.46428571       0.33333333 </v>
   <v>       0.45000000       0.46428571       0.33333333 </v>
   <v>       0.05000000       0.03571429       0.44444444 </v>
   <v>       0.15000000       0.03571429       0.44444444 </v>
   <v>       0.25000000       0.03571429       0.44444444 </v>
   <v>       0.35000000       0.03571429       0.44444444 </v>
   <v>       0.45000000       0.03571429       0.44444444 </v>
   <v>       0.05000000       0.10714286       0.44444444 </v>
   <v>       0.15000000       0.10714286       0.44444444 </v>
   <v>       0.25000000       0.10714286       0.44444444 </v>
   <v>       0.35000000       0.10714286       0.44444444 </v>
   <v>       0.45000000       0.10714286       0.44444444 </v>
   <v>       0.05000000       0.17857143       0.44444444 </v>
   <v>       0.15000000       0.17857143       0.44444444 </v>
   <v>       0.25000000       0.17857143       0.44444444 </v>
   <v>       0.35000000       0.17857143       0.44444444 </v>
   <v>       0.45000000       0.17857143       0.44444444 </v>
   <v>       0.05000000       0.25000000       0.44444444 </v>
   <v>       0.15000000       0.25000000       0.44444444 </v>
   <v>       0.25000000       0.25000000       0.44444444 </v>
   <v>       0.35000000       0.25000000       0.44444444 </v>
   <v>       0.45000000       0.25000000       0.44444444 </v>
   <v>       0.05000000       0.32142857       0.44444444 </v>
   <v>       0.15000000       0.32142857       0.44444444 </v>
   <v>       0.25000000       0.32142857       0.44444444 </v>
   <v>       0.35000000       0.32142857       0.44444444 </v>
   <v>       0.45000000       0.32142857       0.44444444 </v>
   <v>       0.05000000       0.39285714       0.44444444 </v>
   <v>       0.15000000       0.39285714       0.44444444 </v>
   <v>       0.25000000       0.39285714       0.44444444 </v>
   <v>       0.35000000       0.39285714       0.44444444 </v>
   <v>       0.45000000       0.39285714       0.44444444 </v>
   <v>       0.05000000       0.46428571       0.44444444 </v>
   <v>       0.15000000       0.46428571       0.44444444 </v>
   <v>       0.25000000       0.46428571       0.44444444 </v>
   <v>       0.35000000       0.46428571       0.44444444 </v>
   <v>       0.45000000       0.46428571       0.44444444 </v>
  </varray>
  <varray name="weights" >
   <v>       0.00317460 </v>
   <v>       0.00317460 </v>
   <v>       0.00317460 </v>
   <v>       0.00317460 </v>
   <v>       0.00317460 </v>
   <v>       0.00317460 </v>
   <v>       0.00317460 </v>
   <v>       0.00317460 </v>
   <v>       0.00317460 </v>
   <v>       0.00317460 </v>
   <v>       0.00317460 </v>
   <v>       0.00317460 </v>
   <v>       0.00317460 </v>
   <v>       0.00317460 </v>
   <v>       0.00317460 </v>
   <v>       0.00317460 </v>
   <v>       0.00317460 </v>
   <v>       0.00317460 </v>
   <v>       0.00317460 </v>
   <v>       0.00317460 </v>
   <v>       0.00317460 </v>
   <v>       0.00317460 </v>
   <v>       0.00317460 </v>
   <v>       0.00317460 </v>
   <v>       0.00317460 </v>
   <v>       0.00317460 </v>
   <v>       0.00317460 </v>
   <v>       0.00317460 </v>
   <v>       0.00317460 </v>
   <v>       0.00317460 </v>
   <v>       0.00317460 </v>
   <v>       0.00317460 </v>
   <v>       0.00317460 </v>
   <v>       0.00317460 </v>
   <v>       0.00317460 </v>
   <v>       0.00634921 </v>
   <v>       0.00634921 </v>
   <v>       0.00634921 </v>
   <v>       0.00634921 </v>
   <v>       0.00634921 </v>
   <v>       0.00634921 </v>
   <v>       0.00634921 </v>
   <v>       0.00634921 </v>
   <v>       0.00634921 </v>
   <v>       0.00634921 </v>
   <v>       0.00634921 </v>
   <v>       0.00634921 </v>
   <v>       0.00634921 </v>
   <v>       0.00634921 </v>
   <v>       0.00634921 </v>
   <v>       0.00634921 </v>
   <v>       0.00634921 </v>
   <v>       0.00634921 </v>
   <v>       0.00634921 </v>
   <v>       0.00634921 </v>
   <v>       0.00634921 </v>
   <v>       0.00634921 </v>
   <v>       0.00634921 </v>
   <v>       0.00634921 </v>
   <v>       0.00634921 </v>
   <v>       0.00634921 </v>
   <v>       0.00634921 </v>
   <v>       0.00634921 </v>
   <v>       0.00634921 </v>
   <v>       0.00634921 </v>
   <v>       0.00634921 </v>
   <v>       0.00634921 </v>
   <v>       0.00634921 </v>
   <v>       0.00634921 </v>
   <v>       0.00634921 </v>
   <v>       0.00634921 </v>
   <v>       0.00634921 </v>
   <v>       0.00634921 </v>
   <v>       0.00634921 </v>
   <v>       0.00634921 </v>
   <v>       0.00634921 </v>
   <v>       0.00634921 </v>
   <v>       0.00634921 </v>
   <v>       0.00634921 </v>
   <v>       0.00634921 </v>
   <v>       0.00634921 </v>
   <v>       0.00634921 </v>
   <v>       0.00634921 </v>
   <v>       0.00634921 </v>
   <v>       0.00634921 </v>
   <v>       0.00634921 </v>
   <v>       0.00634921 </v>
   <v>       0.00634921 </v>
   <v>       0.00634921 </v>
   <v>       0.00634921 </v>
   <v>       0.00634921 </v>
   <v>       0.00634921 </v>
   <v>       0.00634921 </v>
   <v>       0.00634921 </v>
   <v>       0.00634921 </v>
   <v>       0.00634921 </v>
   <v>       0.00634921 </v>
   <v>       0.00634921 </v>
   <v>       0.00634921 </v>
   <v>       0.00634921 </v>
   <v>       0.00634921 </v>
   <v>       0.00634921 </v>
   <v>       0.00634921 </v>
   <v>       0.00634921 </v>
   <v>       0.00634921 </v>
   <v>       0.00634921 </v>
   <v>       0.00634921 </v>
   <v>       0.00634921 </v>
   <v>       0.00634921 </v>
   <v>       0.00634921 </v>
   <v>       0.00634921 </v>
   <v>       0.00634921 </v>
   <v>       0.00634921 </v>
   <v>       0.00634921 </v>
   <v>       0.00634921 </v>
   <v>       0.00634921 </v>
   <v>       0.00634921 </v>
   <v>       0.00634921 </v>
   <v>       0.00634921 </v>
   <v>       0.00634921 </v>
   <v>       0.00634921 </v>
   <v>       0.00634921 </v>
   <v>       0.00634921 </v>
   <v>       0.00634921 </v>
   <v>       0.00634921 </v>
   <v>       0.00634921 </v>
   <v>       0.00634921 </v>
   <v>       0.00634921 </v>
   <v>       0.00634921 </v>
   <v>       0.00634921 </v>
   <v>       0.00634921 </v>
   <v>       0.00634921 </v>
   <v>       0.00634921 </v>
   <v>       0.00634921 </v>
   <v>       0.00634921 </v>
   <v>       0.00634921 </v>
   <v>       0.00634921 </v>
   <v>       0.00634921 </v>
   <v>       0.00634921 </v>
   <v>       0.00634921 </v>
   <v>       0.00634921 </v>
   <v>       0.00634921 </v>
   <v>       0.00634921 </v>
   <v>       0.00634921 </v>
   <v>       0.00634921 </v>
   <v>       0.00634921 </v>
   <v>       0.00634921 </v>
   <v>       0.00634921 </v>
   <v>       0.00634921 </v>
   <v>       0.00634921 </v>
   <v>       0.00634921 </v>
   <v>       0.00634921 </v>
   <v>       0.00634921 </v>
   <v>       0.00634921 </v>
   <v>       0.00634921 </v>
   <v>       0.00634921 </v>
   <v>       0.00634921 </v>
   <v>       0.00634921 </v>
   <v>       0.00634921 </v>
   <v>       0.00634921 </v>
   <v>       0.00634921 </v>
   <v>       0.00634921 </v>
   <v>       0.00634921 </v>
   <v>       0.00634921 </v>
   <v>       0.00634921 </v>
   <v>       0.00634921 </v>
   <v>       0.00634921 </v>
   <v>       0.00634921 </v>
   <v>       0.00634921 </v>
   <v>       0.00634921 </v>
   <v>       0.00634921 </v>
   <v>       0.00634921 </v>
   <v>       0.00634921 </v>
   <v>       0.00634921 </v>
   <v>       0.00634921 </v>
  </varray>
 </kpoints>
 <parameters>
  <separator name="general" >
   <i type="string" name="SYSTEM">Convergence</i>
   <i type="logical" name="LCOMPAT"> F  </i>
  </separator>
  <separator name="electronic" >
   <i type="string" name="PREC">accura</i>
   <i name="ENMAX">    600.00000000</i>
   <i name="ENAUG">    535.51400000</i>
   <i name="EDIFF">      0.00000100</i>
   <i type="int" name="IALGO">    38</i>
   <i type="int" name="IWAVPR">    10</i>
   <i type="int" name="NBANDS">    48</i>
   <i type="int" name="NBANDSLOW">    -1</i>
   <i type="int" name="NBANDSHIGH">    -1</i>
   <i name="NELECT">     42.00000000</i>
   <i type="int" name="TURBO">     0</i>
   <i type="int" name="IRESTART">     0</i>
   <i type="int" name="NREBOOT">     0</i>
   <i type="int" name="NMIN">     0</i>
   <i name="EREF">      0.00000000</i>
   <separator name="electronic smearing" >
    <i type="int" name="ISMEAR">     0</i>
    <i name="SIGMA">      0.05000000</i>
    <i name="KSPACING">      0.50000000</i>
    <i type="logical" name="KGAMMA"> T  </i>
    <i type="logical" name="KBLOWUP"> T  </i>
   </separator>
   <separator name="electronic projectors" >
    <i type="logical" name="LREAL"> F  </i>
    <v name="ROPT">      0.00000000</v>
    <i type="int" name="LMAXPAW">  -100</i>
    <i type="int" name="LMAXMIX">     2</i>
    <i type="logical" name="NLSPLINE"> F  </i>
   </separator>
   <separator name="electronic startup" >
    <i type="int" name="ISTART">     0</i>
    <i type="int" name="ICHARG">     2</i>
    <i type="int" name="INIWAV">     1</i>
   </separator>
   <separator name="electronic spin" >
    <i type="int" name="ISPIN">     1</i>
    <i type="logical" name="LNONCOLLINEAR"> F  </i>
    <v name="MAGMOM">      1.00000000      1.00000000      1.00000000      1.00000000      1.00000000      1.00000000      1.00000000      1.00000000      1.00000000      1.00000000      1.00000000      1.00000000      1.00000000      1.00000000</v>
    <i name="NUPDOWN">     -1.00000000</i>
    <i type="logical" name="LSORBIT"> F  </i>
    <v name="SAXIS">      0.00000000      0.00000000      1.00000000</v>
    <i type="logical" name="LSPIRAL"> F  </i>
    <v name="QSPIRAL">      0.00000000      0.00000000      0.00000000</v>
    <i type="logical" name="LZEROZ"> F  </i>
   </separator>
   <separator name="electronic exchange-correlation" >
    <i type="logical" name="LASPH"> F  </i>
   </separator>
   <separator name="electronic convergence" >
    <i type="int" name="NELM">   100</i>
    <i type="int" name="NELMDL">    -5</i>
    <i type="int" name="NELMIN">     2</i>
    <i name="ENINI">    600.00000000</i>
    <separator name="electronic convergence detail" >
     <i type="logical" name="LDIAG"> T  </i>
     <i type="logical" name="LSUBROT"> F  </i>
     <i name="WEIMIN">      0.00000000</i>
     <i name="EBREAK">      0.00000001</i>
     <i name="DEPER">      0.30000000</i>
     <i type="int" name="NRMM">     4</i>
     <i name="TIME">      0.40000000</i>
    </separator>
   </separator>
   <separator name="electronic mixer" >
    <i name="AMIX">      0.40000000</i>
    <i name="BMIX">      1.00000000</i>
    <i name="AMIN">      0.10000000</i>
    <i name="AMIX_MAG">      1.60000000</i>
    <i name="BMIX_MAG">      1.00000000</i>
    <separator name="electronic mixer details" >
     <i type="int" name="IMIX">     4</i>
     <i type="logical" name="MIXFIRST"> F  </i>
     <i type="int" name="MAXMIX">   -45</i>
     <i name="WC">    100.00000000</i>
     <i type="int" name="INIMIX">     1</i>
     <i type="int" name="MIXPRE">     1</i>
     <i type="int" name="MREMOVE">     5</i>
    </separator>
   </separator>
   <separator name="electronic dipolcorrection" >
    <i type="logical" name="LDIPOL"> F  </i>
    <i type="logical" name="LMONO"> F  </i>
    <i type="int" name="IDIPOL">     0</i>
    <i name="EPSILON">      1.00000000</i>
    <v name="DIPOL">   -100.00000000   -100.00000000   -100.00000000</v>
    <i name="EFIELD">      0.00000000</i>
    <i type="logical" name="LVACPOTAV"> F  </i>
   </separator>
  </separator>
  <separator name="grids" >
   <i type="int" name="NGX">    48</i>
   <i type="int" name="NGY">    32</i>
   <i type="int" name="NGZ">    50</i>
   <i type="int" name="NGXF">    96</i>
   <i type="int" name="NGYF">    64</i>
   <i type="int" name="NGZF">   100</i>
   <i type="logical" name="ADDGRID"> F  </i>
  </separator>
  <separator name="ionic" >
   <i type="int" name="NSW">     0</i>
   <i type="int" name="IBRION">    -1</i>
   <i type="int" name="MDALGO">     0</i>
   <i type="int" name="ISIF">     2</i>
   <i name="PSTRESS">      0.00000000</i>
   <i name="EDIFFG">     -0.00100000</i>
   <i type="int" name="NFREE">     0</i>
   <i name="POTIM">      0.50000000</i>
   <i name="SMASS">     -3.00000000</i>
   <i name="SCALEE">      1.00000000</i>
  </separator>
  <separator name="ionic md" >
   <i name="TEBEG">      0.00010000</i>
   <i name="TEEND">      0.00010000</i>
   <i type="int" name="NBLOCK">     1</i>
   <i type="int" name="KBLOCK">     1</i>
   <i type="int" name="NPACO">   256</i>
   <i name="APACO">     10.00000000</i>
  </separator>
  <separator name="symmetry" >
   <i type="int" name="ISYM">     2</i>
   <i name="SYMPREC">      0.00001000</i>
  </separator>
  <separator name="dos" >
   <i type="int" name="LORBIT">     0</i>
   <v name="RWIGS">     -1.00000000</v>
   <i type="int" name="NEDOS">   301</i>
   <i name="EMIN">     10.00000000</i>
   <i name="EMAX">    -10.00000000</i>
   <i name="EFERMI">      0.00000000</i>
  </separator>
  <separator name="writing" >
   <i type="int" name="NWRITE">     2</i>
   <i type="logical" name="LWAVE"> F  </i>
   <i type="logical" name="LDOWNSAMPLE"> F  </i>
   <i type="logical" name="LCHARG"> F  </i>
   <i type="logical" name="LPARD"> F  </i>
   <i type="logical" name="LVTOT"> F  </i>
   <i type="logical" name="LVHAR"> F  </i>
   <i type="logical" name="LELF"> F  </i>
   <i type="logical" name="LOPTICS"> F  </i>
   <v name="STM">      0.00000000      0.00000000      0.00000000      0.00000000      0.00000000      0.00000000      0.00000000</v>
  </separator>
  <separator name="performance" >
   <i type="int" name="NPAR">    24</i>
   <i type="int" name="NSIM">     4</i>
   <i type="int" name="NBLK">    -1</i>
   <i type="logical" name="LPLANE"> T  </i>
   <i type="logical" name="LSCALAPACK"> T  </i>
   <i type="logical" name="LSCAAWARE"> F  </i>
   <i type="logical" name="LSCALU"> F  </i>
   <i type="logical" name="LASYNC"> F  </i>
   <i type="logical" name="LORBITALREAL"> F  </i>
  </separator>
  <separator name="miscellaneous" >
   <i type="int" name="IDIOT">     3</i>
   <i type="int" name="PHON_NSTRUCT">    -1</i>
   <i type="logical" name="LMUSIC"> F  </i>
   <v name="POMASS">     10.81100000</v>
   <v name="DARWINR">      0.00000000</v>
   <v name="DARWINV">      1.00000000</v>
   <i type="logical" name="LCORR"> T  </i>
  </separator>
  <i type="logical" name="GGA_COMPAT"> T  </i>
  <i type="logical" name="LBERRY"> F  </i>
  <i type="int" name="ICORELEVEL">     0</i>
  <i type="logical" name="LDAU"> F  </i>
  <i type="int" name="I_CONSTRAINED_M">     0</i>
  <separator name="electronic exchange-correlation" >
   <i type="string" name="GGA    ">PE</i>
   <i type="string" name="XC_C">1</i>
   <i type="int" name="VOSKOWN">     0</i>
   <i type="logical" name="LHFCALC"> F  </i>
   <i type="string" name="PRECFOCK"></i>
   <i type="logical" name="LSYMGRAD"> F  </i>
   <i type="logical" name="LHFONE"> F  </i>
   <i type="logical" name="LRHFCALC"> F  </i>
   <i type="logical" name="LTHOMAS"> F  </i>
   <i type="logical" name="LMODELHF"> F  </i>
   <i type="logical" name="LFOCKACE"> F  </i>
   <i name="ENCUT4O">     -1.00000000</i>
   <i type="int" name="EXXOEP">     0</i>
   <i type="int" name="FOURORBIT">     0</i>
   <i name="AEXX">      0.00000000</i>
   <i name="HFALPHA">      0.00000000</i>
   <i name="MCALPHA">      0.00000000</i>
   <i name="ALDAX">      1.00000000</i>
   <i name="AGGAX">      1.00000000</i>
   <i name="AMGGAX">      1.00000000</i>
   <i name="ALDAC">      1.00000000</i>
   <i name="AGGAC">      1.00000000</i>
   <i name="AMGGAC">      1.00000000</i>
   <i type="int" name="NKREDX">     1</i>
   <i type="int" name="NKREDY">     1</i>
   <i type="int" name="NKREDZ">     1</i>
   <i type="logical" name="SHIFTRED"> F  </i>
   <i type="logical" name="ODDONLY"> F  </i>
   <i type="logical" name="EVENONLY"> F  </i>
   <i type="int" name="LMAXFOCK">     0</i>
   <i type="int" name="NMAXFOCKAE">     0</i>
   <i type="logical" name="LFOCKAEDFT"> F  </i>
   <i name="HFSCREEN">      0.00000000</i>
   <i name="HFSCREENC">      0.00000000</i>
   <i type="int" name="NBANDSGWLOW">     0</i>
  </separator>
  <separator name="vdW DFT" >
   <i type="logical" name="LUSE_VDW"> F  </i>
   <i type="int" name="IVDW_NL">    -1</i>
   <i type="logical" name="LSPIN_VDW"> F  </i>
   <i name="ZAB_VDW">     -0.84910000</i>
   <i name="GAMMA_VDW">      1.39626340</i>
   <i name="ALPHA_VDW">      0.00000000</i>
   <i name="PARAM1">      0.12340000</i>
   <i name="PARAM2">      1.00000000</i>
   <i name="BPARAM">      6.30000000</i>
   <i name="CPARAM">      0.00930000</i>
  </separator>
  <separator name="model GW" >
   <i type="int" name="MODEL_GW">     0</i>
   <i name="MODEL_EPS0">      6.12991855</i>
   <i name="MODEL_ALPHA">      1.00000000</i>
  </separator>
  <separator name="linear response parameters" >
   <i type="logical" name="LEPSILON"> F  </i>
   <i type="logical" name="LRPA"> F  </i>
   <i type="logical" name="LNABLA"> F  </i>
   <i type="logical" name="LVEL"> F  </i>
   <i name="CSHIFT">      0.10000000</i>
   <i name="OMEGAMAX">     -1.00000000</i>
   <i name="DEG_THRESHOLD">      0.00200000</i>
   <i name="RTIME">     -0.10000000</i>
   <i name="WPLASMAI">      0.00000000</i>
   <v name="DFIELD">      0.00000000      0.00000000      0.00000000</v>
   <v name="WPLASMA">      0.00000000      0.00000000      0.00000000      0.00000000      0.00000000      0.00000000      0.00000000      0.00000000      0.00000000</v>
  </separator>
  <separator name="orbital magnetization" >
   <i type="logical" name="NUCIND"> F  </i>
   <v name="MAGPOS">      0.00000000      0.00000000      0.00000000</v>
   <i type="logical" name="LNICSALL"> T  </i>
   <i type="logical" name="ORBITALMAG"> F  </i>
   <i type="logical" name="LMAGBLOCH"> F  </i>
   <i type="logical" name="LCHIMAG"> F  </i>
   <i type="logical" name="LGAUGE"> T  </i>
   <i type="int" name="MAGATOM">     0</i>
   <v name="MAGDIPOL">      0.00000000      0.00000000      0.00000000</v>
   <v name="AVECCONST">      0.00000000      0.00000000      0.00000000</v>
  </separator>
  <separator name="response functions" >
   <i type="logical" name="LALL_IN_ONE"> F  </i>
   <i type="int" name="IALL_IN_ONE">    -1</i>
   <i type="int" name="NBANDS_WAVE">    -1</i>
   <i type="logical" name="LFINITE_TEMPERATURE"> F  </i>
   <i type="logical" name="LADDER"> F  </i>
   <i type="logical" name="LRPAFORCE"> F  </i>
   <i type="logical" name="LFXC"> F  </i>
   <i type="logical" name="LHARTREE"> T  </i>
   <i type="int" name="IBSE">     0</i>
   <v type="int" name="KPOINT">    -1     0     0     0</v>
   <i type="logical" name="LTCTC"> F  </i>
   <i type="logical" name="LTCTE"> F  </i>
   <i type="logical" name="LTETE"> F  </i>
   <i type="logical" name="LTRIPLET"> F  </i>
   <i type="logical" name="LFXCEPS"> F  </i>
   <i type="logical" name="LFXHEG"> F  </i>
   <i type="int" name="NATURALO">     2</i>
   <i type="logical" name="LHOLEGF"> F  </i>
   <i type="logical" name="L2ORDER"> F  </i>
   <i type="logical" name="LDMP1"> F  </i>
   <i type="logical" name="LMP2LT"> F  </i>
   <i type="logical" name="LSMP2LT"> F  </i>
   <i type="logical" name="LGWLF"> F  </i>
   <i name="ENCUTGW">     -1.60000002</i>
   <i name="ENCUTGWSOFT">     -1.60000002</i>
   <i name="ENCUTLF">     -1.00000000</i>
   <i type="logical" name="ESF_SPLINES"> F  </i>
   <i name="ESF_CONV">      0.01000000</i>
   <i type="int" name="ESF_NINTER">    15</i>
   <i type="int" name="LMAXMP2">    -1</i>
   <i name="SCISSOR">      0.00000000</i>
   <i type="int" name="NOMEGA">     0</i>
   <i type="int" name="NOMEGAR">     0</i>
   <i type="int" name="NBANDSGW">    -1</i>
   <i type="int" name="NBANDSO">    -1</i>
   <i type="int" name="NBANDSV">    -1</i>
   <i type="int" name="NELMGW">     1</i>
   <i type="int" name="NELMHF">     1</i>
   <i type="int" name="DIM">     3</i>
   <i type="int" name="IESPILON">     4</i>
   <i type="int" name="ANTIRES">     0</i>
   <i name="OMEGAMAX">    -30.00000000</i>
   <i name="OMEGAMIN">    -30.00000000</i>
   <i name="OMEGATL">   -200.00000000</i>
   <i type="int" name="OMEGAGRID">     0</i>
   <i name="CSHIFT">     -0.10000000</i>
   <i type="logical" name="LSELFENERGY"> F  </i>
   <i type="logical" name="LSPECTRAL"> F  </i>
   <i type="logical" name="LSPECTRALGW"> F  </i>
   <i type="logical" name="LSINGLES"> F  </i>
   <i type="logical" name="LFERMIGW"> F  </i>
   <i type="logical" name="ODDONLYGW"> F  </i>
   <i type="logical" name="EVENONLYGW"> F  </i>
   <i type="int" name="NKREDLFX">     1</i>
   <i type="int" name="NKREDLFY">     1</i>
   <i type="int" name="NKREDLFZ">     1</i>
   <i type="int" name="MAXMEM">  2800</i>
   <i type="int" name="TELESCOPE">     0</i>
   <i type="int" name="NTAUPAR">    -1</i>
   <i type="int" name="NOMEGAPAR">    -1</i>
   <i name="DAMP_NEWTON">      0.80000001</i>
   <i name="LAMBDA">      1.00000000</i>
  </separator>
  <separator name="External order field" >
   <i name="OFIELD_KAPPA">      0.00000000</i>
   <v name="OFIELD_K">      0.00000000      0.00000000      0.00000000</v>
   <i name="OFIELD_Q6_NEAR">      0.00000000</i>
   <i name="OFIELD_Q6_FAR">      0.00000000</i>
   <i name="OFIELD_A">      0.00000000</i>
  </separator>
  <separator name="optional k-points parameters" >
   <i type="int" name="KPOINTS_OPT_MODE">     1</i>
   <i type="logical" name="LKPOINTS_OPT"> F  </i>
  </separator>
 </parameters>
 <atominfo>
  <atoms>      14 </atoms>
  <types>       1 </types>
  <array name="atoms" >
   <dimension dim="1">ion</dimension>
   <field type="string">element</field>
   <field type="int">atomtype</field>
   <set>
    <rc><c>B </c><c>   1</c></rc>
    <rc><c>B </c><c>   1</c></rc>
    <rc><c>B </c><c>   1</c></rc>
    <rc><c>B </c><c>   1</c></rc>
    <rc><c>B </c><c>   1</c></rc>
    <rc><c>B </c><c>   1</c></rc>
    <rc><c>B </c><c>   1</c></rc>
    <rc><c>B </c><c>   1</c></rc>
    <rc><c>B </c><c>   1</c></rc>
    <rc><c>B </c><c>   1</c></rc>
    <rc><c>B </c><c>   1</c></rc>
    <rc><c>B </c><c>   1</c></rc>
    <rc><c>B </c><c>   1</c></rc>
    <rc><c>B </c><c>   1</c></rc>
   </set>
  </array>
  <array name="atomtypes" >
   <dimension dim="1">type</dimension>
   <field type="int">atomspertype</field>
   <field type="string">element</field>
   <field>mass</field>
   <field>valence</field>
   <field type="string">pseudopotential</field>
   <set>
    <rc><c>  14</c><c>B </c><c>     10.81100000</c><c>      3.00000000</c><c>  PAW_PBE B 06Sep2000                   </c></rc>
   </set>
  </array>
 </atominfo>
 <structure name="initialpos" >
  <crystal>
   <varray name="basis" >
    <v>       5.69643030       0.00000000       0.00000000 </v>
    <v>       0.00000000       4.04749521       0.00000000 </v>
    <v>       0.00000000       0.00000000       6.20357958 </v>
   </varray>
   <i name="volume">    143.03143277 </i>
   <varray name="rec_basis" >
    <v>       0.17554854       0.00000000       0.00000000 </v>
    <v>       0.00000000       0.24706638       0.00000000 </v>
    <v>       0.00000000       0.00000000       0.16119726 </v>
   </varray>
  </crystal>
  <varray name="positions" >
   <v>       0.52123000       0.50000000       0.63796000 </v>
   <v>       0.47877000       0.50000000       0.36204000 </v>
   <v>       0.97877000       0.50000000       0.63796000 </v>
   <v>       0.02123000       0.50000000       0.36204000 </v>
   <v>       0.60090000       0.50000000       0.89991000 </v>
   <v>       0.39910000       0.50000000       0.10009000 </v>
   <v>       0.89910000       0.50000000       0.89991000 </v>
   <v>       0.10090000       0.50000000       0.10009000 </v>
   <v>       0.75000000       0.79171000       0.72973000 </v>
   <v>       0.25000000       0.20829000       0.27027000 </v>
   <v>       0.75000000       0.20829000       0.72973000 </v>
   <v>       0.25000000       0.79171000       0.27027000 </v>
   <v>       0.25000000       0.50000000       0.52367000 </v>
   <v>       0.75000000       0.50000000       0.47633000 </v>
  </varray>
 </structure>
 <calculation>
  <scstep>
   <time name="dav">    5.57    5.57</time>
   <time name="total">    5.58    5.59</time>
   <energy>
    <i name="alphaZ">     94.27185865 </i>
    <i name="ewald">   -795.84616553 </i>
    <i name="hartreedc">   -271.30611359 </i>
    <i name="XCdc">     97.50866905 </i>
    <i name="pawpsdc">    608.99811708 </i>
    <i name="pawaedc">   -597.02363782 </i>
    <i name="eentropy">     -0.00113475 </i>
    <i name="bandstr">    -53.82643094 </i>
    <i name="atom">    996.37441054 </i>
    <i name="e_fr_energy">     79.14957268 </i>
    <i name="e_wo_entrp">     79.15070743 </i>
    <i name="e_0_energy">     79.15014006 </i>
   </energy>
  </scstep>
  <scstep>
   <time name="dav">    7.34    7.34</time>
   <time name="total">    7.34    7.34</time>
   <energy>
    <i name="e_fr_energy">    -91.78288733 </i>
    <i name="e_wo_entrp">    -91.77922585 </i>
    <i name="e_0_energy">    -91.78105659 </i>
   </energy>
  </scstep>
  <scstep>
   <time name="dav">    7.82    7.82</time>
   <time name="total">    7.82    7.82</time>
   <energy>
    <i name="e_fr_energy">    -97.61389585 </i>
    <i name="e_wo_entrp">    -97.61023720 </i>
    <i name="e_0_energy">    -97.61206653 </i>
   </energy>
  </scstep>
  <scstep>
   <time name="dav">    6.48    6.48</time>
   <time name="total">    6.48    6.48</time>
   <energy>
    <i name="e_fr_energy">    -97.64824139 </i>
    <i name="e_wo_entrp">    -97.64458646 </i>
    <i name="e_0_energy">    -97.64641392 </i>
   </energy>
  </scstep>
  <scstep>
   <time name="dav">    7.78    7.78</time>
   <time name="total">    7.88    7.88</time>
   <energy>
    <i name="e_fr_energy">    -97.64862705 </i>
    <i name="e_wo_entrp">    -97.64497216 </i>
    <i name="e_0_energy">    -97.64679961 </i>
   </energy>
  </scstep>
  <scstep>
   <time name="dav">    7.69    7.69</time>
   <time name="total">    7.79    7.79</time>
   <energy>
    <i name="e_fr_energy">    -92.22850178 </i>
    <i name="e_wo_entrp">    -92.22507073 </i>
    <i name="e_0_energy">    -92.22678625 </i>
   </energy>
  </scstep>
  <scstep>
   <time name="dav">    7.95    7.95</time>
   <time name="total">    8.05    8.05</time>
   <energy>
    <i name="e_fr_energy">    -90.57579908 </i>
    <i name="e_wo_entrp">    -90.57266476 </i>
    <i name="e_0_energy">    -90.57423192 </i>
   </energy>
  </scstep>
  <scstep>
   <time name="dav">    6.03    6.03</time>
   <time name="total">    6.13    6.14</time>
   <energy>
    <i name="e_fr_energy">    -90.58822811 </i>
    <i name="e_wo_entrp">    -90.58505095 </i>
    <i name="e_0_energy">    -90.58663953 </i>
   </energy>
  </scstep>
  <scstep>
   <time name="dav">    7.54    7.54</time>
   <time name="total">    7.64    7.64</time>
   <energy>
    <i name="e_fr_energy">    -90.60239233 </i>
    <i name="e_wo_entrp">    -90.59912871 </i>
    <i name="e_0_energy">    -90.60076052 </i>
   </energy>
  </scstep>
  <scstep>
   <time name="dav">    6.22    6.22</time>
   <time name="total">    6.33    6.33</time>
   <energy>
    <i name="e_fr_energy">    -90.60644006 </i>
    <i name="e_wo_entrp">    -90.60322259 </i>
    <i name="e_0_energy">    -90.60483133 </i>
   </energy>
  </scstep>
  <scstep>
   <time name="dav">    6.90    6.90</time>
   <time name="total">    7.00    7.00</time>
   <energy>
    <i name="e_fr_energy">    -90.60750744 </i>
    <i name="e_wo_entrp">    -90.60430079 </i>
    <i name="e_0_energy">    -90.60590412 </i>
   </energy>
  </scstep>
  <scstep>
   <time name="dav">    6.63    6.63</time>
   <time name="total">    6.73    6.73</time>
   <energy>
    <i name="e_fr_energy">    -90.60762325 </i>
    <i name="e_wo_entrp">    -90.60441039 </i>
    <i name="e_0_energy">    -90.60601682 </i>
   </energy>
  </scstep>
  <scstep>
   <time name="dav">    7.42    7.42</time>
   <time name="total">    7.52    7.52</time>
   <energy>
    <i name="e_fr_energy">    -90.60762812 </i>
    <i name="e_wo_entrp">    -90.60441498 </i>
    <i name="e_0_energy">    -90.60602155 </i>
   </energy>
  </scstep>
  <scstep>
   <time name="dav">    6.60    6.60</time>
   <time name="total">    6.62    6.62</time>
   <energy>
    <i name="alphaZ">     94.27185865 </i>
    <i name="ewald">   -795.84616553 </i>
    <i name="hartreedc">   -349.10851519 </i>
    <i name="XCdc">    101.60471889 </i>
    <i name="pawpsdc">   3740.37251327 </i>
    <i name="pawaedc">  -3729.56082905 </i>
    <i name="eentropy">     -0.00321326 </i>
    <i name="bandstr">   -148.71240712 </i>
    <i name="atom">    996.37441054 </i>
    <i name="e_fr_energy">    -90.60762880 </i>
    <i name="e_wo_entrp">    -90.60441554 </i>
    <i name="e_0_energy">    -90.60602217 </i>
   </energy>
  </scstep>
  <structure>
   <crystal>
    <varray name="basis" >
     <v>       5.69643030       0.00000000       0.00000000 </v>
     <v>       0.00000000       4.04749521       0.00000000 </v>
     <v>       0.00000000       0.00000000       6.20357958 </v>
    </varray>
    <i name="volume">    143.03143277 </i>
    <varray name="rec_basis" >
     <v>       0.17554854       0.00000000       0.00000000 </v>
     <v>       0.00000000       0.24706638       0.00000000 </v>
     <v>       0.00000000       0.00000000       0.16119726 </v>
    </varray>
   </crystal>
   <varray name="positions" >
    <v>       0.52123000       0.50000000       0.63796000 </v>
    <v>       0.47877000       0.50000000       0.36204000 </v>
    <v>       0.97877000       0.50000000       0.63796000 </v>
    <v>       0.02123000       0.50000000       0.36204000 </v>
    <v>       0.60090000       0.50000000       0.89991000 </v>
    <v>       0.39910000       0.50000000       0.10009000 </v>
    <v>       0.89910000       0.50000000       0.89991000 </v>
    <v>       0.10090000       0.50000000       0.10009000 </v>
    <v>       0.75000000       0.79171000       0.72973000 </v>
    <v>       0.25000000       0.20829000       0.27027000 </v>
    <v>       0.75000000       0.20829000       0.72973000 </v>
    <v>       0.25000000       0.79171000       0.27027000 </v>
    <v>       0.25000000       0.50000000       0.52367000 </v>
    <v>       0.75000000       0.50000000       0.47633000 </v>
   </varray>
  </structure>
  <varray name="forces" >
   <v>      -0.00563232      -0.00000000       0.05166741 </v>
   <v>       0.00563232      -0.00000000      -0.05166741 </v>
   <v>       0.00563232      -0.00000000       0.05166741 </v>
   <v>      -0.00563232      -0.00000000      -0.05166741 </v>
   <v>      -0.83343743      -0.00000000       0.27841255 </v>
   <v>       0.83343743      -0.00000000      -0.27841255 </v>
   <v>       0.83343743      -0.00000000       0.27841255 </v>
   <v>      -0.83343743      -0.00000000      -0.27841255 </v>
   <v>      -0.00000000       0.06194834      -0.07830514 </v>
   <v>      -0.00000000      -0.06194834       0.07830514 </v>
   <v>      -0.00000000      -0.06194834      -0.07830514 </v>
   <v>      -0.00000000       0.06194834       0.07830514 </v>
   <v>      -0.00000000      -0.00000000       0.07307856 </v>
   <v>      -0.00000000      -0.00000000      -0.07307856 </v>
  </varray>
  <varray name="stress" >
   <v>      14.64628225       0.00000000      -0.00000000 </v>
   <v>       0.00000000       0.92678353       0.00000000 </v>
   <v>       0.00000000       0.00000000      -6.56235693 </v>
  </varray>
  <energy>
   <i name="e_fr_energy">    -90.60762880 </i>
   <i name="e_wo_entrp">    -90.60441554 </i>
   <i name="e_0_energy">    -90.60602217 </i>
  </energy>
  <time name="totalsc">  103.66  103.68</time>
  <eigenvalues>
   <array>
    <dimension dim="1">band</dimension>
    <dimension dim="2">kpoint</dimension>
    <dimension dim="3">spin</dimension>
    <field>eigene</field>
    <field>occ</field>
    <set>
     <set comment="spin 1">
      <set comment="kpoint 1">
       <r>  -12.7252    1.0000 </r>
       <r>  -11.5832    1.0000 </r>
       <r>   -8.6575    1.0000 </r>
       <r>   -8.4207    1.0000 </r>
       <r>   -6.0628    1.0000 </r>
       <r>   -5.1290    1.0000 </r>
       <r>   -4.6647    1.0000 </r>
       <r>   -4.2743    1.0000 </r>
       <r>   -4.0321    1.0000 </r>
       <r>   -3.5428    1.0000 </r>
       <r>   -2.5921    1.0000 </r>
       <r>   -2.3230    1.0000 </r>
       <r>   -1.8319    1.0000 </r>
       <r>   -1.0945    1.0000 </r>
       <r>   -0.0684    1.0000 </r>
       <r>   -0.0383    1.0000 </r>
       <r>    0.1580    1.0000 </r>
       <r>    0.1797    1.0000 </r>
       <r>    0.5675    1.0000 </r>
       <r>    2.0206    0.0001 </r>
       <r>    2.0837    0.0000 </r>
       <r>    2.2192    0.0000 </r>
       <r>    5.4603    0.0000 </r>
       <r>    5.7515    0.0000 </r>
       <r>    5.8408    0.0000 </r>
       <r>    5.9616    0.0000 </r>
       <r>    6.8172    0.0000 </r>
       <r>    7.5512    0.0000 </r>
       <r>    7.8806    0.0000 </r>
       <r>    8.5389    0.0000 </r>
       <r>    8.8063    0.0000 </r>
       <r>    8.9533    0.0000 </r>
       <r>    9.0565    0.0000 </r>
       <r>   10.1261    0.0000 </r>
       <r>   11.1866    0.0000 </r>
       <r>   11.3382    0.0000 </r>
       <r>   11.6686    0.0000 </r>
       <r>   11.7854    0.0000 </r>
       <r>   11.9442    0.0000 </r>
       <r>   12.4063    0.0000 </r>
       <r>   12.8724    0.0000 </r>
       <r>   13.4563    0.0000 </r>
       <r>   13.4836    0.0000 </r>
       <r>   15.3863    0.0000 </r>
       <r>   15.5753    0.0000 </r>
       <r>   16.0662    0.0000 </r>
       <r>   16.3372    0.0000 </r>
       <r>   16.3605    0.0000 </r>
      </set>
      <set comment="kpoint 2">
       <r>  -12.6815    1.0000 </r>
       <r>  -11.6570    1.0000 </r>
       <r>   -8.6364    1.0000 </r>
       <r>   -8.4092    1.0000 </r>
       <r>   -5.9946    1.0000 </r>
       <r>   -5.4702    1.0000 </r>
       <r>   -4.7873    1.0000 </r>
       <r>   -4.0087    1.0000 </r>
       <r>   -3.7911    1.0000 </r>
       <r>   -3.2051    1.0000 </r>
       <r>   -2.6624    1.0000 </r>
       <r>   -2.3029    1.0000 </r>
       <r>   -1.9107    1.0000 </r>
       <r>   -1.4014    1.0000 </r>
       <r>   -0.0281    1.0000 </r>
       <r>   -0.0166    1.0000 </r>
       <r>    0.0954    1.0000 </r>
       <r>    0.1999    1.0000 </r>
       <r>    0.4724    1.0000 </r>
       <r>    1.9344    0.0850 </r>
       <r>    2.0058    0.0003 </r>
       <r>    2.0979    0.0000 </r>
       <r>    5.5490    0.0000 </r>
       <r>    5.7602    0.0000 </r>
       <r>    5.8683    0.0000 </r>
       <r>    6.3074    0.0000 </r>
       <r>    6.7316    0.0000 </r>
       <r>    7.1893    0.0000 </r>
       <r>    8.0908    0.0000 </r>
       <r>    8.6752    0.0000 </r>
       <r>    9.0635    0.0000 </r>
       <r>    9.1353    0.0000 </r>
       <r>    9.2077    0.0000 </r>
       <r>   10.2392    0.0000 </r>
       <r>   10.9457    0.0000 </r>
       <r>   11.1342    0.0000 </r>
       <r>   11.2596    0.0000 </r>
       <r>   11.7024    0.0000 </r>
       <r>   12.1614    0.0000 </r>
       <r>   12.4958    0.0000 </r>
       <r>   13.1252    0.0000 </r>
       <r>   13.1318    0.0000 </r>
       <r>   14.0153    0.0000 </r>
       <r>   14.8744    0.0000 </r>
       <r>   15.7546    0.0000 </r>
       <r>   15.8333    0.0000 </r>
       <r>   16.2312    0.0000 </r>
       <r>   16.5179    0.0000 </r>
      </set>
      <set comment="kpoint 3">
       <r>  -12.5958    1.0000 </r>
       <r>  -11.7900    1.0000 </r>
       <r>   -8.5928    1.0000 </r>
       <r>   -8.3945    1.0000 </r>
       <r>   -5.9730    1.0000 </r>
       <r>   -5.7969    1.0000 </r>
       <r>   -4.7414    1.0000 </r>
       <r>   -3.8812    1.0000 </r>
       <r>   -3.2801    1.0000 </r>
       <r>   -2.8313    1.0000 </r>
       <r>   -2.7126    1.0000 </r>
       <r>   -2.2625    1.0000 </r>
       <r>   -2.0214    1.0000 </r>
       <r>   -1.9058    1.0000 </r>
       <r>   -0.2173    1.0000 </r>
       <r>    0.0156    1.0000 </r>
       <r>    0.1454    1.0000 </r>
       <r>    0.1586    1.0000 </r>
       <r>    0.4422    1.0000 </r>
       <r>    1.7867    0.9975 </r>
       <r>    1.8682    0.6914 </r>
       <r>    1.8730    0.6419 </r>
       <r>    5.6698    0.0000 </r>
       <r>    5.7167    0.0000 </r>
       <r>    6.1774    0.0000 </r>
       <r>    6.6055    0.0000 </r>
       <r>    6.7660    0.0000 </r>
       <r>    6.9347    0.0000 </r>
       <r>    8.2419    0.0000 </r>
       <r>    8.8236    0.0000 </r>
       <r>    9.0044    0.0000 </r>
       <r>    9.5794    0.0000 </r>
       <r>    9.6516    0.0000 </r>
       <r>   10.2843    0.0000 </r>
       <r>   10.4897    0.0000 </r>
       <r>   10.6296    0.0000 </r>
       <r>   11.3801    0.0000 </r>
       <r>   11.8444    0.0000 </r>
       <r>   12.3964    0.0000 </r>
       <r>   12.5701    0.0000 </r>
       <r>   12.7964    0.0000 </r>
       <r>   12.9227    0.0000 </r>
       <r>   14.6411    0.0000 </r>
       <r>   14.9228    0.0000 </r>
       <r>   15.2298    0.0000 </r>
       <r>   15.9877    0.0000 </r>
       <r>   16.0066    0.0000 </r>
       <r>   16.2959    0.0000 </r>
      </set>
      <set comment="kpoint 4">
       <r>  -12.4723    1.0000 </r>
       <r>  -11.9593    1.0000 </r>
       <r>   -8.5310    1.0000 </r>
       <r>   -8.3913    1.0000 </r>
       <r>   -6.0538    1.0000 </r>
       <r>   -6.0300    1.0000 </r>
       <r>   -4.4139    1.0000 </r>
       <r>   -3.7122    1.0000 </r>
       <r>   -3.0255    1.0000 </r>
       <r>   -2.8954    1.0000 </r>
       <r>   -2.4427    1.0000 </r>
       <r>   -2.2512    1.0000 </r>
       <r>   -2.1440    1.0000 </r>
       <r>   -2.1226    1.0000 </r>
       <r>   -0.5164    1.0000 </r>
       <r>   -0.2432    1.0000 </r>
       <r>    0.1742    1.0000 </r>
       <r>    0.2498    1.0000 </r>
       <r>    0.6153    1.0000 </r>
       <r>    1.5324    1.0000 </r>
       <r>    1.6639    1.0000 </r>
       <r>    1.7246    1.0000 </r>
       <r>    5.7014    0.0000 </r>
       <r>    5.7552    0.0000 </r>
       <r>    6.5041    0.0000 </r>
       <r>    6.6756    0.0000 </r>
       <r>    6.7015    0.0000 </r>
       <r>    7.4160    0.0000 </r>
       <r>    8.3664    0.0000 </r>
       <r>    8.6922    0.0000 </r>
       <r>    8.8131    0.0000 </r>
       <r>    9.5384    0.0000 </r>
       <r>   10.0601    0.0000 </r>
       <r>   10.1220    0.0000 </r>
       <r>   10.4024    0.0000 </r>
       <r>   11.1534    0.0000 </r>
       <r>   11.4080    0.0000 </r>
       <r>   11.9502    0.0000 </r>
       <r>   12.2081    0.0000 </r>
       <r>   12.2797    0.0000 </r>
       <r>   12.5248    0.0000 </r>
       <r>   13.2609    0.0000 </r>
       <r>   14.7171    0.0000 </r>
       <r>   14.9812    0.0000 </r>
       <r>   15.2686    0.0000 </r>
       <r>   15.3792    0.0000 </r>
       <r>   15.5777    0.0000 </r>
       <r>   16.3820    0.0000 </r>
      </set>
      <set comment="kpoint 5">
       <r>  -12.3176    1.0000 </r>
       <r>  -12.1417    1.0000 </r>
       <r>   -8.4649    1.0000 </r>
       <r>   -8.4139    1.0000 </r>
       <r>   -6.1436    1.0000 </r>
       <r>   -6.1392    1.0000 </r>
       <r>   -3.8985    1.0000 </r>
       <r>   -3.5028    1.0000 </r>
       <r>   -3.2990    1.0000 </r>
       <r>   -3.2646    1.0000 </r>
       <r>   -2.3604    1.0000 </r>
       <r>   -2.2318    1.0000 </r>
       <r>   -1.9597    1.0000 </r>
       <r>   -1.9069    1.0000 </r>
       <r>   -0.7369    1.0000 </r>
       <r>   -0.6015    1.0000 </r>
       <r>    0.2575    1.0000 </r>
       <r>    0.2912    1.0000 </r>
       <r>    0.8761    1.0000 </r>
       <r>    1.1935    1.0000 </r>
       <r>    1.5833    1.0000 </r>
       <r>    1.6107    1.0000 </r>
       <r>    5.7293    0.0000 </r>
       <r>    5.7666    0.0000 </r>
       <r>    6.4826    0.0000 </r>
       <r>    6.5465    0.0000 </r>
       <r>    7.3709    0.0000 </r>
       <r>    8.0771    0.0000 </r>
       <r>    8.0986    0.0000 </r>
       <r>    8.4843    0.0000 </r>
       <r>    8.6231    0.0000 </r>
       <r>    8.7930    0.0000 </r>
       <r>   10.5050    0.0000 </r>
       <r>   10.5216    0.0000 </r>
       <r>   10.7652    0.0000 </r>
       <r>   11.2233    0.0000 </r>
       <r>   11.4078    0.0000 </r>
       <r>   11.6044    0.0000 </r>
       <r>   11.9381    0.0000 </r>
       <r>   12.4866    0.0000 </r>
       <r>   12.7203    0.0000 </r>
       <r>   13.2565    0.0000 </r>
       <r>   14.5946    0.0000 </r>
       <r>   14.7398    0.0000 </r>
       <r>   14.8736    0.0000 </r>
       <r>   14.9323    0.0000 </r>
       <r>   16.1071    0.0000 </r>
       <r>   16.4516    0.0000 </r>
      </set>
      <set comment="kpoint 6">
       <r>  -12.7012    1.0000 </r>
       <r>  -11.5617    1.0000 </r>
       <r>   -8.6387    1.0000 </r>
       <r>   -8.3975    1.0000 </r>
       <r>   -6.0360    1.0000 </r>
       <r>   -5.0953    1.0000 </r>
       <r>   -4.6426    1.0000 </r>
       <r>   -4.5724    1.0000 </r>
       <r>   -4.1760    1.0000 </r>
       <r>   -3.5199    1.0000 </r>
       <r>   -3.2855    1.0000 </r>
       <r>   -1.7922    1.0000 </r>
       <r>   -1.0899    1.0000 </r>
       <r>   -1.0330    1.0000 </r>
       <r>   -0.3023    1.0000 </r>
       <r>   -0.2743    1.0000 </r>
       <r>    0.1715    1.0000 </r>
       <r>    0.2500    1.0000 </r>
       <r>    0.6459    1.0000 </r>
       <r>    1.7527    0.9999 </r>
       <r>    1.8327    0.9335 </r>
       <r>    2.2714    0.0000 </r>
       <r>    5.5785    0.0000 </r>
       <r>    5.7104    0.0000 </r>
       <r>    5.7440    0.0000 </r>
       <r>    6.0097    0.0000 </r>
       <r>    7.1033    0.0000 </r>
       <r>    7.8368    0.0000 </r>
       <r>    8.0803    0.0000 </r>
       <r>    8.1909    0.0000 </r>
       <r>    8.8104    0.0000 </r>
       <r>    9.1035    0.0000 </r>
       <r>    9.1543    0.0000 </r>
       <r>   10.5785    0.0000 </r>
       <r>   11.2695    0.0000 </r>
       <r>   11.4019    0.0000 </r>
       <r>   11.6024    0.0000 </r>
       <r>   11.8882    0.0000 </r>
       <r>   12.0548    0.0000 </r>
       <r>   12.6866    0.0000 </r>
       <r>   12.8725    0.0000 </r>
       <r>   13.1929    0.0000 </r>
       <r>   13.1992    0.0000 </r>
       <r>   15.3357    0.0000 </r>
       <r>   15.3855    0.0000 </r>
       <r>   15.8626    0.0000 </r>
       <r>   15.8738    0.0000 </r>
       <r>   16.2250    0.0000 </r>
      </set>
      <set comment="kpoint 7">
       <r>  -12.6575    1.0000 </r>
       <r>  -11.6353    1.0000 </r>
       <r>   -8.6174    1.0000 </r>
       <r>   -8.3864    1.0000 </r>
       <r>   -5.9660    1.0000 </r>
       <r>   -5.4401    1.0000 </r>
       <r>   -4.7672    1.0000 </r>
       <r>   -4.4895    1.0000 </r>
       <r>   -3.7517    1.0000 </r>
       <r>   -3.3663    1.0000 </r>
       <r>   -3.1670    1.0000 </r>
       <r>   -1.7705    1.0000 </r>
       <r>   -1.3960    1.0000 </r>
       <r>   -1.1523    1.0000 </r>
       <r>   -0.2633    1.0000 </r>
       <r>   -0.1934    1.0000 </r>
       <r>    0.1391    1.0000 </r>
       <r>    0.2213    1.0000 </r>
       <r>    0.5431    1.0000 </r>
       <r>    1.6722    1.0000 </r>
       <r>    1.7562    0.9999 </r>
       <r>    2.1405    0.0000 </r>
       <r>    5.6543    0.0000 </r>
       <r>    5.8090    0.0000 </r>
       <r>    5.9379    0.0000 </r>
       <r>    6.1142    0.0000 </r>
       <r>    7.0198    0.0000 </r>
       <r>    7.5116    0.0000 </r>
       <r>    8.2261    0.0000 </r>
       <r>    8.3618    0.0000 </r>
       <r>    9.1346    0.0000 </r>
       <r>    9.1645    0.0000 </r>
       <r>    9.4198    0.0000 </r>
       <r>   10.5038    0.0000 </r>
       <r>   10.8768    0.0000 </r>
       <r>   11.0867    0.0000 </r>
       <r>   11.4565    0.0000 </r>
       <r>   11.8753    0.0000 </r>
       <r>   12.2745    0.0000 </r>
       <r>   12.7420    0.0000 </r>
       <r>   12.8705    0.0000 </r>
       <r>   13.1558    0.0000 </r>
       <r>   13.7325    0.0000 </r>
       <r>   14.9596    0.0000 </r>
       <r>   15.4029    0.0000 </r>
       <r>   15.7543    0.0000 </r>
       <r>   15.8005    0.0000 </r>
       <r>   16.4051    0.0000 </r>
      </set>
      <set comment="kpoint 8">
       <r>  -12.5721    1.0000 </r>
       <r>  -11.7680    1.0000 </r>
       <r>   -8.5737    1.0000 </r>
       <r>   -8.3724    1.0000 </r>
       <r>   -5.9416    1.0000 </r>
       <r>   -5.7665    1.0000 </r>
       <r>   -4.7248    1.0000 </r>
       <r>   -4.3808    1.0000 </r>
       <r>   -3.4884    1.0000 </r>
       <r>   -3.2257    1.0000 </r>
       <r>   -2.7004    1.0000 </r>
       <r>   -1.9012    1.0000 </r>
       <r>   -1.7261    1.0000 </r>
       <r>   -1.3157    1.0000 </r>
       <r>   -0.2196    1.0000 </r>
       <r>   -0.2161    1.0000 </r>
       <r>    0.0541    1.0000 </r>
       <r>    0.2085    1.0000 </r>
       <r>    0.4667    1.0000 </r>
       <r>    1.5371    1.0000 </r>
       <r>    1.6261    1.0000 </r>
       <r>    1.8922    0.4290 </r>
       <r>    5.8584    0.0000 </r>
       <r>    5.9365    0.0000 </r>
       <r>    6.0142    0.0000 </r>
       <r>    6.5631    0.0000 </r>
       <r>    6.8990    0.0000 </r>
       <r>    7.2836    0.0000 </r>
       <r>    8.4323    0.0000 </r>
       <r>    8.4950    0.0000 </r>
       <r>    9.1047    0.0000 </r>
       <r>    9.6171    0.0000 </r>
       <r>    9.8774    0.0000 </r>
       <r>   10.1280    0.0000 </r>
       <r>   10.3568    0.0000 </r>
       <r>   10.8271    0.0000 </r>
       <r>   11.5224    0.0000 </r>
       <r>   12.1097    0.0000 </r>
       <r>   12.3122    0.0000 </r>
       <r>   12.5585    0.0000 </r>
       <r>   12.9623    0.0000 </r>
       <r>   13.0266    0.0000 </r>
       <r>   14.3095    0.0000 </r>
       <r>   15.0909    0.0000 </r>
       <r>   15.1663    0.0000 </r>
       <r>   15.6501    0.0000 </r>
       <r>   15.7131    0.0000 </r>
       <r>   16.4252    0.0000 </r>
      </set>
      <set comment="kpoint 9">
       <r>  -12.4488    1.0000 </r>
       <r>  -11.9370    1.0000 </r>
       <r>   -8.5116    1.0000 </r>
       <r>   -8.3701    1.0000 </r>
       <r>   -6.0213    1.0000 </r>
       <r>   -5.9987    1.0000 </r>
       <r>   -4.3994    1.0000 </r>
       <r>   -4.2336    1.0000 </r>
       <r>   -3.6602    1.0000 </r>
       <r>   -2.8458    1.0000 </r>
       <r>   -2.3610    1.0000 </r>
       <r>   -2.2170    1.0000 </r>
       <r>   -1.6618    1.0000 </r>
       <r>   -1.4790    1.0000 </r>
       <r>   -0.4778    1.0000 </r>
       <r>   -0.3064    1.0000 </r>
       <r>    0.0862    1.0000 </r>
       <r>    0.1160    1.0000 </r>
       <r>    0.6260    1.0000 </r>
       <r>    1.3975    1.0000 </r>
       <r>    1.4807    1.0000 </r>
       <r>    1.5680    1.0000 </r>
       <r>    5.8764    0.0000 </r>
       <r>    6.0102    0.0000 </r>
       <r>    6.5195    0.0000 </r>
       <r>    6.8093    0.0000 </r>
       <r>    6.8822    0.0000 </r>
       <r>    7.3746    0.0000 </r>
       <r>    8.4207    0.0000 </r>
       <r>    8.6030    0.0000 </r>
       <r>    8.9431    0.0000 </r>
       <r>    9.3737    0.0000 </r>
       <r>   10.0758    0.0000 </r>
       <r>   10.1025    0.0000 </r>
       <r>   10.4449    0.0000 </r>
       <r>   11.2307    0.0000 </r>
       <r>   11.3674    0.0000 </r>
       <r>   11.8453    0.0000 </r>
       <r>   12.2975    0.0000 </r>
       <r>   12.5491    0.0000 </r>
       <r>   12.7250    0.0000 </r>
       <r>   13.4635    0.0000 </r>
       <r>   14.7699    0.0000 </r>
       <r>   14.7775    0.0000 </r>
       <r>   15.1586    0.0000 </r>
       <r>   15.3119    0.0000 </r>
       <r>   15.6567    0.0000 </r>
       <r>   16.3950    0.0000 </r>
      </set>
      <set comment="kpoint 10">
       <r>  -12.2944    1.0000 </r>
       <r>  -12.1190    1.0000 </r>
       <r>   -8.4452    1.0000 </r>
       <r>   -8.3936    1.0000 </r>
       <r>   -6.1115    1.0000 </r>
       <r>   -6.1066    1.0000 </r>
       <r>   -4.0544    1.0000 </r>
       <r>   -3.8912    1.0000 </r>
       <r>   -3.8501    1.0000 </r>
       <r>   -3.2861    1.0000 </r>
       <r>   -2.1070    1.0000 </r>
       <r>   -1.9130    1.0000 </r>
       <r>   -1.5937    1.0000 </r>
       <r>   -1.5910    1.0000 </r>
       <r>   -0.6986    1.0000 </r>
       <r>   -0.5977    1.0000 </r>
       <r>    0.1191    1.0000 </r>
       <r>    0.1503    1.0000 </r>
       <r>    0.8855    1.0000 </r>
       <r>    1.1999    1.0000 </r>
       <r>    1.3440    1.0000 </r>
       <r>    1.3681    1.0000 </r>
       <r>    5.9275    0.0000 </r>
       <r>    5.9931    0.0000 </r>
       <r>    6.7982    0.0000 </r>
       <r>    6.8487    0.0000 </r>
       <r>    7.1873    0.0000 </r>
       <r>    7.9001    0.0000 </r>
       <r>    7.9454    0.0000 </r>
       <r>    8.6282    0.0000 </r>
       <r>    8.6957    0.0000 </r>
       <r>    8.8086    0.0000 </r>
       <r>   10.3239    0.0000 </r>
       <r>   10.5722    0.0000 </r>
       <r>   10.8089    0.0000 </r>
       <r>   10.9136    0.0000 </r>
       <r>   11.5550    0.0000 </r>
       <r>   11.6637    0.0000 </r>
       <r>   12.0174    0.0000 </r>
       <r>   12.6560    0.0000 </r>
       <r>   13.0290    0.0000 </r>
       <r>   13.4880    0.0000 </r>
       <r>   14.5530    0.0000 </r>
       <r>   14.7376    0.0000 </r>
       <r>   14.8344    0.0000 </r>
       <r>   15.0519    0.0000 </r>
       <r>   16.1314    0.0000 </r>
       <r>   16.4258    0.0000 </r>
      </set>
      <set comment="kpoint 11">
       <r>  -12.6568    1.0000 </r>
       <r>  -11.5219    1.0000 </r>
       <r>   -8.6043    1.0000 </r>
       <r>   -8.3548    1.0000 </r>
       <r>   -5.9865    1.0000 </r>
       <r>   -5.1294    1.0000 </r>
       <r>   -5.0044    1.0000 </r>
       <r>   -4.6007    1.0000 </r>
       <r>   -4.1599    1.0000 </r>
       <r>   -3.9077    1.0000 </r>
       <r>   -3.4666    1.0000 </r>
       <r>   -1.2032    1.0000 </r>
       <r>   -1.0805    1.0000 </r>
       <r>   -0.6465    1.0000 </r>
       <r>   -0.5404    1.0000 </r>
       <r>   -0.1743    1.0000 </r>
       <r>    0.1927    1.0000 </r>
       <r>    0.3029    1.0000 </r>
       <r>    0.7244    1.0000 </r>
       <r>    1.3698    1.0000 </r>
       <r>    1.4335    1.0000 </r>
       <r>    2.3095    0.0000 </r>
       <r>    5.2890    0.0000 </r>
       <r>    5.4548    0.0000 </r>
       <r>    6.1256    0.0000 </r>
       <r>    6.1982    0.0000 </r>
       <r>    7.5391    0.0000 </r>
       <r>    7.6278    0.0000 </r>
       <r>    8.3196    0.0000 </r>
       <r>    8.7297    0.0000 </r>
       <r>    8.8857    0.0000 </r>
       <r>    9.2454    0.0000 </r>
       <r>    9.3747    0.0000 </r>
       <r>   10.8842    0.0000 </r>
       <r>   11.3212    0.0000 </r>
       <r>   11.5753    0.0000 </r>
       <r>   11.7033    0.0000 </r>
       <r>   12.0890    0.0000 </r>
       <r>   12.2711    0.0000 </r>
       <r>   12.7491    0.0000 </r>
       <r>   12.7626    0.0000 </r>
       <r>   13.0098    0.0000 </r>
       <r>   13.2270    0.0000 </r>
       <r>   14.6801    0.0000 </r>
       <r>   15.1648    0.0000 </r>
       <r>   15.3470    0.0000 </r>
       <r>   15.4337    0.0000 </r>
       <r>   15.9658    0.0000 </r>
      </set>
      <set comment="kpoint 12">
       <r>  -12.6133    1.0000 </r>
       <r>  -11.5953    1.0000 </r>
       <r>   -8.5827    1.0000 </r>
       <r>   -8.3444    1.0000 </r>
       <r>   -5.9130    1.0000 </r>
       <r>   -5.3920    1.0000 </r>
       <r>   -5.0306    1.0000 </r>
       <r>   -4.7295    1.0000 </r>
       <r>   -3.9739    1.0000 </r>
       <r>   -3.7095    1.0000 </r>
       <r>   -3.1275    1.0000 </r>
       <r>   -1.3878    1.0000 </r>
       <r>   -1.1767    1.0000 </r>
       <r>   -0.7536    1.0000 </r>
       <r>   -0.5023    1.0000 </r>
       <r>   -0.0933    1.0000 </r>
       <r>    0.1734    1.0000 </r>
       <r>    0.2465    1.0000 </r>
       <r>    0.6119    1.0000 </r>
       <r>    1.2906    1.0000 </r>
       <r>    1.3638    1.0000 </r>
       <r>    2.1736    0.0000 </r>
       <r>    5.3693    0.0000 </r>
       <r>    5.8009    0.0000 </r>
       <r>    6.1443    0.0000 </r>
       <r>    6.2400    0.0000 </r>
       <r>    7.4583    0.0000 </r>
       <r>    7.7844    0.0000 </r>
       <r>    8.0518    0.0000 </r>
       <r>    8.8205    0.0000 </r>
       <r>    9.2571    0.0000 </r>
       <r>    9.2896    0.0000 </r>
       <r>    9.6594    0.0000 </r>
       <r>   10.5197    0.0000 </r>
       <r>   10.7821    0.0000 </r>
       <r>   11.2791    0.0000 </r>
       <r>   11.7213    0.0000 </r>
       <r>   12.2011    0.0000 </r>
       <r>   12.4339    0.0000 </r>
       <r>   12.5034    0.0000 </r>
       <r>   13.1657    0.0000 </r>
       <r>   13.2756    0.0000 </r>
       <r>   13.4407    0.0000 </r>
       <r>   14.6901    0.0000 </r>
       <r>   14.8262    0.0000 </r>
       <r>   15.2883    0.0000 </r>
       <r>   15.4975    0.0000 </r>
       <r>   15.9914    0.0000 </r>
      </set>
      <set comment="kpoint 13">
       <r>  -12.5282    1.0000 </r>
       <r>  -11.7274    1.0000 </r>
       <r>   -8.5385    1.0000 </r>
       <r>   -8.3317    1.0000 </r>
       <r>   -5.8833    1.0000 </r>
       <r>   -5.7117    1.0000 </r>
       <r>   -4.9389    1.0000 </r>
       <r>   -4.6937    1.0000 </r>
       <r>   -4.0977    1.0000 </r>
       <r>   -3.1753    1.0000 </r>
       <r>   -2.6564    1.0000 </r>
       <r>   -1.8848    1.0000 </r>
       <r>   -1.1361    1.0000 </r>
       <r>   -0.8924    1.0000 </r>
       <r>   -0.4494    1.0000 </r>
       <r>   -0.0840    1.0000 </r>
       <r>    0.0151    1.0000 </r>
       <r>    0.2584    1.0000 </r>
       <r>    0.4967    1.0000 </r>
       <r>    1.1591    1.0000 </r>
       <r>    1.2454    1.0000 </r>
       <r>    1.9170    0.1890 </r>
       <r>    5.6906    0.0000 </r>
       <r>    6.0993    0.0000 </r>
       <r>    6.2774    0.0000 </r>
       <r>    6.3698    0.0000 </r>
       <r>    7.3558    0.0000 </r>
       <r>    7.8625    0.0000 </r>
       <r>    8.0182    0.0000 </r>
       <r>    8.9491    0.0000 </r>
       <r>    9.2504    0.0000 </r>
       <r>    9.7228    0.0000 </r>
       <r>    9.8546    0.0000 </r>
       <r>   10.1415    0.0000 </r>
       <r>   10.2571    0.0000 </r>
       <r>   11.0660    0.0000 </r>
       <r>   11.5895    0.0000 </r>
       <r>   12.1081    0.0000 </r>
       <r>   12.5124    0.0000 </r>
       <r>   12.8042    0.0000 </r>
       <r>   13.0482    0.0000 </r>
       <r>   13.4497    0.0000 </r>
       <r>   13.9632    0.0000 </r>
       <r>   14.5986    0.0000 </r>
       <r>   14.8759    0.0000 </r>
       <r>   15.3082    0.0000 </r>
       <r>   15.5167    0.0000 </r>
       <r>   16.2020    0.0000 </r>
      </set>
      <set comment="kpoint 14">
       <r>  -12.4055    1.0000 </r>
       <r>  -11.8957    1.0000 </r>
       <r>   -8.4760    1.0000 </r>
       <r>   -8.3311    1.0000 </r>
       <r>   -5.9606    1.0000 </r>
       <r>   -5.9410    1.0000 </r>
       <r>   -4.8029    1.0000 </r>
       <r>   -4.3726    1.0000 </r>
       <r>   -4.2624    1.0000 </r>
       <r>   -2.8071    1.0000 </r>
       <r>   -2.3199    1.0000 </r>
       <r>   -2.1759    1.0000 </r>
       <r>   -1.0795    1.0000 </r>
       <r>   -1.0292    1.0000 </r>
       <r>   -0.4545    1.0000 </r>
       <r>   -0.3701    1.0000 </r>
       <r>    0.0590    1.0000 </r>
       <r>    0.0630    1.0000 </r>
       <r>    0.6437    1.0000 </r>
       <r>    1.0295    1.0000 </r>
       <r>    1.1126    1.0000 </r>
       <r>    1.5819    1.0000 </r>
       <r>    6.1105    0.0000 </r>
       <r>    6.2260    0.0000 </r>
       <r>    6.4014    0.0000 </r>
       <r>    6.8047    0.0000 </r>
       <r>    7.2998    0.0000 </r>
       <r>    7.7836    0.0000 </r>
       <r>    8.0731    0.0000 </r>
       <r>    9.0487    0.0000 </r>
       <r>    9.1068    0.0000 </r>
       <r>    9.1795    0.0000 </r>
       <r>    9.8914    0.0000 </r>
       <r>   10.1904    0.0000 </r>
       <r>   10.7045    0.0000 </r>
       <r>   11.0812    0.0000 </r>
       <r>   11.3298    0.0000 </r>
       <r>   11.9542    0.0000 </r>
       <r>   12.3600    0.0000 </r>
       <r>   12.9889    0.0000 </r>
       <r>   13.0398    0.0000 </r>
       <r>   13.7940    0.0000 </r>
       <r>   14.3849    0.0000 </r>
       <r>   14.4005    0.0000 </r>
       <r>   15.0344    0.0000 </r>
       <r>   15.1278    0.0000 </r>
       <r>   15.6186    0.0000 </r>
       <r>   16.3792    0.0000 </r>
      </set>
      <set comment="kpoint 15">
       <r>  -12.2517    1.0000 </r>
       <r>  -12.0770    1.0000 </r>
       <r>   -8.4089    1.0000 </r>
       <r>   -8.3562    1.0000 </r>
       <r>   -6.0519    1.0000 </r>
       <r>   -6.0459    1.0000 </r>
       <r>   -4.6349    1.0000 </r>
       <r>   -4.4490    1.0000 </r>
       <r>   -3.8599    1.0000 </r>
       <r>   -3.2635    1.0000 </r>
       <r>   -2.0380    1.0000 </r>
       <r>   -1.8723    1.0000 </r>
       <r>   -1.1007    1.0000 </r>
       <r>   -1.0390    1.0000 </r>
       <r>   -0.6278    1.0000 </r>
       <r>   -0.6210    1.0000 </r>
       <r>    0.0094    1.0000 </r>
       <r>    0.0529    1.0000 </r>
       <r>    0.9012    1.0000 </r>
       <r>    0.9672    1.0000 </r>
       <r>    1.0080    1.0000 </r>
       <r>    1.2284    1.0000 </r>
       <r>    6.2021    0.0000 </r>
       <r>    6.3202    0.0000 </r>
       <r>    6.8790    0.0000 </r>
       <r>    7.2189    0.0000 </r>
       <r>    7.2776    0.0000 </r>
       <r>    7.6237    0.0000 </r>
       <r>    7.9308    0.0000 </r>
       <r>    8.4424    0.0000 </r>
       <r>    9.1048    0.0000 </r>
       <r>    9.1370    0.0000 </r>
       <r>   10.0152    0.0000 </r>
       <r>   10.4871    0.0000 </r>
       <r>   10.7114    0.0000 </r>
       <r>   10.9814    0.0000 </r>
       <r>   11.7353    0.0000 </r>
       <r>   11.7539    0.0000 </r>
       <r>   12.1385    0.0000 </r>
       <r>   12.9137    0.0000 </r>
       <r>   13.4191    0.0000 </r>
       <r>   13.7666    0.0000 </r>
       <r>   14.2322    0.0000 </r>
       <r>   14.3868    0.0000 </r>
       <r>   14.9970    0.0000 </r>
       <r>   15.1370    0.0000 </r>
       <r>   15.9949    0.0000 </r>
       <r>   16.2989    0.0000 </r>
      </set>
      <set comment="kpoint 16">
       <r>  -12.5993    1.0000 </r>
       <r>  -11.4705    1.0000 </r>
       <r>   -8.5603    1.0000 </r>
       <r>   -8.2996    1.0000 </r>
       <r>   -5.9222    1.0000 </r>
       <r>   -5.6104    1.0000 </r>
       <r>   -4.9340    1.0000 </r>
       <r>   -4.5444    1.0000 </r>
       <r>   -4.4280    1.0000 </r>
       <r>   -4.1205    1.0000 </r>
       <r>   -3.4046    1.0000 </r>
       <r>   -1.2191    1.0000 </r>
       <r>   -1.0663    1.0000 </r>
       <r>   -1.0013    1.0000 </r>
       <r>   -0.1928    1.0000 </r>
       <r>    0.2209    1.0000 </r>
       <r>    0.3464    1.0000 </r>
       <r>    0.5966    1.0000 </r>
       <r>    0.7881    1.0000 </r>
       <r>    0.9845    1.0000 </r>
       <r>    0.9987    1.0000 </r>
       <r>    2.3438    0.0000 </r>
       <r>    4.9452    0.0000 </r>
       <r>    5.1610    0.0000 </r>
       <r>    6.3587    0.0000 </r>
       <r>    6.5882    0.0000 </r>
       <r>    7.2692    0.0000 </r>
       <r>    7.9705    0.0000 </r>
       <r>    8.7043    0.0000 </r>
       <r>    9.0609    0.0000 </r>
       <r>    9.4682    0.0000 </r>
       <r>    9.5821    0.0000 </r>
       <r>    9.6559    0.0000 </r>
       <r>   10.7457    0.0000 </r>
       <r>   11.2718    0.0000 </r>
       <r>   11.9687    0.0000 </r>
       <r>   12.0199    0.0000 </r>
       <r>   12.2979    0.0000 </r>
       <r>   12.4261    0.0000 </r>
       <r>   12.4504    0.0000 </r>
       <r>   12.5678    0.0000 </r>
       <r>   12.9952    0.0000 </r>
       <r>   13.7975    0.0000 </r>
       <r>   13.8830    0.0000 </r>
       <r>   14.4214    0.0000 </r>
       <r>   15.1058    0.0000 </r>
       <r>   15.4061    0.0000 </r>
       <r>   15.8645    0.0000 </r>
      </set>
      <set comment="kpoint 17">
       <r>  -12.5561    1.0000 </r>
       <r>  -11.5435    1.0000 </r>
       <r>   -8.5384    1.0000 </r>
       <r>   -8.2901    1.0000 </r>
       <r>   -5.8441    1.0000 </r>
       <r>   -5.5757    1.0000 </r>
       <r>   -5.2714    1.0000 </r>
       <r>   -4.6795    1.0000 </r>
       <r>   -4.4936    1.0000 </r>
       <r>   -3.6556    1.0000 </r>
       <r>   -3.0658    1.0000 </r>
       <r>   -1.3817    1.0000 </r>
       <r>   -1.1616    1.0000 </r>
       <r>   -1.0161    1.0000 </r>
       <r>   -0.1942    1.0000 </r>
       <r>    0.2062    1.0000 </r>
       <r>    0.2781    1.0000 </r>
       <r>    0.5759    1.0000 </r>
       <r>    0.6667    1.0000 </r>
       <r>    0.9192    1.0000 </r>
       <r>    0.9573    1.0000 </r>
       <r>    2.2059    0.0000 </r>
       <r>    5.0412    0.0000 </r>
       <r>    5.4928    0.0000 </r>
       <r>    6.3049    0.0000 </r>
       <r>    6.7198    0.0000 </r>
       <r>    7.4048    0.0000 </r>
       <r>    7.9279    0.0000 </r>
       <r>    8.6368    0.0000 </r>
       <r>    9.1775    0.0000 </r>
       <r>    9.4317    0.0000 </r>
       <r>    9.7923    0.0000 </r>
       <r>    9.9003    0.0000 </r>
       <r>   10.3378    0.0000 </r>
       <r>   10.7094    0.0000 </r>
       <r>   11.7083    0.0000 </r>
       <r>   11.8878    0.0000 </r>
       <r>   12.2477    0.0000 </r>
       <r>   12.4815    0.0000 </r>
       <r>   12.6447    0.0000 </r>
       <r>   12.9639    0.0000 </r>
       <r>   13.3947    0.0000 </r>
       <r>   13.7950    0.0000 </r>
       <r>   13.9273    0.0000 </r>
       <r>   14.2579    0.0000 </r>
       <r>   15.0814    0.0000 </r>
       <r>   15.4351    0.0000 </r>
       <r>   15.7349    0.0000 </r>
      </set>
      <set comment="kpoint 18">
       <r>  -12.4715    1.0000 </r>
       <r>  -11.6750    1.0000 </r>
       <r>   -8.4936    1.0000 </r>
       <r>   -8.2792    1.0000 </r>
       <r>   -5.8068    1.0000 </r>
       <r>   -5.6597    1.0000 </r>
       <r>   -5.4199    1.0000 </r>
       <r>   -4.6538    1.0000 </r>
       <r>   -4.6161    1.0000 </r>
       <r>   -3.1160    1.0000 </r>
       <r>   -2.5959    1.0000 </r>
       <r>   -1.8659    1.0000 </r>
       <r>   -1.1009    1.0000 </r>
       <r>   -1.0347    1.0000 </r>
       <r>   -0.2125    1.0000 </r>
       <r>   -0.0482    1.0000 </r>
       <r>    0.3164    1.0000 </r>
       <r>    0.5079    1.0000 </r>
       <r>    0.5241    1.0000 </r>
       <r>    0.8308    1.0000 </r>
       <r>    0.8903    1.0000 </r>
       <r>    1.9456    0.0456 </r>
       <r>    5.3670    0.0000 </r>
       <r>    5.9677    0.0000 </r>
       <r>    6.2776    0.0000 </r>
       <r>    6.8327    0.0000 </r>
       <r>    7.5724    0.0000 </r>
       <r>    7.9479    0.0000 </r>
       <r>    8.5620    0.0000 </r>
       <r>    9.3667    0.0000 </r>
       <r>    9.3973    0.0000 </r>
       <r>    9.5942    0.0000 </r>
       <r>   10.0459    0.0000 </r>
       <r>   10.1152    0.0000 </r>
       <r>   10.5628    0.0000 </r>
       <r>   11.3901    0.0000 </r>
       <r>   11.4002    0.0000 </r>
       <r>   12.2410    0.0000 </r>
       <r>   12.7440    0.0000 </r>
       <r>   12.9589    0.0000 </r>
       <r>   13.1830    0.0000 </r>
       <r>   13.5252    0.0000 </r>
       <r>   13.7687    0.0000 </r>
       <r>   14.0196    0.0000 </r>
       <r>   14.3935    0.0000 </r>
       <r>   15.1729    0.0000 </r>
       <r>   15.3616    0.0000 </r>
       <r>   15.9958    0.0000 </r>
      </set>
      <set comment="kpoint 19">
       <r>  -12.3494    1.0000 </r>
       <r>  -11.8424    1.0000 </r>
       <r>   -8.4305    1.0000 </r>
       <r>   -8.2810    1.0000 </r>
       <r>   -5.8809    1.0000 </r>
       <r>   -5.8683    1.0000 </r>
       <r>   -5.3068    1.0000 </r>
       <r>   -4.7806    1.0000 </r>
       <r>   -4.3369    1.0000 </r>
       <r>   -2.7623    1.0000 </r>
       <r>   -2.2774    1.0000 </r>
       <r>   -2.1202    1.0000 </r>
       <r>   -1.0428    1.0000 </r>
       <r>   -1.0162    1.0000 </r>
       <r>   -0.3724    1.0000 </r>
       <r>   -0.3278    1.0000 </r>
       <r>    0.1532    1.0000 </r>
       <r>    0.3771    1.0000 </r>
       <r>    0.6636    1.0000 </r>
       <r>    0.7750    1.0000 </r>
       <r>    0.8240    1.0000 </r>
       <r>    1.6066    1.0000 </r>
       <r>    5.8946    0.0000 </r>
       <r>    6.3097    0.0000 </r>
       <r>    6.5470    0.0000 </r>
       <r>    6.7848    0.0000 </r>
       <r>    7.5718    0.0000 </r>
       <r>    8.0059    0.0000 </r>
       <r>    8.5158    0.0000 </r>
       <r>    8.9173    0.0000 </r>
       <r>    9.2738    0.0000 </r>
       <r>    9.5854    0.0000 </r>
       <r>    9.9077    0.0000 </r>
       <r>   10.3478    0.0000 </r>
       <r>   10.7970    0.0000 </r>
       <r>   11.0958    0.0000 </r>
       <r>   11.4467    0.0000 </r>
       <r>   12.1707    0.0000 </r>
       <r>   12.4257    0.0000 </r>
       <r>   13.1620    0.0000 </r>
       <r>   13.2829    0.0000 </r>
       <r>   13.6638    0.0000 </r>
       <r>   13.9044    0.0000 </r>
       <r>   14.1549    0.0000 </r>
       <r>   14.7612    0.0000 </r>
       <r>   14.9956    0.0000 </r>
       <r>   15.4379    0.0000 </r>
       <r>   16.3318    0.0000 </r>
      </set>
      <set comment="kpoint 20">
       <r>  -12.1965    1.0000 </r>
       <r>  -12.0227    1.0000 </r>
       <r>   -8.3624    1.0000 </r>
       <r>   -8.3082    1.0000 </r>
       <r>   -5.9744    1.0000 </r>
       <r>   -5.9665    1.0000 </r>
       <r>   -5.1454    1.0000 </r>
       <r>   -4.9636    1.0000 </r>
       <r>   -3.8277    1.0000 </r>
       <r>   -3.2333    1.0000 </r>
       <r>   -1.9811    1.0000 </r>
       <r>   -1.8263    1.0000 </r>
       <r>   -0.9794    1.0000 </r>
       <r>   -0.9201    1.0000 </r>
       <r>   -0.6701    1.0000 </r>
       <r>   -0.6270    1.0000 </r>
       <r>    0.1288    1.0000 </r>
       <r>    0.2292    1.0000 </r>
       <r>    0.7594    1.0000 </r>
       <r>    0.7753    1.0000 </r>
       <r>    0.9270    1.0000 </r>
       <r>    1.2501    1.0000 </r>
       <r>    6.4429    0.0000 </r>
       <r>    6.5558    0.0000 </r>
       <r>    6.6221    0.0000 </r>
       <r>    7.1372    0.0000 </r>
       <r>    7.2074    0.0000 </r>
       <r>    7.6945    0.0000 </r>
       <r>    8.5045    0.0000 </r>
       <r>    8.5687    0.0000 </r>
       <r>    9.4680    0.0000 </r>
       <r>    9.6412    0.0000 </r>
       <r>    9.8475    0.0000 </r>
       <r>   10.1442    0.0000 </r>
       <r>   10.8615    0.0000 </r>
       <r>   11.2357    0.0000 </r>
       <r>   11.8729    0.0000 </r>
       <r>   11.9476    0.0000 </r>
       <r>   12.2602    0.0000 </r>
       <r>   13.1507    0.0000 </r>
       <r>   13.4411    0.0000 </r>
       <r>   13.6271    0.0000 </r>
       <r>   13.8419    0.0000 </r>
       <r>   13.9509    0.0000 </r>
       <r>   15.1034    0.0000 </r>
       <r>   15.1209    0.0000 </r>
       <r>   15.6710    0.0000 </r>
       <r>   15.9732    0.0000 </r>
      </set>
      <set comment="kpoint 21">
       <r>  -12.5392    1.0000 </r>
[...]
       <r>   -2.3142    1.0000 </r>
       <r>   -2.1468    1.0000 </r>
       <r>   -1.9828    1.0000 </r>
       <r>   -1.4897    1.0000 </r>
       <r>   -0.7370    1.0000 </r>
       <r>   -0.2009    1.0000 </r>
       <r>    0.1665    1.0000 </r>
       <r>    0.3859    1.0000 </r>
       <r>    0.5144    1.0000 </r>
       <r>    1.5899    1.0000 </r>
       <r>    1.6173    1.0000 </r>
       <r>    1.8727    0.6447 </r>
       <r>    5.5133    0.0000 </r>
       <r>    6.1482    0.0000 </r>
       <r>    6.6689    0.0000 </r>
       <r>    7.2201    0.0000 </r>
       <r>    7.7843    0.0000 </r>
       <r>    8.2265    0.0000 </r>
       <r>    8.9934    0.0000 </r>
       <r>    9.1530    0.0000 </r>
       <r>    9.7223    0.0000 </r>
       <r>    9.9580    0.0000 </r>
       <r>   10.5891    0.0000 </r>
       <r>   11.0327    0.0000 </r>
       <r>   11.2090    0.0000 </r>
       <r>   11.4812    0.0000 </r>
       <r>   11.5691    0.0000 </r>
       <r>   11.9517    0.0000 </r>
       <r>   12.8396    0.0000 </r>
       <r>   13.1481    0.0000 </r>
       <r>   13.3703    0.0000 </r>
       <r>   13.7509    0.0000 </r>
       <r>   13.8756    0.0000 </r>
       <r>   14.1579    0.0000 </r>
       <r>   14.4795    0.0000 </r>
       <r>   14.9690    0.0000 </r>
       <r>   15.0966    0.0000 </r>
       <r>   15.3971    0.0000 </r>
      </set>
      <set comment="kpoint 175">
       <r>  -12.0211    1.0000 </r>
       <r>  -11.8820    1.0000 </r>
       <r>   -8.5466    1.0000 </r>
       <r>   -8.4343    1.0000 </r>
       <r>   -5.9260    1.0000 </r>
       <r>   -5.8198    1.0000 </r>
       <r>   -4.8911    1.0000 </r>
       <r>   -4.5674    1.0000 </r>
       <r>   -4.4129    1.0000 </r>
       <r>   -3.9746    1.0000 </r>
       <r>   -2.1989    1.0000 </r>
       <r>   -2.1373    1.0000 </r>
       <r>   -2.0565    1.0000 </r>
       <r>   -1.7722    1.0000 </r>
       <r>   -0.2186    1.0000 </r>
       <r>   -0.0049    1.0000 </r>
       <r>    0.3889    1.0000 </r>
       <r>    0.4768    1.0000 </r>
       <r>    0.5491    1.0000 </r>
       <r>    0.8753    1.0000 </r>
       <r>    1.6314    1.0000 </r>
       <r>    1.7310    1.0000 </r>
       <r>    5.8605    0.0000 </r>
       <r>    6.0461    0.0000 </r>
       <r>    6.8710    0.0000 </r>
       <r>    7.4090    0.0000 </r>
       <r>    7.4751    0.0000 </r>
       <r>    7.5788    0.0000 </r>
       <r>    9.3980    0.0000 </r>
       <r>    9.5822    0.0000 </r>
       <r>    9.7910    0.0000 </r>
       <r>    9.9686    0.0000 </r>
       <r>   10.4658    0.0000 </r>
       <r>   10.8159    0.0000 </r>
       <r>   11.2370    0.0000 </r>
       <r>   11.5109    0.0000 </r>
       <r>   11.5222    0.0000 </r>
       <r>   11.6145    0.0000 </r>
       <r>   13.0843    0.0000 </r>
       <r>   13.1904    0.0000 </r>
       <r>   13.7246    0.0000 </r>
       <r>   14.0566    0.0000 </r>
       <r>   14.1909    0.0000 </r>
       <r>   14.2940    0.0000 </r>
       <r>   14.5956    0.0000 </r>
       <r>   14.7392    0.0000 </r>
       <r>   14.8874    0.0000 </r>
       <r>   15.0498    0.0000 </r>
      </set>
     </set>
    </set>
   </array>
  </eigenvalues>
  <separator name="orbital magnetization" >
   <v name="MAGDIPOLOUT">      0.00000000      0.00000000      0.00000000</v>
  </separator>
  <dos>
   <i name="efermi">      1.88583763 </i>
   <total>
    <array>
     <dimension dim="1">gridpoints</dimension>
     <dimension dim="2">spin</dimension>
     <field>energy</field>
     <field>total</field>
     <field>integrated</field>
     <set>
      <set comment="spin 1">
       <r>   -14.1874     0.0000     0.0000 </r>
       <r>   -14.0801     0.0000     0.0000 </r>
       <r>   -13.9729     0.0000     0.0000 </r>
       <r>   -13.8657     0.0000     0.0000 </r>
       <r>   -13.7585     0.0000     0.0000 </r>
       <r>   -13.6512     0.0000     0.0000 </r>
       <r>   -13.5440     0.0000     0.0000 </r>
       <r>   -13.4368     0.0000     0.0000 </r>
       <r>   -13.3296     0.0000     0.0000 </r>
       <r>   -13.2223     0.0000     0.0000 </r>
       <r>   -13.1151     0.0000     0.0000 </r>
       <r>   -13.0079     0.0000     0.0000 </r>
       <r>   -12.9007     0.0000     0.0000 </r>
       <r>   -12.7934     0.0038     0.0004 </r>
       <r>   -12.6862     0.5084     0.0549 </r>
       <r>   -12.5790     2.3900     0.3112 </r>
       <r>   -12.4718     3.5633     0.6933 </r>
       <r>   -12.3645     4.3708     1.1619 </r>
       <r>   -12.2573     3.5390     1.5414 </r>
       <r>   -12.1501     2.7350     1.8346 </r>
       <r>   -12.0429     2.7507     2.1296 </r>
       <r>   -11.9356     2.5055     2.3982 </r>
       <r>   -11.8284     2.7711     2.6954 </r>
       <r>   -11.7212     3.4283     3.0630 </r>
       <r>   -11.6140     3.5352     3.4420 </r>
       <r>   -11.5067     3.1127     3.7758 </r>
       <r>   -11.3995     1.6649     3.9543 </r>
       <r>   -11.2923     0.4191     3.9992 </r>
       <r>   -11.1851     0.0071     4.0000 </r>
       <r>   -11.0778     0.0000     4.0000 </r>
       <r>   -10.9706     0.0000     4.0000 </r>
       <r>   -10.8634     0.0000     4.0000 </r>
       <r>   -10.7562     0.0000     4.0000 </r>
       <r>   -10.6489     0.0000     4.0000 </r>
       <r>   -10.5417     0.0000     4.0000 </r>
       <r>   -10.4345     0.0000     4.0000 </r>
       <r>   -10.3273     0.0000     4.0000 </r>
       <r>   -10.2200     0.0000     4.0000 </r>
       <r>   -10.1128     0.0000     4.0000 </r>
       <r>   -10.0056     0.0000     4.0000 </r>
       <r>    -9.8984     0.0000     4.0000 </r>
       <r>    -9.7911     0.0000     4.0000 </r>
       <r>    -9.6839     0.0000     4.0000 </r>
       <r>    -9.5767     0.0000     4.0000 </r>
       <r>    -9.4695     0.0000     4.0000 </r>
       <r>    -9.3622     0.0000     4.0000 </r>
       <r>    -9.2550     0.0000     4.0000 </r>
       <r>    -9.1478     0.0000     4.0000 </r>
       <r>    -9.0406     0.0000     4.0000 </r>
       <r>    -8.9333     0.0006     4.0001 </r>
       <r>    -8.8261     0.2757     4.0296 </r>
       <r>    -8.7189     2.0890     4.2536 </r>
       <r>    -8.6117     5.3281     4.8249 </r>
       <r>    -8.5044     6.9864     5.5740 </r>
       <r>    -8.3972     6.2986     6.2494 </r>
       <r>    -8.2900     5.3251     6.8204 </r>
       <r>    -8.1828     4.8344     7.3387 </r>
       <r>    -8.0756     3.8730     7.7540 </r>
       <r>    -7.9683     1.6655     7.9326 </r>
       <r>    -7.8611     0.5767     7.9944 </r>
       <r>    -7.7539     0.0518     8.0000 </r>
       <r>    -7.6467     0.0000     8.0000 </r>
       <r>    -7.5394     0.0000     8.0000 </r>
       <r>    -7.4322     0.0000     8.0000 </r>
       <r>    -7.3250     0.0000     8.0000 </r>
       <r>    -7.2178     0.0000     8.0000 </r>
       <r>    -7.1105     0.0000     8.0000 </r>
       <r>    -7.0033     0.0004     8.0000 </r>
       <r>    -6.8961     0.1132     8.0122 </r>
       <r>    -6.7889     0.2576     8.0398 </r>
       <r>    -6.6816     0.4263     8.0855 </r>
       <r>    -6.5744     0.7661     8.1677 </r>
       <r>    -6.4672     0.8515     8.2590 </r>
       <r>    -6.3600     1.4457     8.4140 </r>
       <r>    -6.2527     1.9653     8.6247 </r>
       <r>    -6.1455     3.0571     8.9525 </r>
       <r>    -6.0383     3.7824     9.3581 </r>
       <r>    -5.9311     4.1135     9.7991 </r>
       <r>    -5.8238     4.0448    10.2328 </r>
       <r>    -5.7166     3.8600    10.6467 </r>
       <r>    -5.6094     4.0724    11.0834 </r>
       <r>    -5.5022     4.2208    11.5359 </r>
       <r>    -5.3949     4.5433    12.0231 </r>
       <r>    -5.2877     4.5970    12.5160 </r>
       <r>    -5.1805     4.4904    12.9975 </r>
       <r>    -5.0733     3.8679    13.4122 </r>
       <r>    -4.9660     3.2280    13.7583 </r>
       <r>    -4.8588     2.9508    14.0747 </r>
       <r>    -4.7516     2.3391    14.3256 </r>
       <r>    -4.6444     2.8960    14.6361 </r>
       <r>    -4.5371     3.3686    14.9973 </r>
       <r>    -4.4299     3.4735    15.3697 </r>
       <r>    -4.3227     3.3296    15.7267 </r>
       <r>    -4.2155     2.9535    16.0434 </r>
       <r>    -4.1082     2.9070    16.3551 </r>
       <r>    -4.0010     2.9466    16.6711 </r>
       <r>    -3.8938     2.8585    16.9776 </r>
       <r>    -3.7866     3.1205    17.3122 </r>
       <r>    -3.6793     2.8729    17.6202 </r>
       <r>    -3.5721     2.7047    17.9102 </r>
       <r>    -3.4649     3.0640    18.2388 </r>
       <r>    -3.3577     2.6361    18.5214 </r>
       <r>    -3.2504     2.8642    18.8285 </r>
       <r>    -3.1432     2.7401    19.1223 </r>
       <r>    -3.0360     2.7421    19.4164 </r>
       <r>    -2.9288     3.0424    19.7426 </r>
       <r>    -2.8215     2.9736    20.0614 </r>
       <r>    -2.7143     2.4292    20.3219 </r>
       <r>    -2.6071     2.6586    20.6070 </r>
       <r>    -2.4999     3.0217    20.9310 </r>
       <r>    -2.3926     2.9839    21.2509 </r>
       <r>    -2.2854     3.1944    21.5934 </r>
       <r>    -2.1782     4.0104    22.0234 </r>
       <r>    -2.0710     3.6560    22.4155 </r>
       <r>    -1.9637     3.2785    22.7670 </r>
       <r>    -1.8565     5.1389    23.3180 </r>
       <r>    -1.7493     5.5825    23.9166 </r>
       <r>    -1.6421     5.6006    24.5171 </r>
       <r>    -1.5348     6.1838    25.1802 </r>
       <r>    -1.4276     6.1075    25.8350 </r>
       <r>    -1.3204     5.5639    26.4316 </r>
       <r>    -1.2132     4.6835    26.9338 </r>
       <r>    -1.1059     6.4972    27.6305 </r>
       <r>    -0.9987     3.9605    28.0551 </r>
       <r>    -0.8915     2.2693    28.2984 </r>
       <r>    -0.7843     2.6982    28.5878 </r>
       <r>    -0.6771     2.8798    28.8965 </r>
       <r>    -0.5698     4.5312    29.3824 </r>
       <r>    -0.4626     6.8662    30.1186 </r>
       <r>    -0.3554     5.6566    30.7252 </r>
       <r>    -0.2482     6.7101    31.4447 </r>
       <r>    -0.1409     6.3589    32.1265 </r>
       <r>    -0.0337     6.7475    32.8500 </r>
       <r>     0.0735     6.7490    33.5736 </r>
       <r>     0.1807     6.3043    34.2496 </r>
       <r>     0.2880     8.8020    35.1934 </r>
       <r>     0.3952     7.9736    36.0484 </r>
       <r>     0.5024     8.6988    36.9811 </r>
       <r>     0.6096     5.2302    37.5419 </r>
       <r>     0.7169     2.9281    37.8559 </r>
       <r>     0.8241     3.2984    38.2095 </r>
       <r>     0.9313     3.5869    38.5941 </r>
       <r>     1.0385     3.5578    38.9756 </r>
       <r>     1.1458     2.7901    39.2748 </r>
       <r>     1.2530     3.3947    39.6388 </r>
       <r>     1.3602     4.4987    40.1212 </r>
       <r>     1.4674     3.7752    40.5259 </r>
       <r>     1.5747     3.7264    40.9255 </r>
       <r>     1.6819     4.5749    41.4160 </r>
       <r>     1.7891     3.2183    41.7611 </r>
       <r>     1.8963     2.4807    42.0271 </r>
       <r>     2.0036     2.6579    42.3121 </r>
       <r>     2.1108     2.0925    42.5365 </r>
       <r>     2.2180     2.6526    42.8209 </r>
       <r>     2.3252     2.5669    43.0961 </r>
       <r>     2.4325     1.9314    43.3032 </r>
       <r>     2.5397     0.8453    43.3939 </r>
       <r>     2.6469     0.3782    43.4344 </r>
       <r>     2.7541     0.5720    43.4958 </r>
       <r>     2.8614     0.4195    43.5407 </r>
       <r>     2.9686     0.3056    43.5735 </r>
       <r>     3.0758     0.7617    43.6552 </r>
       <r>     3.1830     1.0128    43.7638 </r>
       <r>     3.2903     0.5331    43.8209 </r>
       <r>     3.3975     0.0126    43.8223 </r>
       <r>     3.5047     0.1328    43.8365 </r>
       <r>     3.6119     0.3963    43.8790 </r>
       <r>     3.7192     0.3286    43.9143 </r>
       <r>     3.8264     0.3735    43.9543 </r>
       <r>     3.9336     0.4003    43.9972 </r>
       <r>     4.0408     0.0258    44.0000 </r>
       <r>     4.1481     0.0000    44.0000 </r>
       <r>     4.2553     0.0325    44.0035 </r>
       <r>     4.3625     0.1772    44.0225 </r>
       <r>     4.4697     0.4035    44.0658 </r>
       <r>     4.5770     0.4728    44.1164 </r>
       <r>     4.6842     0.6352    44.1846 </r>
       <r>     4.7914     0.8901    44.2800 </r>
       <r>     4.8986     0.8420    44.3703 </r>
       <r>     5.0059     0.8568    44.4621 </r>
       <r>     5.1131     1.2786    44.5992 </r>
       <r>     5.2203     1.1505    44.7226 </r>
       <r>     5.3275     1.6360    44.8980 </r>
       <r>     5.4348     2.1946    45.1333 </r>
       <r>     5.5420     2.4862    45.3999 </r>
       <r>     5.6492     2.7881    45.6989 </r>
       <r>     5.7564     3.3735    46.0606 </r>
       <r>     5.8637     3.2161    46.4054 </r>
       <r>     5.9709     4.3186    46.8685 </r>
       <r>     6.0781     4.7534    47.3782 </r>
       <r>     6.1853     4.0422    47.8116 </r>
       <r>     6.2926     4.6250    48.3075 </r>
       <r>     6.3998     4.1420    48.7516 </r>
       <r>     6.5070     4.0228    49.1830 </r>
       <r>     6.6142     4.4753    49.6628 </r>
       <r>     6.7214     3.2253    50.0087 </r>
       <r>     6.8287     4.0009    50.4377 </r>
       <r>     6.9359     4.6131    50.9323 </r>
       <r>     7.0431     4.5486    51.4200 </r>
       <r>     7.1503     4.3410    51.8855 </r>
       <r>     7.2576     5.6019    52.4862 </r>
       <r>     7.3648     4.9164    53.0133 </r>
       <r>     7.4720     4.4507    53.4905 </r>
       <r>     7.5792     4.1872    53.9395 </r>
       <r>     7.6865     3.5643    54.3217 </r>
       <r>     7.7937     3.1264    54.6569 </r>
       <r>     7.9009     3.0076    54.9794 </r>
       <r>     8.0081     2.9797    55.2989 </r>
       <r>     8.1154     4.1690    55.7459 </r>
       <r>     8.2226     3.8847    56.1625 </r>
       <r>     8.3298     3.6848    56.5576 </r>
       <r>     8.4370     3.9897    56.9854 </r>
       <r>     8.5443     4.2122    57.4370 </r>
       <r>     8.6515     4.4548    57.9147 </r>
       <r>     8.7587     4.2160    58.3667 </r>
       <r>     8.8659     5.2586    58.9306 </r>
       <r>     8.9732     4.9535    59.4617 </r>
       <r>     9.0804     5.2929    60.0293 </r>
       <r>     9.1876     5.2384    60.5909 </r>
       <r>     9.2948     4.9663    61.1235 </r>
       <r>     9.4021     4.6921    61.6266 </r>
       <r>     9.5093     4.3666    62.0948 </r>
       <r>     9.6165     5.1055    62.6422 </r>
       <r>     9.7237     5.0260    63.1811 </r>
       <r>     9.8310     5.3017    63.7496 </r>
       <r>     9.9382     4.4785    64.2298 </r>
       <r>    10.0454     3.6318    64.6192 </r>
       <r>    10.1526     5.1757    65.1742 </r>
       <r>    10.2599     4.7148    65.6797 </r>
       <r>    10.3671     4.1138    66.1208 </r>
       <r>    10.4743     5.4227    66.7023 </r>
       <r>    10.5815     5.8078    67.3250 </r>
       <r>    10.6888     4.0641    67.7608 </r>
       <r>    10.7960     3.8827    68.1771 </r>
       <r>    10.9032     3.2329    68.5238 </r>
       <r>    11.0104     4.6662    69.0241 </r>
       <r>    11.1177     5.4890    69.6126 </r>
       <r>    11.2249     6.1824    70.2756 </r>
       <r>    11.3321     5.9921    70.9181 </r>
       <r>    11.4393     5.2919    71.4855 </r>
       <r>    11.5466     4.2926    71.9458 </r>
       <r>    11.6538     4.4733    72.4254 </r>
       <r>    11.7610     4.9292    72.9539 </r>
       <r>    11.8682     4.8044    73.4691 </r>
       <r>    11.9755     6.0377    74.1165 </r>
       <r>    12.0827     5.9561    74.7551 </r>
       <r>    12.1899     5.9843    75.3968 </r>
       <r>    12.2971     5.6208    75.9995 </r>
       <r>    12.4044     5.0093    76.5366 </r>
       <r>    12.5116     5.6843    77.1461 </r>
       <r>    12.6188     5.9906    77.7884 </r>
       <r>    12.7260     6.0272    78.4347 </r>
       <r>    12.8333     5.8836    79.0656 </r>
       <r>    12.9405     5.8609    79.6940 </r>
       <r>    13.0477     5.5939    80.2938 </r>
       <r>    13.1549     6.3484    80.9745 </r>
       <r>    13.2622     6.2606    81.6458 </r>
       <r>    13.3694     5.3818    82.2229 </r>
       <r>    13.4766     6.1345    82.8806 </r>
       <r>    13.5838     5.3348    83.4527 </r>
       <r>    13.6911     4.8089    83.9683 </r>
       <r>    13.7983     6.1256    84.6251 </r>
       <r>    13.9055     5.5241    85.2174 </r>
       <r>    14.0127     5.3426    85.7903 </r>
       <r>    14.1199     5.4754    86.3774 </r>
       <r>    14.2272     4.6867    86.8799 </r>
       <r>    14.3344     4.9013    87.4055 </r>
       <r>    14.4416     5.0229    87.9440 </r>
       <r>    14.5488     4.9629    88.4762 </r>
       <r>    14.6561     5.2726    89.0415 </r>
       <r>    14.7633     5.1643    89.5953 </r>
       <r>    14.8705     4.0919    90.0340 </r>
       <r>    14.9777     5.0858    90.5793 </r>
       <r>    15.0850     6.1898    91.2430 </r>
       <r>    15.1922     5.6355    91.8473 </r>
       <r>    15.2994     5.6698    92.4553 </r>
       <r>    15.4066     6.0307    93.1019 </r>
       <r>    15.5139     5.7317    93.7165 </r>
       <r>    15.6211     5.9469    94.3541 </r>
       <r>    15.7283     4.5905    94.8463 </r>
       <r>    15.8355     2.4664    95.1108 </r>
       <r>    15.9428     2.7054    95.4009 </r>
       <r>    16.0500     1.8621    95.6006 </r>
       <r>    16.1572     1.1459    95.7234 </r>
       <r>    16.2644     0.8892    95.8188 </r>
       <r>    16.3717     0.6988    95.8937 </r>
       <r>    16.4789     0.8141    95.9810 </r>
       <r>    16.5861     0.1757    95.9998 </r>
       <r>    16.6933     0.0017    96.0000 </r>
       <r>    16.8006     0.0000    96.0000 </r>
       <r>    16.9078     0.0000    96.0000 </r>
       <r>    17.0150     0.0000    96.0000 </r>
       <r>    17.1222     0.0000    96.0000 </r>
       <r>    17.2295     0.0000    96.0000 </r>
       <r>    17.3367     0.0000    96.0000 </r>
       <r>    17.4439     0.0000    96.0000 </r>
       <r>    17.5511     0.0000    96.0000 </r>
       <r>    17.6584     0.0000    96.0000 </r>
       <r>    17.7656     0.0000    96.0000 </r>
       <r>    17.8728     0.0000    96.0000 </r>
       <r>    17.9800     0.0000    96.0000 </r>
      </set>
     </set>
    </array>
   </total>
  </dos>
 </calculation>
 <structure name="finalpos" >
  <crystal>
   <varray name="basis" >
    <v>       5.69643030       0.00000000       0.00000000 </v>
    <v>       0.00000000       4.04749521       0.00000000 </v>
    <v>       0.00000000       0.00000000       6.20357958 </v>
   </varray>
   <i name="volume">    143.03143277 </i>
   <varray name="rec_basis" >
    <v>       0.17554854       0.00000000       0.00000000 </v>
    <v>       0.00000000       0.24706638       0.00000000 </v>
    <v>       0.00000000       0.00000000       0.16119726 </v>
   </varray>
  </crystal>
  <varray name="positions" >
   <v>       0.52123000       0.50000000       0.63796000 </v>
   <v>       0.47877000       0.50000000       0.36204000 </v>
   <v>       0.97877000       0.50000000       0.63796000 </v>
   <v>       0.02123000       0.50000000       0.36204000 </v>
   <v>       0.60090000       0.50000000       0.89991000 </v>
   <v>       0.39910000       0.50000000       0.10009000 </v>
   <v>       0.89910000       0.50000000       0.89991000 </v>
   <v>       0.10090000       0.50000000       0.10009000 </v>
   <v>       0.75000000       0.79171000       0.72973000 </v>
   <v>       0.25000000       0.20829000       0.27027000 </v>
   <v>       0.75000000       0.20829000       0.72973000 </v>
   <v>       0.25000000       0.79171000       0.27027000 </v>
   <v>       0.25000000       0.50000000       0.52367000 </v>
   <v>       0.75000000       0.50000000       0.47633000 </v>
  </varray>
 </structure>
</modeling>
