 running   24 mpi-ranks, with    1 threads/rank, on    1 nodes
 distrk:  each k-point on   24 cores,    1 groups
 distr:  one band on    1 cores,   24 groups
 vasp.6.4.3 19Mar24 (build May 31 2024 16:31:43) complex                        
  
 POSCAR found type information on POSCAR B 
 POSCAR found :  1 types and      14 ions
 Reading from existing POTCAR
 scaLAPACK will be used
 Reading from existing POTCAR
 LDA part: xc-table for (Slater+PW92), standard interpolation
 POSCAR, INCAR and KPOINTS ok, starting setup
 FFT: planning ... GRIDC
 FFT: planning ... GRID_SOFT
 FFT: planning ... GRID
 WAVECAR not read
 entering main loop
       N       E                     dE             d eps       ncg     rms          rms(c)
DAV:   1     0.531900772049E+02    0.53190E+02   -0.17622E+04  9216   0.723E+02
DAV:   2    -0.929255412532E+02   -0.14612E+03   -0.13762E+03 12744   0.150E+02
DAV:   3    -0.975696875131E+02   -0.46441E+01   -0.46210E+01 13512   0.240E+01
DAV:   4    -0.975966028995E+02   -0.26915E-01   -0.26914E-01 11376   0.209E+00
DAV:   5    -0.975969091281E+02   -0.30623E-03   -0.30622E-03 13344   0.215E-01    0.123E+01
DAV:   6    -0.921916123036E+02    0.54053E+01   -0.39637E+00 13344   0.656E+00    0.679E+00
DAV:   7    -0.905400962688E+02    0.16515E+01   -0.32402E+00 13800   0.587E+00    0.173E+00
DAV:   8    -0.905467588821E+02   -0.66626E-02   -0.22663E-01 10320   0.163E+00    0.840E-01
DAV:   9    -0.905617232936E+02   -0.14964E-01   -0.22051E-02 13056   0.518E-01    0.230E-01
DAV:  10    -0.905666210823E+02   -0.48978E-02   -0.36469E-03 10248   0.213E-01    0.840E-02
DAV:  11    -0.905681409920E+02   -0.15199E-02   -0.89354E-04 11736   0.104E-01    0.355E-02
DAV:  12    -0.905682511671E+02   -0.11018E-03   -0.67782E-05 12312   0.317E-02    0.101E-02
DAV:  13    -0.905682769885E+02   -0.25821E-04   -0.21350E-05 11400   0.170E-02    0.226E-03
DAV:  14    -0.905682779265E+02   -0.93795E-06   -0.81007E-07 12696   0.383E-03
   1 F= -.90568278E+02 E0= -.90565862E+02  d E =-.483158E-02
