  14  14   0   0
  0.1021960E+02  0.5697000E-09  0.4047900E-09  0.6204200E-09  0.5000000E-15
  1.000000000000000E-004
  CAR 
 Kpoints                                 
     17.82877860    -14.15532583  301      1.72873903      1.00000000
    -14.155  0.0000E+00  0.0000E+00
    -14.049  0.0000E+00  0.0000E+00
    -13.942  0.0000E+00  0.0000E+00
    -13.835  0.0000E+00  0.0000E+00
    -13.729  0.0000E+00  0.0000E+00
    -13.622  0.0000E+00  0.0000E+00
    -13.516  0.0000E+00  0.0000E+00
    -13.409  0.0000E+00  0.0000E+00
    -13.302  0.0000E+00  0.0000E+00
    -13.196  0.0000E+00  0.0000E+00
    -13.089  0.0000E+00  0.0000E+00
    -12.983  0.9835E-15  0.1049E-15
    -12.876  0.4189E-06  0.4466E-07
    -12.769  0.2871E-01  0.3061E-02
    -12.663  0.1192E+01  0.1301E+00
    -12.556  0.1966E+01  0.3398E+00
    -12.450  0.3789E+01  0.7437E+00
    -12.343  0.5497E+01  0.1330E+01
    -12.236  0.3584E+01  0.1712E+01
    -12.130  0.2692E+01  0.1999E+01
    -12.023  0.4324E-01  0.2003E+01
    -11.916  0.3731E+01  0.2401E+01
    -11.810  0.2781E+01  0.2698E+01
    -11.703  0.5795E+01  0.3316E+01
    -11.597  0.2346E+01  0.3566E+01
    -11.490  0.2251E+01  0.3806E+01
    -11.383  0.1248E+01  0.3939E+01
    -11.277  0.5740E+00  0.4000E+01
    -11.170  0.2041E-02  0.4000E+01
    -11.064  0.1891E-08  0.4000E+01
    -10.957  0.0000E+00  0.4000E+01
    -10.850  0.0000E+00  0.4000E+01
    -10.744  0.0000E+00  0.4000E+01
    -10.637  0.0000E+00  0.4000E+01
    -10.530  0.0000E+00  0.4000E+01
    -10.424  0.0000E+00  0.4000E+01
    -10.317  0.0000E+00  0.4000E+01
    -10.211  0.0000E+00  0.4000E+01
    -10.104  0.0000E+00  0.4000E+01
     -9.997  0.0000E+00  0.4000E+01
     -9.891  0.0000E+00  0.4000E+01
     -9.784  0.0000E+00  0.4000E+01
     -9.678  0.0000E+00  0.4000E+01
     -9.571  0.0000E+00  0.4000E+01
     -9.464  0.0000E+00  0.4000E+01
     -9.358  0.0000E+00  0.4000E+01
     -9.251  0.0000E+00  0.4000E+01
     -9.144  0.0000E+00  0.4000E+01
     -9.038  0.1342E-13  0.4000E+01
     -8.931  0.3682E-05  0.4000E+01
     -8.825  0.1624E+00  0.4017E+01
     -8.718  0.3576E+01  0.4399E+01
     -8.611  0.2855E+01  0.4703E+01
     -8.505  0.6463E+01  0.5392E+01
     -8.398  0.6754E+01  0.6112E+01
     -8.292  0.6332E+01  0.6787E+01
     -8.185  0.5650E+01  0.7390E+01
     -8.078  0.3573E+01  0.7770E+01
     -7.972  0.1233E+01  0.7902E+01
     -7.865  0.9194E+00  0.8000E+01
     -7.759  0.1634E-02  0.8000E+01
     -7.652  0.6799E-09  0.8000E+01
     -7.545  0.0000E+00  0.8000E+01
     -7.439  0.0000E+00  0.8000E+01
     -7.332  0.0000E+00  0.8000E+01
     -7.225  0.0000E+00  0.8000E+01
     -7.119  0.0000E+00  0.8000E+01
     -7.012  0.0000E+00  0.8000E+01
     -6.906  0.2945E-07  0.8000E+01
     -6.799  0.1167E-01  0.8001E+01
     -6.692  0.1414E+01  0.8152E+01
     -6.586  0.6631E+00  0.8223E+01
     -6.479  0.1202E+01  0.8351E+01
     -6.373  0.8771E+00  0.8444E+01
     -6.266  0.4960E+00  0.8497E+01
     -6.159  0.7706E+00  0.8579E+01
     -6.053  0.2405E+01  0.8836E+01
     -5.946  0.8024E+01  0.9691E+01
     -5.839  0.7188E+01  0.1046E+02
     -5.733  0.2574E+01  0.1073E+02
     -5.626  0.7603E+01  0.1154E+02
     -5.520  0.1665E+01  0.1172E+02
     -5.413  0.4429E+01  0.1219E+02
     -5.306  0.4455E+01  0.1267E+02
     -5.200  0.1037E+01  0.1278E+02
     -5.093  0.1895E+01  0.1298E+02
     -4.987  0.4025E+01  0.1341E+02
     -4.880  0.4344E+00  0.1346E+02
     -4.773  0.3590E+01  0.1384E+02
     -4.667  0.3113E+01  0.1417E+02
     -4.560  0.5421E+01  0.1475E+02
     -4.453  0.4753E+01  0.1525E+02
     -4.347  0.7048E+01  0.1601E+02
     -4.240  0.5605E+01  0.1660E+02
     -4.134  0.1133E+01  0.1672E+02
     -4.027  0.4991E+00  0.1678E+02
     -3.920  0.3166E+00  0.1681E+02
     -3.814  0.4359E+01  0.1728E+02
     -3.707  0.3531E+01  0.1765E+02
     -3.601  0.2282E+01  0.1790E+02
     -3.494  0.1745E+01  0.1808E+02
     -3.387  0.3243E+01  0.1843E+02
     -3.281  0.2316E+01  0.1867E+02
     -3.174  0.3928E+01  0.1909E+02
     -3.068  0.2426E+01  0.1935E+02
     -2.961  0.3594E+01  0.1974E+02
     -2.854  0.1294E+01  0.1987E+02
     -2.748  0.1200E+01  0.2000E+02
     -2.641  0.3818E+01  0.2041E+02
     -2.534  0.4572E+01  0.2090E+02
     -2.428  0.4139E+01  0.2134E+02
     -2.321  0.2881E+01  0.2164E+02
     -2.215  0.3619E+01  0.2203E+02
     -2.108  0.1961E+01  0.2224E+02
     -2.001  0.1896E+01  0.2244E+02
     -1.895  0.3392E+01  0.2280E+02
     -1.788  0.8642E+00  0.2289E+02
     -1.682  0.6263E+01  0.2356E+02
     -1.575  0.6352E+01  0.2424E+02
     -1.468  0.8959E+01  0.2519E+02
     -1.362  0.1020E+02  0.2628E+02
     -1.255  0.1065E+02  0.2742E+02
     -1.148  0.5050E+01  0.2796E+02
     -1.042  0.2057E+01  0.2818E+02
     -0.935  0.1451E+01  0.2833E+02
     -0.829  0.4934E+00  0.2838E+02
     -0.722  0.2046E+01  0.2860E+02
     -0.615  0.3387E+01  0.2896E+02
     -0.509  0.5954E+01  0.2960E+02
     -0.402  0.1083E+02  0.3075E+02
     -0.296  0.9956E+01  0.3181E+02
     -0.189  0.5100E+01  0.3236E+02
     -0.082  0.7550E+01  0.3316E+02
      0.024  0.5268E+01  0.3372E+02
      0.131  0.8473E+01  0.3463E+02
      0.238  0.1704E+01  0.3481E+02
      0.344  0.6062E+01  0.3545E+02
      0.451  0.8408E+01  0.3635E+02
      0.557  0.5217E+01  0.3691E+02
      0.664  0.6408E+01  0.3759E+02
      0.771  0.3655E+01  0.3798E+02
      0.877  0.2096E+00  0.3800E+02
      0.984  0.8541E+00  0.3809E+02
      1.090  0.1817E+00  0.3811E+02
      1.197  0.3180E+01  0.3845E+02
      1.304  0.7361E+01  0.3924E+02
      1.410  0.5129E+01  0.3978E+02
      1.517  0.1433E+01  0.3994E+02
      1.623  0.9696E+01  0.4097E+02
      1.730  0.9802E+01  0.4202E+02
      1.837  0.7336E+01  0.4280E+02
      1.943  0.8706E+00  0.4289E+02
      2.050  0.2710E+01  0.4318E+02
      2.157  0.1447E+01  0.4333E+02
      2.263  0.8037E-01  0.4334E+02
      2.370  0.9526E+00  0.4344E+02
      2.476  0.9585E+00  0.4355E+02
      2.583  0.9433E-01  0.4356E+02
      2.690  0.6994E-05  0.4356E+02
      2.796  0.8979E-13  0.4356E+02
      2.903  0.0000E+00  0.4356E+02
      3.009  0.0000E+00  0.4356E+02
      3.116  0.0000E+00  0.4356E+02
      3.223  0.0000E+00  0.4356E+02
      3.329  0.0000E+00  0.4356E+02
      3.436  0.3037E-07  0.4356E+02
      3.543  0.1185E-01  0.4356E+02
      3.649  0.1432E+01  0.4371E+02
      3.756  0.2109E+01  0.4393E+02
      3.862  0.6152E+00  0.4400E+02
      3.969  0.3955E-03  0.4400E+02
      4.076  0.5263E-10  0.4400E+02
      4.182  0.5634E-12  0.4400E+02
      4.289  0.2114E-04  0.4400E+02
      4.395  0.1439E+00  0.4402E+02
      4.502  0.8701E+00  0.4411E+02
      4.609  0.1037E+00  0.4412E+02
      4.715  0.2327E+01  0.4437E+02
      4.822  0.7226E+00  0.4444E+02
      4.929  0.1046E-02  0.4444E+02
      5.035  0.9543E-08  0.4444E+02
      5.142  0.6413E-02  0.4445E+02
      5.248  0.1288E+01  0.4458E+02
      5.355  0.2409E+01  0.4484E+02
      5.462  0.5150E+00  0.4489E+02
      5.568  0.4131E+01  0.4533E+02
      5.675  0.4718E+01  0.4584E+02
      5.781  0.3952E+01  0.4626E+02
      5.888  0.1004E+01  0.4637E+02
      5.995  0.8839E+01  0.4731E+02
      6.101  0.7370E+01  0.4809E+02
      6.208  0.1200E+01  0.4822E+02
      6.315  0.2504E+00  0.4825E+02
      6.421  0.3969E+01  0.4867E+02
      6.528  0.2810E+01  0.4897E+02
      6.634  0.5089E+01  0.4951E+02
      6.741  0.4304E+01  0.4997E+02
      6.848  0.4166E+01  0.5042E+02
      6.954  0.1065E+02  0.5155E+02
      7.061  0.2292E+01  0.5180E+02
      7.167  0.4728E+01  0.5230E+02
      7.274  0.5400E+01  0.5288E+02
      7.381  0.3529E+01  0.5325E+02
      7.487  0.4788E+01  0.5376E+02
      7.594  0.2954E+00  0.5380E+02
      7.700  0.4236E+01  0.5425E+02
      7.807  0.1851E+01  0.5444E+02
      7.914  0.3228E+00  0.5448E+02
      8.020  0.4117E+01  0.5492E+02
      8.127  0.4744E+01  0.5542E+02
      8.234  0.5814E+01  0.5604E+02
      8.340  0.7310E+01  0.5682E+02
      8.447  0.6112E+01  0.5747E+02
      8.553  0.1386E+01  0.5762E+02
      8.660  0.5105E+01  0.5817E+02
      8.767  0.6171E+01  0.5882E+02
      8.873  0.2664E+01  0.5911E+02
      8.980  0.6993E+00  0.5918E+02
      9.086  0.7404E+01  0.5997E+02
      9.193  0.5232E+01  0.6053E+02
      9.300  0.5529E+01  0.6112E+02
      9.406  0.4700E+01  0.6162E+02
      9.513  0.8603E+01  0.6254E+02
      9.620  0.2633E+01  0.6282E+02
      9.726  0.2704E+01  0.6311E+02
      9.833  0.6733E+00  0.6318E+02
      9.939  0.6403E+01  0.6386E+02
     10.046  0.8834E+01  0.6480E+02
     10.153  0.5628E+01  0.6540E+02
     10.259  0.5869E+00  0.6547E+02
     10.366  0.4993E+01  0.6600E+02
     10.472  0.7419E+01  0.6679E+02
     10.579  0.3247E+01  0.6713E+02
     10.686  0.2752E+01  0.6743E+02
     10.792  0.3821E+01  0.6784E+02
     10.899  0.6259E+01  0.6850E+02
     11.006  0.5138E+01  0.6905E+02
     11.112  0.5340E+01  0.6962E+02
     11.219  0.6600E+01  0.7032E+02
     11.325  0.6399E+01  0.7101E+02
     11.432  0.3042E+01  0.7133E+02
     11.539  0.1695E+01  0.7151E+02
     11.645  0.4622E+01  0.7200E+02
     11.752  0.4177E+01  0.7245E+02
     11.858  0.4061E+01  0.7288E+02
     11.965  0.1065E+02  0.7402E+02
     12.072  0.9720E+01  0.7505E+02
     12.178  0.3547E+01  0.7543E+02
     12.285  0.5492E+01  0.7602E+02
     12.391  0.6925E+01  0.7676E+02
     12.498  0.7678E+01  0.7757E+02
     12.605  0.7552E+01  0.7838E+02
     12.711  0.3842E+01  0.7879E+02
     12.818  0.7544E+01  0.7959E+02
     12.925  0.5880E+01  0.8022E+02
     13.031  0.8066E+01  0.8108E+02
     13.138  0.5187E+01  0.8163E+02
     13.244  0.4155E+01  0.8208E+02
     13.351  0.7822E+01  0.8291E+02
     13.458  0.7058E+01  0.8366E+02
     13.564  0.3158E+01  0.8400E+02
     13.671  0.1819E+00  0.8402E+02
     13.777  0.4976E+01  0.8455E+02
     13.884  0.4749E+01  0.8505E+02
     13.991  0.5753E+00  0.8512E+02
     14.097  0.3274E+01  0.8547E+02
     14.204  0.4032E+01  0.8590E+02
     14.311  0.3097E+01  0.8623E+02
     14.417  0.7200E+01  0.8699E+02
     14.524  0.1108E+02  0.8817E+02
     14.630  0.4189E+01  0.8862E+02
     14.737  0.2799E+01  0.8892E+02
     14.844  0.5144E+01  0.8947E+02
     14.950  0.3859E+01  0.8988E+02
     15.057  0.7684E+01  0.9070E+02
     15.163  0.6437E+01  0.9138E+02
     15.270  0.5376E+01  0.9196E+02
     15.377  0.5334E+01  0.9253E+02
     15.483  0.8914E+01  0.9348E+02
     15.590  0.6236E+01  0.9414E+02
     15.697  0.4730E+01  0.9465E+02
     15.803  0.2760E+01  0.9494E+02
     15.910  0.1751E+01  0.9513E+02
     16.016  0.3966E+01  0.9555E+02
     16.123  0.1474E+01  0.9571E+02
     16.230  0.6625E+00  0.9578E+02
     16.336  0.2883E+00  0.9581E+02
     16.443  0.1743E+01  0.9599E+02
     16.549  0.5731E-01  0.9600E+02
     16.656  0.8377E-06  0.9600E+02
     16.763  0.1851E-14  0.9600E+02
     16.869  0.0000E+00  0.9600E+02
     16.976  0.0000E+00  0.9600E+02
     17.082  0.0000E+00  0.9600E+02
     17.189  0.0000E+00  0.9600E+02
     17.296  0.0000E+00  0.9600E+02
     17.402  0.0000E+00  0.9600E+02
     17.509  0.0000E+00  0.9600E+02
     17.616  0.0000E+00  0.9600E+02
     17.722  0.0000E+00  0.9600E+02
     17.829  0.0000E+00  0.9600E+02
