   14   14    1    1
  0.1021960E+02  0.5697000E-09  0.4047900E-09  0.6204200E-09  0.5000000E-15
  1.000000000000000E-004
  CAR 
 Kpoints                                 
     42      8     48
 
  0.0000000E+00  0.1250000E+00  0.0000000E+00  0.5555556E-01
      1        -12.701503   1.000000
      2        -11.550269   1.000000
      3         -8.631247   1.000000
      4         -8.379950   1.000000
      5         -6.030630   1.000000
      6         -5.005271   1.000000
      7         -4.732058   1.000000
      8         -4.592999   1.000000
      9         -4.244098   1.000000
     10         -3.548208   1.000000
     11         -3.451071   1.000000
     12         -1.650228   1.000000
     13         -1.036996   1.000000
     14         -0.823521   1.000000
     15         -0.377168   1.000000
     16         -0.374406   1.000000
     17          0.184403   1.000000
     18          0.291724   1.000000
     19          0.696286   1.000000
     20          1.672513   0.944119
     21          1.739191   0.383758
     22          2.313875   0.000000
     23          5.559800   0.000000
     24          5.586398   0.000000
     25          5.790653   0.000000
     26          6.066359   0.000000
     27          7.214544   0.000000
     28          7.934584   0.000000
     29          8.028789   0.000000
     30          8.244050   0.000000
     31          8.760099   0.000000
     32          9.139774   0.000000
     33          9.149825   0.000000
     34         10.718046   0.000000
     35         11.303669   0.000000
     36         11.472949   0.000000
     37         11.678380   0.000000
     38         11.967880   0.000000
     39         12.075236   0.000000
     40         12.776815   0.000000
     41         12.793788   0.000000
     42         13.028200   0.000000
     43         13.136560   0.000000
     44         15.196936   0.000000
     45         15.477646   0.000000
     46         15.712046   0.000000
     47         15.772842   0.000000
     48         16.135255   0.000000
 
  0.3333333E+00  0.1250000E+00  0.0000000E+00  0.1111111E+00
      1        -12.467165   1.000000
      2        -11.904320   1.000000
      3         -8.510743   1.000000
      4         -8.352372   1.000000
      5         -5.984807   1.000000
      6         -5.950607   1.000000
      7         -4.452270   1.000000
      8         -4.416682   1.000000
      9         -3.800632   1.000000
     10         -2.847976   1.000000
     11         -2.304953   1.000000
     12         -2.271500   1.000000
     13         -1.531148   1.000000
     14         -1.315054   1.000000
     15         -0.397475   1.000000
     16         -0.302418   1.000000
     17          0.060669   1.000000
     18          0.093344   1.000000
     19          0.610917   1.000000
     20          1.331631   1.000000
     21          1.406514   1.000000
     22          1.641415   0.993242
     23          5.933923   0.000000
     24          6.099989   0.000000
     25          6.356806   0.000000
     26          6.856574   0.000000
     27          6.924457   0.000000
     28          7.381712   0.000000
     29          8.364473   0.000000
     30          8.676363   0.000000
     31          9.015728   0.000000
     32          9.437347   0.000000
     33         10.040016   0.000000
     34         10.042145   0.000000
     35         10.420846   0.000000
     36         11.161139   0.000000
     37         11.381401   0.000000
     38         11.900716   0.000000
     39         12.413460   0.000000
     40         12.593536   0.000000
     41         12.774058   0.000000
     42         13.470261   0.000000
     43         14.631991   0.000000
     44         14.772432   0.000000
     45         15.266229   0.000000
     46         15.315827   0.000000
     47         15.552974   0.000000
     48         16.374956   0.000000
 
  0.0000000E+00  0.3750000E+00  0.0000000E+00  0.5555556E-01
      1        -12.508932   1.000000
      2        -11.378749   1.000000
      3         -8.485333   1.000000
      4         -8.194339   1.000000
      5         -6.263758   1.000000
      6         -5.815630   1.000000
      7         -5.074849   1.000000
      8         -4.688302   1.000000
      9         -4.392754   1.000000
     10         -4.135494   1.000000
     11         -3.324680   1.000000
     12         -1.710285   1.000000
     13         -1.554721   1.000000
     14         -1.002747   1.000000
     15          0.260235   1.000000
     16          0.337860   1.000000
     17          0.356500   1.000000
     18          0.439444   1.000000
     19          0.734050   1.000000
     20          0.948437   1.000000
     21          1.857011   0.000143
     22          2.429117   0.000000
     23          4.433948   0.000000
     24          4.712435   0.000000
     25          6.545355   0.000000
     26          6.955603   0.000000
     27          7.217603   0.000000
     28          8.439068   0.000000
     29          8.623948   0.000000
     30          9.873431   0.000000
     31         10.009009   0.000000
     32         10.140786   0.000000
     33         10.659555   0.000000
     34         10.777937   0.000000
     35         11.160404   0.000000
     36         11.601261   0.000000
     37         12.111238   0.000000
     38         12.197558   0.000000
     39         12.509164   0.000000
     40         12.574879   0.000000
     41         12.988491   0.000000
     42         13.039184   0.000000
     43         13.347675   0.000000
     44         14.155779   0.000000
     45         15.027033   0.000000
     46         15.055955   0.000000
     47         15.675152   0.000000
     48         16.027227   0.000000
 
  0.3333333E+00  0.3750000E+00  0.0000000E+00  0.1111111E+00
      1        -12.279034   1.000000
      2        -11.726633   1.000000
      3         -8.359487   1.000000
      4         -8.183512   1.000000
      5         -6.013539   1.000000
      6         -5.715687   1.000000
      7         -5.664409   1.000000
      8         -5.404467   1.000000
      9         -4.329676   1.000000
     10         -2.656521   1.000000
     11         -2.183987   1.000000
     12         -2.060785   1.000000
     13         -1.503643   1.000000
     14         -1.462951   1.000000
     15         -0.298678   1.000000
     16         -0.196301   1.000000
     17         -0.045553   1.000000
     18          0.057692   1.000000
     19          0.680317   1.000000
     20          1.299308   1.000000
     21          1.700842   0.784955
     22          1.725016   0.541933
     23          5.328013   0.000000
     24          5.998935   0.000000
     25          6.556265   0.000000
     26          7.214753   0.000000
     27          7.334873   0.000000
     28          8.253850   0.000000
     29          9.102993   0.000000
     30          9.206171   0.000000
     31          9.493677   0.000000
     32         10.006922   0.000000
     33         10.443454   0.000000
     34         10.690152   0.000000
     35         11.569014   0.000000
     36         11.583736   0.000000
     37         12.050260   0.000000
     38         12.196890   0.000000
     39         12.303424   0.000000
     40         12.590332   0.000000
     41         12.770752   0.000000
     42         13.189562   0.000000
     43         13.724600   0.000000
     44         14.430405   0.000000
     45         14.456417   0.000000
     46         15.006653   0.000000
     47         15.052208   0.000000
     48         15.656099   0.000000
 
  0.0000000E+00  0.1250000E+00  0.3333333E+00  0.1111111E+00
      1        -12.626660   1.000000
      2        -11.684951   1.000000
      3         -8.593072   1.000000
      4         -8.143101   1.000000
      5         -6.709306   1.000000
      6         -5.636196   1.000000
      7         -4.558237   1.000000
      8         -3.707778   1.000000
      9         -3.701325   1.000000
     10         -3.380919   1.000000
     11         -2.645113   1.000000
     12         -1.604808   1.000000
     13         -1.382389   1.000000
     14         -1.292347   1.000000
     15         -1.155299   1.000000
     16         -0.461929   1.000000
     17         -0.128049   1.000000
     18          0.323965   1.000000
     19          0.378673   1.000000
     20          1.225007   1.000000
     21          1.310598   1.000000
     22          3.632030   0.000000
     23          5.238607   0.000000
     24          5.639766   0.000000
     25          5.713279   0.000000
     26          6.828093   0.000000
     27          7.681339   0.000000
     28          7.703488   0.000000
     29          8.153331   0.000000
     30          8.795367   0.000000
     31          9.074717   0.000000
     32          9.332298   0.000000
     33          9.653957   0.000000
     34         10.044421   0.000000
     35         10.569729   0.000000
     36         11.166372   0.000000
     37         11.271586   0.000000
     38         12.039123   0.000000
     39         12.259325   0.000000
     40         12.669879   0.000000
     41         13.208581   0.000000
     42         13.444994   0.000000
     43         14.165797   0.000000
     44         14.442105   0.000000
     45         14.599075   0.000000
     46         15.081724   0.000000
     47         15.602431   0.000000
     48         15.818582   0.000000
 
  0.3333333E+00  0.1250000E+00  0.3333333E+00  0.2222222E+00
      1        -12.412447   1.000000
      2        -11.937023   1.000000
      3         -8.762311   1.000000
      4         -8.406362   1.000000
      5         -5.945170   1.000000
      6         -5.082147   1.000000
      7         -4.637324   1.000000
      8         -4.309419   1.000000
      9         -3.869644   1.000000
     10         -3.172684   1.000000
     11         -2.623608   1.000000
     12         -1.703815   1.000000
     13         -1.489788   1.000000
     14         -1.280355   1.000000
     15         -0.708588   1.000000
     16         -0.581145   1.000000
     17         -0.403553   1.000000
     18         -0.094631   1.000000
     19          0.356142   1.000000
     20          1.566519   0.999998
     21          1.628362   0.997738
     22          2.036089   0.000000
     23          6.007539   0.000000
     24          6.418557   0.000000
     25          6.619855   0.000000
     26          6.723886   0.000000
     27          6.929401   0.000000
     28          7.421441   0.000000
     29          8.119010   0.000000
     30          8.395859   0.000000
     31          8.728534   0.000000
     32          9.247783   0.000000
     33         10.037454   0.000000
     34         10.384562   0.000000
     35         10.932352   0.000000
     36         11.017427   0.000000
     37         11.941411   0.000000
     38         12.465790   0.000000
     39         12.509440   0.000000
     40         13.017023   0.000000
     41         13.315087   0.000000
     42         13.754993   0.000000
     43         14.071011   0.000000
     44         14.427246   0.000000
     45         14.509335   0.000000
     46         15.044721   0.000000
     47         15.437841   0.000000
     48         15.972663   0.000000
 
  0.0000000E+00  0.3750000E+00  0.3333333E+00  0.1111111E+00
      1        -12.439096   1.000000
      2        -11.503297   1.000000
      3         -8.453105   1.000000
      4         -7.976903   1.000000
      5         -6.486194   1.000000
      6         -6.115602   1.000000
      7         -5.341578   1.000000
      8         -5.321527   1.000000
      9         -3.479652   1.000000
     10         -3.233188   1.000000
     11         -2.413160   1.000000
     12         -1.374903   1.000000
     13         -1.349701   1.000000
     14         -1.258523   1.000000
     15         -1.169745   1.000000
     16         -0.398883   1.000000
     17         -0.241265   1.000000
     18         -0.128506   1.000000
     19          0.445980   1.000000
     20          1.259964   1.000000
     21          1.761119   0.179873
     22          3.736735   0.000000
     23          4.672549   0.000000
     24          5.693907   0.000000
     25          5.950618   0.000000
     26          7.110267   0.000000
     27          7.646055   0.000000
     28          8.302616   0.000000
     29          9.395347   0.000000
     30          9.489362   0.000000
     31          9.618065   0.000000
     32          9.880788   0.000000
     33         10.487378   0.000000
     34         10.820818   0.000000
     35         11.072049   0.000000
     36         11.137409   0.000000
     37         11.707630   0.000000
     38         11.943525   0.000000
     39         12.285605   0.000000
     40         12.764783   0.000000
     41         12.914916   0.000000
     42         13.327643   0.000000
     43         13.459023   0.000000
     44         14.232209   0.000000
     45         14.419394   0.000000
     46         15.149852   0.000000
     47         15.394344   0.000000
     48         15.546614   0.000000
 
  0.3333333E+00  0.3750000E+00  0.3333333E+00  0.2222222E+00
      1        -12.228076   1.000000
      2        -11.756875   1.000000
      3         -8.587734   1.000000
      4         -8.235685   1.000000
      5         -5.905347   1.000000
      6         -5.706488   1.000000
      7         -5.478140   1.000000
      8         -4.810461   1.000000
      9         -4.453049   1.000000
     10         -3.006978   1.000000
     11         -2.462722   1.000000
     12         -1.925307   1.000000
     13         -1.683961   1.000000
     14         -1.419622   1.000000
     15         -0.514160   1.000000
     16         -0.413682   1.000000
     17          0.052186   1.000000
     18          0.491942   1.000000
     19          0.618715   1.000000
     20          1.184417   1.000000
     21          1.585522   0.999974
     22          1.762434   0.170284
     23          5.542360   0.000000
     24          5.978273   0.000000
     25          6.889821   0.000000
     26          7.156942   0.000000
     27          8.000534   0.000000
     28          8.246860   0.000000
     29          8.591054   0.000000
     30          9.029240   0.000000
     31          9.431213   0.000000
     32          9.883434   0.000000
     33         10.318619   0.000000
     34         10.834550   0.000000
     35         11.291014   0.000000
     36         11.768576   0.000000
     37         11.892406   0.000000
     38         12.013930   0.000000
     39         12.361492   0.000000
     40         12.873691   0.000000
     41         13.025256   0.000000
     42         13.356202   0.000000
     43         13.843629   0.000000
     44         14.333002   0.000000
     45         14.761971   0.000000
     46         14.894854   0.000000
     47         15.262080   0.000000
     48         15.459055   0.000000
