  14  14   0   0
  0.1021960E+02  0.5697000E-09  0.4047900E-09  0.6204200E-09  0.5000000E-15
  1.000000000000000E-004
  CAR 
 Kpoints                                 
     17.98287060    -14.19247422  301      1.90232905      1.00000000
    -14.192  0.0000E+00  0.0000E+00
    -14.085  0.0000E+00  0.0000E+00
    -13.978  0.0000E+00  0.0000E+00
    -13.871  0.0000E+00  0.0000E+00
    -13.763  0.0000E+00  0.0000E+00
    -13.656  0.0000E+00  0.0000E+00
    -13.549  0.0000E+00  0.0000E+00
    -13.442  0.0000E+00  0.0000E+00
    -13.334  0.0000E+00  0.0000E+00
    -13.227  0.0000E+00  0.0000E+00
    -13.120  0.0000E+00  0.0000E+00
    -13.013  0.1753E-16  0.1880E-17
    -12.905  0.1554E-07  0.1667E-08
    -12.798  0.2662E-02  0.2855E-03
    -12.691  0.4501E+00  0.4856E-01
    -12.584  0.2311E+01  0.2964E+00
    -12.476  0.3544E+01  0.6766E+00
    -12.369  0.4362E+01  0.1144E+01
    -12.262  0.3545E+01  0.1525E+01
    -12.155  0.2818E+01  0.1827E+01
    -12.047  0.2624E+01  0.2108E+01
    -11.940  0.2603E+01  0.2387E+01
    -11.833  0.2747E+01  0.2682E+01
    -11.726  0.3354E+01  0.3042E+01
    -11.618  0.3618E+01  0.3430E+01
    -11.511  0.3112E+01  0.3764E+01
    -11.404  0.1730E+01  0.3949E+01
    -11.297  0.4652E+00  0.3999E+01
    -11.189  0.9524E-02  0.4000E+01
    -11.082  0.3668E-06  0.4000E+01
    -10.975  0.3344E-14  0.4000E+01
    -10.868  0.0000E+00  0.4000E+01
    -10.760  0.0000E+00  0.4000E+01
    -10.653  0.0000E+00  0.4000E+01
    -10.546  0.0000E+00  0.4000E+01
    -10.439  0.0000E+00  0.4000E+01
    -10.331  0.0000E+00  0.4000E+01
    -10.224  0.0000E+00  0.4000E+01
    -10.117  0.0000E+00  0.4000E+01
    -10.010  0.0000E+00  0.4000E+01
     -9.902  0.0000E+00  0.4000E+01
     -9.795  0.0000E+00  0.4000E+01
     -9.688  0.0000E+00  0.4000E+01
     -9.581  0.0000E+00  0.4000E+01
     -9.473  0.0000E+00  0.4000E+01
     -9.366  0.0000E+00  0.4000E+01
     -9.259  0.0000E+00  0.4000E+01
     -9.152  0.0000E+00  0.4000E+01
     -9.044  0.4464E-09  0.4000E+01
     -8.937  0.4706E-03  0.4000E+01
     -8.830  0.2595E+00  0.4028E+01
     -8.723  0.2052E+01  0.4248E+01
     -8.615  0.5248E+01  0.4811E+01
     -8.508  0.7022E+01  0.5564E+01
     -8.401  0.6271E+01  0.6236E+01
     -8.294  0.5312E+01  0.6806E+01
     -8.186  0.4892E+01  0.7331E+01
     -8.079  0.3858E+01  0.7745E+01
     -7.972  0.1727E+01  0.7930E+01
     -7.865  0.6002E+00  0.7994E+01
     -7.757  0.5443E-01  0.8000E+01
     -7.650  0.4432E-04  0.8000E+01
     -7.543  0.1084E-10  0.8000E+01
     -7.436  0.0000E+00  0.8000E+01
     -7.328  0.0000E+00  0.8000E+01
     -7.221  0.3690E-17  0.8000E+01
     -7.114  0.5937E-08  0.8000E+01
     -7.007  0.1148E-02  0.8000E+01
     -6.899  0.1100E+00  0.8012E+01
     -6.792  0.2439E+00  0.8038E+01
     -6.685  0.4790E+00  0.8089E+01
     -6.578  0.7117E+00  0.8166E+01
     -6.470  0.8121E+00  0.8253E+01
     -6.363  0.1415E+01  0.8405E+01
     -6.256  0.2127E+01  0.8633E+01
     -6.149  0.2720E+01  0.8924E+01
     -6.041  0.4028E+01  0.9357E+01
     -5.934  0.4005E+01  0.9786E+01
     -5.827  0.3898E+01  0.1020E+02
     -5.720  0.4263E+01  0.1066E+02
     -5.612  0.3915E+01  0.1108E+02
     -5.505  0.4016E+01  0.1151E+02
     -5.398  0.4470E+01  0.1199E+02
     -5.291  0.4909E+01  0.1252E+02
     -5.183  0.4339E+01  0.1298E+02
     -5.076  0.3889E+01  0.1340E+02
     -4.969  0.3493E+01  0.1378E+02
     -4.862  0.2605E+01  0.1405E+02
     -4.754  0.2325E+01  0.1430E+02
     -4.647  0.2977E+01  0.1462E+02
     -4.540  0.3539E+01  0.1500E+02
     -4.433  0.3639E+01  0.1539E+02
     -4.325  0.2872E+01  0.1570E+02
     -4.218  0.3089E+01  0.1603E+02
     -4.111  0.3163E+01  0.1637E+02
     -4.004  0.2490E+01  0.1664E+02
     -3.896  0.3167E+01  0.1698E+02
     -3.789  0.3070E+01  0.1731E+02
     -3.682  0.3040E+01  0.1763E+02
     -3.575  0.2743E+01  0.1793E+02
     -3.467  0.2698E+01  0.1822E+02
     -3.360  0.2712E+01  0.1851E+02
     -3.253  0.2947E+01  0.1882E+02
     -3.146  0.2871E+01  0.1913E+02
     -3.038  0.2780E+01  0.1943E+02
     -2.931  0.2850E+01  0.1974E+02
     -2.824  0.3086E+01  0.2007E+02
     -2.717  0.2519E+01  0.2034E+02
     -2.609  0.2423E+01  0.2060E+02
     -2.502  0.2841E+01  0.2090E+02
     -2.395  0.3327E+01  0.2126E+02
     -2.288  0.3679E+01  0.2165E+02
     -2.180  0.3030E+01  0.2198E+02
     -2.073  0.3932E+01  0.2240E+02
     -1.966  0.3665E+01  0.2279E+02
     -1.859  0.4912E+01  0.2332E+02
     -1.751  0.4899E+01  0.2385E+02
     -1.644  0.6506E+01  0.2454E+02
     -1.537  0.6020E+01  0.2519E+02
     -1.430  0.5769E+01  0.2581E+02
     -1.322  0.5962E+01  0.2645E+02
     -1.215  0.4819E+01  0.2696E+02
     -1.108  0.5776E+01  0.2758E+02
     -1.001  0.4089E+01  0.2802E+02
     -0.893  0.2566E+01  0.2830E+02
     -0.786  0.2730E+01  0.2859E+02
     -0.679  0.3098E+01  0.2892E+02
     -0.572  0.4956E+01  0.2945E+02
     -0.464  0.5546E+01  0.3005E+02
     -0.357  0.6165E+01  0.3071E+02
     -0.250  0.6866E+01  0.3145E+02
     -0.143  0.6452E+01  0.3214E+02
     -0.035  0.6550E+01  0.3284E+02
      0.072  0.6696E+01  0.3356E+02
      0.179  0.6752E+01  0.3428E+02
      0.286  0.7960E+01  0.3514E+02
      0.394  0.8461E+01  0.3604E+02
      0.501  0.9078E+01  0.3702E+02
      0.608  0.4876E+01  0.3754E+02
      0.715  0.3404E+01  0.3791E+02
      0.823  0.2733E+01  0.3820E+02
      0.930  0.3206E+01  0.3854E+02
      1.037  0.3101E+01  0.3887E+02
      1.144  0.4265E+01  0.3933E+02
      1.252  0.3722E+01  0.3973E+02
      1.359  0.3177E+01  0.4007E+02
      1.466  0.4048E+01  0.4051E+02
      1.573  0.4519E+01  0.4099E+02
      1.681  0.3572E+01  0.4137E+02
      1.788  0.2759E+01  0.4167E+02
      1.895  0.2867E+01  0.4198E+02
      2.002  0.3254E+01  0.4233E+02
      2.110  0.3165E+01  0.4267E+02
      2.217  0.2041E+01  0.4288E+02
      2.324  0.1642E+01  0.4306E+02
      2.431  0.1418E+01  0.4321E+02
      2.539  0.1135E+01  0.4333E+02
      2.646  0.1052E+01  0.4345E+02
      2.753  0.8068E+00  0.4353E+02
      2.860  0.4658E+00  0.4358E+02
      2.968  0.3191E+00  0.4362E+02
      3.075  0.4822E+00  0.4367E+02
      3.182  0.3629E+00  0.4371E+02
      3.289  0.5158E+00  0.4376E+02
      3.397  0.6912E+00  0.4384E+02
      3.504  0.3720E+00  0.4388E+02
      3.611  0.7338E-01  0.4389E+02
      3.718  0.2779E+00  0.4392E+02
      3.826  0.3634E+00  0.4395E+02
      3.933  0.3338E+00  0.4399E+02
      4.040  0.8826E-01  0.4400E+02
      4.147  0.1730E-03  0.4400E+02
      4.255  0.3204E-01  0.4400E+02
      4.362  0.2123E+00  0.4403E+02
      4.469  0.3447E+00  0.4406E+02
      4.576  0.4785E+00  0.4411E+02
      4.684  0.7258E+00  0.4419E+02
      4.791  0.7866E+00  0.4428E+02
      4.898  0.8286E+00  0.4437E+02
      5.005  0.9587E+00  0.4447E+02
      5.113  0.1214E+01  0.4460E+02
      5.220  0.1226E+01  0.4473E+02
      5.327  0.1641E+01  0.4491E+02
      5.434  0.2031E+01  0.4512E+02
      5.542  0.2489E+01  0.4539E+02
      5.649  0.3024E+01  0.4572E+02
      5.756  0.3328E+01  0.4607E+02
      5.863  0.3190E+01  0.4641E+02
      5.971  0.4230E+01  0.4687E+02
      6.078  0.4548E+01  0.4736E+02
      6.185  0.4841E+01  0.4787E+02
      6.292  0.3998E+01  0.4830E+02
      6.400  0.3975E+01  0.4873E+02
      6.507  0.4538E+01  0.4922E+02
      6.614  0.4090E+01  0.4966E+02
      6.721  0.3568E+01  0.5004E+02
      6.829  0.3721E+01  0.5044E+02
      6.936  0.4539E+01  0.5092E+02
      7.043  0.4616E+01  0.5142E+02
      7.151  0.4730E+01  0.5193E+02
      7.258  0.5386E+01  0.5250E+02
      7.365  0.4765E+01  0.5301E+02
      7.472  0.4555E+01  0.5350E+02
      7.580  0.3859E+01  0.5392E+02
      7.687  0.3890E+01  0.5433E+02
      7.794  0.3029E+01  0.5466E+02
      7.901  0.3022E+01  0.5498E+02
      8.009  0.3393E+01  0.5535E+02
      8.116  0.3700E+01  0.5574E+02
      8.223  0.3719E+01  0.5614E+02
      8.330  0.3957E+01  0.5657E+02
      8.438  0.4137E+01  0.5701E+02
      8.545  0.4032E+01  0.5744E+02
      8.652  0.4372E+01  0.5791E+02
      8.759  0.4548E+01  0.5840E+02
      8.867  0.4960E+01  0.5893E+02
      8.974  0.5300E+01  0.5950E+02
      9.081  0.5413E+01  0.6008E+02
      9.188  0.4840E+01  0.6060E+02
      9.296  0.4552E+01  0.6109E+02
      9.403  0.4839E+01  0.6161E+02
      9.510  0.5230E+01  0.6217E+02
      9.617  0.4687E+01  0.6267E+02
      9.725  0.4612E+01  0.6317E+02
      9.832  0.5090E+01  0.6371E+02
      9.939  0.4982E+01  0.6425E+02
     10.046  0.4837E+01  0.6476E+02
     10.154  0.3777E+01  0.6517E+02
     10.261  0.4063E+01  0.6561E+02
     10.368  0.4918E+01  0.6613E+02
     10.475  0.5611E+01  0.6673E+02
     10.583  0.5411E+01  0.6732E+02
     10.690  0.4377E+01  0.6778E+02
     10.797  0.4210E+01  0.6824E+02
     10.904  0.3396E+01  0.6860E+02
     11.012  0.3917E+01  0.6902E+02
     11.119  0.5537E+01  0.6961E+02
     11.226  0.6026E+01  0.7026E+02
     11.333  0.6259E+01  0.7093E+02
     11.441  0.5101E+01  0.7148E+02
     11.548  0.4462E+01  0.7196E+02
     11.655  0.5075E+01  0.7250E+02
     11.762  0.4607E+01  0.7300E+02
     11.870  0.4485E+01  0.7348E+02
     11.977  0.5765E+01  0.7410E+02
     12.084  0.6838E+01  0.7483E+02
     12.191  0.5494E+01  0.7542E+02
     12.299  0.5102E+01  0.7596E+02
     12.406  0.5397E+01  0.7654E+02
     12.513  0.6287E+01  0.7722E+02
     12.620  0.5589E+01  0.7782E+02
     12.728  0.5425E+01  0.7840E+02
     12.835  0.6400E+01  0.7909E+02
     12.942  0.6055E+01  0.7974E+02
     13.049  0.5710E+01  0.8035E+02
     13.157  0.6001E+01  0.8099E+02
     13.264  0.6167E+01  0.8165E+02
     13.371  0.6157E+01  0.8231E+02
     13.478  0.5406E+01  0.8289E+02
     13.586  0.5153E+01  0.8345E+02
     13.693  0.5488E+01  0.8403E+02
     13.800  0.5430E+01  0.8462E+02
     13.907  0.5501E+01  0.8521E+02
     14.015  0.5919E+01  0.8584E+02
     14.122  0.5203E+01  0.8640E+02
     14.229  0.4671E+01  0.8690E+02
     14.336  0.5327E+01  0.8747E+02
     14.444  0.4541E+01  0.8796E+02
     14.551  0.5021E+01  0.8850E+02
     14.658  0.5776E+01  0.8912E+02
     14.765  0.4565E+01  0.8961E+02
     14.873  0.3672E+01  0.9000E+02
     14.980  0.5743E+01  0.9062E+02
     15.087  0.6111E+01  0.9127E+02
     15.194  0.5382E+01  0.9185E+02
     15.302  0.6162E+01  0.9251E+02
     15.409  0.5869E+01  0.9314E+02
     15.516  0.5935E+01  0.9378E+02
     15.623  0.5429E+01  0.9436E+02
     15.731  0.4165E+01  0.9480E+02
     15.838  0.3705E+01  0.9520E+02
     15.945  0.2006E+01  0.9542E+02
     16.052  0.1310E+01  0.9556E+02
     16.160  0.1503E+01  0.9572E+02
     16.267  0.9624E+00  0.9582E+02
     16.374  0.8367E+00  0.9591E+02
     16.481  0.6029E+00  0.9598E+02
     16.589  0.2161E+00  0.9600E+02
     16.696  0.2892E-02  0.9600E+02
     16.803  0.2477E-07  0.9600E+02
     16.910  0.3690E-16  0.9600E+02
     17.018  0.0000E+00  0.9600E+02
     17.125  0.0000E+00  0.9600E+02
     17.232  0.0000E+00  0.9600E+02
     17.339  0.0000E+00  0.9600E+02
     17.447  0.0000E+00  0.9600E+02
     17.554  0.0000E+00  0.9600E+02
     17.661  0.0000E+00  0.9600E+02
     17.768  0.0000E+00  0.9600E+02
     17.876  0.0000E+00  0.9600E+02
     17.983  0.0000E+00  0.9600E+02
