   14   14    1    1
  0.1021960E+02  0.5697000E-09  0.4047900E-09  0.6204200E-09  0.5000000E-15
  1.000000000000000E-004
  CAR 
 Kpoints                                 
     42    324     48
 
  0.4166667E-01  0.0000000E+00  0.0000000E+00  0.8912656E-03
      1        -12.729959   1.000000
      2        -11.582560   1.000000
      3         -8.662494   1.000000
      4         -8.425121   1.000000
      5         -6.071903   1.000000
      6         -5.114989   1.000000
      7         -4.662348   1.000000
      8         -4.290784   1.000000
      9         -3.965420   1.000000
     10         -3.565607   1.000000
     11         -2.410896   1.000000
     12         -2.233576   1.000000
     13         -2.191646   1.000000
     14         -1.086771   1.000000
     15         -0.030890   1.000000
     16          0.005215   1.000000
     17          0.148780   1.000000
     18          0.158860   1.000000
     19          0.553268   1.000000
     20          2.075249   0.000001
     21          2.121966   0.000000
     22          2.199292   0.000000
     23          5.423056   0.000000
     24          5.794939   0.000000
     25          5.800684   0.000000
     26          5.965226   0.000000
     27          6.779920   0.000000
     28          7.541484   0.000000
     29          7.819958   0.000000
     30          8.648941   0.000000
     31          8.785403   0.000000
     32          8.875891   0.000000
     33          9.042502   0.000000
     34         10.043246   0.000000
     35         11.150459   0.000000
     36         11.362466   0.000000
     37         11.702875   0.000000
     38         11.776942   0.000000
     39         11.917767   0.000000
     40         12.365996   0.000000
     41         12.847317   0.000000
     42         13.469238   0.000000
     43         13.543182   0.000000
     44         15.421336   0.000000
     45         15.590103   0.000000
     46         16.042330   0.000000
     47         16.371688   0.000000
     48         16.403685   0.000000
 
  0.1250000E+00  0.0000000E+00  0.0000000E+00  0.8912656E-03
      1        -12.699481   1.000000
      2        -11.634542   1.000000
      3         -8.648011   1.000000
      4         -8.416747   1.000000
      5         -6.018443   1.000000
      6         -5.387074   1.000000
      7         -4.768397   1.000000
      8         -3.945273   1.000000
      9         -3.922688   1.000000
     10         -3.314231   1.000000
     11         -2.397632   1.000000
     12         -2.287469   1.000000
     13         -2.242093   1.000000
     14         -1.305633   1.000000
     15         -0.000765   1.000000
     16          0.052975   1.000000
     17          0.066679   1.000000
     18          0.180038   1.000000
     19          0.484199   1.000000
     20          2.012971   0.000876
     21          2.066710   0.000002
     22          2.116340   0.000000
     23          5.486811   0.000000
     24          5.759437   0.000000
     25          5.836922   0.000000
     26          6.231580   0.000000
     27          6.718130   0.000000
     28          7.231780   0.000000
     29          8.010597   0.000000
     30          8.743998   0.000000
     31          9.027506   0.000000
     32          9.030836   0.000000
     33          9.071753   0.000000
     34         10.137327   0.000000
     35         11.081114   0.000000
     36         11.202818   0.000000
     37         11.296029   0.000000
     38         11.686542   0.000000
     39         12.074426   0.000000
     40         12.426847   0.000000
     41         13.075104   0.000000
     42         13.281959   0.000000
     43         13.898707   0.000000
     44         14.955395   0.000000
     45         15.742279   0.000000
     46         15.955921   0.000000
     47         16.289805   0.000000
     48         16.447529   0.000000
 
  0.2083333E+00  0.0000000E+00  0.0000000E+00  0.8912656E-03
      1        -12.639394   1.000000
      2        -11.731116   1.000000
      3         -8.617912   1.000000
      4         -8.404049   1.000000
      5         -5.973393   1.000000
      6         -5.676504   1.000000
      7         -4.801728   1.000000
      8         -3.838118   1.000000
      9         -3.516039   1.000000
     10         -2.944187   1.000000
     11         -2.457689   1.000000
     12         -2.369899   1.000000
     13         -2.258458   1.000000
     14         -1.686398   1.000000
     15         -0.107520   1.000000
     16          0.056337   1.000000
     17          0.132173   1.000000
     18          0.172569   1.000000
     19          0.408369   1.000000
     20          1.903663   0.484949
     21          1.952009   0.079986
     22          1.967696   0.032239
     23          5.584818   0.000000
     24          5.710418   0.000000
     25          6.037994   0.000000
     26          6.611936   0.000000
     27          6.617836   0.000000
     28          6.960582   0.000000
     29          8.148502   0.000000
     30          8.885903   0.000000
     31          8.997849   0.000000
     32          9.380120   0.000000
     33          9.396850   0.000000
     34         10.352991   0.000000
     35         10.600002   0.000000
     36         10.786961   0.000000
     37         11.301907   0.000000
     38         11.720315   0.000000
     39         12.298099   0.000000
     40         12.596164   0.000000
     41         12.857165   0.000000
     42         13.083980   0.000000
     43         14.475957   0.000000
     44         14.746927   0.000000
     45         15.459976   0.000000
     46         15.972467   0.000000
     47         16.226333   0.000000
     48         16.502533   0.000000
 
  0.2916667E+00  0.0000000E+00  0.0000000E+00  0.8912656E-03
      1        -12.551607   1.000000
      2        -11.859975   1.000000
      3         -8.572947   1.000000
      4         -8.394690   1.000000
      5         -6.004058   1.000000
      6         -5.914234   1.000000
      7         -4.642212   1.000000
      8         -3.713647   1.000000
      9         -3.102016   1.000000
     10         -2.673083   1.000000
     11         -2.542208   1.000000
     12         -2.338040   1.000000
     13         -2.277920   1.000000
     14         -2.129327   1.000000
     15         -0.343063   1.000000
     16         -0.032032   1.000000
     17          0.133161   1.000000
     18          0.219059   1.000000
     19          0.491431   1.000000
     20          1.718536   1.000000
     21          1.776231   0.999819
     22          1.845198   0.946943
     23          5.676906   0.000000
     24          5.677099   0.000000
     25          6.395381   0.000000
     26          6.515022   0.000000
     27          6.751788   0.000000
     28          7.072790   0.000000
     29          8.263166   0.000000
     30          8.883898   0.000000
     31          8.920010   0.000000
     32          9.765865   0.000000
     33          9.813882   0.000000
     34         10.003699   0.000000
     35         10.432227   0.000000
     36         10.745112   0.000000
     37         11.393500   0.000000
     38         11.934674   0.000000
     39         12.352262   0.000000
     40         12.428042   0.000000
     41         12.663621   0.000000
     42         12.965685   0.000000
     43         14.903346   0.000000
     44         14.972630   0.000000
     45         15.077269   0.000000
     46         15.806683   0.000000
     47         15.830620   0.000000
     48         16.222037   0.000000
 
  0.3750000E+00  0.0000000E+00  0.0000000E+00  0.8912656E-03
      1        -12.439105   1.000000
      2        -12.007135   1.000000
      3         -8.518335   1.000000
      4         -8.398047   1.000000
      5         -6.085010   1.000000
      6         -6.076768   1.000000
      7         -4.304225   1.000000
      8         -3.552425   1.000000
      9         -2.935619   1.000000
     10         -2.907447   1.000000
     11         -2.529472   1.000000
     12         -2.340493   1.000000
     13         -2.162559   1.000000
     14         -2.131967   1.000000
     15         -0.596409   1.000000
     16         -0.336082   1.000000
     17          0.216413   1.000000
     18          0.287654   1.000000
     19          0.666656   1.000000
     20          1.442918   1.000000
     21          1.668226   1.000000
     22          1.725541   1.000000
     23          5.675395   0.000000
     24          5.730044   0.000000
     25          6.448181   0.000000
     26          6.600558   0.000000
     27          6.880155   0.000000
     28          7.592321   0.000000
     29          8.363670   0.000000
     30          8.617191   0.000000
     31          8.732035   0.000000
     32          9.372184   0.000000
     33         10.173721   0.000000
     34         10.222208   0.000000
     35         10.469973   0.000000
     36         11.324735   0.000000
     37         11.380585   0.000000
     38         11.817931   0.000000
     39         12.083177   0.000000
     40         12.286876   0.000000
     41         12.515667   0.000000
     42         13.306288   0.000000
     43         14.602455   0.000000
     44         15.016549   0.000000
     45         15.085357   0.000000
     46         15.296198   0.000000
     47         15.649331   0.000000
     48         16.425877   0.000000
 
  0.4583333E+00  0.0000000E+00  0.0000000E+00  0.8912656E-03
      1        -12.306347   1.000000
      2        -12.159546   1.000000
      3         -8.463884   1.000000
      4         -8.421141   1.000000
      5         -6.154036   1.000000
      6         -6.149704   1.000000
      7         -3.856215   1.000000
      8         -3.359203   1.000000
      9         -3.356652   1.000000
     10         -3.140893   1.000000
     11         -2.452006   1.000000
     12         -2.379941   1.000000
     13         -1.967287   1.000000
     14         -1.904019   1.000000
     15         -0.749245   1.000000
     16         -0.630983   1.000000
     17          0.284888   1.000000
     18          0.313166   1.000000
     19          0.893621   1.000000
     20          1.158545   1.000000
     21          1.616438   1.000000
     22          1.639432   1.000000
     23          5.701335   0.000000
     24          5.731122   0.000000
     25          6.443000   0.000000
     26          6.497602   0.000000
     27          7.453747   0.000000
     28          8.064120   0.000000
     29          8.155304   0.000000
     30          8.465192   0.000000
     31          8.586103   0.000000
     32          8.751266   0.000000
     33         10.536915   0.000000
     34         10.538373   0.000000
     35         10.815709   0.000000
     36         11.291623   0.000000
     37         11.308347   0.000000
     38         11.545086   0.000000
     39         11.983508   0.000000
     40         12.435986   0.000000
     41         12.719427   0.000000
     42         13.182393   0.000000
     43         14.590355   0.000000
     44         14.734845   0.000000
     45         14.845090   0.000000
     46         14.895139   0.000000
     47         16.140268   0.000000
     48         16.439935   0.000000
 
  0.4166667E-01  0.5882353E-01  0.0000000E+00  0.1782531E-02
      1        -12.721640   1.000000
      2        -11.575088   1.000000
      3         -8.655976   1.000000
      4         -8.417096   1.000000
      5         -6.062659   1.000000
      6         -5.102886   1.000000
      7         -4.654743   1.000000
      8         -4.333380   1.000000
      9         -4.119964   1.000000
     10         -3.557095   1.000000
     11         -2.818782   1.000000
     12         -2.181852   1.000000
     13         -1.569491   1.000000
     14         -1.085179   1.000000
     15         -0.127198   1.000000
     16         -0.102843   1.000000
     17          0.154495   1.000000
     18          0.205792   1.000000
     19          0.590346   1.000000
     20          1.957254   0.060152
     21          2.029866   0.000155
     22          2.238583   0.000000
     23          5.512711   0.000000
     24          5.709640   0.000000
     25          5.854563   0.000000
     26          5.917575   0.000000
     27          6.885435   0.000000
     28          7.647309   0.000000
     29          7.923480   0.000000
     30          8.394907   0.000000
     31          8.785963   0.000000
     32          8.997784   0.000000
     33          9.066057   0.000000
     34         10.240825   0.000000
     35         11.232455   0.000000
     36         11.334243   0.000000
     37         11.678034   0.000000
     38         11.812052   0.000000
     39         11.954078   0.000000
     40         12.465456   0.000000
     41         12.851123   0.000000
     42         13.360310   0.000000
     43         13.428487   0.000000
     44         15.426445   0.000000
     45         15.514971   0.000000
     46         16.020225   0.000000
     47         16.269412   0.000000
     48         16.320551   0.000000
 
  0.1250000E+00  0.5882353E-01  0.0000000E+00  0.1782531E-02
      1        -12.691181   1.000000
      2        -11.627034   1.000000
      3         -8.641447   1.000000
      4         -8.408810   1.000000
      5         -6.008778   1.000000
      6         -5.376393   1.000000
      7         -4.761246   1.000000
      8         -4.168884   1.000000
      9         -3.896233   1.000000
     10         -3.307066   1.000000
     11         -2.865364   1.000000
     12         -2.167415   1.000000
     13         -1.632094   1.000000
     14         -1.303867   1.000000
     15         -0.099560   1.000000
     16         -0.070323   1.000000
     17          0.134213   1.000000
     18          0.189021   1.000000
     19          0.520231   1.000000
     20          1.897719   0.551869
     21          1.974800   0.020192
     22          2.151706   0.000000
     23          5.579205   0.000000
     24          5.735750   0.000000
     25          5.851840   0.000000
     26          6.157845   0.000000
     27          6.824108   0.000000
     28          7.346487   0.000000
     29          8.106282   0.000000
     30          8.495728   0.000000
     31          9.034326   0.000000
     32          9.075957   0.000000
     33          9.185530   0.000000
     34         10.288351   0.000000
     35         11.053646   0.000000
     36         11.266904   0.000000
     37         11.280288   0.000000
     38         11.735979   0.000000
     39         12.111555   0.000000
     40         12.524021   0.000000
     41         13.082701   0.000000
     42         13.170405   0.000000
     43         13.783149   0.000000
     44         14.995589   0.000000
     45         15.643729   0.000000
     46         15.940157   0.000000
     47         16.114523   0.000000
     48         16.472611   0.000000
 
  0.2083333E+00  0.5882353E-01  0.0000000E+00  0.1782531E-02
      1        -12.631154   1.000000
      2        -11.723552   1.000000
      3         -8.611293   1.000000
      4         -8.396284   1.000000
      5         -5.962926   1.000000
      6         -5.665995   1.000000
      7         -4.795510   1.000000
      8         -4.072457   1.000000
      9         -3.480595   1.000000
     10         -2.997623   1.000000
     11         -2.898933   1.000000
     12         -2.138407   1.000000
     13         -1.732515   1.000000
     14         -1.684030   1.000000
     15         -0.126344   1.000000
     16         -0.057087   1.000000
     17          0.101766   1.000000
     18          0.209707   1.000000
     19          0.430441   1.000000
     20          1.791138   0.999169
     21          1.876196   0.770091
     22          1.982650   0.011548
     23          5.680477   0.000000
     24          5.762226   0.000000
     25          5.980581   0.000000
     26          6.521704   0.000000
     27          6.724706   0.000000
     28          7.096659   0.000000
     29          8.238356   0.000000
     30          8.649860   0.000000
     31          9.064120   0.000000
     32          9.391097   0.000000
     33          9.516147   0.000000
     34         10.379882   0.000000
     35         10.590582   0.000000
     36         10.779137   0.000000
     37         11.369229   0.000000
     38         11.800584   0.000000
     39         12.344641   0.000000
     40         12.669411   0.000000
     41         12.764139   0.000000
     42         13.096366   0.000000
     43         14.300487   0.000000
     44         14.858500   0.000000
     45         15.470593   0.000000
     46         15.857853   0.000000
     47         16.047898   0.000000
     48         16.520355   0.000000
 
  0.2916667E+00  0.5882353E-01  0.0000000E+00  0.1782531E-02
      1        -12.543425   1.000000
      2        -11.852316   1.000000
      3         -8.566264   1.000000
      4         -8.387168   1.000000
      5         -5.992972   1.000000
      6         -5.903560   1.000000
      7         -4.636827   1.000000
      8         -3.955423   1.000000
      9         -3.108152   1.000000
     10         -3.059262   1.000000
     11         -2.516478   1.000000
     12         -2.167247   1.000000
     13         -2.066528   1.000000
     14         -1.843858   1.000000
     15         -0.337558   1.000000
     16         -0.090839   1.000000
     17          0.131851   1.000000
     18          0.169171   1.000000
     19          0.497452   1.000000
     20          1.656936   1.000000
     21          1.753812   0.999987
     22          1.754284   0.999986
     23          5.739757   0.000000
     24          5.773363   0.000000
     25          6.330489   0.000000
     26          6.623637   0.000000
     27          6.796114   0.000000
     28          7.080434   0.000000
     29          8.348447   0.000000
     30          8.726354   0.000000
     31          8.968896   0.000000
     32          9.778856   0.000000
     33          9.876686   0.000000
     34          9.978731   0.000000
     35         10.349693   0.000000
     36         10.819128   0.000000
     37         11.438355   0.000000
     38         12.041745   0.000000
     39         12.254036   0.000000
     40         12.495407   0.000000
     41         12.678665   0.000000
     42         13.039659   0.000000
     43         14.737068   0.000000
     44         15.024860   0.000000
     45         15.189784   0.000000
     46         15.696696   0.000000
     47         15.761137   0.000000
     48         16.291343   0.000000
 
  0.3750000E+00  0.5882353E-01  0.0000000E+00  0.1782531E-02
      1        -12.431004   1.000000
      2        -11.999357   1.000000
      3         -8.511578   1.000000
      4         -8.390785   1.000000
      5         -6.073742   1.000000
      6         -6.065855   1.000000
      7         -4.299342   1.000000
      8         -3.810276   1.000000
      9         -3.275398   1.000000
     10         -2.912959   1.000000
     11         -2.420470   1.000000
     12         -2.131107   1.000000
     13         -2.003011   1.000000
     14         -1.952962   1.000000
     15         -0.584584   1.000000
     16         -0.344665   1.000000
     17          0.168873   1.000000
     18          0.233935   1.000000
     19          0.670282   1.000000
     20          1.441960   1.000000
     21          1.583496   1.000000
     22          1.635142   1.000000
     23          5.744813   0.000000
     24          5.822078   0.000000
     25          6.559776   0.000000
     26          6.701976   0.000000
     27          6.813869   0.000000
     28          7.546998   0.000000
     29          8.443250   0.000000
     30          8.515675   0.000000
     31          8.787900   0.000000
     32          9.311263   0.000000
     33         10.189456   0.000000
     34         10.204018   0.000000
     35         10.468244   0.000000
     36         11.350690   0.000000
     37         11.369234   0.000000
     38         11.766264   0.000000
     39         12.098260   0.000000
     40         12.411449   0.000000
     41         12.589647   0.000000
     42         13.381823   0.000000
     43         14.669764   0.000000
     44         14.970247   0.000000
     45         15.034687   0.000000
     46         15.247581   0.000000
     47         15.737056   0.000000
     48         16.424415   0.000000
 
  0.4583333E+00  0.5882353E-01  0.0000000E+00  0.1782531E-02
      1        -12.298350   1.000000
      2        -12.151656   1.000000
      3         -8.457025   1.000000
      4         -8.414112   1.000000
      5         -6.142912   1.000000
      6         -6.138453   1.000000
      7         -3.851946   1.000000
      8         -3.642454   1.000000
      9         -3.458254   1.000000
     10         -3.349975   1.000000
     11         -2.223212   1.000000
     12         -2.068345   1.000000
     13         -1.889239   1.000000
     14         -1.877451   1.000000
     15         -0.737923   1.000000
     16         -0.627474   1.000000
     17          0.230120   1.000000
     18          0.257911   1.000000
     19          0.896909   1.000000
     20          1.161731   1.000000
     21          1.526649   1.000000
     22          1.549254   1.000000
     23          5.777767   0.000000
     24          5.815478   0.000000
     25          6.556811   0.000000
     26          6.609320   0.000000
     27          7.386073   0.000000
     28          7.990990   0.000000
     29          8.100189   0.000000
     30          8.537702   0.000000
     31          8.633662   0.000000
     32          8.706779   0.000000
     33         10.499929   0.000000
     34         10.556180   0.000000
     35         10.790184   0.000000
     36         11.101403   0.000000
     37         11.431361   0.000000
     38         11.572073   0.000000
     39         12.014083   0.000000
     40         12.496453   0.000000
     41         12.838662   0.000000
     42         13.275836   0.000000
     43         14.615562   0.000000
     44         14.742641   0.000000
     45         14.814034   0.000000
     46         14.938482   0.000000
     47         16.156655   0.000000
     48         16.431837   0.000000
 
  0.4166667E-01  0.1176471E+00  0.0000000E+00  0.1782531E-02
      1        -12.697514   1.000000
      2        -11.553441   1.000000
      3         -8.637143   1.000000
      4         -8.393841   1.000000
      5         -6.035855   1.000000
      6         -5.068583   1.000000
      7         -4.650972   1.000000
      8         -4.632422   1.000000
      9         -4.202737   1.000000
     10         -3.535199   1.000000
     11         -3.374196   1.000000
     12         -1.695697   1.000000
     13         -1.080603   1.000000
     14         -0.906053   1.000000
     15         -0.345004   1.000000
     16         -0.321167   1.000000
     17          0.166990   1.000000
     18          0.260569   1.000000
     19          0.659518   1.000000
     20          1.706430   1.000000
     21          1.784159   0.999585
     22          2.278042   0.000000
     23          5.544868   0.000000
     24          5.682532   0.000000
     25          5.759111   0.000000
     26          6.033761   0.000000
     27          7.164105   0.000000
     28          7.920971   0.000000
     29          8.002492   0.000000
     30          8.247774   0.000000
     31          8.788855   0.000000
     32          9.116297   0.000000
     33          9.165771   0.000000
     34         10.655990   0.000000
     35         11.274485   0.000000
     36         11.439429   0.000000
     37         11.614554   0.000000
     38         11.914964   0.000000
     39         12.068277   0.000000
     40         12.743758   0.000000
     41         12.843774   0.000000
     42         13.125306   0.000000
     43         13.153739   0.000000
     44         15.263512   0.000000
     45         15.404167   0.000000
     46         15.775304   0.000000
     47         15.815198   0.000000
     48         16.175307   0.000000
 
  0.1250000E+00  0.1176471E+00  0.0000000E+00  0.1782531E-02
      1        -12.667121   1.000000
      2        -11.605284   1.000000
      3         -8.622495   1.000000
      4         -8.385816   1.000000
      5         -5.980727   1.000000
      6         -5.346253   1.000000
      7         -4.740315   1.000000
      8         -4.588815   1.000000
      9         -3.873999   1.000000
     10         -3.435720   1.000000
     11         -3.268675   1.000000
     12         -1.680655   1.000000
     13         -1.298787   1.000000
     14         -1.006223   1.000000
     15         -0.316391   1.000000
     16         -0.244371   1.000000
     17          0.178448   1.000000
     18          0.204271   1.000000
     19          0.585010   1.000000
     20          1.649655   1.000000
     21          1.730332   0.999999
     22          2.185873   0.000000
     23          5.575069   0.000000
     24          5.832974   0.000000
     25          5.921495   0.000000
     26          6.024098   0.000000
     27          7.104265   0.000000
     28          7.654012   0.000000
     29          8.107857   0.000000
     30          8.386673   0.000000
     31          9.061813   0.000000
     32          9.137061   0.000000
     33          9.359256   0.000000
     34         10.575739   0.000000
     35         10.990651   0.000000
     36         11.219429   0.000000
     37         11.474958   0.000000
     38         11.888432   0.000000
     39         12.226148   0.000000
     40         12.775418   0.000000
     41         12.924047   0.000000
     42         13.097315   0.000000
     43         13.538514   0.000000
     44         15.039977   0.000000
     45         15.318641   0.000000
     46         15.725898   0.000000
     47         15.744252   0.000000
     48         16.302406   0.000000
 
  0.2083333E+00  0.1176471E+00  0.0000000E+00  0.1782531E-02
      1        -12.607235   1.000000
      2        -11.701601   1.000000
      3         -8.592164   1.000000
      4         -8.373799   1.000000
      5         -5.932510   1.000000
      6         -5.635819   1.000000
      7         -4.777370   1.000000
      8         -4.510521   1.000000
      9         -3.520797   1.000000
     10         -3.442724   1.000000
     11         -2.901866   1.000000
     12         -1.678229   1.000000
     13         -1.650156   1.000000
     14         -1.145964   1.000000
     15         -0.272560   1.000000
     16         -0.183439   1.000000
     17          0.058621   1.000000
     18          0.244505   1.000000
     19          0.473133   1.000000
     20          1.548424   1.000000
     21          1.634062   1.000000
     22          2.007200   0.001508
     23          5.765222   0.000000
     24          5.942047   0.000000
     25          5.946433   0.000000
     26          6.325570   0.000000
     27          7.008437   0.000000
     28          7.432338   0.000000
     29          8.282513   0.000000
     30          8.499272   0.000000
     31          9.145185   0.000000
     32          9.429685   0.000000
     33          9.707834   0.000000
     34         10.335479   0.000000
     35         10.538819   0.000000
     36         10.872574   0.000000
     37         11.532003   0.000000
     38         12.032711   0.000000
     39         12.453294   0.000000
     40         12.508030   0.000000
     41         12.948402   0.000000
     42         13.132196   0.000000
     43         14.021664   0.000000
     44         14.950677   0.000000
     45         15.231969   0.000000
     46         15.647241   0.000000
     47         15.716191   0.000000
     48         16.486854   0.000000
 
  0.2916667E+00  0.1176471E+00  0.0000000E+00  0.1782531E-02
      1        -12.519703   1.000000
      2        -11.830103   1.000000
      3         -8.546960   1.000000
      4         -8.365380   1.000000
      5         -5.960728   1.000000
      6         -5.872679   1.000000
      7         -4.621169   1.000000
      8         -4.405393   1.000000
      9         -3.646184   1.000000
     10         -3.013664   1.000000
     11         -2.492213   1.000000
     12         -2.131444   1.000000
     13         -1.606051   1.000000
     14         -1.290221   1.000000
     15         -0.307874   1.000000
     16         -0.254847   1.000000
     17          0.054884   1.000000
     18          0.144499   1.000000
     19          0.511369   1.000000
     20          1.428196   1.000000
     21          1.515062   1.000000
     22          1.759927   0.999972
     23          5.892000   0.000000
     24          6.032821   0.000000
     25          6.156878   0.000000
     26          6.717388   0.000000
     27          6.915291   0.000000
     28          7.317269   0.000000
     29          8.420745   0.000000
     30          8.597792   0.000000
     31          9.067489   0.000000
     32          9.767248   0.000000
     33          9.819466   0.000000
     34         10.114929   0.000000
     35         10.218314   0.000000
     36         10.948619   0.000000
     37         11.508755   0.000000
     38         12.066595   0.000000
     39         12.319743   0.000000
     40         12.673516   0.000000
     41         12.726917   0.000000
     42         13.251432   0.000000
     43         14.480729   0.000000
     44         14.962898   0.000000
     45         15.306353   0.000000
     46         15.479718   0.000000
     47         15.534021   0.000000
     48         16.359237   0.000000
 
  0.3750000E+00  0.1176471E+00  0.0000000E+00  0.1782531E-02
      1        -12.407531   1.000000
      2        -11.976829   1.000000
      3         -8.492056   1.000000
      4         -8.369771   1.000000
      5         -6.040939   1.000000
      6         -6.034182   1.000000
      7         -4.285182   1.000000
      8         -4.274480   1.000000