   14   14    1    1
  0.1021960E+02  0.5697000E-09  0.4047900E-09  0.6204200E-09  0.5000000E-15
  1.000000000000000E-004
  CAR 
 Kpoints                                 
     42   1260     48
 
  0.0000000E+00  0.0000000E+00  0.0000000E+00  0.1146657E-03
      1        -12.733270   1.000000
      2        -11.576232   1.000000
      3         -8.662089   1.000000
      4         -8.424843   1.000000
      5         -6.077450   1.000000
      6         -5.059422   1.000000
      7         -4.638320   1.000000
      8         -4.349550   1.000000
      9         -3.973581   1.000000
     10         -3.598654   1.000000
     11         -2.422003   1.000000
     12         -2.242573   1.000000
     13         -2.183361   1.000000
     14         -1.052826   1.000000
     15         -0.037376   1.000000
     16         -0.003468   1.000000
     17          0.149446   1.000000
     18          0.173009   1.000000
     19          0.564694   1.000000
     20          2.079626   0.000000
     21          2.125873   0.000000
     22          2.214718   0.000000
     23          5.411483   0.000000
     24          5.801664   0.000000
     25          5.817246   0.000000
     26          5.910645   0.000000
     27          6.785760   0.000000
     28          7.672703   0.000000
     29          7.701174   0.000000
     30          8.634151   0.000000
     31          8.752668   0.000000
     32          8.853005   0.000000
     33          9.040699   0.000000
     34         10.029353   0.000000
     35         11.144193   0.000000
     36         11.399502   0.000000
     37         11.769425   0.000000
     38         11.802052   0.000000
     39         11.899044   0.000000
     40         12.354467   0.000000
     41         12.804547   0.000000
     42         13.394652   0.000000
     43         13.573610   0.000000
     44         15.554415   0.000000
     45         15.567461   0.000000
     46         15.941786   0.000000
     47         16.358423   0.000000
     48         16.598743   0.000000
 
  0.5263158E-01  0.0000000E+00  0.0000000E+00  0.2293315E-03
      1        -12.727167   1.000000
      2        -11.586872   1.000000
      3         -8.659267   1.000000
      4         -8.423027   1.000000
      5         -6.064595   1.000000
      6         -5.141386   1.000000
      7         -4.670141   1.000000
      8         -4.252783   1.000000
      9         -3.965019   1.000000
     10         -3.539461   1.000000
     11         -2.419374   1.000000
     12         -2.244275   1.000000
     13         -2.203324   1.000000
     14         -1.098924   1.000000
     15         -0.031258   1.000000
     16          0.006728   1.000000
     17          0.154266   1.000000
     18          0.156597   1.000000
     19          0.550649   1.000000
     20          2.066682   0.000000
     21          2.114434   0.000000
     22          2.198245   0.000000
     23          5.425385   0.000000
     24          5.793737   0.000000
     25          5.797173   0.000000
     26          5.991924   0.000000
     27          6.772521   0.000000
     28          7.497095   0.000000
     29          7.846779   0.000000
     30          8.654474   0.000000
     31          8.808379   0.000000
     32          8.889889   0.000000
     33          9.043621   0.000000
     34         10.047671   0.000000
     35         11.154498   0.000000
     36         11.339739   0.000000
     37         11.664778   0.000000
     38         11.766482   0.000000
     39         11.931851   0.000000
     40         12.366672   0.000000
     41         12.874223   0.000000
     42         13.503576   0.000000
     43         13.516310   0.000000
     44         15.362819   0.000000
     45         15.602147   0.000000
     46         16.079974   0.000000
     47         16.345042   0.000000
     48         16.374354   0.000000
 
  0.1052632E+00  0.0000000E+00  0.0000000E+00  0.2293315E-03
      1        -12.708914   1.000000
      2        -11.618138   1.000000
      3         -8.650624   1.000000
      4         -8.417901   1.000000
      5         -6.031211   1.000000
      6         -5.313693   1.000000
      7         -4.739011   1.000000
      8         -4.036494   1.000000
      9         -3.939421   1.000000
     10         -3.384675   1.000000
     11         -2.411402   1.000000
     12         -2.261160   1.000000
     13         -2.249338   1.000000
     14         -1.231568   1.000000
     15         -0.013147   1.000000
     16          0.035745   1.000000
     17          0.098858   1.000000
     18          0.175990   1.000000
     19          0.509152   1.000000
     20          2.029069   0.000010
     21          2.081092   0.000000
     22          2.148739   0.000000
     23          5.464260   0.000000
     24          5.771912   0.000000
     25          5.814459   0.000000
     26          6.156251   0.000000
     27          6.734902   0.000000
     28          7.299861   0.000000
     29          7.969119   0.000000
     30          8.712384   0.000000
     31          8.957599   0.000000
     32          8.995156   0.000000
     33          9.050745   0.000000
     34         10.103930   0.000000
     35         11.168890   0.000000
     36         11.185838   0.000000
     37         11.410279   0.000000
     38         11.703618   0.000000
     39         12.027033   0.000000
     40         12.402798   0.000000
     41         13.024410   0.000000
     42         13.357158   0.000000
     43         13.771394   0.000000
     44         15.059047   0.000000
     45         15.695642   0.000000
     46         16.063505   0.000000
     47         16.246102   0.000000
     48         16.420461   0.000000
 
  0.1578947E+00  0.0000000E+00  0.0000000E+00  0.2293315E-03
      1        -12.678732   1.000000
      2        -11.668223   1.000000
      3         -8.635832   1.000000
      4         -8.410446   1.000000
      5         -5.992782   1.000000
      6         -5.502450   1.000000
      7         -4.794971   1.000000
      8         -3.897029   1.000000
      9         -3.776092   1.000000
     10         -3.172624   1.000000
     11         -2.397786   1.000000
     12         -2.351401   1.000000
     13         -2.257638   1.000000
     14         -1.436111   1.000000
     15          0.009240   1.000000
     16          0.016214   1.000000
     17          0.079411   1.000000
     18          0.196313   1.000000
     19          0.448853   1.000000
     20          1.970415   0.004502
     21          2.028660   0.000010
     22          2.066233   0.000000
     23          5.520554   0.000000
     24          5.741778   0.000000
     25          5.897148   0.000000
     26          6.369742   0.000000
     27          6.678753   0.000000
     28          7.113838   0.000000
     29          8.066049   0.000000
     30          8.797521   0.000000
     31          9.031064   0.000000
     32          9.162394   0.000000
     33          9.180213   0.000000
     34         10.204071   0.000000
     35         10.908867   0.000000
     36         11.092801   0.000000
     37         11.237988   0.000000
     38         11.678291   0.000000
     39         12.167696   0.000000
     40         12.469152   0.000000
     41         13.123199   0.000000
     42         13.133851   0.000000
     43         14.114527   0.000000
     44         14.819705   0.000000
     45         15.757862   0.000000
     46         15.826900   0.000000
     47         16.320978   0.000000
     48         16.492872   0.000000
 
  0.2105263E+00  0.0000000E+00  0.0000000E+00  0.2293315E-03
      1        -12.636976   1.000000
      2        -11.734376   1.000000
      3         -8.614705   1.000000
      4         -8.402248   1.000000
      5         -5.971518   1.000000
      6         -5.680806   1.000000
      7         -4.795052   1.000000
      8         -3.838186   1.000000
      9         -3.501934   1.000000
     10         -2.930236   1.000000
     11         -2.466798   1.000000
     12         -2.378017   1.000000
     13         -2.268789   1.000000
     14         -1.693204   1.000000
     15         -0.110615   1.000000
     16          0.055499   1.000000
     17          0.132108   1.000000
     18          0.172629   1.000000
     19          0.414058   1.000000
     20          1.896761   0.298527
     21          1.952215   0.017992
     22          1.961489   0.009152
     23          5.584342   0.000000
     24          5.710899   0.000000
     25          6.046406   0.000000
     26          6.612339   0.000000
     27          6.622176   0.000000
     28          6.949990   0.000000
     29          8.149263   0.000000
     30          8.887258   0.000000
     31          8.995901   0.000000
     32          9.392154   0.000000
     33          9.407488   0.000000
     34         10.360774   0.000000
     35         10.584001   0.000000
     36         10.773728   0.000000
     37         11.305171   0.000000
     38         11.722875   0.000000
     39         12.303205   0.000000
     40         12.601088   0.000000
     41         12.839946   0.000000
     42         13.079791   0.000000
     43         14.487641   0.000000
     44         14.747093   0.000000
     45         15.441792   0.000000
     46         15.978193   0.000000
     47         16.216429   0.000000
     48         16.490635   0.000000
 
  0.2631579E+00  0.0000000E+00  0.0000000E+00  0.2293315E-03
      1        -12.584177   1.000000
      2        -11.813280   1.000000
      3         -8.587597   1.000000
      4         -8.395416   1.000000
      5         -5.983143   1.000000
      6         -5.837697   1.000000
      7         -4.714603   1.000000
      8         -3.763440   1.000000
      9         -3.233667   1.000000
     10         -2.675700   1.000000
     11         -2.599814   1.000000
     12         -2.353204   1.000000
     13         -2.281478   1.000000
     14         -1.978456   1.000000
     15         -0.254993   1.000000
     16          0.058421   1.000000
     17          0.102664   1.000000
     18          0.187651   1.000000
     19          0.454279   1.000000
     20          1.810518   0.971977
     21          1.816089   0.960209
     22          1.885102   0.421180
     23          5.645437   0.000000
     24          5.686696   0.000000
     25          6.258056   0.000000
     26          6.545203   0.000000
     27          6.811672   0.000000
     28          6.906297   0.000000
     29          8.223819   0.000000
     30          8.929934   0.000000
     31          8.935487   0.000000
     32          9.633412   0.000000
     33          9.668116   0.000000
     34         10.213458   0.000000
     35         10.517437   0.000000
     36         10.589235   0.000000
     37         11.369868   0.000000
     38         11.841301   0.000000
     39         12.390420   0.000000
     40         12.526050   0.000000
     41         12.823973   0.000000
     42         12.841867   0.000000
     43         14.832155   0.000000
     44         14.868517   0.000000
     45         15.129104   0.000000
     46         15.966993   0.000000
     47         16.095196   0.000000
     48         16.136732   0.000000
 
  0.3157895E+00  0.0000000E+00  0.0000000E+00  0.2293315E-03
      1        -12.521029   1.000000
      2        -11.901375   1.000000
      3         -8.555611   1.000000
      4         -8.392379   1.000000
      5         -6.023877   1.000000
      6         -5.966870   1.000000
      7         -4.554270   1.000000
      8         -3.673513   1.000000
      9         -3.002711   1.000000
     10         -2.743579   1.000000
     11         -2.434429   1.000000
     12         -2.372016   1.000000
     13         -2.284642   1.000000
     14         -2.207396   1.000000
     15         -0.415073   1.000000
     16         -0.112239   1.000000
     17          0.154707   1.000000
     18          0.239537   1.000000
     19          0.542127   1.000000
     20          1.647555   1.000000
     21          1.737767   0.999964
     22          1.805909   0.979377
     23          5.674204   0.000000
     24          5.694794   0.000000
     25          6.487270   0.000000
     26          6.525131   0.000000
     27          6.697813   0.000000
     28          7.216362   0.000000
     29          8.291452   0.000000
     30          8.841836   0.000000
     31          8.870178   0.000000
     32          9.819164   0.000000
     33          9.884098   0.000000
     34          9.936696   0.000000
     35         10.397959   0.000000
     36         10.897390   0.000000
     37         11.403972   0.000000
     38         12.022187   0.000000
     39         12.194887   0.000000
     40         12.455960   0.000000
     41         12.502877   0.000000
     42         13.082510   0.000000
     43         14.840609   0.000000
     44         14.954495   0.000000
     45         15.243685   0.000000
     46         15.602399   0.000000
     47         15.659108   0.000000
     48         16.288908   0.000000
 
  0.3684211E+00  0.0000000E+00  0.0000000E+00  0.2293315E-03
      1        -12.448450   1.000000
      2        -11.995157   1.000000
      3         -8.520691   1.000000
      4         -8.395482   1.000000
      5         -6.076654   1.000000
      6         -6.064238   1.000000
      7         -4.330505   1.000000
      8         -3.569385   1.000000
      9         -2.920118   1.000000
     10         -2.892225   1.000000
     11         -2.525633   1.000000
     12         -2.349090   1.000000
     13         -2.177294   1.000000
     14         -2.154277   1.000000
     15         -0.575030   1.000000
     16         -0.308032   1.000000
     17          0.207363   1.000000
     18          0.281016   1.000000
     19          0.657104   1.000000
     20          1.471522   1.000000
     21          1.671764   1.000000
     22          1.731118   0.999984
     23          5.675158   0.000000
     24          5.725525   0.000000
     25          6.447795   0.000000
     26          6.605758   0.000000
     27          6.839036   0.000000
     28          7.547760   0.000000
     29          8.354554   0.000000
     30          8.653142   0.000000
     31          8.744419   0.000000
     32          9.419424   0.000000
     33         10.143171   0.000000
     34         10.192268   0.000000
     35         10.451096   0.000000
     36         11.275796   0.000000
     37         11.386695   0.000000
     38         11.856623   0.000000
     39         12.129974   0.000000
     40         12.253441   0.000000
     41         12.510045   0.000000
     42         13.288741   0.000000
     43         14.618061   0.000000
     44         15.013194   0.000000
     45         15.136629   0.000000
     46         15.334087   0.000000
     47         15.602133   0.000000
     48         16.412531   0.000000
 
  0.4210526E+00  0.0000000E+00  0.0000000E+00  0.2293315E-03
      1        -12.367592   1.000000
      2        -12.091368   1.000000
      3         -8.485443   1.000000
      4         -8.406443   1.000000
      5         -6.127513   1.000000
      6         -6.124167   1.000000
      7         -4.061267   1.000000
      8         -3.452257   1.000000
      9         -3.133824   1.000000
     10         -3.040922   1.000000
     11         -2.503701   1.000000
     12         -2.367650   1.000000
     13         -2.058268   1.000000
     14         -1.975040   1.000000
     15         -0.703378   1.000000
     16         -0.505263   1.000000
     17          0.255073   1.000000
     18          0.305754   1.000000
     19          0.792955   1.000000
     20          1.291046   1.000000
     21          1.627544   1.000000
     22          1.668663   1.000000
     23          5.687838   0.000000
     24          5.734873   0.000000
     25          6.433143   0.000000
     26          6.533102   0.000000
     27          7.189897   0.000000
     28          7.896790   0.000000
     29          8.327653   0.000000
     30          8.417381   0.000000
     31          8.648791   0.000000
     32          9.023930   0.000000
     33         10.395495   0.000000
     34         10.416695   0.000000
     35         10.634960   0.000000
     36         11.331763   0.000000
     37         11.520379   0.000000
     38         11.682794   0.000000
     39         11.783607   0.000000
     40         12.509775   0.000000
     41         12.513942   0.000000
     42         13.311528   0.000000
     43         14.540193   0.000000
     44         14.815979   0.000000
     45         14.972135   0.000000
     46         15.027435   0.000000
     47         15.931262   0.000000
     48         16.467857   0.000000
 
  0.4736842E+00  0.0000000E+00  0.0000000E+00  0.2293315E-03
      1        -12.279905   1.000000
      2        -12.187127   1.000000
      3         -8.452883   1.000000
      4         -8.425852   1.000000
      5         -6.156532   1.000000
      6         -6.153656   1.000000
      7         -3.761457   1.000000
      8         -3.444928   1.000000
      9         -3.323752   1.000000
     10         -3.185809   1.000000
     11         -2.444018   1.000000
     12         -2.399794   1.000000
     13         -1.934980   1.000000
     14         -1.890507   1.000000
     15         -0.746727   1.000000
     16         -0.669367   1.000000
     17          0.291157   1.000000
     18          0.309298   1.000000
     19          0.946345   1.000000
     20          1.113909   1.000000
     21          1.611826   1.000000
     22          1.626613   1.000000
     23          5.707327   0.000000
     24          5.726089   0.000000
     25          6.444457   0.000000
     26          6.478874   0.000000
     27          7.566117   0.000000
     28          7.952791   0.000000
     29          8.260601   0.000000
     30          8.484997   0.000000
     31          8.561596   0.000000
     32          8.636956   0.000000
     33         10.573965   0.000000
     34         10.576818   0.000000
     35         10.894238   0.000000
     36         11.195579   0.000000
     37         11.317012   0.000000
     38         11.469871   0.000000
     39         12.093045   0.000000
     40         12.381896   0.000000
     41         12.802734   0.000000
     42         13.101651   0.000000
     43         14.621554   0.000000
     44         14.737289   0.000000
     45         14.779639   0.000000
     46         14.851727   0.000000
     47         16.210907   0.000000
     48         16.403841   0.000000
 
  0.0000000E+00  0.3703704E-01  0.0000000E+00  0.2293315E-03
      1        -12.729947   1.000000
      2        -11.573249   1.000000
      3         -8.659482   1.000000
      4         -8.421633   1.000000
      5         -6.073771   1.000000
      6         -5.054284   1.000000
      7         -4.635266   1.000000
      8         -4.359039   1.000000
      9         -4.049493   1.000000
     10         -3.595209   1.000000
     11         -2.601015   1.000000
     12         -2.324018   1.000000
     13         -1.809880   1.000000
     14         -1.052166   1.000000
     15         -0.077633   1.000000
     16         -0.050988   1.000000
     17          0.151903   1.000000
     18          0.195622   1.000000
     19          0.580835   1.000000
     20          2.027171   0.000012
     21          2.088641   0.000000
     22          2.235496   0.000000
     23          5.447414   0.000000
     24          5.759563   0.000000
     25          5.860899   0.000000
     26          5.877606   0.000000
     27          6.828520   0.000000
     28          7.728320   0.000000
     29          7.729294   0.000000
     30          8.509072   0.000000
     31          8.752436   0.000000
     32          8.920857   0.000000
     33          9.048915   0.000000
     34         10.115204   0.000000
     35         11.177857   0.000000
     36         11.387903   0.000000
     37         11.758228   0.000000
     38         11.817414   0.000000
     39         11.913217   0.000000
     40         12.394426   0.000000
     41         12.806106   0.000000
     42         13.348903   0.000000
     43         13.526307   0.000000
     44         15.538585   0.000000
     45         15.549209   0.000000
     46         15.953259   0.000000
     47         16.331968   0.000000
     48         16.483651   0.000000
 
  0.5263158E-01  0.3703704E-01  0.0000000E+00  0.4586630E-03
      1        -12.723846   1.000000
      2        -11.583883   1.000000
      3         -8.656654   1.000000
      4         -8.419823   1.000000
      5         -6.060884   1.000000
      6         -5.136662   1.000000
      7         -4.667117   1.000000
      8         -4.266646   1.000000
      9         -4.036317   1.000000
     10         -3.536079   1.000000
     11         -2.610523   1.000000
     12         -2.321264   1.000000
     13         -1.822517   1.000000
     14         -1.098289   1.000000
     15         -0.071682   1.000000
     16         -0.042225   1.000000
     17          0.159253   1.000000
     18          0.178769   1.000000
     19          0.566761   1.000000
     20          2.014532   0.000057
     21          2.077209   0.000000
     22          2.218608   0.000000
     23          5.461570   0.000000
     24          5.747035   0.000000
     25          5.839389   0.000000
     26          5.964626   0.000000
     27          6.815306   0.000000
     28          7.540768   0.000000
     29          7.886737   0.000000
     30          8.530423   0.000000
     31          8.808855   0.000000
     32          8.957183   0.000000
     33          9.053115   0.000000
     34         10.129765   0.000000
     35         11.187788   0.000000
     36         11.328171   0.000000
     37         11.654591   0.000000
     38         11.780525   0.000000
     39         11.946110   0.000000
     40         12.406444   0.000000
     41         12.876006   0.000000
     42         13.458468   0.000000
     43         13.469293   0.000000
     44         15.368256   0.000000
     45         15.571929   0.000000
     46         16.067729   0.000000
     47         16.316384   0.000000
     48         16.356400   0.000000
 
  0.1052632E+00  0.3703704E-01  0.0000000E+00  0.4586630E-03
      1        -12.705602   1.000000
      2        -11.615145   1.000000
      3         -8.648009   1.000000
      4         -8.414722   1.000000
      5         -6.027408   1.000000
      6         -5.309353   1.000000
      7         -4.736101   1.000000
      8         -4.093310   1.000000
      9         -3.967834   1.000000
     10         -3.381534   1.000000
     11         -2.639336   1.000000
     12         -2.312934   1.000000
     13         -1.857797   1.000000
     14         -1.230904   1.000000
     15         -0.054388   1.000000
     16         -0.021548   1.000000
     17          0.132875   1.000000
     18          0.179549   1.000000
     19          0.525071   1.000000
     20          1.977682   0.002420
     21          2.043891   0.000001
     22          2.167993   0.000000
     23          5.501111   0.000000
     24          5.754185   0.000000
     25          5.828999   0.000000
     26          6.126704   0.000000
     27          6.777791   0.000000
     28          7.345316   0.000000
     29          8.007567   0.000000
     30          8.590977   0.000000
     31          8.959611   0.000000
     32          9.057821   0.000000
     33          9.067654   0.000000
     34         10.174398   0.000000
     35         11.157480   0.000000
     36         11.218037   0.000000
     37         11.398632   0.000000
     38         11.720803   0.000000
     39         12.041468   0.000000
     40         12.442091   0.000000
     41         13.027039   0.000000
     42         13.310845   0.000000
     43         13.724854   0.000000
     44         15.073583   0.000000
     45         15.660622   0.000000
     46         16.056253   0.000000
     47         16.185296   0.000000
     48         16.431411   0.000000
 
  0.1578947E+00  0.3703704E-01  0.0000000E+00  0.4586630E-03
      1        -12.675429   1.000000
      2        -11.665219   1.000000
      3         -8.633204   1.000000
      4         -8.407302   1.000000
      5         -5.988809   1.000000
      6         -5.498235   1.000000
      7         -4.792251   1.000000
      8         -4.007220   1.000000
      9         -3.751584   1.000000
     10         -3.170307   1.000000
     11         -2.687767   1.000000
     12         -2.298845   1.000000
     13         -1.908934   1.000000
     14         -1.435331   1.000000
     15         -0.027573   1.000000
     16         -0.026284   1.000000
     17          0.093177   1.000000
     18          0.203437   1.000000
     19          0.463624   1.000000
     20          1.919785   0.119028
     21          1.991521   0.000666
     22          2.084274   0.000000
     23          5.558302   0.000000
     24          5.756223   0.000000
     25          5.880298   0.000000
     26          6.337268   0.000000
     27          6.721799   0.000000
     28          7.163056   0.000000
     29          8.102919   0.000000
     30          8.679128   0.000000
     31          9.059047   0.000000
     32          9.165794   0.000000
     33          9.237959   0.000000
     34         10.254265   0.000000
     35         10.897998   0.000000
     36         11.080856   0.000000
     37         11.268345   0.000000
     38         11.702182   0.000000
     39         12.182850   0.000000
     40         12.507117   0.000000
     41         13.078128   0.000000
     42         13.137847   0.000000
     43         14.058644   0.000000
     44         14.847132   0.000000
     45         15.736037   0.000000
     46         15.813984   0.000000
     47         16.219934   0.000000
     48         16.527391   0.000000
 
  0.2105263E+00  0.3703704E-01  0.0000000E+00  0.4586630E-03
      1        -12.633682   1.000000
      2        -11.731348   1.000000
      3         -8.612060   1.000000
      4         -8.399150   1.000000
      5         -5.967327   1.000000
      6         -5.676608   1.000000
      7         -4.792579   1.000000
      8         -3.943571   1.000000
      9         -3.482655   1.000000
     10         -2.933788   1.000000
     11         -2.751439   1.000000
     12         -2.278795   1.000000
     13         -1.967788   1.000000
     14         -1.692256   1.000000
     15         -0.117410   1.000000
     16          0.003147   1.000000
     17          0.118653   1.000000
     18          0.194034   1.000000
     19          0.423028   1.000000
     20          1.845822   0.819153
     21          1.924456   0.094765
     22          1.970023   0.004650
     23          5.622894   0.000000
     24          5.733023   0.000000
     25          6.022561   0.000000
     26          6.582227   0.000000
     27          6.655622   0.000000
     28          7.008157   0.000000
     29          8.184863   0.000000
     30          8.770595   0.000000
     31          9.036225   0.000000
     32          9.396452   0.000000
     33          9.462933   0.000000
     34         10.372633   0.000000
     35         10.580961   0.000000
     36         10.768684   0.000000
     37         11.332607   0.000000
     38         11.754993   0.000000
     39         12.322298   0.000000
     40         12.632575   0.000000
     41         12.798716   0.000000
     42         13.084767   0.000000
     43         14.401653   0.000000
     44         14.807692   0.000000
     45         15.453467   0.000000
     46         15.924505   0.000000
     47         16.144494   0.000000
     48         16.501527   0.000000
 
  0.2631579E+00  0.3703704E-01  0.0000000E+00  0.4586630E-03
      1        -12.580898   1.000000
      2        -11.810233   1.000000
      3         -8.584935   1.000000
      4         -8.392379   1.000000
      5         -5.978784   1.000000
      6         -5.833466   1.000000
      7         -4.712361   1.000000
      8         -3.869979   1.000000
      9         -3.213062   1.000000
     10         -2.862483   1.000000
     11         -2.655780   1.000000
     12         -2.255076   1.000000
     13         -2.027605   1.000000
     14         -1.976652   1.000000
     15         -0.254776   1.000000
     16          0.001771   1.000000
     17          0.133695   1.000000
     18          0.168414   1.000000
     19          0.457878   1.000000
     20          1.759527   0.999600
     21          1.833361   0.896987
     22          1.848190   0.800986
     23          5.684384   0.000000
     24          5.711524   0.000000
     25          6.232318   0.000000
     26          6.588824   0.000000
     27          6.790377   0.000000
     28          6.947366   0.000000
     29          8.258285   0.000000
     30          8.819768   0.000000
     31          8.987369   0.000000
     32          9.638264   0.000000
     33          9.716134   0.000000
     34         10.187662   0.000000
     35         10.461526   0.000000
     36         10.653339   0.000000
     37         11.392558   0.000000
     38         11.881097   0.000000
     39         12.413542   0.000000
     40         12.484009   0.000000
     41         12.847402   0.000000
     42         12.855374   0.000000
     43         14.696108   0.000000
     44         14.982512   0.000000
     45         15.150422   0.000000
     46         15.937805   0.000000
     47         15.949855   0.000000
     48         16.250956   0.000000
 
  0.3157895E+00  0.3703704E-01  0.0000000E+00  0.4586630E-03
      1        -12.517771   1.000000
      2        -11.898304   1.000000
      3         -8.552939   1.000000
      4         -8.389408   1.000000
      5         -6.019424   1.000000
      6         -5.962588   1.000000
      7         -4.552184   1.000000
      8         -3.783749   1.000000