<?xml version="1.0" encoding="ISO-8859-1"?>
<modeling>
 <generator>
  <i name="program" type="string">vasp </i>
  <i name="version" type="string">6.4.3  </i>
  <i name="subversion" type="string">19Mar24 (build May 31 2024 16:31:43) complex                          parallel </i>
  <i name="platform" type="string">LinuxIFC </i>
  <i name="date" type="string">2024 10 30 </i>
  <i name="time" type="string">19:26:00 </i>
 </generator>
 <incar>
  <i type="string" name="SYSTEM">Kpoints</i>
  <i type="int" name="ISTART">     0</i>
  <i type="string" name="PREC">Accurate</i>
  <i type="string" name="ALGO">Normal</i>
  <i type="int" name="ISPIN">     1</i>
  <i type="int" name="ICHARG">     2</i>
  <i type="int" name="NELM">   100</i>
  <i type="int" name="IBRION">    -1</i>
  <i name="EDIFF">      0.00000100</i>
  <i name="EDIFFG">     -0.00100000</i>
  <i type="int" name="NSW">     0</i>
  <i type="int" name="ISIF">     2</i>
  <i name="ENCUT">    460.00000000</i>
  <i name="POTIM">      0.50000000</i>
  <i type="int" name="ISMEAR">     0</i>
  <i name="SIGMA">      0.05000000</i>
  <i type="logical" name="LWAVE"> F  </i>
  <i type="logical" name="LCHARG"> F  </i>
  <i type="string" name="GGA">PE</i>
 </incar>
 <primitive_cell>
  <structure name="primitive_cell" >
   <crystal>
    <varray name="basis" >
     <v>       5.69700000       0.00000000       0.00000000 </v>
     <v>       0.00000000       4.04790000       0.00000000 </v>
     <v>       0.00000000       0.00000000       6.20420000 </v>
    </varray>
    <i name="volume">    143.07435078 </i>
    <varray name="rec_basis" >
     <v>       0.17553098       0.00000000       0.00000000 </v>
     <v>       0.00000000       0.24704168       0.00000000 </v>
     <v>       0.00000000       0.00000000       0.16118114 </v>
    </varray>
   </crystal>
   <varray name="positions" >
    <v>       0.52123000       0.50000000       0.63796000 </v>
    <v>       0.47877000       0.50000000       0.36204000 </v>
    <v>       0.97877000       0.50000000       0.63796000 </v>
    <v>       0.02123000       0.50000000       0.36204000 </v>
    <v>       0.60090000       0.50000000       0.89991000 </v>
    <v>       0.39910000       0.50000000       0.10009000 </v>
    <v>       0.89910000       0.50000000       0.89991000 </v>
    <v>       0.10090000       0.50000000       0.10009000 </v>
    <v>       0.75000000       0.79171000       0.72973000 </v>
    <v>       0.25000000       0.20829000       0.27027000 </v>
    <v>       0.75000000       0.20829000       0.72973000 </v>
    <v>       0.25000000       0.79171000       0.27027000 </v>
    <v>       0.25000000       0.50000000       0.52367000 </v>
    <v>       0.75000000       0.50000000       0.47633000 </v>
   </varray>
  </structure>
  <varray name="primitive_index" >
   <v type="int" >        1 </v>
   <v type="int" >        2 </v>
   <v type="int" >        3 </v>
   <v type="int" >        4 </v>
   <v type="int" >        5 </v>
   <v type="int" >        6 </v>
   <v type="int" >        7 </v>
   <v type="int" >        8 </v>
   <v type="int" >        9 </v>
   <v type="int" >       10 </v>
   <v type="int" >       11 </v>
   <v type="int" >       12 </v>
   <v type="int" >       13 </v>
   <v type="int" >       14 </v>
  </varray>
 </primitive_cell>
 <kpoints>
  <generation param="Monkhorst-Pack">
   <v type="int" name="divisions">      10       14        9 </v>
   <v name="usershift">      0.00000000       0.00000000       0.00000000 </v>
   <v name="genvec1">      0.10000000       0.00000000       0.00000000 </v>
   <v name="genvec2">      0.00000000       0.07142857       0.00000000 </v>
   <v name="genvec3">      0.00000000       0.00000000       0.11111111 </v>
   <v name="shift">      0.50000000       0.50000000       0.00000000 </v>
  </generation>
  <varray name="kpointlist" >
   <v>       0.05000000       0.03571429       0.00000000 </v>
   <v>       0.15000000       0.03571429       0.00000000 </v>
   <v>       0.25000000       0.03571429       0.00000000 </v>
   <v>       0.35000000       0.03571429       0.00000000 </v>
   <v>       0.45000000       0.03571429       0.00000000 </v>
   <v>       0.05000000       0.10714286       0.00000000 </v>
   <v>       0.15000000       0.10714286       0.00000000 </v>
   <v>       0.25000000       0.10714286       0.00000000 </v>
   <v>       0.35000000       0.10714286       0.00000000 </v>
   <v>       0.45000000       0.10714286       0.00000000 </v>
   <v>       0.05000000       0.17857143       0.00000000 </v>
   <v>       0.15000000       0.17857143       0.00000000 </v>
   <v>       0.25000000       0.17857143       0.00000000 </v>
   <v>       0.35000000       0.17857143       0.00000000 </v>
   <v>       0.45000000       0.17857143       0.00000000 </v>
   <v>       0.05000000       0.25000000       0.00000000 </v>
   <v>       0.15000000       0.25000000       0.00000000 </v>
   <v>       0.25000000       0.25000000       0.00000000 </v>
   <v>       0.35000000       0.25000000       0.00000000 </v>
   <v>       0.45000000       0.25000000       0.00000000 </v>
   <v>       0.05000000       0.32142857       0.00000000 </v>
   <v>       0.15000000       0.32142857       0.00000000 </v>
   <v>       0.25000000       0.32142857       0.00000000 </v>
   <v>       0.35000000       0.32142857       0.00000000 </v>
   <v>       0.45000000       0.32142857       0.00000000 </v>
   <v>       0.05000000       0.39285714       0.00000000 </v>
   <v>       0.15000000       0.39285714       0.00000000 </v>
   <v>       0.25000000       0.39285714       0.00000000 </v>
   <v>       0.35000000       0.39285714       0.00000000 </v>
   <v>       0.45000000       0.39285714       0.00000000 </v>
   <v>       0.05000000       0.46428571       0.00000000 </v>
   <v>       0.15000000       0.46428571       0.00000000 </v>
   <v>       0.25000000       0.46428571       0.00000000 </v>
   <v>       0.35000000       0.46428571       0.00000000 </v>
   <v>       0.45000000       0.46428571       0.00000000 </v>
   <v>       0.05000000       0.03571429       0.11111111 </v>
   <v>       0.15000000       0.03571429       0.11111111 </v>
   <v>       0.25000000       0.03571429       0.11111111 </v>
   <v>       0.35000000       0.03571429       0.11111111 </v>
   <v>       0.45000000       0.03571429       0.11111111 </v>
   <v>       0.05000000       0.10714286       0.11111111 </v>
   <v>       0.15000000       0.10714286       0.11111111 </v>
   <v>       0.25000000       0.10714286       0.11111111 </v>
   <v>       0.35000000       0.10714286       0.11111111 </v>
   <v>       0.45000000       0.10714286       0.11111111 </v>
   <v>       0.05000000       0.17857143       0.11111111 </v>
   <v>       0.15000000       0.17857143       0.11111111 </v>
   <v>       0.25000000       0.17857143       0.11111111 </v>
   <v>       0.35000000       0.17857143       0.11111111 </v>
   <v>       0.45000000       0.17857143       0.11111111 </v>
   <v>       0.05000000       0.25000000       0.11111111 </v>
   <v>       0.15000000       0.25000000       0.11111111 </v>
   <v>       0.25000000       0.25000000       0.11111111 </v>
   <v>       0.35000000       0.25000000       0.11111111 </v>
   <v>       0.45000000       0.25000000       0.11111111 </v>
   <v>       0.05000000       0.32142857       0.11111111 </v>
   <v>       0.15000000       0.32142857       0.11111111 </v>
   <v>       0.25000000       0.32142857       0.11111111 </v>
   <v>       0.35000000       0.32142857       0.11111111 </v>
   <v>       0.45000000       0.32142857       0.11111111 </v>
   <v>       0.05000000       0.39285714       0.11111111 </v>
   <v>       0.15000000       0.39285714       0.11111111 </v>
   <v>       0.25000000       0.39285714       0.11111111 </v>
   <v>       0.35000000       0.39285714       0.11111111 </v>
   <v>       0.45000000       0.39285714       0.11111111 </v>
   <v>       0.05000000       0.46428571       0.11111111 </v>
   <v>       0.15000000       0.46428571       0.11111111 </v>
   <v>       0.25000000       0.46428571       0.11111111 </v>
   <v>       0.35000000       0.46428571       0.11111111 </v>
   <v>       0.45000000       0.46428571       0.11111111 </v>
   <v>       0.05000000       0.03571429       0.22222222 </v>
   <v>       0.15000000       0.03571429       0.22222222 </v>
   <v>       0.25000000       0.03571429       0.22222222 </v>
   <v>       0.35000000       0.03571429       0.22222222 </v>
   <v>       0.45000000       0.03571429       0.22222222 </v>
   <v>       0.05000000       0.10714286       0.22222222 </v>
   <v>       0.15000000       0.10714286       0.22222222 </v>
   <v>       0.25000000       0.10714286       0.22222222 </v>
   <v>       0.35000000       0.10714286       0.22222222 </v>
   <v>       0.45000000       0.10714286       0.22222222 </v>
   <v>       0.05000000       0.17857143       0.22222222 </v>
   <v>       0.15000000       0.17857143       0.22222222 </v>
   <v>       0.25000000       0.17857143       0.22222222 </v>
   <v>       0.35000000       0.17857143       0.22222222 </v>
   <v>       0.45000000       0.17857143       0.22222222 </v>
   <v>       0.05000000       0.25000000       0.22222222 </v>
   <v>       0.15000000       0.25000000       0.22222222 </v>
   <v>       0.25000000       0.25000000       0.22222222 </v>
   <v>       0.35000000       0.25000000       0.22222222 </v>
   <v>       0.45000000       0.25000000       0.22222222 </v>
   <v>       0.05000000       0.32142857       0.22222222 </v>
   <v>       0.15000000       0.32142857       0.22222222 </v>
   <v>       0.25000000       0.32142857       0.22222222 </v>
   <v>       0.35000000       0.32142857       0.22222222 </v>
   <v>       0.45000000       0.32142857       0.22222222 </v>
   <v>       0.05000000       0.39285714       0.22222222 </v>
   <v>       0.15000000       0.39285714       0.22222222 </v>
   <v>       0.25000000       0.39285714       0.22222222 </v>
   <v>       0.35000000       0.39285714       0.22222222 </v>
   <v>       0.45000000       0.39285714       0.22222222 </v>
   <v>       0.05000000       0.46428571       0.22222222 </v>
   <v>       0.15000000       0.46428571       0.22222222 </v>
   <v>       0.25000000       0.46428571       0.22222222 </v>
   <v>       0.35000000       0.46428571       0.22222222 </v>
   <v>       0.45000000       0.46428571       0.22222222 </v>
   <v>       0.05000000       0.03571429       0.33333333 </v>
   <v>       0.15000000       0.03571429       0.33333333 </v>
   <v>       0.25000000       0.03571429       0.33333333 </v>
   <v>       0.35000000       0.03571429       0.33333333 </v>
   <v>       0.45000000       0.03571429       0.33333333 </v>
   <v>       0.05000000       0.10714286       0.33333333 </v>
   <v>       0.15000000       0.10714286       0.33333333 </v>
   <v>       0.25000000       0.10714286       0.33333333 </v>
   <v>       0.35000000       0.10714286       0.33333333 </v>
   <v>       0.45000000       0.10714286       0.33333333 </v>
   <v>       0.05000000       0.17857143       0.33333333 </v>
   <v>       0.15000000       0.17857143       0.33333333 </v>
   <v>       0.25000000       0.17857143       0.33333333 </v>
   <v>       0.35000000       0.17857143       0.33333333 </v>
   <v>       0.45000000       0.17857143       0.33333333 </v>
   <v>       0.05000000       0.25000000       0.33333333 </v>
   <v>       0.15000000       0.25000000       0.33333333 </v>
   <v>       0.25000000       0.25000000       0.33333333 </v>
   <v>       0.35000000       0.25000000       0.33333333 </v>
   <v>       0.45000000       0.25000000       0.33333333 </v>
   <v>       0.05000000       0.32142857       0.33333333 </v>
   <v>       0.15000000       0.32142857       0.33333333 </v>
   <v>       0.25000000       0.32142857       0.33333333 </v>
   <v>       0.35000000       0.32142857       0.33333333 </v>
   <v>       0.45000000       0.32142857       0.33333333 </v>
   <v>       0.05000000       0.39285714       0.33333333 </v>
   <v>       0.15000000       0.39285714       0.33333333 </v>
   <v>       0.25000000       0.39285714       0.33333333 </v>
   <v>       0.35000000       0.39285714       0.33333333 </v>
   <v>       0.45000000       0.39285714       0.33333333 </v>
   <v>       0.05000000       0.46428571       0.33333333 </v>
   <v>       0.15000000       0.46428571       0.33333333 </v>
   <v>       0.25000000       0.46428571       0.33333333 </v>
   <v>       0.35000000       0.46428571       0.33333333 </v>
   <v>       0.45000000       0.46428571       0.33333333 </v>
   <v>       0.05000000       0.03571429       0.44444444 </v>
   <v>       0.15000000       0.03571429       0.44444444 </v>
   <v>       0.25000000       0.03571429       0.44444444 </v>
   <v>       0.35000000       0.03571429       0.44444444 </v>
   <v>       0.45000000       0.03571429       0.44444444 </v>
   <v>       0.05000000       0.10714286       0.44444444 </v>
   <v>       0.15000000       0.10714286       0.44444444 </v>
   <v>       0.25000000       0.10714286       0.44444444 </v>
   <v>       0.35000000       0.10714286       0.44444444 </v>
   <v>       0.45000000       0.10714286       0.44444444 </v>
   <v>       0.05000000       0.17857143       0.44444444 </v>
   <v>       0.15000000       0.17857143       0.44444444 </v>
   <v>       0.25000000       0.17857143       0.44444444 </v>
   <v>       0.35000000       0.17857143       0.44444444 </v>
   <v>       0.45000000       0.17857143       0.44444444 </v>
   <v>       0.05000000       0.25000000       0.44444444 </v>
   <v>       0.15000000       0.25000000       0.44444444 </v>
   <v>       0.25000000       0.25000000       0.44444444 </v>
   <v>       0.35000000       0.25000000       0.44444444 </v>
   <v>       0.45000000       0.25000000       0.44444444 </v>
   <v>       0.05000000       0.32142857       0.44444444 </v>
   <v>       0.15000000       0.32142857       0.44444444 </v>
   <v>       0.25000000       0.32142857       0.44444444 </v>
   <v>       0.35000000       0.32142857       0.44444444 </v>
   <v>       0.45000000       0.32142857       0.44444444 </v>
   <v>       0.05000000       0.39285714       0.44444444 </v>
   <v>       0.15000000       0.39285714       0.44444444 </v>
   <v>       0.25000000       0.39285714       0.44444444 </v>
   <v>       0.35000000       0.39285714       0.44444444 </v>
   <v>       0.45000000       0.39285714       0.44444444 </v>
   <v>       0.05000000       0.46428571       0.44444444 </v>
   <v>       0.15000000       0.46428571       0.44444444 </v>
   <v>       0.25000000       0.46428571       0.44444444 </v>
   <v>       0.35000000       0.46428571       0.44444444 </v>
   <v>       0.45000000       0.46428571       0.44444444 </v>
  </varray>
  <varray name="weights" >
   <v>       0.00317460 </v>
   <v>       0.00317460 </v>
   <v>       0.00317460 </v>
   <v>       0.00317460 </v>
   <v>       0.00317460 </v>
   <v>       0.00317460 </v>
   <v>       0.00317460 </v>
   <v>       0.00317460 </v>
   <v>       0.00317460 </v>
   <v>       0.00317460 </v>
   <v>       0.00317460 </v>
   <v>       0.00317460 </v>
   <v>       0.00317460 </v>
   <v>       0.00317460 </v>
   <v>       0.00317460 </v>
   <v>       0.00317460 </v>
   <v>       0.00317460 </v>
   <v>       0.00317460 </v>
   <v>       0.00317460 </v>
   <v>       0.00317460 </v>
   <v>       0.00317460 </v>
   <v>       0.00317460 </v>
   <v>       0.00317460 </v>
   <v>       0.00317460 </v>
   <v>       0.00317460 </v>
   <v>       0.00317460 </v>
   <v>       0.00317460 </v>
   <v>       0.00317460 </v>
   <v>       0.00317460 </v>
   <v>       0.00317460 </v>
   <v>       0.00317460 </v>
   <v>       0.00317460 </v>
   <v>       0.00317460 </v>
   <v>       0.00317460 </v>
   <v>       0.00317460 </v>
   <v>       0.00634921 </v>
   <v>       0.00634921 </v>
   <v>       0.00634921 </v>
   <v>       0.00634921 </v>
   <v>       0.00634921 </v>
   <v>       0.00634921 </v>
   <v>       0.00634921 </v>
   <v>       0.00634921 </v>
   <v>       0.00634921 </v>
   <v>       0.00634921 </v>
   <v>       0.00634921 </v>
   <v>       0.00634921 </v>
   <v>       0.00634921 </v>
   <v>       0.00634921 </v>
   <v>       0.00634921 </v>
   <v>       0.00634921 </v>
   <v>       0.00634921 </v>
   <v>       0.00634921 </v>
   <v>       0.00634921 </v>
   <v>       0.00634921 </v>
   <v>       0.00634921 </v>
   <v>       0.00634921 </v>
   <v>       0.00634921 </v>
   <v>       0.00634921 </v>
   <v>       0.00634921 </v>
   <v>       0.00634921 </v>
   <v>       0.00634921 </v>
   <v>       0.00634921 </v>
   <v>       0.00634921 </v>
   <v>       0.00634921 </v>
   <v>       0.00634921 </v>
   <v>       0.00634921 </v>
   <v>       0.00634921 </v>
   <v>       0.00634921 </v>
   <v>       0.00634921 </v>
   <v>       0.00634921 </v>
   <v>       0.00634921 </v>
   <v>       0.00634921 </v>
   <v>       0.00634921 </v>
   <v>       0.00634921 </v>
   <v>       0.00634921 </v>
   <v>       0.00634921 </v>
   <v>       0.00634921 </v>
   <v>       0.00634921 </v>
   <v>       0.00634921 </v>
   <v>       0.00634921 </v>
   <v>       0.00634921 </v>
   <v>       0.00634921 </v>
   <v>       0.00634921 </v>
   <v>       0.00634921 </v>
   <v>       0.00634921 </v>
   <v>       0.00634921 </v>
   <v>       0.00634921 </v>
   <v>       0.00634921 </v>
   <v>       0.00634921 </v>
   <v>       0.00634921 </v>
   <v>       0.00634921 </v>
   <v>       0.00634921 </v>
   <v>       0.00634921 </v>
   <v>       0.00634921 </v>
   <v>       0.00634921 </v>
   <v>       0.00634921 </v>
   <v>       0.00634921 </v>
   <v>       0.00634921 </v>
   <v>       0.00634921 </v>
   <v>       0.00634921 </v>
   <v>       0.00634921 </v>
   <v>       0.00634921 </v>
   <v>       0.00634921 </v>
   <v>       0.00634921 </v>
   <v>       0.00634921 </v>
   <v>       0.00634921 </v>
   <v>       0.00634921 </v>
   <v>       0.00634921 </v>
   <v>       0.00634921 </v>
   <v>       0.00634921 </v>
   <v>       0.00634921 </v>
   <v>       0.00634921 </v>
   <v>       0.00634921 </v>
   <v>       0.00634921 </v>
   <v>       0.00634921 </v>
   <v>       0.00634921 </v>
   <v>       0.00634921 </v>
   <v>       0.00634921 </v>
   <v>       0.00634921 </v>
   <v>       0.00634921 </v>
   <v>       0.00634921 </v>
   <v>       0.00634921 </v>
   <v>       0.00634921 </v>
   <v>       0.00634921 </v>
   <v>       0.00634921 </v>
   <v>       0.00634921 </v>
   <v>       0.00634921 </v>
   <v>       0.00634921 </v>
   <v>       0.00634921 </v>
   <v>       0.00634921 </v>
   <v>       0.00634921 </v>
   <v>       0.00634921 </v>
   <v>       0.00634921 </v>
   <v>       0.00634921 </v>
   <v>       0.00634921 </v>
   <v>       0.00634921 </v>
   <v>       0.00634921 </v>
   <v>       0.00634921 </v>
   <v>       0.00634921 </v>
   <v>       0.00634921 </v>
   <v>       0.00634921 </v>
   <v>       0.00634921 </v>
   <v>       0.00634921 </v>
   <v>       0.00634921 </v>
   <v>       0.00634921 </v>
   <v>       0.00634921 </v>
   <v>       0.00634921 </v>
   <v>       0.00634921 </v>
   <v>       0.00634921 </v>
   <v>       0.00634921 </v>
   <v>       0.00634921 </v>
   <v>       0.00634921 </v>
   <v>       0.00634921 </v>
   <v>       0.00634921 </v>
   <v>       0.00634921 </v>
   <v>       0.00634921 </v>
   <v>       0.00634921 </v>
   <v>       0.00634921 </v>
   <v>       0.00634921 </v>
   <v>       0.00634921 </v>
   <v>       0.00634921 </v>
   <v>       0.00634921 </v>
   <v>       0.00634921 </v>
   <v>       0.00634921 </v>
   <v>       0.00634921 </v>
   <v>       0.00634921 </v>
   <v>       0.00634921 </v>
   <v>       0.00634921 </v>
   <v>       0.00634921 </v>
   <v>       0.00634921 </v>
   <v>       0.00634921 </v>
   <v>       0.00634921 </v>
   <v>       0.00634921 </v>
   <v>       0.00634921 </v>
  </varray>
 </kpoints>
 <parameters>
  <separator name="general" >
   <i type="string" name="SYSTEM">Kpoints</i>
   <i type="logical" name="LCOMPAT"> F  </i>
  </separator>
  <separator name="electronic" >
   <i type="string" name="PREC">accura</i>
   <i name="ENMAX">    460.00000000</i>
   <i name="ENAUG">    535.51400000</i>
   <i name="EDIFF">      0.00000100</i>
   <i type="int" name="IALGO">    38</i>
   <i type="int" name="IWAVPR">    10</i>
   <i type="int" name="NBANDS">    48</i>
   <i type="int" name="NBANDSLOW">    -1</i>
   <i type="int" name="NBANDSHIGH">    -1</i>
   <i name="NELECT">     42.00000000</i>
   <i type="int" name="TURBO">     0</i>
   <i type="int" name="IRESTART">     0</i>
   <i type="int" name="NREBOOT">     0</i>
   <i type="int" name="NMIN">     0</i>
   <i name="EREF">      0.00000000</i>
   <separator name="electronic smearing" >
    <i type="int" name="ISMEAR">     0</i>
    <i name="SIGMA">      0.05000000</i>
    <i name="KSPACING">      0.50000000</i>
    <i type="logical" name="KGAMMA"> T  </i>
    <i type="logical" name="KBLOWUP"> T  </i>
   </separator>
   <separator name="electronic projectors" >
    <i type="logical" name="LREAL"> F  </i>
    <v name="ROPT">      0.00000000</v>
    <i type="int" name="LMAXPAW">  -100</i>
    <i type="int" name="LMAXMIX">     2</i>
    <i type="logical" name="NLSPLINE"> F  </i>
   </separator>
   <separator name="electronic startup" >
    <i type="int" name="ISTART">     0</i>
    <i type="int" name="ICHARG">     2</i>
    <i type="int" name="INIWAV">     1</i>
   </separator>
   <separator name="electronic spin" >
    <i type="int" name="ISPIN">     1</i>
    <i type="logical" name="LNONCOLLINEAR"> F  </i>
    <v name="MAGMOM">      1.00000000      1.00000000      1.00000000      1.00000000      1.00000000      1.00000000      1.00000000      1.00000000      1.00000000      1.00000000      1.00000000      1.00000000      1.00000000      1.00000000</v>
    <i name="NUPDOWN">     -1.00000000</i>
    <i type="logical" name="LSORBIT"> F  </i>
    <v name="SAXIS">      0.00000000      0.00000000      1.00000000</v>
    <i type="logical" name="LSPIRAL"> F  </i>
    <v name="QSPIRAL">      0.00000000      0.00000000      0.00000000</v>
    <i type="logical" name="LZEROZ"> F  </i>
   </separator>
   <separator name="electronic exchange-correlation" >
    <i type="logical" name="LASPH"> F  </i>
   </separator>
   <separator name="electronic convergence" >
    <i type="int" name="NELM">   100</i>
    <i type="int" name="NELMDL">    -5</i>
    <i type="int" name="NELMIN">     2</i>
    <i name="ENINI">    460.00000000</i>
    <separator name="electronic convergence detail" >
     <i type="logical" name="LDIAG"> T  </i>
     <i type="logical" name="LSUBROT"> F  </i>
     <i name="WEIMIN">      0.00000000</i>
     <i name="EBREAK">      0.00000001</i>
     <i name="DEPER">      0.30000000</i>
     <i type="int" name="NRMM">     4</i>
     <i name="TIME">      0.40000000</i>
    </separator>
   </separator>
   <separator name="electronic mixer" >
    <i name="AMIX">      0.40000000</i>
    <i name="BMIX">      1.00000000</i>
    <i name="AMIN">      0.10000000</i>
    <i name="AMIX_MAG">      1.60000000</i>
    <i name="BMIX_MAG">      1.00000000</i>
    <separator name="electronic mixer details" >
     <i type="int" name="IMIX">     4</i>
     <i type="logical" name="MIXFIRST"> F  </i>
     <i type="int" name="MAXMIX">   -45</i>
     <i name="WC">    100.00000000</i>
     <i type="int" name="INIMIX">     1</i>
     <i type="int" name="MIXPRE">     1</i>
     <i type="int" name="MREMOVE">     5</i>
    </separator>
   </separator>
   <separator name="electronic dipolcorrection" >
    <i type="logical" name="LDIPOL"> F  </i>
    <i type="logical" name="LMONO"> F  </i>
    <i type="int" name="IDIPOL">     0</i>
    <i name="EPSILON">      1.00000000</i>
    <v name="DIPOL">   -100.00000000   -100.00000000   -100.00000000</v>
    <i name="EFIELD">      0.00000000</i>
    <i type="logical" name="LVACPOTAV"> F  </i>
   </separator>
  </separator>
  <separator name="grids" >
   <i type="int" name="NGX">    40</i>
   <i type="int" name="NGY">    28</i>
   <i type="int" name="NGZ">    48</i>
   <i type="int" name="NGXF">    80</i>
   <i type="int" name="NGYF">    56</i>
   <i type="int" name="NGZF">    96</i>
   <i type="logical" name="ADDGRID"> F  </i>
  </separator>
  <separator name="ionic" >
   <i type="int" name="NSW">     0</i>
   <i type="int" name="IBRION">    -1</i>
   <i type="int" name="MDALGO">     0</i>
   <i type="int" name="ISIF">     2</i>
   <i name="PSTRESS">      0.00000000</i>
   <i name="EDIFFG">     -0.00100000</i>
   <i type="int" name="NFREE">     0</i>
   <i name="POTIM">      0.50000000</i>
   <i name="SMASS">     -3.00000000</i>
   <i name="SCALEE">      1.00000000</i>
  </separator>
  <separator name="ionic md" >
   <i name="TEBEG">      0.00010000</i>
   <i name="TEEND">      0.00010000</i>
   <i type="int" name="NBLOCK">     1</i>
   <i type="int" name="KBLOCK">     1</i>
   <i type="int" name="NPACO">   256</i>
   <i name="APACO">     10.00000000</i>
  </separator>
  <separator name="symmetry" >
   <i type="int" name="ISYM">     2</i>
   <i name="SYMPREC">      0.00001000</i>
  </separator>
  <separator name="dos" >
   <i type="int" name="LORBIT">     0</i>
   <v name="RWIGS">     -1.00000000</v>
   <i type="int" name="NEDOS">   301</i>
   <i name="EMIN">     10.00000000</i>
   <i name="EMAX">    -10.00000000</i>
   <i name="EFERMI">      0.00000000</i>
  </separator>
  <separator name="writing" >
   <i type="int" name="NWRITE">     2</i>
   <i type="logical" name="LWAVE"> F  </i>
   <i type="logical" name="LDOWNSAMPLE"> F  </i>
   <i type="logical" name="LCHARG"> F  </i>
   <i type="logical" name="LPARD"> F  </i>
   <i type="logical" name="LVTOT"> F  </i>
   <i type="logical" name="LVHAR"> F  </i>
   <i type="logical" name="LELF"> F  </i>
   <i type="logical" name="LOPTICS"> F  </i>
   <v name="STM">      0.00000000      0.00000000      0.00000000      0.00000000      0.00000000      0.00000000      0.00000000</v>
  </separator>
  <separator name="performance" >
   <i type="int" name="NPAR">    24</i>
   <i type="int" name="NSIM">     4</i>
   <i type="int" name="NBLK">    -1</i>
   <i type="logical" name="LPLANE"> T  </i>
   <i type="logical" name="LSCALAPACK"> T  </i>
   <i type="logical" name="LSCAAWARE"> F  </i>
   <i type="logical" name="LSCALU"> F  </i>
   <i type="logical" name="LASYNC"> F  </i>
   <i type="logical" name="LORBITALREAL"> F  </i>
  </separator>
  <separator name="miscellaneous" >
   <i type="int" name="IDIOT">     3</i>
   <i type="int" name="PHON_NSTRUCT">    -1</i>
   <i type="logical" name="LMUSIC"> F  </i>
   <v name="POMASS">     10.81100000</v>
   <v name="DARWINR">      0.00000000</v>
   <v name="DARWINV">      1.00000000</v>
   <i type="logical" name="LCORR"> T  </i>
  </separator>
  <i type="logical" name="GGA_COMPAT"> T  </i>
  <i type="logical" name="LBERRY"> F  </i>
  <i type="int" name="ICORELEVEL">     0</i>
  <i type="logical" name="LDAU"> F  </i>
  <i type="int" name="I_CONSTRAINED_M">     0</i>
  <separator name="electronic exchange-correlation" >
   <i type="string" name="GGA    ">PE</i>
   <i type="string" name="XC_C">1</i>
   <i type="int" name="VOSKOWN">     0</i>
   <i type="logical" name="LHFCALC"> F  </i>
   <i type="string" name="PRECFOCK"></i>
   <i type="logical" name="LSYMGRAD"> F  </i>
   <i type="logical" name="LHFONE"> F  </i>
   <i type="logical" name="LRHFCALC"> F  </i>
   <i type="logical" name="LTHOMAS"> F  </i>
   <i type="logical" name="LMODELHF"> F  </i>
   <i type="logical" name="LFOCKACE"> F  </i>
   <i name="ENCUT4O">     -1.00000000</i>
   <i type="int" name="EXXOEP">     0</i>
   <i type="int" name="FOURORBIT">     0</i>
   <i name="AEXX">      0.00000000</i>
   <i name="HFALPHA">      0.00000000</i>
   <i name="MCALPHA">      0.00000000</i>
   <i name="ALDAX">      1.00000000</i>
   <i name="AGGAX">      1.00000000</i>
   <i name="AMGGAX">      1.00000000</i>
   <i name="ALDAC">      1.00000000</i>
   <i name="AGGAC">      1.00000000</i>
   <i name="AMGGAC">      1.00000000</i>
   <i type="int" name="NKREDX">     1</i>
   <i type="int" name="NKREDY">     1</i>
   <i type="int" name="NKREDZ">     1</i>
   <i type="logical" name="SHIFTRED"> F  </i>
   <i type="logical" name="ODDONLY"> F  </i>
   <i type="logical" name="EVENONLY"> F  </i>
   <i type="int" name="LMAXFOCK">     0</i>
   <i type="int" name="NMAXFOCKAE">     0</i>
   <i type="logical" name="LFOCKAEDFT"> F  </i>
   <i name="HFSCREEN">      0.00000000</i>
   <i name="HFSCREENC">      0.00000000</i>
   <i type="int" name="NBANDSGWLOW">     0</i>
  </separator>
  <separator name="vdW DFT" >
   <i type="logical" name="LUSE_VDW"> F  </i>
   <i type="int" name="IVDW_NL">    -1</i>
   <i type="logical" name="LSPIN_VDW"> F  </i>
   <i name="ZAB_VDW">     -0.84910000</i>
   <i name="GAMMA_VDW">      1.39626340</i>
   <i name="ALPHA_VDW">      0.00000000</i>
   <i name="PARAM1">      0.12340000</i>
   <i name="PARAM2">      1.00000000</i>
   <i name="BPARAM">      6.30000000</i>
   <i name="CPARAM">      0.00930000</i>
  </separator>
  <separator name="model GW" >
   <i type="int" name="MODEL_GW">     0</i>
   <i name="MODEL_EPS0">      6.13175789</i>
   <i name="MODEL_ALPHA">      1.00000000</i>
  </separator>
  <separator name="linear response parameters" >
   <i type="logical" name="LEPSILON"> F  </i>
   <i type="logical" name="LRPA"> F  </i>
   <i type="logical" name="LNABLA"> F  </i>
   <i type="logical" name="LVEL"> F  </i>
   <i name="CSHIFT">      0.10000000</i>
   <i name="OMEGAMAX">     -1.00000000</i>
   <i name="DEG_THRESHOLD">      0.00200000</i>
   <i name="RTIME">     -0.10000000</i>
   <i name="WPLASMAI">      0.00000000</i>
   <v name="DFIELD">      0.00000000      0.00000000      0.00000000</v>
   <v name="WPLASMA">      0.00000000      0.00000000      0.00000000      0.00000000      0.00000000      0.00000000      0.00000000      0.00000000      0.00000000</v>
  </separator>
  <separator name="orbital magnetization" >
   <i type="logical" name="NUCIND"> F  </i>
   <v name="MAGPOS">      0.00000000      0.00000000      0.00000000</v>
   <i type="logical" name="LNICSALL"> T  </i>
   <i type="logical" name="ORBITALMAG"> F  </i>
   <i type="logical" name="LMAGBLOCH"> F  </i>
   <i type="logical" name="LCHIMAG"> F  </i>
   <i type="logical" name="LGAUGE"> T  </i>
   <i type="int" name="MAGATOM">     0</i>
   <v name="MAGDIPOL">      0.00000000      0.00000000      0.00000000</v>
   <v name="AVECCONST">      0.00000000      0.00000000      0.00000000</v>
  </separator>
  <separator name="response functions" >
   <i type="logical" name="LALL_IN_ONE"> F  </i>
   <i type="int" name="IALL_IN_ONE">    -1</i>
   <i type="int" name="NBANDS_WAVE">    -1</i>
   <i type="logical" name="LFINITE_TEMPERATURE"> F  </i>
   <i type="logical" name="LADDER"> F  </i>
   <i type="logical" name="LRPAFORCE"> F  </i>
   <i type="logical" name="LFXC"> F  </i>
   <i type="logical" name="LHARTREE"> T  </i>
   <i type="int" name="IBSE">     0</i>
   <v type="int" name="KPOINT">    -1     0     0     0</v>
   <i type="logical" name="LTCTC"> F  </i>
   <i type="logical" name="LTCTE"> F  </i>
   <i type="logical" name="LTETE"> F  </i>
   <i type="logical" name="LTRIPLET"> F  </i>
   <i type="logical" name="LFXCEPS"> F  </i>
   <i type="logical" name="LFXHEG"> F  </i>
   <i type="int" name="NATURALO">     2</i>
   <i type="logical" name="LHOLEGF"> F  </i>
   <i type="logical" name="L2ORDER"> F  </i>
   <i type="logical" name="LDMP1"> F  </i>
   <i type="logical" name="LMP2LT"> F  </i>
   <i type="logical" name="LSMP2LT"> F  </i>
   <i type="logical" name="LGWLF"> F  </i>
   <i name="ENCUTGW">     -1.60000002</i>
   <i name="ENCUTGWSOFT">     -1.60000002</i>
   <i name="ENCUTLF">     -1.00000000</i>
   <i type="logical" name="ESF_SPLINES"> F  </i>
   <i name="ESF_CONV">      0.01000000</i>
   <i type="int" name="ESF_NINTER">    15</i>
   <i type="int" name="LMAXMP2">    -1</i>
   <i name="SCISSOR">      0.00000000</i>
   <i type="int" name="NOMEGA">     0</i>
   <i type="int" name="NOMEGAR">     0</i>
   <i type="int" name="NBANDSGW">    -1</i>
   <i type="int" name="NBANDSO">    -1</i>
   <i type="int" name="NBANDSV">    -1</i>
   <i type="int" name="NELMGW">     1</i>
   <i type="int" name="NELMHF">     1</i>
   <i type="int" name="DIM">     3</i>
   <i type="int" name="IESPILON">     4</i>
   <i type="int" name="ANTIRES">     0</i>
   <i name="OMEGAMAX">    -30.00000000</i>
   <i name="OMEGAMIN">    -30.00000000</i>
   <i name="OMEGATL">   -200.00000000</i>
   <i type="int" name="OMEGAGRID">     0</i>
   <i name="CSHIFT">     -0.10000000</i>
   <i type="logical" name="LSELFENERGY"> F  </i>
   <i type="logical" name="LSPECTRAL"> F  </i>
   <i type="logical" name="LSPECTRALGW"> F  </i>
   <i type="logical" name="LSINGLES"> F  </i>
   <i type="logical" name="LFERMIGW"> F  </i>
   <i type="logical" name="ODDONLYGW"> F  </i>
   <i type="logical" name="EVENONLYGW"> F  </i>
   <i type="int" name="NKREDLFX">     1</i>
   <i type="int" name="NKREDLFY">     1</i>
   <i type="int" name="NKREDLFZ">     1</i>
   <i type="int" name="MAXMEM">  2800</i>
   <i type="int" name="TELESCOPE">     0</i>
   <i type="int" name="NTAUPAR">    -1</i>
   <i type="int" name="NOMEGAPAR">    -1</i>
   <i name="DAMP_NEWTON">      0.80000001</i>
   <i name="LAMBDA">      1.00000000</i>
  </separator>
  <separator name="External order field" >
   <i name="OFIELD_KAPPA">      0.00000000</i>
   <v name="OFIELD_K">      0.00000000      0.00000000      0.00000000</v>
   <i name="OFIELD_Q6_NEAR">      0.00000000</i>
   <i name="OFIELD_Q6_FAR">      0.00000000</i>
   <i name="OFIELD_A">      0.00000000</i>
  </separator>
  <separator name="optional k-points parameters" >
   <i type="int" name="KPOINTS_OPT_MODE">     1</i>
   <i type="logical" name="LKPOINTS_OPT"> F  </i>
  </separator>
 </parameters>
 <atominfo>
  <atoms>      14 </atoms>
  <types>       1 </types>
  <array name="atoms" >
   <dimension dim="1">ion</dimension>
   <field type="string">element</field>
   <field type="int">atomtype</field>
   <set>
    <rc><c>B </c><c>   1</c></rc>
    <rc><c>B </c><c>   1</c></rc>
    <rc><c>B </c><c>   1</c></rc>
    <rc><c>B </c><c>   1</c></rc>
    <rc><c>B </c><c>   1</c></rc>
    <rc><c>B </c><c>   1</c></rc>
    <rc><c>B </c><c>   1</c></rc>
    <rc><c>B </c><c>   1</c></rc>
    <rc><c>B </c><c>   1</c></rc>
    <rc><c>B </c><c>   1</c></rc>
    <rc><c>B </c><c>   1</c></rc>
    <rc><c>B </c><c>   1</c></rc>
    <rc><c>B </c><c>   1</c></rc>
    <rc><c>B </c><c>   1</c></rc>
   </set>
  </array>
  <array name="atomtypes" >
   <dimension dim="1">type</dimension>
   <field type="int">atomspertype</field>
   <field type="string">element</field>
   <field>mass</field>
   <field>valence</field>
   <field type="string">pseudopotential</field>
   <set>
    <rc><c>  14</c><c>B </c><c>     10.81100000</c><c>      3.00000000</c><c>  PAW_PBE B 06Sep2000                   </c></rc>
   </set>
  </array>
 </atominfo>
 <structure name="initialpos" >
  <crystal>
   <varray name="basis" >
    <v>       5.69700000       0.00000000       0.00000000 </v>
    <v>       0.00000000       4.04790000       0.00000000 </v>
    <v>       0.00000000       0.00000000       6.20420000 </v>
   </varray>
   <i name="volume">    143.07435078 </i>
   <varray name="rec_basis" >
    <v>       0.17553098       0.00000000       0.00000000 </v>
    <v>       0.00000000       0.24704168       0.00000000 </v>
    <v>       0.00000000       0.00000000       0.16118114 </v>
   </varray>
  </crystal>
  <varray name="positions" >
   <v>       0.52123000       0.50000000       0.63796000 </v>
   <v>       0.47877000       0.50000000       0.36204000 </v>
   <v>       0.97877000       0.50000000       0.63796000 </v>
   <v>       0.02123000       0.50000000       0.36204000 </v>
   <v>       0.60090000       0.50000000       0.89991000 </v>
   <v>       0.39910000       0.50000000       0.10009000 </v>
   <v>       0.89910000       0.50000000       0.89991000 </v>
   <v>       0.10090000       0.50000000       0.10009000 </v>
   <v>       0.75000000       0.79171000       0.72973000 </v>
   <v>       0.25000000       0.20829000       0.27027000 </v>
   <v>       0.75000000       0.20829000       0.72973000 </v>
   <v>       0.25000000       0.79171000       0.27027000 </v>
   <v>       0.25000000       0.50000000       0.52367000 </v>
   <v>       0.75000000       0.50000000       0.47633000 </v>
  </varray>
 </structure>
 <calculation>
  <scstep>
   <time name="dav">    6.21    6.31</time>
   <time name="total">    6.24    6.34</time>
   <energy>
    <i name="alphaZ">     94.24357992 </i>
    <i name="ewald">   -795.76658092 </i>
    <i name="hartreedc">   -271.33601302 </i>
    <i name="XCdc">     97.50108175 </i>
    <i name="pawpsdc">    608.99811708 </i>
    <i name="pawaedc">   -597.02363782 </i>
    <i name="eentropy">     -0.00189692 </i>
    <i name="bandstr">    -83.09288101 </i>
    <i name="atom">    996.36430254 </i>
    <i name="e_fr_energy">     49.88607161 </i>
    <i name="e_wo_entrp">     49.88796853 </i>
    <i name="e_0_energy">     49.88702007 </i>
   </energy>
  </scstep>
  <scstep>
   <time name="dav">    7.79    7.84</time>
   <time name="total">    7.79    7.84</time>
   <energy>
    <i name="e_fr_energy">    -93.06632141 </i>
    <i name="e_wo_entrp">    -93.06282786 </i>
    <i name="e_0_energy">    -93.06457464 </i>
   </energy>
  </scstep>
  <scstep>
   <time name="dav">    8.26    8.30</time>
   <time name="total">    8.26    8.31</time>
   <energy>
    <i name="e_fr_energy">    -97.59551996 </i>
    <i name="e_wo_entrp">    -97.59185989 </i>
    <i name="e_0_energy">    -97.59368993 </i>
   </energy>
  </scstep>
  <scstep>
   <time name="dav">    7.09    7.13</time>
   <time name="total">    7.09    7.13</time>
   <energy>
    <i name="e_fr_energy">    -97.62166950 </i>
    <i name="e_wo_entrp">    -97.61801433 </i>
    <i name="e_0_energy">    -97.61984191 </i>
   </energy>
  </scstep>
  <scstep>
   <time name="dav">    8.20    8.25</time>
   <time name="total">    8.28    8.33</time>
   <energy>
    <i name="e_fr_energy">    -97.62196975 </i>
    <i name="e_wo_entrp">    -97.61831461 </i>
    <i name="e_0_energy">    -97.62014218 </i>
   </energy>
  </scstep>
  <scstep>
   <time name="dav">    7.60    7.68</time>
   <time name="total">    7.69    7.76</time>
   <energy>
    <i name="e_fr_energy">    -92.20686495 </i>
    <i name="e_wo_entrp">    -92.20343483 </i>
    <i name="e_0_energy">    -92.20514989 </i>
   </energy>
  </scstep>
  <scstep>
   <time name="dav">    8.00    8.26</time>
   <time name="total">    8.08    8.34</time>
   <energy>
    <i name="e_fr_energy">    -90.55587147 </i>
    <i name="e_wo_entrp">    -90.55273616 </i>
    <i name="e_0_energy">    -90.55430381 </i>
   </energy>
  </scstep>
  <scstep>
   <time name="dav">    6.79    6.93</time>
   <time name="total">    6.88    7.02</time>
   <energy>
    <i name="e_fr_energy">    -90.56813921 </i>
    <i name="e_wo_entrp">    -90.56496238 </i>
    <i name="e_0_energy">    -90.56655080 </i>
   </energy>
  </scstep>
  <scstep>
   <time name="dav">    7.59    7.65</time>
   <time name="total">    7.67    7.73</time>
   <energy>
    <i name="e_fr_energy">    -90.58231697 </i>
    <i name="e_wo_entrp">    -90.57905385 </i>
    <i name="e_0_energy">    -90.58068541 </i>
   </energy>
  </scstep>
  <scstep>
   <time name="dav">    6.69    6.87</time>
   <time name="total">    6.80    6.98</time>
   <energy>
    <i name="e_fr_energy">    -90.58635299 </i>
    <i name="e_wo_entrp">    -90.58313586 </i>
    <i name="e_0_energy">    -90.58474443 </i>
   </energy>
  </scstep>
  <scstep>
   <time name="dav">    7.29    7.71</time>
   <time name="total">    7.36    7.79</time>
   <energy>
    <i name="e_fr_energy">    -90.58742458 </i>
    <i name="e_wo_entrp">    -90.58421830 </i>
    <i name="e_0_energy">    -90.58582144 </i>
   </energy>
  </scstep>
  <scstep>
   <time name="dav">    7.04    7.23</time>
   <time name="total">    7.12    7.31</time>
   <energy>
    <i name="e_fr_energy">    -90.58753965 </i>
    <i name="e_wo_entrp">    -90.58432719 </i>
    <i name="e_0_energy">    -90.58593342 </i>
   </energy>
  </scstep>
  <scstep>
   <time name="dav">    7.48    7.73</time>
   <time name="total">    7.56    7.81</time>
   <energy>
    <i name="e_fr_energy">    -90.58754438 </i>
    <i name="e_wo_entrp">    -90.58433162 </i>
    <i name="e_0_energy">    -90.58593800 </i>
   </energy>
  </scstep>
  <scstep>
   <time name="dav">    6.87    7.06</time>
   <time name="total">    6.89    7.08</time>
   <energy>
    <i name="alphaZ">     94.24357992 </i>
    <i name="ewald">   -795.76658092 </i>
    <i name="hartreedc">   -349.09022921 </i>
    <i name="XCdc">    101.58719490 </i>
    <i name="pawpsdc">   3718.07343012 </i>
    <i name="pawaedc">  -3707.26641771 </i>
    <i name="eentropy">     -0.00321287 </i>
    <i name="bandstr">   -148.72961181 </i>
    <i name="atom">    996.36430254 </i>
    <i name="e_fr_energy">    -90.58754504 </i>
    <i name="e_wo_entrp">    -90.58433217 </i>
    <i name="e_0_energy">    -90.58593861 </i>
   </energy>
  </scstep>
  <structure>
   <crystal>
    <varray name="basis" >
     <v>       5.69700000       0.00000000       0.00000000 </v>
     <v>       0.00000000       4.04790000       0.00000000 </v>
     <v>       0.00000000       0.00000000       6.20420000 </v>
    </varray>
    <i name="volume">    143.07435078 </i>
    <varray name="rec_basis" >
     <v>       0.17553098       0.00000000       0.00000000 </v>
     <v>       0.00000000       0.24704168       0.00000000 </v>
     <v>       0.00000000       0.00000000       0.16118114 </v>
    </varray>
   </crystal>
   <varray name="positions" >
    <v>       0.52123000       0.50000000       0.63796000 </v>
    <v>       0.47877000       0.50000000       0.36204000 </v>
    <v>       0.97877000       0.50000000       0.63796000 </v>
    <v>       0.02123000       0.50000000       0.36204000 </v>
    <v>       0.60090000       0.50000000       0.89991000 </v>
    <v>       0.39910000       0.50000000       0.10009000 </v>
    <v>       0.89910000       0.50000000       0.89991000 </v>
    <v>       0.10090000       0.50000000       0.10009000 </v>
    <v>       0.75000000       0.79171000       0.72973000 </v>
    <v>       0.25000000       0.20829000       0.27027000 </v>
    <v>       0.75000000       0.20829000       0.72973000 </v>
    <v>       0.25000000       0.79171000       0.27027000 </v>
    <v>       0.25000000       0.50000000       0.52367000 </v>
    <v>       0.75000000       0.50000000       0.47633000 </v>
   </varray>
  </structure>
  <varray name="forces" >
   <v>      -0.00557186       0.00000000       0.05355705 </v>
   <v>       0.00557186       0.00000000      -0.05355705 </v>
   <v>       0.00557186      -0.00000000       0.05355705 </v>
   <v>      -0.00557186      -0.00000000      -0.05355705 </v>
   <v>      -0.83328197       0.00000000       0.27866769 </v>
   <v>       0.83328197       0.00000000      -0.27866769 </v>
   <v>       0.83328197      -0.00000000       0.27866769 </v>
   <v>      -0.83328197      -0.00000000      -0.27866769 </v>
   <v>       0.00000000       0.05930155      -0.07883651 </v>
   <v>      -0.00000000      -0.05930155       0.07883651 </v>
   <v>      -0.00000000      -0.05930155      -0.07883651 </v>
   <v>       0.00000000       0.05930155       0.07883651 </v>
   <v>       0.00000000      -0.00000000       0.07498882 </v>
   <v>      -0.00000000      -0.00000000      -0.07498882 </v>
  </varray>
  <varray name="stress" >
   <v>      14.96854882       0.00000000       0.00000000 </v>
   <v>       0.00000000       1.37325960       0.00000000 </v>
   <v>       0.00000000       0.00000000      -6.17957839 </v>
  </varray>
  <energy>
   <i name="e_fr_energy">    -90.58754504 </i>
   <i name="e_wo_entrp">    -90.58433217 </i>
   <i name="e_0_energy">    -90.58593861 </i>
  </energy>
  <time name="totalsc">  106.95  109.11</time>
  <eigenvalues>
   <array>
    <dimension dim="1">band</dimension>
    <dimension dim="2">kpoint</dimension>
    <dimension dim="3">spin</dimension>
    <field>eigene</field>
    <field>occ</field>
    <set>
     <set comment="spin 1">
      <set comment="kpoint 1">
       <r>  -12.7249    1.0000 </r>
       <r>  -11.5829    1.0000 </r>
       <r>   -8.6577    1.0000 </r>
       <r>   -8.4209    1.0000 </r>
       <r>   -6.0632    1.0000 </r>
       <r>   -5.1295    1.0000 </r>
       <r>   -4.6652    1.0000 </r>
       <r>   -4.2743    1.0000 </r>
       <r>   -4.0323    1.0000 </r>
       <r>   -3.5431    1.0000 </r>
       <r>   -2.5929    1.0000 </r>
       <r>   -2.3239    1.0000 </r>
       <r>   -1.8327    1.0000 </r>
       <r>   -1.0948    1.0000 </r>
       <r>   -0.0687    1.0000 </r>
       <r>   -0.0386    1.0000 </r>
       <r>    0.1573    1.0000 </r>
       <r>    0.1788    1.0000 </r>
       <r>    0.5669    1.0000 </r>
       <r>    2.0200    0.0001 </r>
       <r>    2.0830    0.0000 </r>
       <r>    2.2183    0.0000 </r>
       <r>    5.4591    0.0000 </r>
       <r>    5.7502    0.0000 </r>
       <r>    5.8394    0.0000 </r>
       <r>    5.9603    0.0000 </r>
       <r>    6.8156    0.0000 </r>
       <r>    7.5497    0.0000 </r>
       <r>    7.8791    0.0000 </r>
       <r>    8.5365    0.0000 </r>
       <r>    8.8034    0.0000 </r>
       <r>    8.9507    0.0000 </r>
       <r>    9.0532    0.0000 </r>
       <r>   10.1241    0.0000 </r>
       <r>   11.1847    0.0000 </r>
       <r>   11.3358    0.0000 </r>
       <r>   11.6660    0.0000 </r>
       <r>   11.7830    0.0000 </r>
       <r>   11.9421    0.0000 </r>
       <r>   12.4042    0.0000 </r>
       <r>   12.8695    0.0000 </r>
       <r>   13.4536    0.0000 </r>
       <r>   13.4808    0.0000 </r>
       <r>   15.3825    0.0000 </r>
       <r>   15.5717    0.0000 </r>
       <r>   16.0624    0.0000 </r>
       <r>   16.3342    0.0000 </r>
       <r>   16.3573    0.0000 </r>
      </set>
      <set comment="kpoint 2">
       <r>  -12.6812    1.0000 </r>
       <r>  -11.6566    1.0000 </r>
       <r>   -8.6366    1.0000 </r>
       <r>   -8.4094    1.0000 </r>
       <r>   -5.9950    1.0000 </r>
       <r>   -5.4706    1.0000 </r>
       <r>   -4.7877    1.0000 </r>
       <r>   -4.0089    1.0000 </r>
       <r>   -3.7913    1.0000 </r>
       <r>   -3.2055    1.0000 </r>
       <r>   -2.6631    1.0000 </r>
       <r>   -2.3038    1.0000 </r>
       <r>   -1.9114    1.0000 </r>
       <r>   -1.4018    1.0000 </r>
       <r>   -0.0284    1.0000 </r>
       <r>   -0.0173    1.0000 </r>
       <r>    0.0949    1.0000 </r>
       <r>    0.1992    1.0000 </r>
       <r>    0.4717    1.0000 </r>
       <r>    1.9338    0.0842 </r>
       <r>    2.0051    0.0003 </r>
       <r>    2.0971    0.0000 </r>
       <r>    5.5479    0.0000 </r>
       <r>    5.7588    0.0000 </r>
       <r>    5.8671    0.0000 </r>
       <r>    6.3060    0.0000 </r>
       <r>    6.7301    0.0000 </r>
       <r>    7.1879    0.0000 </r>
       <r>    8.0891    0.0000 </r>
       <r>    8.6729    0.0000 </r>
       <r>    9.0603    0.0000 </r>
       <r>    9.1326    0.0000 </r>
       <r>    9.2052    0.0000 </r>
       <r>   10.2369    0.0000 </r>
       <r>   10.9434    0.0000 </r>
       <r>   11.1317    0.0000 </r>
       <r>   11.2578    0.0000 </r>
       <r>   11.7000    0.0000 </r>
       <r>   12.1594    0.0000 </r>
       <r>   12.4936    0.0000 </r>
       <r>   13.1224    0.0000 </r>
       <r>   13.1290    0.0000 </r>
       <r>   14.0123    0.0000 </r>
       <r>   14.8706    0.0000 </r>
       <r>   15.7513    0.0000 </r>
       <r>   15.8303    0.0000 </r>
       <r>   16.2276    0.0000 </r>
       <r>   16.5145    0.0000 </r>
      </set>
      <set comment="kpoint 3">
       <r>  -12.5955    1.0000 </r>
       <r>  -11.7896    1.0000 </r>
       <r>   -8.5930    1.0000 </r>
       <r>   -8.3947    1.0000 </r>
       <r>   -5.9734    1.0000 </r>
       <r>   -5.7972    1.0000 </r>
       <r>   -4.7418    1.0000 </r>
       <r>   -3.8814    1.0000 </r>
       <r>   -3.2803    1.0000 </r>
       <r>   -2.8319    1.0000 </r>
       <r>   -2.7131    1.0000 </r>
       <r>   -2.2633    1.0000 </r>
       <r>   -2.0221    1.0000 </r>
       <r>   -1.9062    1.0000 </r>
       <r>   -0.2183    1.0000 </r>
       <r>    0.0151    1.0000 </r>
       <r>    0.1448    1.0000 </r>
       <r>    0.1582    1.0000 </r>
       <r>    0.4415    1.0000 </r>
       <r>    1.7861    0.9974 </r>
       <r>    1.8674    0.6915 </r>
       <r>    1.8723    0.6408 </r>
       <r>    5.6687    0.0000 </r>
       <r>    5.7153    0.0000 </r>
       <r>    6.1761    0.0000 </r>
       <r>    6.6040    0.0000 </r>
       <r>    6.7645    0.0000 </r>
       <r>    6.9332    0.0000 </r>
       <r>    8.2400    0.0000 </r>
       <r>    8.8214    0.0000 </r>
       <r>    9.0016    0.0000 </r>
       <r>    9.5767    0.0000 </r>
       <r>    9.6492    0.0000 </r>
       <r>   10.2821    0.0000 </r>
       <r>   10.4871    0.0000 </r>
       <r>   10.6269    0.0000 </r>
       <r>   11.3782    0.0000 </r>
       <r>   11.8420    0.0000 </r>
       <r>   12.3942    0.0000 </r>
       <r>   12.5672    0.0000 </r>
       <r>   12.7941    0.0000 </r>
       <r>   12.9198    0.0000 </r>
       <r>   14.6379    0.0000 </r>
       <r>   14.9193    0.0000 </r>
       <r>   15.2270    0.0000 </r>
       <r>   15.9843    0.0000 </r>
       <r>   16.0033    0.0000 </r>
       <r>   16.2923    0.0000 </r>
      </set>
      <set comment="kpoint 4">
       <r>  -12.4720    1.0000 </r>
       <r>  -11.9590    1.0000 </r>
       <r>   -8.5312    1.0000 </r>
       <r>   -8.3915    1.0000 </r>
       <r>   -6.0542    1.0000 </r>
       <r>   -6.0303    1.0000 </r>
       <r>   -4.4143    1.0000 </r>
       <r>   -3.7124    1.0000 </r>
       <r>   -3.0260    1.0000 </r>
       <r>   -2.8957    1.0000 </r>
       <r>   -2.4431    1.0000 </r>
       <r>   -2.2517    1.0000 </r>
       <r>   -2.1449    1.0000 </r>
       <r>   -2.1232    1.0000 </r>
       <r>   -0.5174    1.0000 </r>
       <r>   -0.2440    1.0000 </r>
       <r>    0.1739    1.0000 </r>
       <r>    0.2493    1.0000 </r>
       <r>    0.6147    1.0000 </r>
       <r>    1.5316    1.0000 </r>
       <r>    1.6633    1.0000 </r>
       <r>    1.7240    1.0000 </r>
       <r>    5.7000    0.0000 </r>
       <r>    5.7540    0.0000 </r>
       <r>    6.5027    0.0000 </r>
       <r>    6.6742    0.0000 </r>
       <r>    6.7002    0.0000 </r>
       <r>    7.4144    0.0000 </r>
       <r>    8.3643    0.0000 </r>
       <r>    8.6902    0.0000 </r>
       <r>    8.8107    0.0000 </r>
       <r>    9.5364    0.0000 </r>
       <r>   10.0574    0.0000 </r>
       <r>   10.1198    0.0000 </r>
       <r>   10.3998    0.0000 </r>
       <r>   11.1502    0.0000 </r>
       <r>   11.4059    0.0000 </r>
       <r>   11.9473    0.0000 </r>
       <r>   12.2055    0.0000 </r>
       <r>   12.2771    0.0000 </r>
       <r>   12.5224    0.0000 </r>
       <r>   13.2585    0.0000 </r>
       <r>   14.7145    0.0000 </r>
       <r>   14.9781    0.0000 </r>
       <r>   15.2653    0.0000 </r>
       <r>   15.3761    0.0000 </r>
       <r>   15.5746    0.0000 </r>
       <r>   16.3785    0.0000 </r>
      </set>
      <set comment="kpoint 5">
       <r>  -12.3173    1.0000 </r>
       <r>  -12.1414    1.0000 </r>
       <r>   -8.4651    1.0000 </r>
       <r>   -8.4141    1.0000 </r>
       <r>   -6.1439    1.0000 </r>
       <r>   -6.1395    1.0000 </r>
       <r>   -3.8989    1.0000 </r>
       <r>   -3.5032    1.0000 </r>
       <r>   -3.2994    1.0000 </r>
       <r>   -3.2651    1.0000 </r>
       <r>   -2.3608    1.0000 </r>
       <r>   -2.2323    1.0000 </r>
       <r>   -1.9605    1.0000 </r>
       <r>   -1.9074    1.0000 </r>
       <r>   -0.7379    1.0000 </r>
       <r>   -0.6024    1.0000 </r>
       <r>    0.2571    1.0000 </r>
       <r>    0.2907    1.0000 </r>
       <r>    0.8754    1.0000 </r>
       <r>    1.1928    1.0000 </r>
       <r>    1.5827    1.0000 </r>
       <r>    1.6101    1.0000 </r>
       <r>    5.7279    0.0000 </r>
       <r>    5.7653    0.0000 </r>
       <r>    6.4812    0.0000 </r>
       <r>    6.5451    0.0000 </r>
       <r>    7.3694    0.0000 </r>
       <r>    8.0754    0.0000 </r>
       <r>    8.0970    0.0000 </r>
       <r>    8.4821    0.0000 </r>
       <r>    8.6207    0.0000 </r>
       <r>    8.7911    0.0000 </r>
       <r>   10.5029    0.0000 </r>
       <r>   10.5192    0.0000 </r>
       <r>   10.7625    0.0000 </r>
       <r>   11.2206    0.0000 </r>
       <r>   11.4051    0.0000 </r>
       <r>   11.6013    0.0000 </r>
       <r>   11.9348    0.0000 </r>
       <r>   12.4838    0.0000 </r>
       <r>   12.7179    0.0000 </r>
       <r>   13.2540    0.0000 </r>
       <r>   14.5920    0.0000 </r>
       <r>   14.7369    0.0000 </r>
       <r>   14.8708    0.0000 </r>
       <r>   14.9295    0.0000 </r>
       <r>   16.1036    0.0000 </r>
       <r>   16.4480    0.0000 </r>
      </set>
      <set comment="kpoint 6">
       <r>  -12.7009    1.0000 </r>
       <r>  -11.5613    1.0000 </r>
       <r>   -8.6389    1.0000 </r>
       <r>   -8.3978    1.0000 </r>
       <r>   -6.0364    1.0000 </r>
       <r>   -5.0957    1.0000 </r>
       <r>   -4.6431    1.0000 </r>
       <r>   -4.5725    1.0000 </r>
       <r>   -4.1763    1.0000 </r>
       <r>   -3.5202    1.0000 </r>
       <r>   -3.2862    1.0000 </r>
       <r>   -1.7930    1.0000 </r>
       <r>   -1.0903    1.0000 </r>
       <r>   -1.0338    1.0000 </r>
       <r>   -0.3026    1.0000 </r>
       <r>   -0.2746    1.0000 </r>
       <r>    0.1708    1.0000 </r>
       <r>    0.2491    1.0000 </r>
       <r>    0.6452    1.0000 </r>
       <r>    1.7522    0.9999 </r>
       <r>    1.8321    0.9329 </r>
       <r>    2.2705    0.0000 </r>
       <r>    5.5773    0.0000 </r>
       <r>    5.7091    0.0000 </r>
       <r>    5.7427    0.0000 </r>
       <r>    6.0083    0.0000 </r>
       <r>    7.1017    0.0000 </r>
       <r>    7.8353    0.0000 </r>
       <r>    8.0781    0.0000 </r>
       <r>    8.1893    0.0000 </r>
       <r>    8.8075    0.0000 </r>
       <r>    9.1004    0.0000 </r>
       <r>    9.1514    0.0000 </r>
       <r>   10.5764    0.0000 </r>
       <r>   11.2671    0.0000 </r>
       <r>   11.3999    0.0000 </r>
       <r>   11.5998    0.0000 </r>
       <r>   11.8858    0.0000 </r>
       <r>   12.0527    0.0000 </r>
       <r>   12.6845    0.0000 </r>
       <r>   12.8696    0.0000 </r>
       <r>   13.1902    0.0000 </r>
       <r>   13.1964    0.0000 </r>
       <r>   15.3321    0.0000 </r>
       <r>   15.3818    0.0000 </r>
       <r>   15.8593    0.0000 </r>
       <r>   15.8698    0.0000 </r>
       <r>   16.2215    0.0000 </r>
      </set>
      <set comment="kpoint 7">
       <r>  -12.6572    1.0000 </r>
       <r>  -11.6349    1.0000 </r>
       <r>   -8.6177    1.0000 </r>
       <r>   -8.3867    1.0000 </r>
       <r>   -5.9664    1.0000 </r>
       <r>   -5.4405    1.0000 </r>
       <r>   -4.7677    1.0000 </r>
       <r>   -4.4897    1.0000 </r>
       <r>   -3.7520    1.0000 </r>
       <r>   -3.3670    1.0000 </r>
       <r>   -3.1674    1.0000 </r>
       <r>   -1.7712    1.0000 </r>
       <r>   -1.3964    1.0000 </r>
       <r>   -1.1531    1.0000 </r>
       <r>   -0.2636    1.0000 </r>
       <r>   -0.1939    1.0000 </r>
       <r>    0.1383    1.0000 </r>
       <r>    0.2206    1.0000 </r>
       <r>    0.5425    1.0000 </r>
       <r>    1.6716    1.0000 </r>
       <r>    1.7556    0.9999 </r>
       <r>    2.1397    0.0000 </r>
       <r>    5.6532    0.0000 </r>
       <r>    5.8077    0.0000 </r>
       <r>    5.9365    0.0000 </r>
       <r>    6.1129    0.0000 </r>
       <r>    7.0182    0.0000 </r>
       <r>    7.5101    0.0000 </r>
       <r>    8.2240    0.0000 </r>
       <r>    8.3600    0.0000 </r>
       <r>    9.1314    0.0000 </r>
       <r>    9.1618    0.0000 </r>
       <r>    9.4171    0.0000 </r>
       <r>   10.5015    0.0000 </r>
       <r>   10.8745    0.0000 </r>
       <r>   11.0842    0.0000 </r>
       <r>   11.4545    0.0000 </r>
       <r>   11.8729    0.0000 </r>
       <r>   12.2724    0.0000 </r>
       <r>   12.7396    0.0000 </r>
       <r>   12.8679    0.0000 </r>
       <r>   13.1530    0.0000 </r>
       <r>   13.7296    0.0000 </r>
       <r>   14.9557    0.0000 </r>
       <r>   15.3995    0.0000 </r>
       <r>   15.7512    0.0000 </r>
       <r>   15.7968    0.0000 </r>
       <r>   16.4016    0.0000 </r>
      </set>
      <set comment="kpoint 8">
       <r>  -12.5718    1.0000 </r>
       <r>  -11.7676    1.0000 </r>
       <r>   -8.5739    1.0000 </r>
       <r>   -8.3726    1.0000 </r>
       <r>   -5.9421    1.0000 </r>
       <r>   -5.7668    1.0000 </r>
       <r>   -4.7251    1.0000 </r>
       <r>   -4.3811    1.0000 </r>
       <r>   -3.4890    1.0000 </r>
       <r>   -3.2260    1.0000 </r>
       <r>   -2.7008    1.0000 </r>
       <r>   -1.9016    1.0000 </r>
       <r>   -1.7269    1.0000 </r>
       <r>   -1.3163    1.0000 </r>
       <r>   -0.2206    1.0000 </r>
       <r>   -0.2164    1.0000 </r>
       <r>    0.0536    1.0000 </r>
       <r>    0.2078    1.0000 </r>
       <r>    0.4661    1.0000 </r>
       <r>    1.5366    1.0000 </r>
       <r>    1.6255    1.0000 </r>
       <r>    1.8914    0.4294 </r>
       <r>    5.8569    0.0000 </r>
       <r>    5.9353    0.0000 </r>
       <r>    6.0130    0.0000 </r>
       <r>    6.5617    0.0000 </r>
       <r>    6.8975    0.0000 </r>
       <r>    7.2821    0.0000 </r>
       <r>    8.4302    0.0000 </r>
       <r>    8.4931    0.0000 </r>
       <r>    9.1019    0.0000 </r>
       <r>    9.6144    0.0000 </r>
       <r>    9.8750    0.0000 </r>
       <r>   10.1258    0.0000 </r>
       <r>   10.3544    0.0000 </r>
       <r>   10.8242    0.0000 </r>
       <r>   11.5204    0.0000 </r>
       <r>   12.1073    0.0000 </r>
       <r>   12.3095    0.0000 </r>
       <r>   12.5562    0.0000 </r>
       <r>   12.9594    0.0000 </r>
       <r>   13.0242    0.0000 </r>
       <r>   14.3066    0.0000 </r>
       <r>   15.0872    0.0000 </r>
       <r>   15.1633    0.0000 </r>
       <r>   15.6466    0.0000 </r>
       <r>   15.7100    0.0000 </r>
       <r>   16.4217    0.0000 </r>
      </set>
      <set comment="kpoint 9">
       <r>  -12.4486    1.0000 </r>
       <r>  -11.9367    1.0000 </r>
       <r>   -8.5118    1.0000 </r>
       <r>   -8.3704    1.0000 </r>
       <r>   -6.0217    1.0000 </r>
       <r>   -5.9990    1.0000 </r>
       <r>   -4.3998    1.0000 </r>
       <r>   -4.2339    1.0000 </r>
       <r>   -3.6607    1.0000 </r>
       <r>   -2.8462    1.0000 </r>
       <r>   -2.3614    1.0000 </r>
       <r>   -2.2176    1.0000 </r>
       <r>   -1.6626    1.0000 </r>
       <r>   -1.4796    1.0000 </r>
       <r>   -0.4788    1.0000 </r>
       <r>   -0.3071    1.0000 </r>
       <r>    0.0857    1.0000 </r>
       <r>    0.1156    1.0000 </r>
       <r>    0.6254    1.0000 </r>
       <r>    1.3970    1.0000 </r>
       <r>    1.4801    1.0000 </r>
       <r>    1.5673    1.0000 </r>
       <r>    5.8749    0.0000 </r>
       <r>    6.0089    0.0000 </r>
       <r>    6.5183    0.0000 </r>
       <r>    6.8078    0.0000 </r>
       <r>    6.8807    0.0000 </r>
       <r>    7.3731    0.0000 </r>
       <r>    8.4189    0.0000 </r>
       <r>    8.6009    0.0000 </r>
       <r>    8.9406    0.0000 </r>
       <r>    9.3718    0.0000 </r>
       <r>   10.0734    0.0000 </r>
       <r>   10.0998    0.0000 </r>
       <r>   10.4426    0.0000 </r>
       <r>   11.2273    0.0000 </r>
       <r>   11.3651    0.0000 </r>
       <r>   11.8427    0.0000 </r>
       <r>   12.2943    0.0000 </r>
       <r>   12.5468    0.0000 </r>
       <r>   12.7225    0.0000 </r>
       <r>   13.4610    0.0000 </r>
       <r>   14.7669    0.0000 </r>
       <r>   14.7746    0.0000 </r>
       <r>   15.1556    0.0000 </r>
       <r>   15.3086    0.0000 </r>
       <r>   15.6533    0.0000 </r>
       <r>   16.3917    0.0000 </r>
      </set>
      <set comment="kpoint 10">
       <r>  -12.2941    1.0000 </r>
       <r>  -12.1187    1.0000 </r>
       <r>   -8.4454    1.0000 </r>
       <r>   -8.3938    1.0000 </r>
       <r>   -6.1118    1.0000 </r>
       <r>   -6.1069    1.0000 </r>
       <r>   -4.0547    1.0000 </r>
       <r>   -3.8916    1.0000 </r>
       <r>   -3.8505    1.0000 </r>
       <r>   -3.2866    1.0000 </r>
       <r>   -2.1074    1.0000 </r>
       <r>   -1.9134    1.0000 </r>
       <r>   -1.5944    1.0000 </r>
       <r>   -1.5917    1.0000 </r>
       <r>   -0.6997    1.0000 </r>
       <r>   -0.5986    1.0000 </r>
       <r>    0.1187    1.0000 </r>
       <r>    0.1498    1.0000 </r>
       <r>    0.8848    1.0000 </r>
       <r>    1.1992    1.0000 </r>
       <r>    1.3434    1.0000 </r>
       <r>    1.3676    1.0000 </r>
       <r>    5.9260    0.0000 </r>
       <r>    5.9917    0.0000 </r>
       <r>    6.7968    0.0000 </r>
       <r>    6.8472    0.0000 </r>
       <r>    7.1860    0.0000 </r>
       <r>    7.8985    0.0000 </r>
       <r>    7.9437    0.0000 </r>
       <r>    8.6263    0.0000 </r>
       <r>    8.6935    0.0000 </r>
       <r>    8.8064    0.0000 </r>
       <r>   10.3215    0.0000 </r>
       <r>   10.5698    0.0000 </r>
       <r>   10.8066    0.0000 </r>
       <r>   10.9109    0.0000 </r>
       <r>   11.5523    0.0000 </r>
       <r>   11.6605    0.0000 </r>
       <r>   12.0141    0.0000 </r>
       <r>   12.6530    0.0000 </r>
       <r>   13.0266    0.0000 </r>
       <r>   13.4855    0.0000 </r>
       <r>   14.5501    0.0000 </r>
       <r>   14.7347    0.0000 </r>
       <r>   14.8318    0.0000 </r>
       <r>   15.0490    0.0000 </r>
       <r>   16.1280    0.0000 </r>
       <r>   16.4224    0.0000 </r>
      </set>
      <set comment="kpoint 11">
       <r>  -12.6565    1.0000 </r>
       <r>  -11.5215    1.0000 </r>
       <r>   -8.6045    1.0000 </r>
       <r>   -8.3551    1.0000 </r>
       <r>   -5.9869    1.0000 </r>
       <r>   -5.1295    1.0000 </r>
       <r>   -5.0048    1.0000 </r>
       <r>   -4.6013    1.0000 </r>
       <r>   -4.1602    1.0000 </r>
       <r>   -3.9084    1.0000 </r>
       <r>   -3.4670    1.0000 </r>
       <r>   -1.2037    1.0000 </r>
       <r>   -1.0809    1.0000 </r>
       <r>   -0.6467    1.0000 </r>
       <r>   -0.5408    1.0000 </r>
       <r>   -0.1752    1.0000 </r>
       <r>    0.1920    1.0000 </r>
       <r>    0.3020    1.0000 </r>
       <r>    0.7237    1.0000 </r>
       <r>    1.3693    1.0000 </r>
       <r>    1.4329    1.0000 </r>
       <r>    2.3086    0.0000 </r>
       <r>    5.2879    0.0000 </r>
       <r>    5.4536    0.0000 </r>
       <r>    6.1241    0.0000 </r>
       <r>    6.1968    0.0000 </r>
       <r>    7.5372    0.0000 </r>
       <r>    7.6258    0.0000 </r>
       <r>    8.3179    0.0000 </r>
       <r>    8.7275    0.0000 </r>
       <r>    8.8834    0.0000 </r>
       <r>    9.2422    0.0000 </r>
       <r>    9.3719    0.0000 </r>
       <r>   10.8820    0.0000 </r>
       <r>   11.3188    0.0000 </r>
       <r>   11.5728    0.0000 </r>
       <r>   11.7012    0.0000 </r>
       <r>   12.0865    0.0000 </r>
       <r>   12.2689    0.0000 </r>
       <r>   12.7465    0.0000 </r>
       <r>   12.7600    0.0000 </r>
       <r>   13.0067    0.0000 </r>
       <r>   13.2246    0.0000 </r>
       <r>   14.6764    0.0000 </r>
       <r>   15.1613    0.0000 </r>
       <r>   15.3431    0.0000 </r>
       <r>   15.4306    0.0000 </r>
       <r>   15.9621    0.0000 </r>
      </set>
      <set comment="kpoint 12">
       <r>  -12.6131    1.0000 </r>
       <r>  -11.5949    1.0000 </r>
       <r>   -8.5830    1.0000 </r>
       <r>   -8.3447    1.0000 </r>
       <r>   -5.9135    1.0000 </r>
       <r>   -5.3923    1.0000 </r>
       <r>   -5.0308    1.0000 </r>
       <r>   -4.7300    1.0000 </r>
       <r>   -3.9746    1.0000 </r>
       <r>   -3.7099    1.0000 </r>
       <r>   -3.1280    1.0000 </r>
       <r>   -1.3882    1.0000 </r>
       <r>   -1.1773    1.0000 </r>
       <r>   -0.7539    1.0000 </r>
       <r>   -0.5027    1.0000 </r>
       <r>   -0.0942    1.0000 </r>
       <r>    0.1725    1.0000 </r>
       <r>    0.2458    1.0000 </r>
       <r>    0.6112    1.0000 </r>
       <r>    1.2902    1.0000 </r>
       <r>    1.3632    1.0000 </r>
       <r>    2.1728    0.0000 </r>
       <r>    5.3682    0.0000 </r>
       <r>    5.7997    0.0000 </r>
       <r>    6.1427    0.0000 </r>
       <r>    6.2386    0.0000 </r>
       <r>    7.4565    0.0000 </r>
       <r>    7.7823    0.0000 </r>
       <r>    8.0501    0.0000 </r>
       <r>    8.8184    0.0000 </r>
       <r>    9.2540    0.0000 </r>
       <r>    9.2872    0.0000 </r>
       <r>    9.6566    0.0000 </r>
       <r>   10.5175    0.0000 </r>
       <r>   10.7798    0.0000 </r>
       <r>   11.2765    0.0000 </r>
       <r>   11.7192    0.0000 </r>
       <r>   12.1986    0.0000 </r>
       <r>   12.4314    0.0000 </r>
       <r>   12.5011    0.0000 </r>
       <r>   13.1629    0.0000 </r>
       <r>   13.2731    0.0000 </r>
       <r>   13.4379    0.0000 </r>
       <r>   14.6866    0.0000 </r>
       <r>   14.8228    0.0000 </r>
       <r>   15.2839    0.0000 </r>
       <r>   15.4945    0.0000 </r>
       <r>   15.9881    0.0000 </r>
      </set>
      <set comment="kpoint 13">
       <r>  -12.5280    1.0000 </r>
       <r>  -11.7271    1.0000 </r>
       <r>   -8.5388    1.0000 </r>
       <r>   -8.3320    1.0000 </r>
       <r>   -5.8838    1.0000 </r>
       <r>   -5.7120    1.0000 </r>
       <r>   -4.9391    1.0000 </r>
       <r>   -4.6940    1.0000 </r>
       <r>   -4.0983    1.0000 </r>
       <r>   -3.1757    1.0000 </r>
       <r>   -2.6569    1.0000 </r>
       <r>   -1.8852    1.0000 </r>
       <r>   -1.1367    1.0000 </r>
       <r>   -0.8927    1.0000 </r>
       <r>   -0.4498    1.0000 </r>
       <r>   -0.0851    1.0000 </r>
       <r>    0.0145    1.0000 </r>
       <r>    0.2577    1.0000 </r>
       <r>    0.4961    1.0000 </r>
       <r>    1.1586    1.0000 </r>
       <r>    1.2449    1.0000 </r>
       <r>    1.9162    0.1895 </r>
       <r>    5.6895    0.0000 </r>
       <r>    6.0977    0.0000 </r>
       <r>    6.2760    0.0000 </r>
       <r>    6.3684    0.0000 </r>
       <r>    7.3540    0.0000 </r>
       <r>    7.8608    0.0000 </r>
       <r>    8.0163    0.0000 </r>
       <r>    8.9471    0.0000 </r>
       <r>    9.2477    0.0000 </r>
       <r>    9.7202    0.0000 </r>
       <r>    9.8526    0.0000 </r>
       <r>   10.1387    0.0000 </r>
       <r>   10.2548    0.0000 </r>
       <r>   11.0631    0.0000 </r>
       <r>   11.5873    0.0000 </r>
       <r>   12.1056    0.0000 </r>
       <r>   12.5098    0.0000 </r>
       <r>   12.8019    0.0000 </r>
       <r>   13.0454    0.0000 </r>
       <r>   13.4470    0.0000 </r>
       <r>   13.9603    0.0000 </r>
       <r>   14.5952    0.0000 </r>
       <r>   14.8726    0.0000 </r>
       <r>   15.3041    0.0000 </r>
       <r>   15.5138    0.0000 </r>
       <r>   16.1986    0.0000 </r>
      </set>
      <set comment="kpoint 14">
       <r>  -12.4052    1.0000 </r>
       <r>  -11.8954    1.0000 </r>
       <r>   -8.4763    1.0000 </r>
       <r>   -8.3314    1.0000 </r>
       <r>   -5.9610    1.0000 </r>
       <r>   -5.9413    1.0000 </r>
       <r>   -4.8032    1.0000 </r>
       <r>   -4.3730    1.0000 </r>
       <r>   -4.2630    1.0000 </r>
       <r>   -2.8075    1.0000 </r>
       <r>   -2.3204    1.0000 </r>
       <r>   -2.1764    1.0000 </r>
       <r>   -1.0801    1.0000 </r>
       <r>   -1.0295    1.0000 </r>
       <r>   -0.4550    1.0000 </r>
       <r>   -0.3711    1.0000 </r>
       <r>    0.0584    1.0000 </r>
       <r>    0.0623    1.0000 </r>
       <r>    0.6430    1.0000 </r>
       <r>    1.0290    1.0000 </r>
       <r>    1.1121    1.0000 </r>
       <r>    1.5812    1.0000 </r>
       <r>    6.1089    0.0000 </r>
       <r>    6.2248    0.0000 </r>
       <r>    6.4000    0.0000 </r>
       <r>    6.8032    0.0000 </r>
       <r>    7.2981    0.0000 </r>
       <r>    7.7820    0.0000 </r>
       <r>    8.0714    0.0000 </r>
       <r>    9.0466    0.0000 </r>
       <r>    9.1048    0.0000 </r>
       <r>    9.1772    0.0000 </r>
       <r>    9.8889    0.0000 </r>
       <r>   10.1877    0.0000 </r>
       <r>   10.7023    0.0000 </r>
       <r>   11.0787    0.0000 </r>
       <r>   11.3264    0.0000 </r>
       <r>   11.9517    0.0000 </r>
       <r>   12.3569    0.0000 </r>
       <r>   12.9865    0.0000 </r>
       <r>   13.0372    0.0000 </r>
       <r>   13.7912    0.0000 </r>
       <r>   14.3817    0.0000 </r>
       <r>   14.3974    0.0000 </r>
       <r>   15.0311    0.0000 </r>
       <r>   15.1249    0.0000 </r>
       <r>   15.6150    0.0000 </r>
       <r>   16.3760    0.0000 </r>
      </set>
      <set comment="kpoint 15">
       <r>  -12.2514    1.0000 </r>
       <r>  -12.0767    1.0000 </r>
       <r>   -8.4092    1.0000 </r>
       <r>   -8.3565    1.0000 </r>
       <r>   -6.0522    1.0000 </r>
       <r>   -6.0463    1.0000 </r>
       <r>   -4.6353    1.0000 </r>
       <r>   -4.4495    1.0000 </r>
       <r>   -3.8603    1.0000 </r>
       <r>   -3.2640    1.0000 </r>
       <r>   -2.0385    1.0000 </r>
       <r>   -1.8728    1.0000 </r>
       <r>   -1.1012    1.0000 </r>
       <r>   -1.0396    1.0000 </r>
       <r>   -0.6286    1.0000 </r>
       <r>   -0.6220    1.0000 </r>
       <r>    0.0088    1.0000 </r>
       <r>    0.0523    1.0000 </r>
       <r>    0.9005    1.0000 </r>
       <r>    0.9667    1.0000 </r>
       <r>    1.0075    1.0000 </r>
       <r>    1.2277    1.0000 </r>
       <r>    6.2005    0.0000 </r>
       <r>    6.3187    0.0000 </r>
       <r>    6.8777    0.0000 </r>
       <r>    7.2174    0.0000 </r>
       <r>    7.2760    0.0000 </r>
       <r>    7.6223    0.0000 </r>
       <r>    7.9292    0.0000 </r>
       <r>    8.4407    0.0000 </r>
       <r>    9.1026    0.0000 </r>
       <r>    9.1347    0.0000 </r>
       <r>   10.0126    0.0000 </r>
       <r>   10.4846    0.0000 </r>
       <r>   10.7089    0.0000 </r>
       <r>   10.9793    0.0000 </r>
       <r>   11.7325    0.0000 </r>
       <r>   11.7507    0.0000 </r>
       <r>   12.1351    0.0000 </r>
       <r>   12.9106    0.0000 </r>
       <r>   13.4166    0.0000 </r>
       <r>   13.7640    0.0000 </r>
       <r>   14.2291    0.0000 </r>
       <r>   14.3836    0.0000 </r>
       <r>   14.9942    0.0000 </r>
       <r>   15.1339    0.0000 </r>
       <r>   15.9916    0.0000 </r>
       <r>   16.2956    0.0000 </r>
      </set>
      <set comment="kpoint 16">
       <r>  -12.5990    1.0000 </r>
       <r>  -11.4701    1.0000 </r>
       <r>   -8.5606    1.0000 </r>
       <r>   -8.2998    1.0000 </r>
       <r>   -5.9227    1.0000 </r>
       <r>   -5.6106    1.0000 </r>
       <r>   -4.9346    1.0000 </r>
       <r>   -4.5450    1.0000 </r>
       <r>   -4.4287    1.0000 </r>
       <r>   -4.1208    1.0000 </r>
       <r>   -3.4050    1.0000 </r>
       <r>   -1.2192    1.0000 </r>
       <r>   -1.0667    1.0000 </r>
       <r>   -1.0014    1.0000 </r>
       <r>   -0.1935    1.0000 </r>
       <r>    0.2203    1.0000 </r>
       <r>    0.3454    1.0000 </r>
       <r>    0.5957    1.0000 </r>
       <r>    0.7875    1.0000 </r>
       <r>    0.9841    1.0000 </r>
       <r>    0.9982    1.0000 </r>
       <r>    2.3429    0.0000 </r>
       <r>    4.9443    0.0000 </r>
       <r>    5.1600    0.0000 </r>
       <r>    6.3573    0.0000 </r>
       <r>    6.5866    0.0000 </r>
       <r>    7.2672    0.0000 </r>
       <r>    7.9684    0.0000 </r>
       <r>    8.7017    0.0000 </r>
       <r>    9.0591    0.0000 </r>
       <r>    9.4651    0.0000 </r>
       <r>    9.5802    0.0000 </r>
       <r>    9.6532    0.0000 </r>
       <r>   10.7435    0.0000 </r>
       <r>   11.2694    0.0000 </r>
       <r>   11.9663    0.0000 </r>
       <r>   12.0177    0.0000 </r>
       <r>   12.2953    0.0000 </r>
       <r>   12.4238    0.0000 </r>
       <r>   12.4480    0.0000 </r>
       <r>   12.5652    0.0000 </r>
       <r>   12.9921    0.0000 </r>
       <r>   13.7939    0.0000 </r>
       <r>   13.8803    0.0000 </r>
       <r>   14.4178    0.0000 </r>
       <r>   15.1028    0.0000 </r>
       <r>   15.4032    0.0000 </r>
       <r>   15.8604    0.0000 </r>
      </set>
      <set comment="kpoint 17">
       <r>  -12.5558    1.0000 </r>
       <r>  -11.5432    1.0000 </r>
       <r>   -8.5386    1.0000 </r>
       <r>   -8.2904    1.0000 </r>
       <r>   -5.8446    1.0000 </r>
       <r>   -5.5758    1.0000 </r>
       <r>   -5.2719    1.0000 </r>
       <r>   -4.6800    1.0000 </r>
       <r>   -4.4942    1.0000 </r>
       <r>   -3.6560    1.0000 </r>
       <r>   -3.0663    1.0000 </r>
       <r>   -1.3821    1.0000 </r>
       <r>   -1.1618    1.0000 </r>
       <r>   -1.0162    1.0000 </r>
       <r>   -0.1949    1.0000 </r>
       <r>    0.2053    1.0000 </r>
       <r>    0.2774    1.0000 </r>
       <r>    0.5750    1.0000 </r>
       <r>    0.6660    1.0000 </r>
       <r>    0.9187    1.0000 </r>
       <r>    0.9568    1.0000 </r>
       <r>    2.2051    0.0000 </r>
       <r>    5.0403    0.0000 </r>
       <r>    5.4916    0.0000 </r>
       <r>    6.3033    0.0000 </r>
       <r>    6.7183    0.0000 </r>
       <r>    7.4028    0.0000 </r>
       <r>    7.9258    0.0000 </r>
       <r>    8.6346    0.0000 </r>
       <r>    9.1754    0.0000 </r>
       <r>    9.4289    0.0000 </r>
       <r>    9.7903    0.0000 </r>
       <r>    9.8974    0.0000 </r>
       <r>   10.3357    0.0000 </r>
       <r>   10.7072    0.0000 </r>
       <r>   11.7057    0.0000 </r>
       <r>   11.8856    0.0000 </r>
       <r>   12.2453    0.0000 </r>
       <r>   12.4788    0.0000 </r>
       <r>   12.6424    0.0000 </r>
       <r>   12.9611    0.0000 </r>
       <r>   13.3920    0.0000 </r>
       <r>   13.7916    0.0000 </r>
       <r>   13.9243    0.0000 </r>
       <r>   14.2546    0.0000 </r>
       <r>   15.0775    0.0000 </r>
       <r>   15.4322    0.0000 </r>
       <r>   15.7312    0.0000 </r>
      </set>
      <set comment="kpoint 18">
       <r>  -12.4712    1.0000 </r>
       <r>  -11.6747    1.0000 </r>
       <r>   -8.4939    1.0000 </r>
       <r>   -8.2795    1.0000 </r>
       <r>   -5.8074    1.0000 </r>
       <r>   -5.6600    1.0000 </r>
       <r>   -5.4203    1.0000 </r>
       <r>   -4.6542    1.0000 </r>
       <r>   -4.6166    1.0000 </r>
       <r>   -3.1164    1.0000 </r>
       <r>   -2.5965    1.0000 </r>
       <r>   -1.8663    1.0000 </r>
       <r>   -1.1011    1.0000 </r>
       <r>   -1.0349    1.0000 </r>
       <r>   -0.2132    1.0000 </r>
       <r>   -0.0491    1.0000 </r>
       <r>    0.3157    1.0000 </r>
       <r>    0.5071    1.0000 </r>
       <r>    0.5234    1.0000 </r>
       <r>    0.8303    1.0000 </r>
       <r>    0.8898    1.0000 </r>
       <r>    1.9448    0.0457 </r>
       <r>    5.3660    0.0000 </r>
       <r>    5.9665    0.0000 </r>
       <r>    6.2760    0.0000 </r>
       <r>    6.8312    0.0000 </r>
       <r>    7.5705    0.0000 </r>
       <r>    7.9460    0.0000 </r>
       <r>    8.5601    0.0000 </r>
       <r>    9.3643    0.0000 </r>
       <r>    9.3951    0.0000 </r>
       <r>    9.5923    0.0000 </r>
       <r>   10.0436    0.0000 </r>
       <r>   10.1125    0.0000 </r>
       <r>   10.5601    0.0000 </r>
       <r>   11.3873    0.0000 </r>
       <r>   11.3978    0.0000 </r>
       <r>   12.2387    0.0000 </r>
       <r>   12.7410    0.0000 </r>
       <r>   12.9564    0.0000 </r>
       <r>   13.1805    0.0000 </r>
       <r>   13.5221    0.0000 </r>
       <r>   13.7653    0.0000 </r>
       <r>   14.0165    0.0000 </r>
       <r>   14.3903    0.0000 </r>
       <r>   15.1689    0.0000 </r>
       <r>   15.3586    0.0000 </r>
       <r>   15.9923    0.0000 </r>
      </set>
      <set comment="kpoint 19">
       <r>  -12.3491    1.0000 </r>
       <r>  -11.8421    1.0000 </r>
       <r>   -8.4307    1.0000 </r>
       <r>   -8.2812    1.0000 </r>
       <r>   -5.8814    1.0000 </r>
       <r>   -5.8687    1.0000 </r>
       <r>   -5.3071    1.0000 </r>
       <r>   -4.7811    1.0000 </r>
       <r>   -4.3373    1.0000 </r>
       <r>   -2.7627    1.0000 </r>
       <r>   -2.2779    1.0000 </r>
       <r>   -2.1207    1.0000 </r>
       <r>   -1.0430    1.0000 </r>
       <r>   -1.0164    1.0000 </r>
       <r>   -0.3732    1.0000 </r>
       <r>   -0.3285    1.0000 </r>
       <r>    0.1525    1.0000 </r>
       <r>    0.3764    1.0000 </r>
       <r>    0.6630    1.0000 </r>
       <r>    0.7743    1.0000 </r>
       <r>    0.8235    1.0000 </r>
       <r>    1.6059    1.0000 </r>
       <r>    5.8935    0.0000 </r>
       <r>    6.3080    0.0000 </r>
       <r>    6.5455    0.0000 </r>
       <r>    6.7832    0.0000 </r>
       <r>    7.5700    0.0000 </r>
       <r>    8.0042    0.0000 </r>
       <r>    8.5140    0.0000 </r>
       <r>    8.9155    0.0000 </r>
       <r>    9.2716    0.0000 </r>
       <r>    9.5833    0.0000 </r>
       <r>    9.9050    0.0000 </r>
       <r>   10.3453    0.0000 </r>
       <r>   10.7946    0.0000 </r>
       <r>   11.0934    0.0000 </r>
       <r>   11.4433    0.0000 </r>
       <r>   12.1682    0.0000 </r>
       <r>   12.4225    0.0000 </r>
       <r>   13.1594    0.0000 </r>
       <r>   13.2802    0.0000 </r>
       <r>   13.6603    0.0000 </r>
       <r>   13.9011    0.0000 </r>
       <r>   14.1518    0.0000 </r>
       <r>   14.7581    0.0000 </r>
       <r>   14.9926    0.0000 </r>
       <r>   15.4343    0.0000 </r>
       <r>   16.3281    0.0000 </r>
      </set>
      <set comment="kpoint 20">
       <r>  -12.1962    1.0000 </r>
       <r>  -12.0224    1.0000 </r>
       <r>   -8.3627    1.0000 </r>
       <r>   -8.3085    1.0000 </r>
       <r>   -5.9748    1.0000 </r>
       <r>   -5.9669    1.0000 </r>
       <r>   -5.1458    1.0000 </r>
       <r>   -4.9641    1.0000 </r>
       <r>   -3.8282    1.0000 </r>
       <r>   -3.2338    1.0000 </r>
       <r>   -1.9815    1.0000 </r>
       <r>   -1.8268    1.0000 </r>
       <r>   -0.9798    1.0000 </r>
       <r>   -0.9205    1.0000 </r>
       <r>   -0.6709    1.0000 </r>
       <r>   -0.6278    1.0000 </r>
       <r>    0.1281    1.0000 </r>
       <r>    0.2286    1.0000 </r>
       <r>    0.7588    1.0000 </r>
       <r>    0.7747    1.0000 </r>
       <r>    0.9263    1.0000 </r>
       <r>    1.2494    1.0000 </r>
       <r>    6.4412    0.0000 </r>
       <r>    6.5546    0.0000 </r>
       <r>    6.6204    0.0000 </r>
       <r>    7.1357    0.0000 </r>
       <r>    7.2060    0.0000 </r>
       <r>    7.6928    0.0000 </r>
       <r>    8.5028    0.0000 </r>
       <r>    8.5670    0.0000 </r>
       <r>    9.4658    0.0000 </r>
       <r>    9.6390    0.0000 </r>
       <r>    9.8449    0.0000 </r>
       <r>   10.1417    0.0000 </r>
       <r>   10.8590    0.0000 </r>
       <r>   11.2335    0.0000 </r>
       <r>   11.8698    0.0000 </r>
       <r>   11.9448    0.0000 </r>
       <r>   12.2567    0.0000 </r>
       <r>   13.1473    0.0000 </r>
       <r>   13.4381    0.0000 </r>
       <r>   13.6237    0.0000 </r>
       <r>   13.8392    0.0000 </r>
       <r>   13.9478    0.0000 </r>
       <r>   15.1004    0.0000 </r>
       <r>   15.1178    0.0000 </r>
       <r>   15.6677    0.0000 </r>
       <r>   15.9698    0.0000 </r>
      </set>
      <set comment="kpoint 21">
       <r>  -12.5389    1.0000 </r>
[...]
       <r>   -2.3152    1.0000 </r>
       <r>   -2.1466    1.0000 </r>
       <r>   -1.9827    1.0000 </r>
       <r>   -1.4904    1.0000 </r>
       <r>   -0.7375    1.0000 </r>
       <r>   -0.2016    1.0000 </r>
       <r>    0.1662    1.0000 </r>
       <r>    0.3856    1.0000 </r>
       <r>    0.5135    1.0000 </r>
       <r>    1.5893    1.0000 </r>
       <r>    1.6164    1.0000 </r>
       <r>    1.8719    0.6456 </r>
       <r>    5.5122    0.0000 </r>
       <r>    6.1469    0.0000 </r>
       <r>    6.6675    0.0000 </r>
       <r>    7.2181    0.0000 </r>
       <r>    7.7819    0.0000 </r>
       <r>    8.2250    0.0000 </r>
       <r>    8.9915    0.0000 </r>
       <r>    9.1509    0.0000 </r>
       <r>    9.7202    0.0000 </r>
       <r>    9.9558    0.0000 </r>
       <r>   10.5869    0.0000 </r>
       <r>   11.0307    0.0000 </r>
       <r>   11.2060    0.0000 </r>
       <r>   11.4776    0.0000 </r>
       <r>   11.5664    0.0000 </r>
       <r>   11.9494    0.0000 </r>
       <r>   12.8368    0.0000 </r>
       <r>   13.1440    0.0000 </r>
       <r>   13.3673    0.0000 </r>
       <r>   13.7479    0.0000 </r>
       <r>   13.8720    0.0000 </r>
       <r>   14.1550    0.0000 </r>
       <r>   14.4762    0.0000 </r>
       <r>   14.9661    0.0000 </r>
       <r>   15.0933    0.0000 </r>
       <r>   15.3936    0.0000 </r>
      </set>
      <set comment="kpoint 175">
       <r>  -12.0208    1.0000 </r>
       <r>  -11.8817    1.0000 </r>
       <r>   -8.5469    1.0000 </r>
       <r>   -8.4346    1.0000 </r>
       <r>   -5.9263    1.0000 </r>
       <r>   -5.8201    1.0000 </r>
       <r>   -4.8916    1.0000 </r>
       <r>   -4.5680    1.0000 </r>
       <r>   -4.4134    1.0000 </r>
       <r>   -3.9751    1.0000 </r>
       <r>   -2.1987    1.0000 </r>
       <r>   -2.1372    1.0000 </r>
       <r>   -2.0574    1.0000 </r>
       <r>   -1.7730    1.0000 </r>
       <r>   -0.2192    1.0000 </r>
       <r>   -0.0057    1.0000 </r>
       <r>    0.3885    1.0000 </r>
       <r>    0.4765    1.0000 </r>
       <r>    0.5484    1.0000 </r>
       <r>    0.8747    1.0000 </r>
       <r>    1.6305    1.0000 </r>
       <r>    1.7302    1.0000 </r>
       <r>    5.8592    0.0000 </r>
       <r>    6.0448    0.0000 </r>
       <r>    6.8697    0.0000 </r>
       <r>    7.4068    0.0000 </r>
       <r>    7.4736    0.0000 </r>
       <r>    7.5765    0.0000 </r>
       <r>    9.3961    0.0000 </r>
       <r>    9.5802    0.0000 </r>
       <r>    9.7890    0.0000 </r>
       <r>    9.9666    0.0000 </r>
       <r>   10.4635    0.0000 </r>
       <r>   10.8134    0.0000 </r>
       <r>   11.2350    0.0000 </r>
       <r>   11.5082    0.0000 </r>
       <r>   11.5187    0.0000 </r>
       <r>   11.6119    0.0000 </r>
       <r>   13.0812    0.0000 </r>
       <r>   13.1873    0.0000 </r>
       <r>   13.7203    0.0000 </r>
       <r>   14.0534    0.0000 </r>
       <r>   14.1877    0.0000 </r>
       <r>   14.2901    0.0000 </r>
       <r>   14.5925    0.0000 </r>
       <r>   14.7363    0.0000 </r>
       <r>   14.8846    0.0000 </r>
       <r>   15.0464    0.0000 </r>
      </set>
     </set>
    </set>
   </array>
  </eigenvalues>
  <separator name="orbital magnetization" >
   <v name="MAGDIPOLOUT">      0.00000000      0.00000000      0.00000000</v>
  </separator>
  <dos>
   <i name="efermi">      1.88507724 </i>
   <total>
    <array>
     <dimension dim="1">gridpoints</dimension>
     <dimension dim="2">spin</dimension>
     <field>energy</field>
     <field>total</field>
     <field>integrated</field>
     <set>
      <set comment="spin 1">
       <r>   -14.1869     0.0000     0.0000 </r>
       <r>   -14.0797     0.0000     0.0000 </r>
       <r>   -13.9725     0.0000     0.0000 </r>
       <r>   -13.8652     0.0000     0.0000 </r>
       <r>   -13.7580     0.0000     0.0000 </r>
       <r>   -13.6508     0.0000     0.0000 </r>
       <r>   -13.5436     0.0000     0.0000 </r>
       <r>   -13.4364     0.0000     0.0000 </r>
       <r>   -13.3292     0.0000     0.0000 </r>
       <r>   -13.2220     0.0000     0.0000 </r>
       <r>   -13.1148     0.0000     0.0000 </r>
       <r>   -13.0076     0.0000     0.0000 </r>
       <r>   -12.9003     0.0000     0.0000 </r>
       <r>   -12.7931     0.0038     0.0004 </r>
       <r>   -12.6859     0.5086     0.0549 </r>
       <r>   -12.5787     2.3904     0.3112 </r>
       <r>   -12.4715     3.5637     0.6933 </r>
       <r>   -12.3643     4.3709     1.1619 </r>
       <r>   -12.2571     3.5387     1.5413 </r>
       <r>   -12.1499     2.7348     1.8345 </r>
       <r>   -12.0427     2.7508     2.1294 </r>
       <r>   -11.9354     2.5046     2.3979 </r>
       <r>   -11.8282     2.7709     2.6950 </r>
       <r>   -11.7210     3.4265     3.0624 </r>
       <r>   -11.6138     3.5349     3.4413 </r>
       <r>   -11.5066     3.1147     3.7753 </r>
       <r>   -11.3994     1.6677     3.9541 </r>
       <r>   -11.2922     0.4213     3.9992 </r>
       <r>   -11.1850     0.0072     4.0000 </r>
       <r>   -11.0778     0.0000     4.0000 </r>
       <r>   -10.9705     0.0000     4.0000 </r>
       <r>   -10.8633     0.0000     4.0000 </r>
       <r>   -10.7561     0.0000     4.0000 </r>
       <r>   -10.6489     0.0000     4.0000 </r>
       <r>   -10.5417     0.0000     4.0000 </r>
       <r>   -10.4345     0.0000     4.0000 </r>
       <r>   -10.3273     0.0000     4.0000 </r>
       <r>   -10.2201     0.0000     4.0000 </r>
       <r>   -10.1128     0.0000     4.0000 </r>
       <r>   -10.0056     0.0000     4.0000 </r>
       <r>    -9.8984     0.0000     4.0000 </r>
       <r>    -9.7912     0.0000     4.0000 </r>
       <r>    -9.6840     0.0000     4.0000 </r>
       <r>    -9.5768     0.0000     4.0000 </r>
       <r>    -9.4696     0.0000     4.0000 </r>
       <r>    -9.3624     0.0000     4.0000 </r>
       <r>    -9.2552     0.0000     4.0000 </r>
       <r>    -9.1479     0.0000     4.0000 </r>
       <r>    -9.0407     0.0000     4.0000 </r>
       <r>    -8.9335     0.0006     4.0001 </r>
       <r>    -8.8263     0.2758     4.0296 </r>
       <r>    -8.7191     2.0898     4.2537 </r>
       <r>    -8.6119     5.3302     4.8251 </r>
       <r>    -8.5047     6.9878     5.5743 </r>
       <r>    -8.3975     6.2971     6.2494 </r>
       <r>    -8.2903     5.3246     6.8203 </r>
       <r>    -8.1830     4.8349     7.3386 </r>
       <r>    -8.0758     3.8731     7.7539 </r>
       <r>    -7.9686     1.6662     7.9325 </r>
       <r>    -7.8614     0.5774     7.9944 </r>
       <r>    -7.7542     0.0520     8.0000 </r>
       <r>    -7.6470     0.0000     8.0000 </r>
       <r>    -7.5398     0.0000     8.0000 </r>
       <r>    -7.4326     0.0000     8.0000 </r>
       <r>    -7.3254     0.0000     8.0000 </r>
       <r>    -7.2181     0.0000     8.0000 </r>
       <r>    -7.1109     0.0000     8.0000 </r>
       <r>    -7.0037     0.0004     8.0000 </r>
       <r>    -6.8965     0.1128     8.0121 </r>
       <r>    -6.7893     0.2577     8.0398 </r>
       <r>    -6.6821     0.4259     8.0854 </r>
       <r>    -6.5749     0.7659     8.1675 </r>
       <r>    -6.4677     0.8508     8.2588 </r>
       <r>    -6.3605     1.4446     8.4136 </r>
       <r>    -6.2532     1.9629     8.6241 </r>
       <r>    -6.1460     3.0556     8.9517 </r>
       <r>    -6.0388     3.7836     9.3573 </r>
       <r>    -5.9316     4.1137     9.7983 </r>
       <r>    -5.8244     4.0457    10.2321 </r>
       <r>    -5.7172     3.8617    10.6461 </r>
       <r>    -5.6100     4.0724    11.0827 </r>
       <r>    -5.5028     4.2202    11.5352 </r>
       <r>    -5.3956     4.5445    12.0224 </r>
       <r>    -5.2883     4.5985    12.5154 </r>
       <r>    -5.1811     4.4906    12.9968 </r>
       <r>    -5.0739     3.8691    13.4117 </r>
       <r>    -4.9667     3.2273    13.7577 </r>
       <r>    -4.8595     2.9534    14.0743 </r>
       <r>    -4.7523     2.3360    14.3247 </r>
       <r>    -4.6451     2.8961    14.6352 </r>
       <r>    -4.5379     3.3686    14.9964 </r>
       <r>    -4.4307     3.4703    15.3684 </r>
       <r>    -4.3234     3.3323    15.7257 </r>
       <r>    -4.2162     2.9542    16.0424 </r>
       <r>    -4.1090     2.9071    16.3541 </r>
       <r>    -4.0018     2.9446    16.6698 </r>
       <r>    -3.8946     2.8601    16.9764 </r>
       <r>    -3.7874     3.1187    17.3108 </r>
       <r>    -3.6802     2.8756    17.6191 </r>
       <r>    -3.5730     2.7045    17.9090 </r>
       <r>    -3.4658     3.0648    18.2376 </r>
       <r>    -3.3585     2.6380    18.5205 </r>
       <r>    -3.2513     2.8603    18.8271 </r>
       <r>    -3.1441     2.7456    19.1215 </r>
       <r>    -3.0369     2.7381    19.4150 </r>
       <r>    -2.9297     3.0459    19.7416 </r>
       <r>    -2.8225     2.9743    20.0605 </r>
       <r>    -2.7153     2.4305    20.3210 </r>
       <r>    -2.6081     2.6562    20.6058 </r>
       <r>    -2.5009     3.0198    20.9296 </r>
       <r>    -2.3936     2.9861    21.2497 </r>
       <r>    -2.2864     3.1928    21.5920 </r>
       <r>    -2.1792     4.0096    22.0219 </r>
       <r>    -2.0720     3.6560    22.4138 </r>
       <r>    -1.9648     3.2723    22.7647 </r>
       <r>    -1.8576     5.1228    23.3139 </r>
       <r>    -1.7504     5.5779    23.9119 </r>
       <r>    -1.6432     5.6043    24.5128 </r>
       <r>    -1.5360     6.1815    25.1755 </r>
       <r>    -1.4287     6.1093    25.8305 </r>
       <r>    -1.3215     5.5700    26.4276 </r>
       <r>    -1.2143     4.6827    26.9297 </r>
       <r>    -1.1071     6.4959    27.6261 </r>
       <r>    -0.9999     3.9827    28.0531 </r>
       <r>    -0.8927     2.2701    28.2965 </r>
       <r>    -0.7855     2.6988    28.5858 </r>
       <r>    -0.6783     2.8796    28.8945 </r>
       <r>    -0.5711     4.5190    29.3790 </r>
       <r>    -0.4638     6.8615    30.1147 </r>
       <r>    -0.3566     5.6579    30.7212 </r>
       <r>    -0.2494     6.7039    31.4400 </r>
       <r>    -0.1422     6.3584    32.1217 </r>
       <r>    -0.0350     6.7450    32.8448 </r>
       <r>     0.0722     6.7579    33.5693 </r>
       <r>     0.1794     6.2952    34.2443 </r>
       <r>     0.2866     8.8006    35.1878 </r>
       <r>     0.3938     7.9846    36.0438 </r>
       <r>     0.5011     8.6959    36.9761 </r>
       <r>     0.6083     5.2503    37.5390 </r>
       <r>     0.7155     2.9371    37.8539 </r>
       <r>     0.8227     3.2905    38.2067 </r>
       <r>     0.9299     3.5878    38.5913 </r>
       <r>     1.0371     3.5613    38.9732 </r>
       <r>     1.1443     2.7902    39.2723 </r>
       <r>     1.2515     3.3899    39.6357 </r>
       <r>     1.3587     4.4970    40.1179 </r>
       <r>     1.4660     3.7794    40.5231 </r>
       <r>     1.5732     3.7205    40.9219 </r>
       <r>     1.6804     4.5765    41.4126 </r>
       <r>     1.7876     3.2341    41.7593 </r>
       <r>     1.8948     2.4791    42.0251 </r>
       <r>     2.0020     2.6598    42.3103 </r>
       <r>     2.1092     2.0918    42.5345 </r>
       <r>     2.2164     2.6512    42.8188 </r>
       <r>     2.3236     2.5710    43.0944 </r>
       <r>     2.4309     1.9375    43.3021 </r>
       <r>     2.5381     0.8528    43.3936 </r>
       <r>     2.6453     0.3778    43.4341 </r>
       <r>     2.7525     0.5726    43.4955 </r>
       <r>     2.8597     0.4195    43.5404 </r>
       <r>     2.9669     0.3056    43.5732 </r>
       <r>     3.0741     0.7570    43.6543 </r>
       <r>     3.1813     1.0141    43.7631 </r>
       <r>     3.2886     0.5391    43.8209 </r>
       <r>     3.3958     0.0132    43.8223 </r>
       <r>     3.5030     0.1306    43.8363 </r>
       <r>     3.6102     0.3951    43.8786 </r>
       <r>     3.7174     0.3307    43.9141 </r>
       <r>     3.8246     0.3716    43.9539 </r>
       <r>     3.9318     0.4027    43.9971 </r>
       <r>     4.0390     0.0269    44.0000 </r>
       <r>     4.1462     0.0000    44.0000 </r>
       <r>     4.2535     0.0313    44.0034 </r>
       <r>     4.3607     0.1761    44.0222 </r>
       <r>     4.4679     0.4024    44.0654 </r>
       <r>     4.5751     0.4708    44.1159 </r>
       <r>     4.6823     0.6337    44.1838 </r>
       <r>     4.7895     0.8888    44.2791 </r>
       <r>     4.8967     0.8412    44.3693 </r>
       <r>     5.0039     0.8568    44.4611 </r>
       <r>     5.1111     1.2765    44.5980 </r>
       <r>     5.2184     1.1523    44.7215 </r>
       <r>     5.3256     1.6321    44.8965 </r>
       <r>     5.4328     2.1894    45.1312 </r>
       <r>     5.5400     2.4874    45.3979 </r>
       <r>     5.6472     2.7872    45.6967 </r>
       <r>     5.7544     3.3656    46.0576 </r>
       <r>     5.8616     3.2209    46.4029 </r>
       <r>     5.9688     4.3108    46.8650 </r>
       <r>     6.0760     4.7582    47.3752 </r>
       <r>     6.1833     4.0430    47.8086 </r>
       <r>     6.2905     4.6233    48.3043 </r>
       <r>     6.3977     4.1532    48.7496 </r>
       <r>     6.5049     4.0159    49.1801 </r>
       <r>     6.6121     4.4815    49.6606 </r>
       <r>     6.7193     3.2275    50.0066 </r>
       <r>     6.8265     3.9971    50.4351 </r>
       <r>     6.9337     4.6119    50.9296 </r>
       <r>     7.0409     4.5544    51.4179 </r>
       <r>     7.1482     4.3388    51.8830 </r>
       <r>     7.2554     5.5985    52.4833 </r>
       <r>     7.3626     4.9238    53.0112 </r>
       <r>     7.4698     4.4520    53.4885 </r>
       <r>     7.5770     4.1920    53.9379 </r>
       <r>     7.6842     3.5660    54.3202 </r>
       <r>     7.7914     3.1250    54.6552 </r>
       <r>     7.8986     3.0104    54.9780 </r>
       <r>     8.0058     2.9770    55.2972 </r>
       <r>     8.1131     4.1672    55.7439 </r>
       <r>     8.2203     3.8884    56.1608 </r>
       <r>     8.3275     3.6879    56.5562 </r>
       <r>     8.4347     3.9897    56.9839 </r>
       <r>     8.5419     4.2161    57.4359 </r>
       <r>     8.6491     4.4548    57.9136 </r>
       <r>     8.7563     4.2217    58.3662 </r>
       <r>     8.8635     5.2639    58.9305 </r>
       <r>     8.9707     4.9452    59.4607 </r>
       <r>     9.0780     5.2923    60.0281 </r>
       <r>     9.1852     5.2376    60.5896 </r>
       <r>     9.2924     4.9701    61.1225 </r>
       <r>     9.3996     4.6908    61.6254 </r>
       <r>     9.5068     4.3681    62.0937 </r>
       <r>     9.6140     5.1038    62.6409 </r>
       <r>     9.7212     5.0280    63.1799 </r>
       <r>     9.8284     5.2993    63.7481 </r>
       <r>     9.9356     4.4809    64.2285 </r>
       <r>    10.0429     3.6352    64.6182 </r>
       <r>    10.1501     5.1738    65.1729 </r>
       <r>    10.2573     4.7188    65.6788 </r>
       <r>    10.3645     4.1159    66.1201 </r>
       <r>    10.4717     5.4123    66.7003 </r>
       <r>    10.5789     5.8139    67.3236 </r>
       <r>    10.6861     4.0658    67.7595 </r>
       <r>    10.7933     3.8858    68.1761 </r>
       <r>    10.9005     3.2345    68.5229 </r>
       <r>    11.0078     4.6688    69.0235 </r>
       <r>    11.1150     5.4844    69.6114 </r>
       <r>    11.2222     6.1893    70.2750 </r>
       <r>    11.3294     5.9943    70.9177 </r>
       <r>    11.4366     5.2864    71.4844 </r>
       <r>    11.5438     4.3007    71.9455 </r>
       <r>    11.6510     4.4734    72.4251 </r>
       <r>    11.7582     4.9325    72.9539 </r>
       <r>    11.8654     4.8058    73.4692 </r>
       <r>    11.9727     6.0350    74.1162 </r>
       <r>    12.0799     5.9587    74.7550 </r>
       <r>    12.1871     5.9894    75.3972 </r>
       <r>    12.2943     5.6161    75.9993 </r>
       <r>    12.4015     5.0072    76.5361 </r>
       <r>    12.5087     5.6861    77.1457 </r>
       <r>    12.6159     5.9900    77.7879 </r>
       <r>    12.7231     6.0231    78.4336 </r>
       <r>    12.8303     5.8864    79.0647 </r>
       <r>    12.9376     5.8615    79.6931 </r>
       <r>    13.0448     5.5969    80.2932 </r>
       <r>    13.1520     6.3481    80.9738 </r>
       <r>    13.2592     6.2609    81.6450 </r>
       <r>    13.3664     5.3889    82.2228 </r>
       <r>    13.4736     6.1332    82.8803 </r>
       <r>    13.5808     5.3416    83.4530 </r>
       <r>    13.6880     4.8101    83.9687 </r>
       <r>    13.7952     6.1324    84.6262 </r>
       <r>    13.9025     5.5227    85.2182 </r>
       <r>    14.0097     5.3435    85.7911 </r>
       <r>    14.1169     5.4762    86.3782 </r>
       <r>    14.2241     4.6836    86.8804 </r>
       <r>    14.3313     4.9064    87.4064 </r>
       <r>    14.4385     5.0198    87.9446 </r>
       <r>    14.5457     4.9621    88.4766 </r>
       <r>    14.6529     5.2725    89.0418 </r>
       <r>    14.7601     5.1658    89.5957 </r>
       <r>    14.8674     4.0917    90.0343 </r>
       <r>    14.9746     5.0833    90.5793 </r>
       <r>    15.0818     6.1885    91.2428 </r>
       <r>    15.1890     5.6374    91.8472 </r>
       <r>    15.2962     5.6772    92.4558 </r>
       <r>    15.4034     6.0284    93.1022 </r>
       <r>    15.5106     5.7315    93.7166 </r>
       <r>    15.6178     5.9505    94.3546 </r>
       <r>    15.7250     4.5909    94.8468 </r>
       <r>    15.8323     2.4675    95.1113 </r>
       <r>    15.9395     2.7056    95.4014 </r>
       <r>    16.0467     1.8594    95.6008 </r>
       <r>    16.1539     1.1443    95.7234 </r>
       <r>    16.2611     0.8921    95.8191 </r>
       <r>    16.3683     0.6963    95.8937 </r>
       <r>    16.4755     0.8126    95.9808 </r>
       <r>    16.5827     0.1769    95.9998 </r>
       <r>    16.6900     0.0017    96.0000 </r>
       <r>    16.7972     0.0000    96.0000 </r>
       <r>    16.9044     0.0000    96.0000 </r>
       <r>    17.0116     0.0000    96.0000 </r>
       <r>    17.1188     0.0000    96.0000 </r>
       <r>    17.2260     0.0000    96.0000 </r>
       <r>    17.3332     0.0000    96.0000 </r>
       <r>    17.4404     0.0000    96.0000 </r>
       <r>    17.5476     0.0000    96.0000 </r>
       <r>    17.6549     0.0000    96.0000 </r>
       <r>    17.7621     0.0000    96.0000 </r>
       <r>    17.8693     0.0000    96.0000 </r>
       <r>    17.9765     0.0000    96.0000 </r>
      </set>
     </set>
    </array>
   </total>
  </dos>
 </calculation>
 <structure name="finalpos" >
  <crystal>
   <varray name="basis" >
    <v>       5.69700000       0.00000000       0.00000000 </v>
    <v>       0.00000000       4.04790000       0.00000000 </v>
    <v>       0.00000000       0.00000000       6.20420000 </v>
   </varray>
   <i name="volume">    143.07435078 </i>
   <varray name="rec_basis" >
    <v>       0.17553098       0.00000000       0.00000000 </v>
    <v>       0.00000000       0.24704168       0.00000000 </v>
    <v>       0.00000000       0.00000000       0.16118114 </v>
   </varray>
  </crystal>
  <varray name="positions" >
   <v>       0.52123000       0.50000000       0.63796000 </v>
   <v>       0.47877000       0.50000000       0.36204000 </v>
   <v>       0.97877000       0.50000000       0.63796000 </v>
   <v>       0.02123000       0.50000000       0.36204000 </v>
   <v>       0.60090000       0.50000000       0.89991000 </v>
   <v>       0.39910000       0.50000000       0.10009000 </v>
   <v>       0.89910000       0.50000000       0.89991000 </v>
   <v>       0.10090000       0.50000000       0.10009000 </v>
   <v>       0.75000000       0.79171000       0.72973000 </v>
   <v>       0.25000000       0.20829000       0.27027000 </v>
   <v>       0.75000000       0.20829000       0.72973000 </v>
   <v>       0.25000000       0.79171000       0.27027000 </v>
   <v>       0.25000000       0.50000000       0.52367000 </v>
   <v>       0.75000000       0.50000000       0.47633000 </v>
  </varray>
 </structure>
</modeling>
