 running   24 mpi-ranks, with    1 threads/rank, on    1 nodes
 distrk:  each k-point on   24 cores,    1 groups
 distr:  one band on    1 cores,   24 groups
 vasp.6.4.3 19Mar24 (build May 31 2024 16:31:43) complex                        
  
 POSCAR found type information on POSCAR B 
 POSCAR found :  1 types and      14 ions
 Reading from existing POTCAR
 scaLAPACK will be used
 Reading from existing POTCAR
 LDA part: xc-table for (Slater+PW92), standard interpolation
 POSCAR, INCAR and KPOINTS ok, starting setup
 FFT: planning ... GRIDC
 FFT: planning ... GRID_SOFT
 FFT: planning ... GRID
 WAVECAR not read
 entering main loop
       N       E                     dE             d eps       ncg     rms          rms(c)
DAV:   1     0.148923633817E+03    0.14892E+03   -0.26587E+04120960   0.129E+03
DAV:   2    -0.883145222159E+02   -0.23724E+03   -0.21952E+03160896   0.208E+02
DAV:   3    -0.975911379979E+02   -0.92766E+01   -0.91925E+01180792   0.363E+01
DAV:   4    -0.976490625079E+02   -0.57925E-01   -0.57921E-01134856   0.329E+00
DAV:   5    -0.976496515348E+02   -0.58903E-03   -0.58901E-03180984   0.315E-01    0.123E+01
DAV:   6    -0.922351645193E+02    0.54145E+01   -0.39477E+00174888   0.658E+00    0.679E+00
DAV:   7    -0.905841600923E+02    0.16510E+01   -0.32094E+00180312   0.586E+00    0.172E+00
DAV:   8    -0.905952468745E+02   -0.11087E-01   -0.22980E-01133032   0.166E+00    0.751E-01
DAV:   9    -0.906099193046E+02   -0.14672E-01   -0.17584E-02170472   0.460E-01    0.206E-01
DAV:  10    -0.906142971995E+02   -0.43779E-02   -0.26257E-03133632   0.182E-01    0.665E-02
DAV:  11    -0.906154797619E+02   -0.11826E-02   -0.69207E-04159360   0.938E-02    0.337E-02
DAV:  12    -0.906155797126E+02   -0.99951E-04   -0.69540E-05150552   0.340E-02    0.656E-03
DAV:  13    -0.906155895057E+02   -0.97931E-05   -0.76865E-06166056   0.117E-02    0.205E-03
DAV:  14    -0.906155905991E+02   -0.10934E-05   -0.67502E-07152616   0.388E-03    0.713E-04
DAV:  15    -0.906155907960E+02   -0.19687E-06   -0.13081E-07145056   0.173E-03
   1 F= -.90615591E+02 E0= -.90613764E+02  d E =-.365335E-02
