  14  14   0   0
  0.1021960E+02  0.5697000E-09  0.4047900E-09  0.6204200E-09  0.5000000E-15
  1.000000000000000E-004
  CAR 
 Kpoints                                 
     18.05395036    -14.19848998  301      1.88974846      1.00000000
    -14.198  0.0000E+00  0.0000E+00
    -14.091  0.0000E+00  0.0000E+00
    -13.983  0.0000E+00  0.0000E+00
    -13.876  0.0000E+00  0.0000E+00
    -13.768  0.0000E+00  0.0000E+00
    -13.661  0.0000E+00  0.0000E+00
    -13.553  0.0000E+00  0.0000E+00
    -13.446  0.0000E+00  0.0000E+00
    -13.338  0.0000E+00  0.0000E+00
    -13.231  0.0000E+00  0.0000E+00
    -13.123  0.0000E+00  0.0000E+00
    -13.016  0.8110E-17  0.8719E-18
    -12.908  0.9215E-08  0.9907E-09
    -12.801  0.2055E-02  0.2209E-03
    -12.693  0.4139E+00  0.4472E-01
    -12.586  0.2260E+01  0.2877E+00
    -12.478  0.3516E+01  0.6657E+00
    -12.371  0.4342E+01  0.1133E+01
    -12.263  0.3567E+01  0.1516E+01
    -12.156  0.2870E+01  0.1825E+01
    -12.048  0.2632E+01  0.2107E+01
    -11.941  0.2589E+01  0.2386E+01
    -11.833  0.2742E+01  0.2681E+01
    -11.726  0.3320E+01  0.3038E+01
    -11.618  0.3622E+01  0.3427E+01
    -11.511  0.3128E+01  0.3763E+01
    -11.403  0.1730E+01  0.3949E+01
    -11.296  0.4628E+00  0.3999E+01
    -11.188  0.9293E-02  0.4000E+01
    -11.081  0.3786E-06  0.4000E+01
    -10.973  0.4074E-14  0.4000E+01
    -10.866  0.0000E+00  0.4000E+01
    -10.758  0.0000E+00  0.4000E+01
    -10.651  0.0000E+00  0.4000E+01
    -10.543  0.0000E+00  0.4000E+01
    -10.436  0.0000E+00  0.4000E+01
    -10.328  0.0000E+00  0.4000E+01
    -10.221  0.0000E+00  0.4000E+01
    -10.113  0.0000E+00  0.4000E+01
    -10.006  0.0000E+00  0.4000E+01
     -9.898  0.0000E+00  0.4000E+01
     -9.791  0.0000E+00  0.4000E+01
     -9.683  0.0000E+00  0.4000E+01
     -9.576  0.0000E+00  0.4000E+01
     -9.468  0.0000E+00  0.4000E+01
     -9.361  0.0000E+00  0.4000E+01
     -9.253  0.0000E+00  0.4000E+01
     -9.146  0.0000E+00  0.4000E+01
     -9.038  0.1242E-08  0.4000E+01
     -8.931  0.7627E-03  0.4000E+01
     -8.823  0.3097E+00  0.4033E+01
     -8.716  0.2184E+01  0.4268E+01
     -8.608  0.5441E+01  0.4853E+01
     -8.501  0.7009E+01  0.5607E+01
     -8.393  0.6205E+01  0.6274E+01
     -8.286  0.5292E+01  0.6843E+01
     -8.178  0.4865E+01  0.7366E+01
     -8.071  0.3716E+01  0.7765E+01
     -7.963  0.1608E+01  0.7938E+01
     -7.856  0.5367E+00  0.7996E+01
     -7.748  0.3933E-01  0.8000E+01
     -7.640  0.2270E-04  0.8000E+01
     -7.533  0.5732E-11  0.8000E+01
     -7.425  0.0000E+00  0.8000E+01
     -7.318  0.0000E+00  0.8000E+01
     -7.210  0.2170E-13  0.8000E+01
     -7.103  0.5845E-06  0.8000E+01
     -6.995  0.4246E-02  0.8000E+01
     -6.888  0.1118E+00  0.8012E+01
     -6.780  0.2967E+00  0.8044E+01
     -6.673  0.4663E+00  0.8095E+01
     -6.565  0.7117E+00  0.8171E+01
     -6.458  0.9128E+00  0.8269E+01
     -6.350  0.1470E+01  0.8427E+01
     -6.243  0.2130E+01  0.8656E+01
     -6.135  0.3049E+01  0.8984E+01
     -6.028  0.3887E+01  0.9402E+01
     -5.920  0.4083E+01  0.9841E+01
     -5.813  0.3917E+01  0.1026E+02
     -5.705  0.4195E+01  0.1071E+02
     -5.598  0.3948E+01  0.1114E+02
     -5.490  0.4153E+01  0.1158E+02
     -5.383  0.4478E+01  0.1207E+02
     -5.275  0.4759E+01  0.1258E+02
     -5.168  0.4392E+01  0.1305E+02
     -5.060  0.3896E+01  0.1347E+02
     -4.953  0.3301E+01  0.1382E+02
     -4.845  0.2449E+01  0.1409E+02
     -4.738  0.2449E+01  0.1435E+02
     -4.630  0.3065E+01  0.1468E+02
     -4.523  0.3590E+01  0.1506E+02
     -4.415  0.3462E+01  0.1544E+02
     -4.308  0.3075E+01  0.1577E+02
     -4.200  0.2941E+01  0.1608E+02
     -4.093  0.2885E+01  0.1639E+02
     -3.985  0.2975E+01  0.1671E+02
     -3.878  0.3056E+01  0.1704E+02
     -3.770  0.2913E+01  0.1736E+02
     -3.663  0.2990E+01  0.1768E+02
     -3.555  0.2722E+01  0.1797E+02
     -3.448  0.2862E+01  0.1828E+02
     -3.340  0.2783E+01  0.1858E+02
     -3.233  0.2744E+01  0.1887E+02
     -3.125  0.2701E+01  0.1916E+02
     -3.018  0.3081E+01  0.1949E+02
     -2.910  0.2948E+01  0.1981E+02
     -2.803  0.2811E+01  0.2011E+02
     -2.695  0.2485E+01  0.2038E+02
     -2.588  0.2497E+01  0.2065E+02
     -2.480  0.3080E+01  0.2098E+02
     -2.373  0.3185E+01  0.2132E+02
     -2.265  0.3708E+01  0.2172E+02
     -2.158  0.3452E+01  0.2209E+02
     -2.050  0.3307E+01  0.2245E+02
     -1.943  0.4221E+01  0.2290E+02
     -1.835  0.4886E+01  0.2343E+02
     -1.728  0.5543E+01  0.2402E+02
     -1.620  0.5957E+01  0.2466E+02
     -1.513  0.6057E+01  0.2531E+02
     -1.405  0.5923E+01  0.2595E+02
     -1.298  0.5928E+01  0.2659E+02
     -1.190  0.4843E+01  0.2711E+02
     -1.082  0.5411E+01  0.2769E+02
     -0.975  0.3792E+01  0.2810E+02
     -0.867  0.2620E+01  0.2838E+02
     -0.760  0.2433E+01  0.2864E+02
     -0.652  0.3546E+01  0.2902E+02
     -0.545  0.5205E+01  0.2958E+02
     -0.437  0.6072E+01  0.3023E+02
     -0.330  0.6288E+01  0.3091E+02
     -0.222  0.6215E+01  0.3158E+02
     -0.115  0.6908E+01  0.3232E+02
     -0.007  0.6791E+01  0.3305E+02
      0.100  0.6265E+01  0.3372E+02
      0.208  0.6876E+01  0.3446E+02
      0.315  0.8785E+01  0.3541E+02
      0.423  0.8410E+01  0.3631E+02
      0.530  0.8126E+01  0.3719E+02
      0.638  0.4355E+01  0.3765E+02
      0.745  0.2770E+01  0.3795E+02
      0.853  0.3214E+01  0.3830E+02
      0.960  0.3169E+01  0.3864E+02
      1.068  0.3713E+01  0.3904E+02
      1.175  0.3557E+01  0.3942E+02
      1.283  0.3652E+01  0.3981E+02
      1.390  0.3925E+01  0.4023E+02
      1.498  0.3711E+01  0.4063E+02
      1.605  0.4019E+01  0.4107E+02
      1.713  0.3793E+01  0.4147E+02
      1.820  0.3199E+01  0.4182E+02
      1.928  0.2682E+01  0.4211E+02
      2.035  0.2817E+01  0.4241E+02
      2.143  0.2730E+01  0.4270E+02
      2.250  0.2058E+01  0.4292E+02
      2.358  0.1969E+01  0.4313E+02
      2.465  0.1462E+01  0.4329E+02
      2.573  0.8620E+00  0.4338E+02
      2.680  0.6014E+00  0.4345E+02
      2.788  0.6760E+00  0.4352E+02
      2.895  0.6624E+00  0.4359E+02
      3.003  0.4250E+00  0.4364E+02
      3.110  0.4707E+00  0.4369E+02
      3.218  0.5233E+00  0.4375E+02
      3.325  0.4191E+00  0.4379E+02
      3.433  0.3433E+00  0.4383E+02
      3.540  0.3774E+00  0.4387E+02
      3.648  0.3768E+00  0.4391E+02
      3.755  0.2507E+00  0.4394E+02
      3.863  0.2954E+00  0.4397E+02
      3.970  0.2272E+00  0.4399E+02
      4.078  0.7160E-01  0.4400E+02
      4.185  0.3879E-02  0.4400E+02
      4.293  0.8208E-01  0.4401E+02
      4.400  0.2655E+00  0.4404E+02
      4.508  0.3857E+00  0.4408E+02
      4.615  0.5638E+00  0.4414E+02
      4.723  0.7571E+00  0.4422E+02
      4.830  0.8202E+00  0.4431E+02
      4.938  0.8997E+00  0.4441E+02
      5.045  0.1011E+01  0.4451E+02
      5.153  0.1163E+01  0.4464E+02
      5.260  0.1417E+01  0.4479E+02
      5.368  0.1797E+01  0.4499E+02
      5.475  0.2253E+01  0.4523E+02
      5.583  0.2574E+01  0.4550E+02
      5.691  0.3088E+01  0.4584E+02
      5.798  0.3334E+01  0.4619E+02
      5.906  0.3757E+01  0.4660E+02
      6.013  0.4294E+01  0.4706E+02
      6.121  0.4553E+01  0.4755E+02
      6.228  0.4470E+01  0.4803E+02
      6.336  0.4189E+01  0.4848E+02
      6.443  0.4217E+01  0.4893E+02
      6.551  0.4325E+01  0.4940E+02
      6.658  0.3798E+01  0.4981E+02
      6.766  0.3562E+01  0.5019E+02
      6.873  0.4099E+01  0.5063E+02
      6.981  0.4494E+01  0.5111E+02
      7.088  0.4900E+01  0.5164E+02
      7.196  0.5055E+01  0.5218E+02
      7.303  0.5018E+01  0.5272E+02
      7.411  0.4493E+01  0.5321E+02
      7.518  0.4432E+01  0.5368E+02
      7.626  0.4071E+01  0.5412E+02
      7.733  0.3213E+01  0.5447E+02
      7.841  0.3123E+01  0.5480E+02
      7.948  0.3296E+01  0.5516E+02
      8.056  0.3276E+01  0.5551E+02
      8.163  0.3704E+01  0.5591E+02
      8.271  0.4016E+01  0.5634E+02
      8.378  0.3943E+01  0.5676E+02
      8.486  0.4231E+01  0.5722E+02
      8.593  0.3920E+01  0.5764E+02
      8.701  0.4425E+01  0.5811E+02
      8.808  0.5014E+01  0.5865E+02
      8.916  0.5206E+01  0.5921E+02
      9.023  0.4888E+01  0.5974E+02
      9.131  0.5125E+01  0.6029E+02
      9.238  0.5206E+01  0.6085E+02
      9.346  0.4817E+01  0.6137E+02
      9.453  0.4738E+01  0.6188E+02
      9.561  0.4594E+01  0.6237E+02
      9.668  0.4827E+01  0.6289E+02
      9.776  0.5146E+01  0.6344E+02
      9.883  0.5063E+01  0.6399E+02
      9.991  0.4836E+01  0.6451E+02
     10.098  0.3946E+01  0.6493E+02
     10.206  0.4203E+01  0.6538E+02
     10.313  0.4456E+01  0.6586E+02
     10.421  0.5307E+01  0.6643E+02
     10.528  0.5589E+01  0.6703E+02
     10.636  0.4845E+01  0.6755E+02
     10.743  0.4157E+01  0.6800E+02
     10.851  0.3667E+01  0.6840E+02
     10.958  0.3765E+01  0.6880E+02
     11.066  0.4947E+01  0.6933E+02
     11.173  0.5634E+01  0.6994E+02
     11.281  0.6326E+01  0.7062E+02
     11.388  0.5518E+01  0.7121E+02
     11.496  0.4828E+01  0.7173E+02
     11.603  0.4607E+01  0.7223E+02
     11.711  0.4726E+01  0.7273E+02
     11.818  0.4811E+01  0.7325E+02
     11.926  0.5403E+01  0.7383E+02
     12.033  0.6172E+01  0.7449E+02
     12.141  0.5958E+01  0.7514E+02
     12.249  0.5274E+01  0.7570E+02
     12.356  0.5350E+01  0.7628E+02
     12.464  0.5604E+01  0.7688E+02
     12.571  0.6091E+01  0.7753E+02
     12.679  0.5771E+01  0.7816E+02
     12.786  0.5915E+01  0.7879E+02
     12.894  0.5895E+01  0.7943E+02
     13.001  0.5961E+01  0.8007E+02
     13.109  0.6034E+01  0.8071E+02
     13.216  0.6371E+01  0.8140E+02
     13.324  0.5692E+01  0.8201E+02
     13.431  0.5506E+01  0.8260E+02
     13.539  0.5531E+01  0.8320E+02
     13.646  0.5287E+01  0.8377E+02
     13.754  0.5498E+01  0.8436E+02
     13.861  0.5902E+01  0.8499E+02
     13.969  0.5450E+01  0.8558E+02
     14.076  0.5206E+01  0.8614E+02
     14.184  0.5236E+01  0.8670E+02
     14.291  0.5004E+01  0.8724E+02
     14.399  0.4669E+01  0.8774E+02
     14.506  0.4977E+01  0.8828E+02
     14.614  0.5483E+01  0.8886E+02
     14.721  0.4904E+01  0.8939E+02
     14.829  0.4391E+01  0.8986E+02
     14.936  0.4510E+01  0.9035E+02
     15.044  0.5864E+01  0.9098E+02
     15.151  0.6111E+01  0.9164E+02
     15.259  0.5725E+01  0.9225E+02
     15.366  0.5856E+01  0.9288E+02
     15.474  0.5888E+01  0.9351E+02
     15.581  0.6003E+01  0.9416E+02
     15.689  0.4721E+01  0.9467E+02
     15.796  0.3446E+01  0.9504E+02
     15.904  0.2581E+01  0.9532E+02
     16.011  0.1872E+01  0.9552E+02
     16.119  0.1410E+01  0.9567E+02
     16.226  0.1040E+01  0.9578E+02
     16.334  0.9333E+00  0.9588E+02
     16.441  0.7596E+00  0.9596E+02
     16.549  0.3161E+00  0.9600E+02
     16.656  0.3622E-01  0.9600E+02
     16.764  0.3922E-03  0.9600E+02
     16.871  0.3530E-08  0.9600E+02
     16.979  0.4831E-17  0.9600E+02
     17.086  0.0000E+00  0.9600E+02
     17.194  0.0000E+00  0.9600E+02
     17.301  0.0000E+00  0.9600E+02
     17.409  0.0000E+00  0.9600E+02
     17.516  0.0000E+00  0.9600E+02
     17.624  0.0000E+00  0.9600E+02
     17.731  0.0000E+00  0.9600E+02
     17.839  0.0000E+00  0.9600E+02
     17.946  0.0000E+00  0.9600E+02
     18.054  0.0000E+00  0.9600E+02
