   14   14    1    1
  0.1021960E+02  0.5697000E-09  0.4047900E-09  0.6204200E-09  0.5000000E-15
  1.000000000000000E-004
  CAR 
 Kpoints                                 
     42   1650     48
 
  0.0000000E+00  0.1666667E-01  0.0000000E+00  0.1670844E-03
      1        -12.732505   1.000000
      2        -11.574887   1.000000
      3         -8.662614   1.000000
      4         -8.424918   1.000000
      5         -6.077859   1.000000
      6         -5.058952   1.000000
      7         -4.639559   1.000000
      8         -4.353419   1.000000
      9         -3.988265   1.000000
     10         -3.600547   1.000000
     11         -2.394259   1.000000
     12         -2.385998   1.000000
     13         -2.026498   1.000000
     14         -1.054973   1.000000
     15         -0.044079   1.000000
     16         -0.012494   1.000000
     17          0.147354   1.000000
     18          0.177307   1.000000
     19          0.566988   1.000000
     20          2.070303   0.000000
     21          2.120585   0.000000
     22          2.217687   0.000000
     23          5.420931   0.000000
     24          5.787277   0.000000
     25          5.832053   0.000000
     26          5.903664   0.000000
     27          6.796559   0.000000
     28          7.688418   0.000000
     29          7.708050   0.000000
     30          8.604327   0.000000
     31          8.751557   0.000000
     32          8.872409   0.000000
     33          9.042795   0.000000
     34         10.049012   0.000000
     35         11.150634   0.000000
     36         11.398020   0.000000
     37         11.767266   0.000000
     38         11.804691   0.000000
     39         11.901170   0.000000
     40         12.364969   0.000000
     41         12.803845   0.000000
     42         13.388624   0.000000
     43         13.567826   0.000000
     44         15.552963   0.000000
     45         15.562515   0.000000
     46         15.946830   0.000000
     47         16.355472   0.000000
     48         16.578196   0.000000
 
  0.4761905E-01  0.1666667E-01  0.0000000E+00  0.3341688E-03
      1        -12.727508   1.000000
      2        -11.583608   1.000000
      3         -8.660301   1.000000
      4         -8.423425   1.000000
      5         -6.067222   1.000000
      6         -5.127743   1.000000
      7         -4.666121   1.000000
      8         -4.273013   1.000000
      9         -3.980754   1.000000
     10         -3.551680   1.000000
     11         -2.393599   1.000000
     12         -2.392093   1.000000
     13         -2.036751   1.000000
     14         -1.092752   1.000000
     15         -0.039109   1.000000
     16         -0.004592   1.000000
     17          0.153299   1.000000
     18          0.162488   1.000000
     19          0.555443   1.000000
     20          2.059741   0.000001
     21          2.111204   0.000000
     22          2.204126   0.000000
     23          5.432421   0.000000
     24          5.776818   0.000000
     25          5.816013   0.000000
     26          5.973731   0.000000
     27          6.785706   0.000000
     28          7.527646   0.000000
     29          7.844039   0.000000
     30          8.621439   0.000000
     31          8.797554   0.000000
     32          8.902346   0.000000
     33          9.045433   0.000000
     34         10.063257   0.000000
     35         11.159006   0.000000
     36         11.348994   0.000000
     37         11.681211   0.000000
     38         11.774440   0.000000
     39         11.928087   0.000000
     40         12.374932   0.000000
     41         12.861783   0.000000
     42         13.478753   0.000000
     43         13.520744   0.000000
     44         15.391464   0.000000
     45         15.590854   0.000000
     46         16.062307   0.000000
     47         16.369765   0.000000
     48         16.369777   0.000000
 
  0.9523810E-01  0.1666667E-01  0.0000000E+00  0.3341688E-03
      1        -12.712550   1.000000
      2        -11.609335   1.000000
      3         -8.653254   1.000000
      4         -8.419169   1.000000
      5         -6.038804   1.000000
      6         -5.278383   1.000000
      7         -4.726998   1.000000
      8         -4.089977   1.000000
      9         -3.956126   1.000000
     10         -3.421307   1.000000
     11         -2.417612   1.000000
     12         -2.385548   1.000000
     13         -2.064875   1.000000
     14         -1.202293   1.000000
     15         -0.024410   1.000000
     16          0.016613   1.000000
     17          0.120010   1.000000
     18          0.169900   1.000000
     19          0.521047   1.000000
     20          2.028811   0.000041
     21          2.083720   0.000000
     22          2.163395   0.000000
     23          5.464947   0.000000
     24          5.770969   0.000000
     25          5.811252   0.000000
     26          6.114999   0.000000
     27          6.754537   0.000000
     28          7.349161   0.000000
     29          7.958710   0.000000
     30          8.670477   0.000000
     31          8.923076   0.000000
     32          8.990149   0.000000
     33          9.050857   0.000000
     34         10.106767   0.000000
     35         11.184426   0.000000
     36         11.207665   0.000000
     37         11.464171   0.000000
     38         11.717262   0.000000
     39         12.006760   0.000000
     40         12.404381   0.000000
     41         12.994361   0.000000
     42         13.388285   0.000000
     43         13.706145   0.000000
     44         15.118677   0.000000
     45         15.668410   0.000000
     46         16.122056   0.000000
     47         16.210825   0.000000
     48         16.413249   0.000000
 
  0.1428571E+00  0.1666667E-01  0.0000000E+00  0.3341688E-03
      1        -12.687779   1.000000
      2        -11.650837   1.000000
      3         -8.641222   1.000000
      4         -8.412821   1.000000
      5         -6.003052   1.000000
      6         -5.449191   1.000000
      7         -4.785004   1.000000
      8         -3.939184   1.000000
      9         -3.842247   1.000000
     10         -3.238807   1.000000
     11         -2.461093   1.000000
     12         -2.374451   1.000000
     13         -2.103837   1.000000
     14         -1.373401   1.000000
     15         -0.000655   1.000000
     16          0.020858   1.000000
     17          0.078843   1.000000
     18          0.191124   1.000000
     19          0.467997   1.000000
     20          1.979839   0.005361
     21          2.040047   0.000010
     22          2.095611   0.000000
     23          5.513215   0.000000
     24          5.753045   0.000000
     25          5.863406   0.000000
     26          6.298359   0.000000
     27          6.707098   0.000000
     28          7.177832   0.000000
     29          8.050224   0.000000
     30          8.744069   0.000000
     31          9.043783   0.000000
     32          9.100031   0.000000
     33          9.138346   0.000000
     34         10.183185   0.000000
     35         10.989460   0.000000
     36         11.184393   0.000000
     37         11.227040   0.000000
     38         11.683721   0.000000
     39         12.127408   0.000000
     40         12.455927   0.000000
     41         13.114430   0.000000
     42         13.190234   0.000000
     43         14.004099   0.000000
     44         14.879976   0.000000
     45         15.777401   0.000000
     46         15.854127   0.000000
     47         16.291834   0.000000
     48         16.482038   0.000000
 
  0.1904762E+00  0.1666667E-01  0.0000000E+00  0.3341688E-03
      1        -12.653424   1.000000
      2        -11.706215   1.000000
      3         -8.624011   1.000000
      4         -8.405431   1.000000
      5         -5.976061   1.000000
      6         -5.615386   1.000000
      7         -4.805964   1.000000
      8         -3.884282   1.000000
      9         -3.602567   1.000000
     10         -3.026570   1.000000
     11         -2.526816   1.000000
     12         -2.358495   1.000000
     13         -2.145227   1.000000
     14         -1.592359   1.000000
     15         -0.065440   1.000000
     16          0.030600   1.000000
     17          0.111193   1.000000
     18          0.193735   1.000000
     19          0.419237   1.000000
     20          1.916516   0.223456
     21          1.983152   0.004081
     22          2.001872   0.000750
     23          5.570039   0.000000
     24          5.726217   0.000000
     25          5.976986   0.000000
     26          6.514984   0.000000
     27          6.649184   0.000000
     28          7.023684   0.000000
     29          8.128406   0.000000
     30          8.827143   0.000000
     31          9.024373   0.000000
     32          9.302867   0.000000
     33          9.328811   0.000000
     34         10.300541   0.000000
     35         10.713554   0.000000
     36         10.890249   0.000000
     37         11.284093   0.000000
     38         11.703478   0.000000
     39         12.260003   0.000000
     40         12.548774   0.000000
     41         12.946628   0.000000
     42         13.124668   0.000000
     43         14.330859   0.000000
     44         14.762740   0.000000
     45         15.568422   0.000000
     46         15.910831   0.000000
     47         16.261817   0.000000
     48         16.588341   0.000000
 
  0.2380952E+00  0.1666667E-01  0.0000000E+00  0.3341688E-03
      1        -12.609850   1.000000
      2        -11.773122   1.000000
      3         -8.601726   1.000000
      4         -8.398472   1.000000
      5         -5.972979   1.000000
      6         -5.766624   1.000000
      7         -4.765906   1.000000
      8         -3.822171   1.000000
      9         -3.355338   1.000000
     10         -2.801054   1.000000
     11         -2.612626   1.000000
     12         -2.337695   1.000000
     13         -2.183203   1.000000
     14         -1.843111   1.000000
     15         -0.185349   1.000000
     16          0.061084   1.000000
     17          0.135938   1.000000
     18          0.159312   1.000000
     19          0.424795   1.000000
     20          1.842282   0.909728
     21          1.886451   0.535779
     22          1.916882   0.220380
     23          5.627634   0.000000
     24          5.701613   0.000000
     25          6.144471   0.000000
     26          6.587677   0.000000
     27          6.753884   0.000000
     28          6.895800   0.000000
     29          8.198521   0.000000
     30          8.888406   0.000000
     31          8.985379   0.000000
     32          9.517468   0.000000
     33          9.553410   0.000000
     34         10.384904   0.000000
     35         10.476658   0.000000
     36         10.630809   0.000000
     37         11.345858   0.000000
     38         11.784813   0.000000
     39         12.358916   0.000000
     40         12.670066   0.000000
     41         12.719130   0.000000
     42         12.973964   0.000000
     43         14.651728   0.000000
     44         14.813074   0.000000
     45         15.284192   0.000000
     46         16.041056   0.000000
     47         16.089474   0.000000
     48         16.318696   0.000000
 
  0.2857143E+00  0.1666667E-01  0.0000000E+00  0.3341688E-03
      1        -12.557507   1.000000
      2        -11.848948   1.000000
      3         -8.574903   1.000000
      4         -8.393655   1.000000
      5         -5.997637   1.000000
      6         -5.897244   1.000000
      7         -4.657315   1.000000
      8         -3.748314   1.000000
      9         -3.122043   1.000000
     10         -2.729708   1.000000
     11         -2.558776   1.000000
     12         -2.319614   1.000000
     13         -2.215379   1.000000
     14         -2.097848   1.000000
     15         -0.323373   1.000000
     16         -0.017047   1.000000
     17          0.127022   1.000000
     18          0.208264   1.000000
     19          0.485138   1.000000
     20          1.735918   0.999993
     21          1.781140   0.998924
     22          1.845722   0.892842
     23          5.678775   0.000000
     24          5.684793   0.000000
     25          6.360611   0.000000
     26          6.529906   0.000000
     27          6.768063   0.000000
     28          7.036705   0.000000
     29          8.262370   0.000000
     30          8.873477   0.000000
     31          8.937149   0.000000
     32          9.739829   0.000000
     33          9.792522   0.000000
     34         10.043488   0.000000
     35         10.437454   0.000000
     36         10.719711   0.000000
     37         11.393769   0.000000
     38         11.922476   0.000000
     39         12.379259   0.000000
     40         12.426357   0.000000
     41         12.704613   0.000000
     42         12.942060   0.000000
     43         14.863938   0.000000
     44         15.009656   0.000000
     45         15.053620   0.000000
     46         15.838790   0.000000
     47         15.871660   0.000000
     48         16.215350   0.000000
 
  0.3333333E+00  0.1666667E-01  0.0000000E+00  0.3341688E-03
      1        -12.496984   1.000000
      2        -11.931053   1.000000
      3         -8.544670   1.000000
      4         -8.392810   1.000000
      5         -6.040904   1.000000
      6         -6.003518   1.000000
      7         -4.488149   1.000000
      8         -3.662869   1.000000
      9         -2.941519   1.000000
     10         -2.845540   1.000000
     11         -2.415054   1.000000
     12         -2.349364   1.000000
     13         -2.231221   1.000000
     14         -2.205147   1.000000
     15         -0.470201   1.000000
     16         -0.178843   1.000000
     17          0.171024   1.000000
     18          0.252184   1.000000
     19          0.574974   1.000000
     20          1.586445   1.000000
     21          1.709673   1.000000
     22          1.774726   0.999423
     23          5.678564   0.000000
     24          5.717307   0.000000
     25          6.483187   0.000000
     26          6.619336   0.000000
     27          6.675990   0.000000
     28          7.322456   0.000000
     29          8.321125   0.000000
     30          8.786783   0.000000
     31          8.831377   0.000000
     32          9.681985   0.000000
     33          9.970088   0.000000
     34         10.030297   0.000000
     35         10.393140   0.000000
     36         11.019986   0.000000
     37         11.406486   0.000000
     38         12.077702   0.000000
     39         12.104989   0.000000
     40         12.381969   0.000000
     41         12.483246   0.000000
     42         13.169696   0.000000
     43         14.765408   0.000000
     44         14.977595   0.000000
     45         15.365046   0.000000
     46         15.432129   0.000000
     47         15.562193   0.000000
     48         16.337598   0.000000
 
  0.3809524E+00  0.1666667E-01  0.0000000E+00  0.3341688E-03
      1        -12.429025   1.000000
      2        -12.016887   1.000000
      3         -8.512675   1.000000
      4         -8.397558   1.000000
      5         -6.088977   1.000000
      6         -6.082909   1.000000
      7         -4.272189   1.000000
      8         -3.566570   1.000000
      9         -2.970781   1.000000
     10         -2.947435   1.000000
     11         -2.516465   1.000000
     12         -2.298001   1.000000
     13         -2.140390   1.000000
     14         -2.107363   1.000000
     15         -0.610675   1.000000
     16         -0.357913   1.000000
     17          0.217057   1.000000
     18          0.285877   1.000000
     19          0.684749   1.000000
     20          1.425691   1.000000
     21          1.654001   1.000000
     22          1.709446   1.000000
     23          5.683310   0.000000
     24          5.739081   0.000000
     25          6.453831   0.000000
     26          6.598784   0.000000
     27          6.913987   0.000000
     28          7.626545   0.000000
     29          8.377136   0.000000
     30          8.574647   0.000000
     31          8.726575   0.000000
     32          9.321332   0.000000
     33         10.205564   0.000000
     34         10.248816   0.000000
     35         10.485396   0.000000
     36         11.374527   0.000000
     37         11.374980   0.000000
     38         11.773571   0.000000
     39         12.044525   0.000000
     40         12.324861   0.000000
     41         12.524510   0.000000
     42         13.323991   0.000000
     43         14.592260   0.000000
     44         15.012491   0.000000
     45         15.038609   0.000000
     46         15.253918   0.000000
     47         15.695369   0.000000
     48         16.435111   0.000000
 
  0.4285714E+00  0.1666667E-01  0.0000000E+00  0.3341688E-03
      1        -12.354539   1.000000
      2        -12.104117   1.000000
      3         -8.480972   1.000000
      4         -8.408964   1.000000
      5         -6.134136   1.000000
      6         -6.129843   1.000000
      7         -4.022165   1.000000
      8         -3.460534   1.000000
      9         -3.177239   1.000000
     10         -3.098289   1.000000
     11         -2.466155   1.000000
     12         -2.324866   1.000000
     13         -2.031842   1.000000
     14         -1.955903   1.000000
     15         -0.716805   1.000000
     16         -0.533406   1.000000
     17          0.258402   1.000000
     18          0.304799   1.000000
     19          0.810916   1.000000
     20          1.262505   1.000000
     21          1.618242   1.000000
     22          1.655862   1.000000
     23          5.696968   0.000000
     24          5.743266   0.000000
     25          6.445495   0.000000
     26          6.536682   0.000000
     27          7.236765   0.000000
     28          7.944813   0.000000
     29          8.269696   0.000000
     30          8.433850   0.000000
     31          8.640617   0.000000
     32          8.965051   0.000000
     33         10.429137   0.000000
     34         10.441369   0.000000
     35         10.669209   0.000000
     36         11.315087   0.000000
     37         11.478833   0.000000
     38         11.703713   0.000000
     39         11.777266   0.000000
     40         12.507203   0.000000
     41         12.566640   0.000000
     42         13.302817   0.000000
     43         14.551723   0.000000
     44         14.787181   0.000000
     45         14.961280   0.000000
     46         14.987999   0.000000
     47         15.981083   0.000000
     48         16.468290   0.000000
 
  0.4761905E+00  0.1666667E-01  0.0000000E+00  0.3341688E-03
      1        -12.274638   1.000000
      2        -12.190641   1.000000
      3         -8.451809   1.000000
      4         -8.427288   1.000000
      5         -6.157405   1.000000
      6         -6.154680   1.000000
      7         -3.748717   1.000000
      8         -3.462455   1.000000
      9         -3.345072   1.000000
     10         -3.224136   1.000000
     11         -2.406309   1.000000
     12         -2.360735   1.000000
     13         -1.927115   1.000000
     14         -1.888739   1.000000
     15         -0.746688   1.000000
     16         -0.676767   1.000000
     17          0.289662   1.000000
     18          0.306082   1.000000
     19          0.951112   1.000000
     20          1.102784   1.000000
     21          1.606545   1.000000
     22          1.619916   1.000000
     23          5.715554   0.000000
     24          5.733297   0.000000
     25          6.458158   0.000000
     26          6.489408   0.000000
     27          7.578788   0.000000
     28          7.928623   0.000000
     29          8.274832   0.000000
     30          8.495165   0.000000
     31          8.561913   0.000000
     32          8.617122   0.000000
     33         10.577612   0.000000
     34         10.582422   0.000000
     35         10.903713   0.000000
     36         11.164480   0.000000
     37         11.332589   0.000000
     38         11.461546   0.000000
     39         12.112423   0.000000
     40         12.376245   0.000000
     41         12.829301   0.000000
     42         13.098803   0.000000
     43         14.631339   0.000000
     44         14.742323   0.000000
     45         14.770846   0.000000
     46         14.850032   0.000000
     47         16.226189   0.000000
     48         16.399541   0.000000
 
  0.0000000E+00  0.5000000E-01  0.0000000E+00  0.1670844E-03
      1        -12.727152   1.000000
      2        -11.570080   1.000000
      3         -8.658411   1.000000
      4         -8.419742   1.000000
      5         -6.071937   1.000000
      6         -5.050657   1.000000
      7         -4.634626   1.000000
      8         -4.372158   1.000000
      9         -4.099589   1.000000
     10         -3.595001   1.000000
     11         -2.726856   1.000000
     12         -2.244084   1.000000
     13         -1.661350   1.000000
     14         -1.053939   1.000000
     15         -0.106811   1.000000
     16         -0.083007   1.000000
     17          0.150982   1.000000
     18          0.207835   1.000000
     19          0.591468   1.000000
     20          1.992844   0.001753
     21          2.061037   0.000001
     22          2.244415   0.000000
     23          5.478538   0.000000
     24          5.738595   0.000000
     25          5.851025   0.000000
     26          5.882690   0.000000
     27          6.864796   0.000000
     28          7.753924   0.000000
     29          7.777456   0.000000
     30          8.435635   0.000000
     31          8.751149   0.000000
     32          8.954153   0.000000
     33          9.056188   0.000000
     34         10.181960   0.000000
     35         11.204177   0.000000
     36         11.379595   0.000000
     37         11.750660   0.000000
     38         11.828206   0.000000
     39         11.924291   0.000000
     40         12.429228   0.000000
     41         12.806130   0.000000
     42         13.316754   0.000000
     43         13.493051   0.000000
     44         15.515658   0.000000
     45         15.544228   0.000000
     46         15.960698   0.000000
     47         16.313609   0.000000
     48         16.400370   0.000000
 
  0.4761905E-01  0.5000000E-01  0.0000000E+00  0.3341688E-03
      1        -12.722156   1.000000
      2        -11.578796   1.000000
      3         -8.656095   1.000000
      4         -8.418257   1.000000
      5         -6.061259   1.000000
      6         -5.120040   1.000000
      7         -4.661225   1.000000
      8         -4.299525   1.000000
      9         -4.083894   1.000000
     10         -3.546207   1.000000
     11         -2.734632   1.000000
     12         -2.241774   1.000000
     13         -1.672117   1.000000
     14         -1.091718   1.000000
     15         -0.101983   1.000000
     16         -0.075789   1.000000
     17          0.157137   1.000000
     18          0.194367   1.000000
     19          0.579852   1.000000
     20          1.982648   0.004256
     21          2.051674   0.000002
     22          2.230343   0.000000
     23          5.490371   0.000000
     24          5.725668   0.000000
     25          5.854950   0.000000
     26          5.934912   0.000000
     27          6.853988   0.000000
     28          7.596631   0.000000
     29          7.909766   0.000000
     30          8.453254   0.000000
     31          8.798124   0.000000
     32          8.983542   0.000000
     33          9.060864   0.000000
     34         10.191486   0.000000
     35         11.212063   0.000000
     36         11.330635   0.000000
     37         11.665094   0.000000
     38         11.797020   0.000000
     39         11.951323   0.000000
     40         12.438966   0.000000
     41         12.864391   0.000000
     42         13.407915   0.000000
     43         13.446323   0.000000
     44         15.397285   0.000000
     45         15.542237   0.000000
     46         16.043706   0.000000
     47         16.297367   0.000000
     48         16.339275   0.000000
 
  0.9523810E-01  0.5000000E-01  0.0000000E+00  0.3341688E-03
      1        -12.707205   1.000000
      2        -11.604514   1.000000
      3         -8.649039   1.000000
      4         -8.414032   1.000000
      5         -6.032705   1.000000
      6         -5.271312   1.000000
      7         -4.722247   1.000000
      8         -4.169067   1.000000
      9         -4.006549   1.000000
     10         -3.416154   1.000000
     11         -2.757914   1.000000
     12         -2.234811   1.000000
     13         -1.702676   1.000000
     14         -1.201224   1.000000
     15         -0.087973   1.000000
     16         -0.057671   1.000000
     17          0.156726   1.000000
     18          0.174597   1.000000
     19          0.545204   1.000000
     20          1.952732   0.037137
     21          2.024252   0.000070
     22          2.188214   0.000000
     23          5.523805   0.000000
     24          5.730627   0.000000
     25          5.845046   0.000000
     26          6.069452   0.000000
     27          6.822959   0.000000
     28          7.420832   0.000000
     29          8.021788   0.000000
     30          8.503896   0.000000
     31          8.925920   0.000000
     32          9.057879   0.000000
     33          9.084424   0.000000
     34         10.220385   0.000000
     35         11.189530   0.000000
     36         11.236043   0.000000
     37         11.446176   0.000000
     38         11.743739   0.000000
     39         12.030250   0.000000
     40         12.467759   0.000000
     41         12.998109   0.000000
     42         13.314862   0.000000
     43         13.634541   0.000000
     44         15.137541   0.000000
     45         15.613755   0.000000
     46         16.093476   0.000000
     47         16.131585   0.000000
     48         16.414709   0.000000
 
  0.1428571E+00  0.5000000E-01  0.0000000E+00  0.3341688E-03
      1        -12.682442   1.000000
      2        -11.645995   1.000000
      3         -8.636990   1.000000
      4         -8.407729   1.000000
      5         -5.996731   1.000000
      6         -5.442370   1.000000
      7         -4.780514   1.000000
      8         -4.094711   1.000000
      9         -3.816717   1.000000
     10         -3.234679   1.000000
     11         -2.796240   1.000000
     12         -2.223121   1.000000
     13         -1.748519   1.000000
     14         -1.372211   1.000000
     15         -0.066241   1.000000
     16         -0.045505   1.000000
     17          0.109964   1.000000
     18          0.198656   1.000000
     19          0.491201   1.000000
     20          1.905129   0.330517
     21          1.980669   0.005011
     22          2.118452   0.000000
     23          5.573350   0.000000
     24          5.758997   0.000000
     25          5.852692   0.000000
     26          6.248893   0.000000
     27          6.775736   0.000000
     28          7.253956   0.000000
     29          8.110701   0.000000
     30          8.580384   0.000000
     31          9.072003   0.000000
     32          9.105116   0.000000
     33          9.219416   0.000000
     34         10.271267   0.000000
     35         10.971844   0.000000
     36         11.165427   0.000000
     37         11.276258   0.000000
     38         11.719167   0.000000
     39         12.151485   0.000000
     40         12.517865   0.000000
     41         13.118432   0.000000
     42         13.120166   0.000000
     43         13.924106   0.000000
     44         14.913054   0.000000
     45         15.702647   0.000000
     46         15.864440   0.000000
     47         16.160425   0.000000
     48         16.509408   0.000000
 
  0.1904762E+00  0.5000000E-01  0.0000000E+00  0.3341688E-03
      1        -12.648104   1.000000
      2        -11.701347   1.000000
      3         -8.619756   1.000000
      4         -8.400403   1.000000
      5         -5.969436   1.000000
      6         -5.608619   1.000000
      7         -4.801819   1.000000
      8         -4.039200   1.000000
      9         -3.578332   1.000000
     10         -3.028525   1.000000
     11         -2.844764   1.000000
     12         -2.206633   1.000000
     13         -1.803921   1.000000
     14         -1.590943   1.000000
     15         -0.086514   1.000000
     16         -0.040264   1.000000
     17          0.099396   1.000000
     18          0.211436   1.000000
     19          0.437382   1.000000
     20          1.843210   0.905383
     21          1.923932   0.165947
     22          2.022572   0.000085
     23          5.631414   0.000000
     24          5.757026   0.000000
     25          5.942445   0.000000
     26          6.459691   0.000000
     27          6.718149   0.000000
     28          7.107561   0.000000
     29          8.186800   0.000000
     30          8.668551   0.000000
     31          9.063145   0.000000
     32          9.309462   0.000000
     33          9.409256   0.000000
     34         10.347383   0.000000
     35         10.699651   0.000000
     36         10.876659   0.000000
     37         11.329662   0.000000
     38         11.750532   0.000000
     39         12.287420   0.000000
     40         12.605182   0.000000
     41         12.878426   0.000000
     42         13.132218   0.000000
     43         14.227967   0.000000
     44         14.822793   0.000000
     45         15.569478   0.000000
     46         15.848901   0.000000
     47         16.127996   0.000000
     48         16.583103   0.000000
 
  0.2380952E+00  0.5000000E-01  0.0000000E+00  0.3341688E-03
      1        -12.604554   1.000000
      2        -11.768223   1.000000
      3         -8.597443   1.000000
      4         -8.393521   1.000000
      5         -5.966062   1.000000
      6         -5.759825   1.000000
      7         -4.762121   1.000000
      8         -3.978195   1.000000