       N       E                     dE             d eps       ncg     rms          rms(c)
DAV:   1     0.469759933374E+02    0.46976E+02   -0.16998E+04158400   0.688E+02
DAV:   2    -0.931851420042E+02   -0.14016E+03   -0.13206E+03221424   0.145E+02
DAV:   3    -0.975882617498E+02   -0.44031E+01   -0.43829E+01229680   0.231E+01
DAV:   4    -0.976136953091E+02   -0.25434E-01   -0.25432E-01197568   0.200E+00
DAV:   5    -0.976139887883E+02   -0.29348E-03   -0.29347E-03228480   0.208E-01    0.123E+01
DAV:   6    -0.922004174033E+02    0.54136E+01   -0.39606E+00229464   0.658E+00    0.677E+00
DAV:   7    -0.905513738860E+02    0.16490E+01   -0.31814E+00236424   0.582E+00    0.173E+00
DAV:   8    -0.905607559680E+02   -0.93821E-02   -0.22453E-01175632   0.161E+00    0.781E-01
DAV:   9    -0.905756950973E+02   -0.14939E-01   -0.18186E-02221976   0.467E-01    0.208E-01
DAV:  10    -0.905801543840E+02   -0.44593E-02   -0.28069E-03176568   0.186E-01    0.697E-02
DAV:  11    -0.905814079415E+02   -0.12536E-02   -0.73015E-04205920   0.929E-02    0.337E-02
DAV:  12    -0.905815075814E+02   -0.99640E-04   -0.68615E-05203112   0.315E-02    0.660E-03
DAV:  13    -0.905815174141E+02   -0.98327E-05   -0.82461E-06215688   0.109E-02    0.201E-03
DAV:  14    -0.905815183208E+02   -0.90671E-06   -0.57103E-07204120   0.318E-03
   1 F= -.90581518E+02 E0= -.90579848E+02  d E =-.334080E-02
