 vasp.6.4.3 19Mar24 (build May 31 2024 16:31:43) complex                        
  
 executed on             LinuxIFC date 2024.10.31  00:22:38
 running   24 mpi-ranks, with    1 threads/rank, on    1 nodes
 distrk:  each k-point on   24 cores,    1 groups
 distr:  one band on NCORE=   1 cores,   24 groups


--------------------------------------------------------------------------------------------------------


 INCAR:
   SYSTEM = Kpoints
   ISTART = 0
   ICHARG = 2
   PREC = Accurate
   ENCUT = 480
   LCHARG = .FALSE.
   LWAVE = .FALSE.
   ALGO = Normal
   NELM = 100
   EDIFF = 1E-6
   EDIFFG = -1E-3
   SIGMA = 0.05
   ISMEAR = 0
   ISPIN = 1
   NSW = 0
   IBRION = -1
   POTIM = .5
   ISIF = 2
   GGA = PE

 POTCAR:    PAW_PBE B 06Sep2000                   
 POTCAR:    PAW_PBE B 06Sep2000                   
   SHA256 =  a32ced30f5ae56fd4d10b4325ff17eb3e4e38ee0f4288bc219fb012fddfa6e97 B/POTCAR              
   COPYR  = (c) Copyright 06Sep2000 Georg Kresse                                                    
   COPYR  = This file is part of the software VASP. Any use, copying, and all other rights are regul
   COPYR  = If you do not have a valid VASP license, you may not use, copy or distribute this file. 
   VRHFIN =B: s2p1                                                                                  
   LEXCH  = PE                                                                                      
   EATOM  =    71.1703 eV,    5.2309 Ry                                                             
                                                                                                    
   TITEL  = PAW_PBE B 06Sep2000                                                                     
   LULTRA =        F    use ultrasoft PP ?                                                          
   IUNSCR =        1    unscreen: 0-lin 1-nonlin 2-no                                               
   RPACOR =    1.200    partial core radius                                                         
   POMASS =   10.811; ZVAL   =    3.000    mass and valenz                                          
   RCORE  =    1.700    outmost cutoff radius                                                       
   RWIGS  =    1.710; RWIGS  =    0.905    wigner-seitz radius (au A)                               
   ENMAX  =  318.614; ENMIN  =  238.960 eV                                                          
   ICORE  =        2    local potential                                                             
   LCOR   =        T    correct aug charges                                                         
   LPAW   =        T    paw PP                                                                      
   EAUG   =  535.514                                                                                
   DEXC   =    0.000                                                                                
   RMAX   =    1.732    core radius for proj-oper                                                   
   RAUG   =    1.300    factor for augmentation sphere                                              
   RDEP   =    1.757    radius for radial grids                                                     
   RDEPT  =    1.436    core radius for aug-charge                                                  
                                                                                                    
   Atomic configuration                                                                             
    4 entries                                                                                       
     n  l   j            E        occ.                                                              
     1  0  0.50      -180.5896   2.0000                                                             
     2  0  0.50        -9.4431   2.0000                                                             
     2  1  0.50        -3.6068   1.0000                                                             
     3  2  1.50        -4.0817   0.0000                                                             
   Description                                                                                      
     l       E           TYP  RCUT    TYP  RCUT                                                     
     0     -9.4430752     23  1.500                                                                 
     0      0.8675899     23  1.500                                                                 
     1     -3.6067955     23  1.700                                                                 
     1      6.1086146     23  1.700                                                                 
     2     -4.0817478      7  1.700                                                                 
  local pseudopotential read in
  partial core-charges read in
  partial kinetic energy density read in
  atomic valenz-charges read in
  non local Contribution for L=           0  read in
    real space projection operators read in
  non local Contribution for L=           0  read in
    real space projection operators read in
  non local Contribution for L=           1  read in
    real space projection operators read in
  non local Contribution for L=           1  read in
    real space projection operators read in
    PAW grid and wavefunctions read in
 
   number of l-projection  operators is LMAX  =           4
   number of lm-projection operators is LMMAX =           8
 
  PAW_PBE B 06Sep2000                   :
 energy of atom  1       EATOM=  -71.1703
 kinetic energy error for atom=    0.0013 (will be added to EATOM!!)
 
 
 POSCAR: o-B14
  positions in direct lattice
  No initial velocities read in


 exchange-correlation table for PE
   RHO(1)=    0.500       N(1)  =     2000
   RHO(2)=  100.500       N(2)  =     4000
 


--------------------------------------------------------------------------------------------------------


 ion  position               nearest neighbor table
   1  0.521  0.500  0.638-  14 1.64   5 1.69  13 1.70   2 1.73   9 1.85  11 1.85
   2  0.479  0.500  0.362-  13 1.64   6 1.69  14 1.70   1 1.73  10 1.85  12 1.85
   3  0.979  0.500  0.638-  14 1.64   7 1.69  13 1.70   4 1.73   9 1.85  11 1.85
   4  0.021  0.500  0.362-  13 1.64   8 1.69  14 1.70   3 1.73  10 1.85  12 1.85
   5  0.601  0.500  0.900-   1 1.69   6 1.69   7 1.70   9 1.80  11 1.80
   6  0.399  0.500  0.100-   2 1.69   5 1.69   8 1.70  10 1.80  12 1.80
   7  0.899  0.500  0.900-   3 1.69   8 1.69   5 1.70   9 1.80  11 1.80
   8  0.101  0.500  0.100-   4 1.69   7 1.69   6 1.70  10 1.80  12 1.80
   9  0.750  0.792  0.730-  11 1.69   7 1.80   5 1.80   3 1.85   1 1.85  14 1.97
  10  0.250  0.208  0.270-  12 1.69   8 1.80   6 1.80   4 1.85   2 1.85  13 1.97
  11  0.750  0.208  0.730-   9 1.69   7 1.80   5 1.80   3 1.85   1 1.85  14 1.97
  12  0.250  0.792  0.270-  10 1.69   8 1.80   6 1.80   4 1.85   2 1.85  13 1.97
  13  0.250  0.500  0.524-   2 1.64   4 1.64   3 1.70   1 1.70  10 1.97  12 1.97
  14  0.750  0.500  0.476-   1 1.64   3 1.64   2 1.70   4 1.70   9 1.97  11 1.97
 
  LATTYP: Found a simple orthorhombic cell.
 ALAT       =     4.0479000000
 B/A-ratio  =     1.4073964278
 C/A-ratio  =     1.5326959658
  
  Lattice vectors:
  
 A1 = (   0.0000000000,  -4.0479000000,   0.0000000000)
 A2 = (   5.6970000000,   0.0000000000,   0.0000000000)
 A3 = (   0.0000000000,   0.0000000000,   6.2042000000)


Analysis of symmetry for initial positions (statically):
=====================================================================
 Subroutine PRICEL returns:
 Original cell was already a primitive cell.
 

 Routine SETGRP: Setting up the symmetry group for a 
 simple orthorhombic supercell.


 Subroutine GETGRP returns: Found  8 space group operations
 (whereof  4 operations were pure point group operations)
 out of a pool of  8 trial point group operations.


The static configuration has the point symmetry C_2h.
 The point group associated with its full space group is D_2h.


Analysis of symmetry for dynamics (positions and initial velocities):
=====================================================================
 Subroutine PRICEL returns:
 Original cell was already a primitive cell.
 

 Routine SETGRP: Setting up the symmetry group for a 
 simple orthorhombic supercell.


 Subroutine GETGRP returns: Found  8 space group operations
 (whereof  4 operations were pure point group operations)
 out of a pool of  8 trial point group operations.


The dynamic configuration has the point symmetry C_2h.
 The point group associated with its full space group is D_2h.


 Subroutine INISYM returns: Found  8 space group operations
 (whereof  4 operations are pure point group operations),
 and found     1 'primitive' translations


----------------------------------------------------------------------------------------

                                     Primitive cell                                     

  volume of cell :     143.0744

  direct lattice vectors                    reciprocal lattice vectors
     5.697000000  0.000000000  0.000000000     0.175530981  0.000000000  0.000000000
     0.000000000  4.047900000  0.000000000     0.000000000  0.247041676  0.000000000
     0.000000000  0.000000000  6.204200000     0.000000000  0.000000000  0.161181135

  length of vectors
     5.697000000  4.047900000  6.204200000     0.175530981  0.247041676  0.161181135

  position of ions in fractional coordinates (direct lattice)
     0.521230000  0.500000000  0.637960000
     0.478770000  0.500000000  0.362040000
     0.978770000  0.500000000  0.637960000
     0.021230000  0.500000000  0.362040000
     0.600900000  0.500000000  0.899910000
     0.399100000  0.500000000  0.100090000
     0.899100000  0.500000000  0.899910000
     0.100900000  0.500000000  0.100090000
     0.750000000  0.791710000  0.729730000
     0.250000000  0.208290000  0.270270000
     0.750000000  0.208290000  0.729730000
     0.250000000  0.791710000  0.270270000
     0.250000000  0.500000000  0.523670000
     0.750000000  0.500000000  0.476330000

  ion indices of the primitive-cell ions
   primitive index   ion index
                 1           1
                 2           2
                 3           3
                 4           4
                 5           5
                 6           6
                 7           7
                 8           8
                 9           9
                10          10
                11          11
                12          12
                13          13
                14          14

----------------------------------------------------------------------------------------

 
 
 KPOINTS: k-points                                

Automatic generation of k-mesh.
 Grid dimensions read from file:
 generate k-points for:   21   30   19

 Generating k-lattice:

  Cartesian coordinates                     Fractional coordinates (reciprocal lattice)
     0.008358618  0.000000000  0.000000000     0.047619048  0.000000000  0.000000000
     0.000000000  0.008234723  0.000000000     0.000000000  0.033333333  0.000000000
     0.000000000  0.000000000  0.008483218     0.000000000  0.000000000  0.052631579

  Length of vectors
     0.008358618  0.008234723  0.008483218

  Shift w.r.t. Gamma in fractional coordinates (k-lattice)
     0.000000000  0.500000000  0.000000000

 
 Subroutine IBZKPT returns following result:
 ===========================================
 
 Found   1650 irreducible k-points:
 
 Following reciprocal coordinates:
            Coordinates               Weight
  0.000000  0.016667  0.000000      2.000000
  0.047619  0.016667  0.000000      4.000000
  0.095238  0.016667  0.000000      4.000000
  0.142857  0.016667  0.000000      4.000000
  0.190476  0.016667  0.000000      4.000000
  0.238095  0.016667  0.000000      4.000000
  0.285714  0.016667  0.000000      4.000000
  0.333333  0.016667  0.000000      4.000000
  0.380952  0.016667  0.000000      4.000000
  0.428571  0.016667  0.000000      4.000000
  0.476190  0.016667  0.000000      4.000000
  0.000000  0.050000  0.000000      2.000000
  0.047619  0.050000  0.000000      4.000000
  0.095238  0.050000  0.000000      4.000000
  0.142857  0.050000  0.000000      4.000000
  0.190476  0.050000  0.000000      4.000000
  0.238095  0.050000  0.000000      4.000000
  0.285714  0.050000  0.000000      4.000000
  0.333333  0.050000  0.000000      4.000000
  0.380952  0.050000  0.000000      4.000000
  0.428571  0.050000  0.000000      4.000000
  0.476190  0.050000  0.000000      4.000000
  0.000000  0.083333  0.000000      2.000000
  0.047619  0.083333  0.000000      4.000000
  0.095238  0.083333  0.000000      4.000000
  0.142857  0.083333  0.000000      4.000000
  0.190476  0.083333  0.000000      4.000000
  0.238095  0.083333  0.000000      4.000000
  0.285714  0.083333  0.000000      4.000000
  0.333333  0.083333  0.000000      4.000000
  0.380952  0.083333  0.000000      4.000000
  0.428571  0.083333  0.000000      4.000000
  0.476190  0.083333  0.000000      4.000000
  0.000000  0.116667  0.000000      2.000000
  0.047619  0.116667  0.000000      4.000000
  0.095238  0.116667  0.000000      4.000000
  0.142857  0.116667  0.000000      4.000000
  0.190476  0.116667  0.000000      4.000000
  0.238095  0.116667  0.000000      4.000000
  0.285714  0.116667  0.000000      4.000000
  0.333333  0.116667  0.000000      4.000000
  0.380952  0.116667  0.000000      4.000000
  0.428571  0.116667  0.000000      4.000000
  0.476190  0.116667  0.000000      4.000000
  0.000000  0.150000  0.000000      2.000000
  0.047619  0.150000  0.000000      4.000000
  0.095238  0.150000  0.000000      4.000000
  0.142857  0.150000  0.000000      4.000000
  0.190476  0.150000  0.000000      4.000000
  0.238095  0.150000  0.000000      4.000000
  0.285714  0.150000  0.000000      4.000000
  0.333333  0.150000  0.000000      4.000000
  0.380952  0.150000  0.000000      4.000000
  0.428571  0.150000  0.000000      4.000000
  0.476190  0.150000  0.000000      4.000000
  0.000000  0.183333  0.000000      2.000000
  0.047619  0.183333  0.000000      4.000000
  0.095238  0.183333  0.000000      4.000000
  0.142857  0.183333  0.000000      4.000000
  0.190476  0.183333  0.000000      4.000000
  0.238095  0.183333  0.000000      4.000000
  0.285714  0.183333  0.000000      4.000000
  0.333333  0.183333  0.000000      4.000000
  0.380952  0.183333  0.000000      4.000000
  0.428571  0.183333  0.000000      4.000000
  0.476190  0.183333  0.000000      4.000000
  0.000000  0.216667  0.000000      2.000000
  0.047619  0.216667  0.000000      4.000000
  0.095238  0.216667  0.000000      4.000000
  0.142857  0.216667  0.000000      4.000000
  0.190476  0.216667  0.000000      4.000000
  0.238095  0.216667  0.000000      4.000000
  0.285714  0.216667  0.000000      4.000000
  0.333333  0.216667  0.000000      4.000000
  0.380952  0.216667  0.000000      4.000000
  0.428571  0.216667  0.000000      4.000000
  0.476190  0.216667  0.000000      4.000000
  0.000000  0.250000  0.000000      2.000000
  0.047619  0.250000  0.000000      4.000000
  0.095238  0.250000  0.000000      4.000000
  0.142857  0.250000  0.000000      4.000000
  0.190476  0.250000  0.000000      4.000000
  0.238095  0.250000  0.000000      4.000000
  0.285714  0.250000  0.000000      4.000000
  0.333333  0.250000  0.000000      4.000000
  0.380952  0.250000  0.000000      4.000000
  0.428571  0.250000  0.000000      4.000000
  0.476190  0.250000  0.000000      4.000000
  0.000000  0.283333  0.000000      2.000000
  0.047619  0.283333  0.000000      4.000000
  0.095238  0.283333  0.000000      4.000000
  0.142857  0.283333  0.000000      4.000000
  0.190476  0.283333  0.000000      4.000000
  0.238095  0.283333  0.000000      4.000000
  0.285714  0.283333  0.000000      4.000000
  0.333333  0.283333  0.000000      4.000000
  0.380952  0.283333  0.000000      4.000000
  0.428571  0.283333  0.000000      4.000000
  0.476190  0.283333  0.000000      4.000000
  0.000000  0.316667  0.000000      2.000000
  0.047619  0.316667  0.000000      4.000000
  0.095238  0.316667  0.000000      4.000000
  0.142857  0.316667  0.000000      4.000000
  0.190476  0.316667  0.000000      4.000000
  0.238095  0.316667  0.000000      4.000000
  0.285714  0.316667  0.000000      4.000000
  0.333333  0.316667  0.000000      4.000000
  0.380952  0.316667  0.000000      4.000000
  0.428571  0.316667  0.000000      4.000000
  0.476190  0.316667  0.000000      4.000000
  0.000000  0.350000  0.000000      2.000000
  0.047619  0.350000  0.000000      4.000000
  0.095238  0.350000  0.000000      4.000000
  0.142857  0.350000  0.000000      4.000000
  0.190476  0.350000  0.000000      4.000000
  0.238095  0.350000  0.000000      4.000000
  0.285714  0.350000  0.000000      4.000000
  0.333333  0.350000  0.000000      4.000000
  0.380952  0.350000  0.000000      4.000000
  0.428571  0.350000  0.000000      4.000000
  0.476190  0.350000  0.000000      4.000000
  0.000000  0.383333  0.000000      2.000000
  0.047619  0.383333  0.000000      4.000000
  0.095238  0.383333  0.000000      4.000000
  0.142857  0.383333  0.000000      4.000000
  0.190476  0.383333  0.000000      4.000000
  0.238095  0.383333  0.000000      4.000000
  0.285714  0.383333  0.000000      4.000000
  0.333333  0.383333  0.000000      4.000000
  0.380952  0.383333  0.000000      4.000000
  0.428571  0.383333  0.000000      4.000000
  0.476190  0.383333  0.000000      4.000000
  0.000000  0.416667  0.000000      2.000000
  0.047619  0.416667  0.000000      4.000000
  0.095238  0.416667  0.000000      4.000000
  0.142857  0.416667  0.000000      4.000000
  0.190476  0.416667  0.000000      4.000000
  0.238095  0.416667  0.000000      4.000000
  0.285714  0.416667  0.000000      4.000000
  0.333333  0.416667  0.000000      4.000000
  0.380952  0.416667  0.000000      4.000000
  0.428571  0.416667  0.000000      4.000000
  0.476190  0.416667  0.000000      4.000000
  0.000000  0.450000  0.000000      2.000000
  0.047619  0.450000  0.000000      4.000000
  0.095238  0.450000  0.000000      4.000000
  0.142857  0.450000  0.000000      4.000000
  0.190476  0.450000  0.000000      4.000000
  0.238095  0.450000  0.000000      4.000000
  0.285714  0.450000  0.000000      4.000000
  0.333333  0.450000  0.000000      4.000000
  0.380952  0.450000  0.000000      4.000000
  0.428571  0.450000  0.000000      4.000000
  0.476190  0.450000  0.000000      4.000000
  0.000000  0.483333  0.000000      2.000000
  0.047619  0.483333  0.000000      4.000000
  0.095238  0.483333  0.000000      4.000000
  0.142857  0.483333  0.000000      4.000000
  0.190476  0.483333  0.000000      4.000000
  0.238095  0.483333  0.000000      4.000000
  0.285714  0.483333  0.000000      4.000000
  0.333333  0.483333  0.000000      4.000000
  0.380952  0.483333  0.000000      4.000000
  0.428571  0.483333  0.000000      4.000000
  0.476190  0.483333  0.000000      4.000000
  0.000000  0.016667  0.052632      4.000000
  0.047619  0.016667  0.052632      8.000000
  0.095238  0.016667  0.052632      8.000000
  0.142857  0.016667  0.052632      8.000000
  0.190476  0.016667  0.052632      8.000000
  0.238095  0.016667  0.052632      8.000000
  0.285714  0.016667  0.052632      8.000000
  0.333333  0.016667  0.052632      8.000000
  0.380952  0.016667  0.052632      8.000000
  0.428571  0.016667  0.052632      8.000000
  0.476190  0.016667  0.052632      8.000000
  0.000000  0.050000  0.052632      4.000000
  0.047619  0.050000  0.052632      8.000000
  0.095238  0.050000  0.052632      8.000000
  0.142857  0.050000  0.052632      8.000000
  0.190476  0.050000  0.052632      8.000000
  0.238095  0.050000  0.052632      8.000000
  0.285714  0.050000  0.052632      8.000000
  0.333333  0.050000  0.052632      8.000000
  0.380952  0.050000  0.052632      8.000000
  0.428571  0.050000  0.052632      8.000000
  0.476190  0.050000  0.052632      8.000000
  0.000000  0.083333  0.052632      4.000000
  0.047619  0.083333  0.052632      8.000000
  0.095238  0.083333  0.052632      8.000000
  0.142857  0.083333  0.052632      8.000000
  0.190476  0.083333  0.052632      8.000000
  0.238095  0.083333  0.052632      8.000000
  0.285714  0.083333  0.052632      8.000000
  0.333333  0.083333  0.052632      8.000000
  0.380952  0.083333  0.052632      8.000000
  0.428571  0.083333  0.052632      8.000000
  0.476190  0.083333  0.052632      8.000000
  0.000000  0.116667  0.052632      4.000000
  0.047619  0.116667  0.052632      8.000000
  0.095238  0.116667  0.052632      8.000000
  0.142857  0.116667  0.052632      8.000000
  0.190476  0.116667  0.052632      8.000000
  0.238095  0.116667  0.052632      8.000000
  0.285714  0.116667  0.052632      8.000000
  0.333333  0.116667  0.052632      8.000000
  0.380952  0.116667  0.052632      8.000000
  0.428571  0.116667  0.052632      8.000000
  0.476190  0.116667  0.052632      8.000000
  0.000000  0.150000  0.052632      4.000000
  0.047619  0.150000  0.052632      8.000000
  0.095238  0.150000  0.052632      8.000000
  0.142857  0.150000  0.052632      8.000000
  0.190476  0.150000  0.052632      8.000000
  0.238095  0.150000  0.052632      8.000000
  0.285714  0.150000  0.052632      8.000000
  0.333333  0.150000  0.052632      8.000000
  0.380952  0.150000  0.052632      8.000000
  0.428571  0.150000  0.052632      8.000000
  0.476190  0.150000  0.052632      8.000000
  0.000000  0.183333  0.052632      4.000000
  0.047619  0.183333  0.052632      8.000000
  0.095238  0.183333  0.052632      8.000000
  0.142857  0.183333  0.052632      8.000000
  0.190476  0.183333  0.052632      8.000000
  0.238095  0.183333  0.052632      8.000000
  0.285714  0.183333  0.052632      8.000000
  0.333333  0.183333  0.052632      8.000000
  0.380952  0.183333  0.052632      8.000000
  0.428571  0.183333  0.052632      8.000000
  0.476190  0.183333  0.052632      8.000000
  0.000000  0.216667  0.052632      4.000000
  0.047619  0.216667  0.052632      8.000000
  0.095238  0.216667  0.052632      8.000000
  0.142857  0.216667  0.052632      8.000000
  0.190476  0.216667  0.052632      8.000000
  0.238095  0.216667  0.052632      8.000000
  0.285714  0.216667  0.052632      8.000000
  0.333333  0.216667  0.052632      8.000000
  0.380952  0.216667  0.052632      8.000000
  0.428571  0.216667  0.052632      8.000000
  0.476190  0.216667  0.052632      8.000000
  0.000000  0.250000  0.052632      4.000000
  0.047619  0.250000  0.052632      8.000000
  0.095238  0.250000  0.052632      8.000000
  0.142857  0.250000  0.052632      8.000000
  0.190476  0.250000  0.052632      8.000000
  0.238095  0.250000  0.052632      8.000000
  0.285714  0.250000  0.052632      8.000000
  0.333333  0.250000  0.052632      8.000000
  0.380952  0.250000  0.052632      8.000000
  0.428571  0.250000  0.052632      8.000000
  0.476190  0.250000  0.052632      8.000000
  0.000000  0.283333  0.052632      4.000000
  0.047619  0.283333  0.052632      8.000000
  0.095238  0.283333  0.052632      8.000000
  0.142857  0.283333  0.052632      8.000000
  0.190476  0.283333  0.052632      8.000000
  0.238095  0.283333  0.052632      8.000000
  0.285714  0.283333  0.052632      8.000000
  0.333333  0.283333  0.052632      8.000000
  0.380952  0.283333  0.052632      8.000000
  0.428571  0.283333  0.052632      8.000000
  0.476190  0.283333  0.052632      8.000000
  0.000000  0.316667  0.052632      4.000000
  0.047619  0.316667  0.052632      8.000000
  0.095238  0.316667  0.052632      8.000000
  0.142857  0.316667  0.052632      8.000000
  0.190476  0.316667  0.052632      8.000000
  0.238095  0.316667  0.052632      8.000000
  0.285714  0.316667  0.052632      8.000000
  0.333333  0.316667  0.052632      8.000000
  0.380952  0.316667  0.052632      8.000000
  0.428571  0.316667  0.052632      8.000000
  0.476190  0.316667  0.052632      8.000000
  0.000000  0.350000  0.052632      4.000000
  0.047619  0.350000  0.052632      8.000000
  0.095238  0.350000  0.052632      8.000000
  0.142857  0.350000  0.052632      8.000000
  0.190476  0.350000  0.052632      8.000000
  0.238095  0.350000  0.052632      8.000000
  0.285714  0.350000  0.052632      8.000000
  0.333333  0.350000  0.052632      8.000000
  0.380952  0.350000  0.052632      8.000000
  0.428571  0.350000  0.052632      8.000000
  0.476190  0.350000  0.052632      8.000000
  0.000000  0.383333  0.052632      4.000000
  0.047619  0.383333  0.052632      8.000000
  0.095238  0.383333  0.052632      8.000000
  0.142857  0.383333  0.052632      8.000000
  0.190476  0.383333  0.052632      8.000000
  0.238095  0.383333  0.052632      8.000000
  0.285714  0.383333  0.052632      8.000000
  0.333333  0.383333  0.052632      8.000000
  0.380952  0.383333  0.052632      8.000000
  0.428571  0.383333  0.052632      8.000000
  0.476190  0.383333  0.052632      8.000000
  0.000000  0.416667  0.052632      4.000000
  0.047619  0.416667  0.052632      8.000000
  0.095238  0.416667  0.052632      8.000000
  0.142857  0.416667  0.052632      8.000000
  0.190476  0.416667  0.052632      8.000000
  0.238095  0.416667  0.052632      8.000000
  0.285714  0.416667  0.052632      8.000000
  0.333333  0.416667  0.052632      8.000000
  0.380952  0.416667  0.052632      8.000000
  0.428571  0.416667  0.052632      8.000000
  0.476190  0.416667  0.052632      8.000000
  0.000000  0.450000  0.052632      4.000000
  0.047619  0.450000  0.052632      8.000000
  0.095238  0.450000  0.052632      8.000000
  0.142857  0.450000  0.052632      8.000000
  0.190476  0.450000  0.052632      8.000000
  0.238095  0.450000  0.052632      8.000000
  0.285714  0.450000  0.052632      8.000000
  0.333333  0.450000  0.052632      8.000000
  0.380952  0.450000  0.052632      8.000000
  0.428571  0.450000  0.052632      8.000000
  0.476190  0.450000  0.052632      8.000000
  0.000000  0.483333  0.052632      4.000000
  0.047619  0.483333  0.052632      8.000000
  0.095238  0.483333  0.052632      8.000000
  0.142857  0.483333  0.052632      8.000000
  0.190476  0.483333  0.052632      8.000000
  0.238095  0.483333  0.052632      8.000000
  0.285714  0.483333  0.052632      8.000000
  0.333333  0.483333  0.052632      8.000000
  0.380952  0.483333  0.052632      8.000000
  0.428571  0.483333  0.052632      8.000000
  0.476190  0.483333  0.052632      8.000000
  0.000000  0.016667  0.105263      4.000000
  0.047619  0.016667  0.105263      8.000000
  0.095238  0.016667  0.105263      8.000000
  0.142857  0.016667  0.105263      8.000000
  0.190476  0.016667  0.105263      8.000000
  0.238095  0.016667  0.105263      8.000000
  0.285714  0.016667  0.105263      8.000000
  0.333333  0.016667  0.105263      8.000000
  0.380952  0.016667  0.105263      8.000000
  0.428571  0.016667  0.105263      8.000000
  0.476190  0.016667  0.105263      8.000000
  0.000000  0.050000  0.105263      4.000000
  0.047619  0.050000  0.105263      8.000000
  0.095238  0.050000  0.105263      8.000000
  0.142857  0.050000  0.105263      8.000000
  0.190476  0.050000  0.105263      8.000000
  0.238095  0.050000  0.105263      8.000000
  0.285714  0.050000  0.105263      8.000000
  0.333333  0.050000  0.105263      8.000000
  0.380952  0.050000  0.105263      8.000000
  0.428571  0.050000  0.105263      8.000000
  0.476190  0.050000  0.105263      8.000000
  0.000000  0.083333  0.105263      4.000000
  0.047619  0.083333  0.105263      8.000000
  0.095238  0.083333  0.105263      8.000000
  0.142857  0.083333  0.105263      8.000000
  0.190476  0.083333  0.105263      8.000000
  0.238095  0.083333  0.105263      8.000000
  0.285714  0.083333  0.105263      8.000000
  0.333333  0.083333  0.105263      8.000000
  0.380952  0.083333  0.105263      8.000000
  0.428571  0.083333  0.105263      8.000000
  0.476190  0.083333  0.105263      8.000000
  0.000000  0.116667  0.105263      4.000000
  0.047619  0.116667  0.105263      8.000000
  0.095238  0.116667  0.105263      8.000000
  0.142857  0.116667  0.105263      8.000000
  0.190476  0.116667  0.105263      8.000000
  0.238095  0.116667  0.105263      8.000000
  0.285714  0.116667  0.105263      8.000000
  0.333333  0.116667  0.105263      8.000000
  0.380952  0.116667  0.105263      8.000000
  0.428571  0.116667  0.105263      8.000000
  0.476190  0.116667  0.105263      8.000000
  0.000000  0.150000  0.105263      4.000000
  0.047619  0.150000  0.105263      8.000000
  0.095238  0.150000  0.105263      8.000000
  0.142857  0.150000  0.105263      8.000000
  0.190476  0.150000  0.105263      8.000000
  0.238095  0.150000  0.105263      8.000000
  0.285714  0.150000  0.105263      8.000000
  0.333333  0.150000  0.105263      8.000000
  0.380952  0.150000  0.105263      8.000000
  0.428571  0.150000  0.105263      8.000000
  0.476190  0.150000  0.105263      8.000000
  0.000000  0.183333  0.105263      4.000000
  0.047619  0.183333  0.105263      8.000000
  0.095238  0.183333  0.105263      8.000000
  0.142857  0.183333  0.105263      8.000000
  0.190476  0.183333  0.105263      8.000000
  0.238095  0.183333  0.105263      8.000000
  0.285714  0.183333  0.105263      8.000000
  0.333333  0.183333  0.105263      8.000000
  0.380952  0.183333  0.105263      8.000000
  0.428571  0.183333  0.105263      8.000000
  0.476190  0.183333  0.105263      8.000000
  0.000000  0.216667  0.105263      4.000000
  0.047619  0.216667  0.105263      8.000000
  0.095238  0.216667  0.105263      8.000000
  0.142857  0.216667  0.105263      8.000000
  0.190476  0.216667  0.105263      8.000000
  0.238095  0.216667  0.105263      8.000000
  0.285714  0.216667  0.105263      8.000000
  0.333333  0.216667  0.105263      8.000000
  0.380952  0.216667  0.105263      8.000000
  0.428571  0.216667  0.105263      8.000000
  0.476190  0.216667  0.105263      8.000000
  0.000000  0.250000  0.105263      4.000000
  0.047619  0.250000  0.105263      8.000000
  0.095238  0.250000  0.105263      8.000000
  0.142857  0.250000  0.105263      8.000000
  0.190476  0.250000  0.105263      8.000000
  0.238095  0.250000  0.105263      8.000000
  0.285714  0.250000  0.105263      8.000000
  0.333333  0.250000  0.105263      8.000000
  0.380952  0.250000  0.105263      8.000000
  0.428571  0.250000  0.105263      8.000000
  0.476190  0.250000  0.105263      8.000000
  0.000000  0.283333  0.105263      4.000000
  0.047619  0.283333  0.105263      8.000000
  0.095238  0.283333  0.105263      8.000000
  0.142857  0.283333  0.105263      8.000000
  0.190476  0.283333  0.105263      8.000000
  0.238095  0.283333  0.105263      8.000000
  0.285714  0.283333  0.105263      8.000000
  0.333333  0.283333  0.105263      8.000000
  0.380952  0.283333  0.105263      8.000000
  0.428571  0.283333  0.105263      8.000000
  0.476190  0.283333  0.105263      8.000000
  0.000000  0.316667  0.105263      4.000000
  0.047619  0.316667  0.105263      8.000000
  0.095238  0.316667  0.105263      8.000000
  0.142857  0.316667  0.105263      8.000000
  0.190476  0.316667  0.105263      8.000000
  0.238095  0.316667  0.105263      8.000000
  0.285714  0.316667  0.105263      8.000000
  0.333333  0.316667  0.105263      8.000000
  0.380952  0.316667  0.105263      8.000000
  0.428571  0.316667  0.105263      8.000000
  0.476190  0.316667  0.105263      8.000000
  0.000000  0.350000  0.105263      4.000000
  0.047619  0.350000  0.105263      8.000000
  0.095238  0.350000  0.105263      8.000000
  0.142857  0.350000  0.105263      8.000000
  0.190476  0.350000  0.105263      8.000000
  0.238095  0.350000  0.105263      8.000000
  0.285714  0.350000  0.105263      8.000000
  0.333333  0.350000  0.105263      8.000000
  0.380952  0.350000  0.105263      8.000000
  0.428571  0.350000  0.105263      8.000000
  0.476190  0.350000  0.105263      8.000000
  0.000000  0.383333  0.105263      4.000000
  0.047619  0.383333  0.105263      8.000000
  0.095238  0.383333  0.105263      8.000000
  0.142857  0.383333  0.105263      8.000000
  0.190476  0.383333  0.105263      8.000000
  0.238095  0.383333  0.105263      8.000000
  0.285714  0.383333  0.105263      8.000000
  0.333333  0.383333  0.105263      8.000000
  0.380952  0.383333  0.105263      8.000000
  0.428571  0.383333  0.105263      8.000000
  0.476190  0.383333  0.105263      8.000000
  0.000000  0.416667  0.105263      4.000000
  0.047619  0.416667  0.105263      8.000000
  0.095238  0.416667  0.105263      8.000000
  0.142857  0.416667  0.105263      8.000000
  0.190476  0.416667  0.105263      8.000000
  0.238095  0.416667  0.105263      8.000000
  0.285714  0.416667  0.105263      8.000000
  0.333333  0.416667  0.105263      8.000000
  0.380952  0.416667  0.105263      8.000000
  0.428571  0.416667  0.105263      8.000000
  0.476190  0.416667  0.105263      8.000000
  0.000000  0.450000  0.105263      4.000000
  0.047619  0.450000  0.105263      8.000000
  0.095238  0.450000  0.105263      8.000000
  0.142857  0.450000  0.105263      8.000000
  0.190476  0.450000  0.105263      8.000000
  0.238095  0.450000  0.105263      8.000000
  0.285714  0.450000  0.105263      8.000000
  0.333333  0.450000  0.105263      8.000000
  0.380952  0.450000  0.105263      8.000000
  0.428571  0.450000  0.105263      8.000000
  0.476190  0.450000  0.105263      8.000000
  0.000000  0.483333  0.105263      4.000000
  0.047619  0.483333  0.105263      8.000000
  0.095238  0.483333  0.105263      8.000000
  0.142857  0.483333  0.105263      8.000000
  0.190476  0.483333  0.105263      8.000000
  0.238095  0.483333  0.105263      8.000000
  0.285714  0.483333  0.105263      8.000000
  0.333333  0.483333  0.105263      8.000000
  0.380952  0.483333  0.105263      8.000000
  0.428571  0.483333  0.105263      8.000000
  0.476190  0.483333  0.105263      8.000000
  0.000000  0.016667  0.157895      4.000000
  0.047619  0.016667  0.157895      8.000000
  0.095238  0.016667  0.157895      8.000000
  0.142857  0.016667  0.157895      8.000000
  0.190476  0.016667  0.157895      8.000000
  0.238095  0.016667  0.157895      8.000000
  0.285714  0.016667  0.157895      8.000000
  0.333333  0.016667  0.157895      8.000000
  0.380952  0.016667  0.157895      8.000000
  0.428571  0.016667  0.157895      8.000000
  0.476190  0.016667  0.157895      8.000000
  0.000000  0.050000  0.157895      4.000000
  0.047619  0.050000  0.157895      8.000000
  0.095238  0.050000  0.157895      8.000000
  0.142857  0.050000  0.157895      8.000000
  0.190476  0.050000  0.157895      8.000000
  0.238095  0.050000  0.157895      8.000000
  0.285714  0.050000  0.157895      8.000000
  0.333333  0.050000  0.157895      8.000000
  0.380952  0.050000  0.157895      8.000000
  0.428571  0.050000  0.157895      8.000000
  0.476190  0.050000  0.157895      8.000000
  0.000000  0.083333  0.157895      4.000000
  0.047619  0.083333  0.157895      8.000000
  0.095238  0.083333  0.157895      8.000000
  0.142857  0.083333  0.157895      8.000000
  0.190476  0.083333  0.157895      8.000000
  0.238095  0.083333  0.157895      8.000000
  0.285714  0.083333  0.157895      8.000000
  0.333333  0.083333  0.157895      8.000000
  0.380952  0.083333  0.157895      8.000000
  0.428571  0.083333  0.157895      8.000000
  0.476190  0.083333  0.157895      8.000000
  0.000000  0.116667  0.157895      4.000000
  0.047619  0.116667  0.157895      8.000000
  0.095238  0.116667  0.157895      8.000000
  0.142857  0.116667  0.157895      8.000000
  0.190476  0.116667  0.157895      8.000000
  0.238095  0.116667  0.157895      8.000000
  0.285714  0.116667  0.157895      8.000000
  0.333333  0.116667  0.157895      8.000000
  0.380952  0.116667  0.157895      8.000000
  0.428571  0.116667  0.157895      8.000000
  0.476190  0.116667  0.157895      8.000000
  0.000000  0.150000  0.157895      4.000000
  0.047619  0.150000  0.157895      8.000000
  0.095238  0.150000  0.157895      8.000000
  0.142857  0.150000  0.157895      8.000000
  0.190476  0.150000  0.157895      8.000000
  0.238095  0.150000  0.157895      8.000000
  0.285714  0.150000  0.157895      8.000000
  0.333333  0.150000  0.157895      8.000000
  0.380952  0.150000  0.157895      8.000000
  0.428571  0.150000  0.157895      8.000000
  0.476190  0.150000  0.157895      8.000000
  0.000000  0.183333  0.157895      4.000000
  0.047619  0.183333  0.157895      8.000000
  0.095238  0.183333  0.157895      8.000000
  0.142857  0.183333  0.157895      8.000000
  0.190476  0.183333  0.157895      8.000000
  0.238095  0.183333  0.157895      8.000000
  0.285714  0.183333  0.157895      8.000000
  0.333333  0.183333  0.157895      8.000000
  0.380952  0.183333  0.157895      8.000000
  0.428571  0.183333  0.157895      8.000000
  0.476190  0.183333  0.157895      8.000000
  0.000000  0.216667  0.157895      4.000000
  0.047619  0.216667  0.157895      8.000000
  0.095238  0.216667  0.157895      8.000000
  0.142857  0.216667  0.157895      8.000000
  0.190476  0.216667  0.157895      8.000000
  0.238095  0.216667  0.157895      8.000000
  0.285714  0.216667  0.157895      8.000000
  0.333333  0.216667  0.157895      8.000000
  0.380952  0.216667  0.157895      8.000000
  0.428571  0.216667  0.157895      8.000000
  0.476190  0.216667  0.157895      8.000000
  0.000000  0.250000  0.157895      4.000000
  0.047619  0.250000  0.157895      8.000000
  0.095238  0.250000  0.157895      8.000000
  0.142857  0.250000  0.157895      8.000000
  0.190476  0.250000  0.157895      8.000000
  0.238095  0.250000  0.157895      8.000000
  0.285714  0.250000  0.157895      8.000000
  0.333333  0.250000  0.157895      8.000000
  0.380952  0.250000  0.157895      8.000000
  0.428571  0.250000  0.157895      8.000000
  0.476190  0.250000  0.157895      8.000000
  0.000000  0.283333  0.157895      4.000000
  0.047619  0.283333  0.157895      8.000000
  0.095238  0.283333  0.157895      8.000000
  0.142857  0.283333  0.157895      8.000000
  0.190476  0.283333  0.157895      8.000000
  0.238095  0.283333  0.157895      8.000000
  0.285714  0.283333  0.157895      8.000000
  0.333333  0.283333  0.157895      8.000000
  0.380952  0.283333  0.157895      8.000000
  0.428571  0.283333  0.157895      8.000000
  0.476190  0.283333  0.157895      8.000000
  0.000000  0.316667  0.157895      4.000000
  0.047619  0.316667  0.157895      8.000000
  0.095238  0.316667  0.157895      8.000000
  0.142857  0.316667  0.157895      8.000000
  0.190476  0.316667  0.157895      8.000000
  0.238095  0.316667  0.157895      8.000000
  0.285714  0.316667  0.157895      8.000000
  0.333333  0.316667  0.157895      8.000000
  0.380952  0.316667  0.157895      8.000000
  0.428571  0.316667  0.157895      8.000000
  0.476190  0.316667  0.157895      8.000000
  0.000000  0.350000  0.157895      4.000000
  0.047619  0.350000  0.157895      8.000000
  0.095238  0.350000  0.157895      8.000000
  0.142857  0.350000  0.157895      8.000000
  0.190476  0.350000  0.157895      8.000000
  0.238095  0.350000  0.157895      8.000000
  0.285714  0.350000  0.157895      8.000000
  0.333333  0.350000  0.157895      8.000000
  0.380952  0.350000  0.157895      8.000000
  0.428571  0.350000  0.157895      8.000000
  0.476190  0.350000  0.157895      8.000000
  0.000000  0.383333  0.157895      4.000000
  0.047619  0.383333  0.157895      8.000000
  0.095238  0.383333  0.157895      8.000000
  0.142857  0.383333  0.157895      8.000000
  0.190476  0.383333  0.157895      8.000000
  0.238095  0.383333  0.157895      8.000000
  0.285714  0.383333  0.157895      8.000000
  0.333333  0.383333  0.157895      8.000000
  0.380952  0.383333  0.157895      8.000000
  0.428571  0.383333  0.157895      8.000000
  0.476190  0.383333  0.157895      8.000000
  0.000000  0.416667  0.157895      4.000000
  0.047619  0.416667  0.157895      8.000000
  0.095238  0.416667  0.157895      8.000000
  0.142857  0.416667  0.157895      8.000000
  0.190476  0.416667  0.157895      8.000000
  0.238095  0.416667  0.157895      8.000000
  0.285714  0.416667  0.157895      8.000000
  0.333333  0.416667  0.157895      8.000000
  0.380952  0.416667  0.157895      8.000000
  0.428571  0.416667  0.157895      8.000000
  0.476190  0.416667  0.157895      8.000000
  0.000000  0.450000  0.157895      4.000000
  0.047619  0.450000  0.157895      8.000000
  0.095238  0.450000  0.157895      8.000000
  0.142857  0.450000  0.157895      8.000000
  0.190476  0.450000  0.157895      8.000000
  0.238095  0.450000  0.157895      8.000000
  0.285714  0.450000  0.157895      8.000000
  0.333333  0.450000  0.157895      8.000000
  0.380952  0.450000  0.157895      8.000000
  0.428571  0.450000  0.157895      8.000000
  0.476190  0.450000  0.157895      8.000000
  0.000000  0.483333  0.157895      4.000000
  0.047619  0.483333  0.157895      8.000000
  0.095238  0.483333  0.157895      8.000000
  0.142857  0.483333  0.157895      8.000000
  0.190476  0.483333  0.157895      8.000000
  0.238095  0.483333  0.157895      8.000000
  0.285714  0.483333  0.157895      8.000000
  0.333333  0.483333  0.157895      8.000000
  0.380952  0.483333  0.157895      8.000000
  0.428571  0.483333  0.157895      8.000000
  0.476190  0.483333  0.157895      8.000000
  0.000000  0.016667  0.210526      4.000000
  0.047619  0.016667  0.210526      8.000000
  0.095238  0.016667  0.210526      8.000000
  0.142857  0.016667  0.210526      8.000000
  0.190476  0.016667  0.210526      8.000000
  0.238095  0.016667  0.210526      8.000000
  0.285714  0.016667  0.210526      8.000000
  0.333333  0.016667  0.210526      8.000000
  0.380952  0.016667  0.210526      8.000000
  0.428571  0.016667  0.210526      8.000000
  0.476190  0.016667  0.210526      8.000000
  0.000000  0.050000  0.210526      4.000000
  0.047619  0.050000  0.210526      8.000000
  0.095238  0.050000  0.210526      8.000000
  0.142857  0.050000  0.210526      8.000000
  0.190476  0.050000  0.210526      8.000000
  0.238095  0.050000  0.210526      8.000000
  0.285714  0.050000  0.210526      8.000000
  0.333333  0.050000  0.210526      8.000000
  0.380952  0.050000  0.210526      8.000000
  0.428571  0.050000  0.210526      8.000000
  0.476190  0.050000  0.210526      8.000000
  0.000000  0.083333  0.210526      4.000000
  0.047619  0.083333  0.210526      8.000000
  0.095238  0.083333  0.210526      8.000000
  0.142857  0.083333  0.210526      8.000000
  0.190476  0.083333  0.210526      8.000000
  0.238095  0.083333  0.210526      8.000000
  0.285714  0.083333  0.210526      8.000000
  0.333333  0.083333  0.210526      8.000000
  0.380952  0.083333  0.210526      8.000000
  0.428571  0.083333  0.210526      8.000000
  0.476190  0.083333  0.210526      8.000000
  0.000000  0.116667  0.210526      4.000000
  0.047619  0.116667  0.210526      8.000000
  0.095238  0.116667  0.210526      8.000000
  0.142857  0.116667  0.210526      8.000000
  0.190476  0.116667  0.210526      8.000000
  0.238095  0.116667  0.210526      8.000000
  0.285714  0.116667  0.210526      8.000000
  0.333333  0.116667  0.210526      8.000000
  0.380952  0.116667  0.210526      8.000000
  0.428571  0.116667  0.210526      8.000000
  0.476190  0.116667  0.210526      8.000000
  0.000000  0.150000  0.210526      4.000000
  0.047619  0.150000  0.210526      8.000000
  0.095238  0.150000  0.210526      8.000000
  0.142857  0.150000  0.210526      8.000000
  0.190476  0.150000  0.210526      8.000000
  0.238095  0.150000  0.210526      8.000000
  0.285714  0.150000  0.210526      8.000000
  0.333333  0.150000  0.210526      8.000000
  0.380952  0.150000  0.210526      8.000000
  0.428571  0.150000  0.210526      8.000000
  0.476190  0.150000  0.210526      8.000000
  0.000000  0.183333  0.210526      4.000000
  0.047619  0.183333  0.210526      8.000000
  0.095238  0.183333  0.210526      8.000000
  0.142857  0.183333  0.210526      8.000000
  0.190476  0.183333  0.210526      8.000000
  0.238095  0.183333  0.210526      8.000000
  0.285714  0.183333  0.210526      8.000000
  0.333333  0.183333  0.210526      8.000000
  0.380952  0.183333  0.210526      8.000000
  0.428571  0.183333  0.210526      8.000000
  0.476190  0.183333  0.210526      8.000000
  0.000000  0.216667  0.210526      4.000000
  0.047619  0.216667  0.210526      8.000000
  0.095238  0.216667  0.210526      8.000000
  0.142857  0.216667  0.210526      8.000000
  0.190476  0.216667  0.210526      8.000000
  0.238095  0.216667  0.210526      8.000000
  0.285714  0.216667  0.210526      8.000000
  0.333333  0.216667  0.210526      8.000000
  0.380952  0.216667  0.210526      8.000000
  0.428571  0.216667  0.210526      8.000000
  0.476190  0.216667  0.210526      8.000000
  0.000000  0.250000  0.210526      4.000000
  0.047619  0.250000  0.210526      8.000000
  0.095238  0.250000  0.210526      8.000000
  0.142857  0.250000  0.210526      8.000000
  0.190476  0.250000  0.210526      8.000000
  0.238095  0.250000  0.210526      8.000000
  0.285714  0.250000  0.210526      8.000000
  0.333333  0.250000  0.210526      8.000000
  0.380952  0.250000  0.210526      8.000000
  0.428571  0.250000  0.210526      8.000000
  0.476190  0.250000  0.210526      8.000000
  0.000000  0.283333  0.210526      4.000000
  0.047619  0.283333  0.210526      8.000000
  0.095238  0.283333  0.210526      8.000000
  0.142857  0.283333  0.210526      8.000000
  0.190476  0.283333  0.210526      8.000000
  0.238095  0.283333  0.210526      8.000000
  0.285714  0.283333  0.210526      8.000000
  0.333333  0.283333  0.210526      8.000000
  0.380952  0.283333  0.210526      8.000000
  0.428571  0.283333  0.210526      8.000000
  0.476190  0.283333  0.210526      8.000000
  0.000000  0.316667  0.210526      4.000000
  0.047619  0.316667  0.210526      8.000000
  0.095238  0.316667  0.210526      8.000000
  0.142857  0.316667  0.210526      8.000000
  0.190476  0.316667  0.210526      8.000000
  0.238095  0.316667  0.210526      8.000000
  0.285714  0.316667  0.210526      8.000000
  0.333333  0.316667  0.210526      8.000000
  0.380952  0.316667  0.210526      8.000000
  0.428571  0.316667  0.210526      8.000000
  0.476190  0.316667  0.210526      8.000000
  0.000000  0.350000  0.210526      4.000000
  0.047619  0.350000  0.210526      8.000000
  0.095238  0.350000  0.210526      8.000000
  0.142857  0.350000  0.210526      8.000000
  0.190476  0.350000  0.210526      8.000000
  0.238095  0.350000  0.210526      8.000000
  0.285714  0.350000  0.210526      8.000000
  0.333333  0.350000  0.210526      8.000000
  0.380952  0.350000  0.210526      8.000000
  0.428571  0.350000  0.210526      8.000000
  0.476190  0.350000  0.210526      8.000000
  0.000000  0.383333  0.210526      4.000000
  0.047619  0.383333  0.210526      8.000000
  0.095238  0.383333  0.210526      8.000000
  0.142857  0.383333  0.210526      8.000000
  0.190476  0.383333  0.210526      8.000000
  0.238095  0.383333  0.210526      8.000000
  0.285714  0.383333  0.210526      8.000000
  0.333333  0.383333  0.210526      8.000000
  0.380952  0.383333  0.210526      8.000000
  0.428571  0.383333  0.210526      8.000000
  0.476190  0.383333  0.210526      8.000000
  0.000000  0.416667  0.210526      4.000000
  0.047619  0.416667  0.210526      8.000000
  0.095238  0.416667  0.210526      8.000000
  0.142857  0.416667  0.210526      8.000000
  0.190476  0.416667  0.210526      8.000000
  0.238095  0.416667  0.210526      8.000000
  0.285714  0.416667  0.210526      8.000000
  0.333333  0.416667  0.210526      8.000000
  0.380952  0.416667  0.210526      8.000000
  0.428571  0.416667  0.210526      8.000000
  0.476190  0.416667  0.210526      8.000000
  0.000000  0.450000  0.210526      4.000000
  0.047619  0.450000  0.210526      8.000000
  0.095238  0.450000  0.210526      8.000000
  0.142857  0.450000  0.210526      8.000000
  0.190476  0.450000  0.210526      8.000000
  0.238095  0.450000  0.210526      8.000000
  0.285714  0.450000  0.210526      8.000000
  0.333333  0.450000  0.210526      8.000000
  0.380952  0.450000  0.210526      8.000000
  0.428571  0.450000  0.210526      8.000000
  0.476190  0.450000  0.210526      8.000000
  0.000000  0.483333  0.210526      4.000000
  0.047619  0.483333  0.210526      8.000000
  0.095238  0.483333  0.210526      8.000000
  0.142857  0.483333  0.210526      8.000000
  0.190476  0.483333  0.210526      8.000000
  0.238095  0.483333  0.210526      8.000000
  0.285714  0.483333  0.210526      8.000000
  0.333333  0.483333  0.210526      8.000000
  0.380952  0.483333  0.210526      8.000000
  0.428571  0.483333  0.210526      8.000000
  0.476190  0.483333  0.210526      8.000000
  0.000000  0.016667  0.263158      4.000000
  0.047619  0.016667  0.263158      8.000000
  0.095238  0.016667  0.263158      8.000000
  0.142857  0.016667  0.263158      8.000000
  0.190476  0.016667  0.263158      8.000000
  0.238095  0.016667  0.263158      8.000000
  0.285714  0.016667  0.263158      8.000000
  0.333333  0.016667  0.263158      8.000000
  0.380952  0.016667  0.263158      8.000000
  0.428571  0.016667  0.263158      8.000000
  0.476190  0.016667  0.263158      8.000000
  0.000000  0.050000  0.263158      4.000000
  0.047619  0.050000  0.263158      8.000000
  0.095238  0.050000  0.263158      8.000000
  0.142857  0.050000  0.263158      8.000000
  0.190476  0.050000  0.263158      8.000000
  0.238095  0.050000  0.263158      8.000000
  0.285714  0.050000  0.263158      8.000000
  0.333333  0.050000  0.263158      8.000000
  0.380952  0.050000  0.263158      8.000000
  0.428571  0.050000  0.263158      8.000000
  0.476190  0.050000  0.263158      8.000000
  0.000000  0.083333  0.263158      4.000000
  0.047619  0.083333  0.263158      8.000000
  0.095238  0.083333  0.263158      8.000000
  0.142857  0.083333  0.263158      8.000000
  0.190476  0.083333  0.263158      8.000000
  0.238095  0.083333  0.263158      8.000000
  0.285714  0.083333  0.263158      8.000000
  0.333333  0.083333  0.263158      8.000000
  0.380952  0.083333  0.263158      8.000000
  0.428571  0.083333  0.263158      8.000000
  0.476190  0.083333  0.263158      8.000000
  0.000000  0.116667  0.263158      4.000000
  0.047619  0.116667  0.263158      8.000000
  0.095238  0.116667  0.263158      8.000000
  0.142857  0.116667  0.263158      8.000000
  0.190476  0.116667  0.263158      8.000000
  0.238095  0.116667  0.263158      8.000000
  0.285714  0.116667  0.263158      8.000000
  0.333333  0.116667  0.263158      8.000000
  0.380952  0.116667  0.263158      8.000000
  0.428571  0.116667  0.263158      8.000000
  0.476190  0.116667  0.263158      8.000000
  0.000000  0.150000  0.263158      4.000000
  0.047619  0.150000  0.263158      8.000000
  0.095238  0.150000  0.263158      8.000000
  0.142857  0.150000  0.263158      8.000000
  0.190476  0.150000  0.263158      8.000000
  0.238095  0.150000  0.263158      8.000000
  0.285714  0.150000  0.263158      8.000000
  0.333333  0.150000  0.263158      8.000000
  0.380952  0.150000  0.263158      8.000000
  0.428571  0.150000  0.263158      8.000000
  0.476190  0.150000  0.263158      8.000000
  0.000000  0.183333  0.263158      4.000000
  0.047619  0.183333  0.263158      8.000000
  0.095238  0.183333  0.263158      8.000000
  0.142857  0.183333  0.263158      8.000000
  0.190476  0.183333  0.263158      8.000000
  0.238095  0.183333  0.263158      8.000000
  0.285714  0.183333  0.263158      8.000000
  0.333333  0.183333  0.263158      8.000000
  0.380952  0.183333  0.263158      8.000000
  0.428571  0.183333  0.263158      8.000000
  0.476190  0.183333  0.263158      8.000000
  0.000000  0.216667  0.263158      4.000000
  0.047619  0.216667  0.263158      8.000000
  0.095238  0.216667  0.263158      8.000000
  0.142857  0.216667  0.263158      8.000000
  0.190476  0.216667  0.263158      8.000000
  0.238095  0.216667  0.263158      8.000000
  0.285714  0.216667  0.263158      8.000000
  0.333333  0.216667  0.263158      8.000000
  0.380952  0.216667  0.263158      8.000000
  0.428571  0.216667  0.263158      8.000000
  0.476190  0.216667  0.263158      8.000000
  0.000000  0.250000  0.263158      4.000000
  0.047619  0.250000  0.263158      8.000000
  0.095238  0.250000  0.263158      8.000000
  0.142857  0.250000  0.263158      8.000000
  0.190476  0.250000  0.263158      8.000000
  0.238095  0.250000  0.263158      8.000000
  0.285714  0.250000  0.263158      8.000000
  0.333333  0.250000  0.263158      8.000000
  0.380952  0.250000  0.263158      8.000000
  0.428571  0.250000  0.263158      8.000000
  0.476190  0.250000  0.263158      8.000000
  0.000000  0.283333  0.263158      4.000000
  0.047619  0.283333  0.263158      8.000000
  0.095238  0.283333  0.263158      8.000000
  0.142857  0.283333  0.263158      8.000000
  0.190476  0.283333  0.263158      8.000000
  0.238095  0.283333  0.263158      8.000000
  0.285714  0.283333  0.263158      8.000000
  0.333333  0.283333  0.263158      8.000000
  0.380952  0.283333  0.263158      8.000000
  0.428571  0.283333  0.263158      8.000000
  0.476190  0.283333  0.263158      8.000000
  0.000000  0.316667  0.263158      4.000000
  0.047619  0.316667  0.263158      8.000000
  0.095238  0.316667  0.263158      8.000000
  0.142857  0.316667  0.263158      8.000000
  0.190476  0.316667  0.263158      8.000000
  0.238095  0.316667  0.263158      8.000000
  0.285714  0.316667  0.263158      8.000000
  0.333333  0.316667  0.263158      8.000000
  0.380952  0.316667  0.263158      8.000000
  0.428571  0.316667  0.263158      8.000000
  0.476190  0.316667  0.263158      8.000000
  0.000000  0.350000  0.263158      4.000000
  0.047619  0.350000  0.263158      8.000000
  0.095238  0.350000  0.263158      8.000000
  0.142857  0.350000  0.263158      8.000000
  0.190476  0.350000  0.263158      8.000000
  0.238095  0.350000  0.263158      8.000000
  0.285714  0.350000  0.263158      8.000000
  0.333333  0.350000  0.263158      8.000000
  0.380952  0.350000  0.263158      8.000000
  0.428571  0.350000  0.263158      8.000000
  0.476190  0.350000  0.263158      8.000000
  0.000000  0.383333  0.263158      4.000000
  0.047619  0.383333  0.263158      8.000000
  0.095238  0.383333  0.263158      8.000000
  0.142857  0.383333  0.263158      8.000000
  0.190476  0.383333  0.263158      8.000000
  0.238095  0.383333  0.263158      8.000000
  0.285714  0.383333  0.263158      8.000000
  0.333333  0.383333  0.263158      8.000000
  0.380952  0.383333  0.263158      8.000000
  0.428571  0.383333  0.263158      8.000000
  0.476190  0.383333  0.263158      8.000000
  0.000000  0.416667  0.263158      4.000000
  0.047619  0.416667  0.263158      8.000000
  0.095238  0.416667  0.263158      8.000000
  0.142857  0.416667  0.263158      8.000000
  0.190476  0.416667  0.263158      8.000000
  0.238095  0.416667  0.263158      8.000000
  0.285714  0.416667  0.263158      8.000000
  0.333333  0.416667  0.263158      8.000000
  0.380952  0.416667  0.263158      8.000000
  0.428571  0.416667  0.263158      8.000000
  0.476190  0.416667  0.263158      8.000000
  0.000000  0.450000  0.263158      4.000000
  0.047619  0.450000  0.263158      8.000000
  0.095238  0.450000  0.263158      8.000000
  0.142857  0.450000  0.263158      8.000000
  0.190476  0.450000  0.263158      8.000000
  0.238095  0.450000  0.263158      8.000000
  0.285714  0.450000  0.263158      8.000000
  0.333333  0.450000  0.263158      8.000000
  0.380952  0.450000  0.263158      8.000000
  0.428571  0.450000  0.263158      8.000000
  0.476190  0.450000  0.263158      8.000000
  0.000000  0.483333  0.263158      4.000000
  0.047619  0.483333  0.263158      8.000000
  0.095238  0.483333  0.263158      8.000000
  0.142857  0.483333  0.263158      8.000000
  0.190476  0.483333  0.263158      8.000000
  0.238095  0.483333  0.263158      8.000000
  0.285714  0.483333  0.263158      8.000000
  0.333333  0.483333  0.263158      8.000000
  0.380952  0.483333  0.263158      8.000000
  0.428571  0.483333  0.263158      8.000000
  0.476190  0.483333  0.263158      8.000000
  0.000000  0.016667  0.315789      4.000000
  0.047619  0.016667  0.315789      8.000000
  0.095238  0.016667  0.315789      8.000000
  0.142857  0.016667  0.315789      8.000000
  0.190476  0.016667  0.315789      8.000000
  0.238095  0.016667  0.315789      8.000000
  0.285714  0.016667  0.315789      8.000000
  0.333333  0.016667  0.315789      8.000000
  0.380952  0.016667  0.315789      8.000000
  0.428571  0.016667  0.315789      8.000000
  0.476190  0.016667  0.315789      8.000000
  0.000000  0.050000  0.315789      4.000000
  0.047619  0.050000  0.315789      8.000000
  0.095238  0.050000  0.315789      8.000000
  0.142857  0.050000  0.315789      8.000000
  0.190476  0.050000  0.315789      8.000000
  0.238095  0.050000  0.315789      8.000000
  0.285714  0.050000  0.315789      8.000000
  0.333333  0.050000  0.315789      8.000000
  0.380952  0.050000  0.315789      8.000000
  0.428571  0.050000  0.315789      8.000000
  0.476190  0.050000  0.315789      8.000000
  0.000000  0.083333  0.315789      4.000000
  0.047619  0.083333  0.315789      8.000000
  0.095238  0.083333  0.315789      8.000000
  0.142857  0.083333  0.315789      8.000000
  0.190476  0.083333  0.315789      8.000000
  0.238095  0.083333  0.315789      8.000000
  0.285714  0.083333  0.315789      8.000000
  0.333333  0.083333  0.315789      8.000000
  0.380952  0.083333  0.315789      8.000000
  0.428571  0.083333  0.315789      8.000000
  0.476190  0.083333  0.315789      8.000000
  0.000000  0.116667  0.315789      4.000000
  0.047619  0.116667  0.315789      8.000000
  0.095238  0.116667  0.315789      8.000000
  0.142857  0.116667  0.315789      8.000000
  0.190476  0.116667  0.315789      8.000000
  0.238095  0.116667  0.315789      8.000000
  0.285714  0.116667  0.315789      8.000000
  0.333333  0.116667  0.315789      8.000000
  0.380952  0.116667  0.315789      8.000000
  0.428571  0.116667  0.315789      8.000000
  0.476190  0.116667  0.315789      8.000000
  0.000000  0.150000  0.315789      4.000000
  0.047619  0.150000  0.315789      8.000000
  0.095238  0.150000  0.315789      8.000000
  0.142857  0.150000  0.315789      8.000000
  0.190476  0.150000  0.315789      8.000000
  0.238095  0.150000  0.315789      8.000000
  0.285714  0.150000  0.315789      8.000000
  0.333333  0.150000  0.315789      8.000000
  0.380952  0.150000  0.315789      8.000000
  0.428571  0.150000  0.315789      8.000000
  0.476190  0.150000  0.315789      8.000000
  0.000000  0.183333  0.315789      4.000000
  0.047619  0.183333  0.315789      8.000000
  0.095238  0.183333  0.315789      8.000000
  0.142857  0.183333  0.315789      8.000000
  0.190476  0.183333  0.315789      8.000000
  0.238095  0.183333  0.315789      8.000000
  0.285714  0.183333  0.315789      8.000000
  0.333333  0.183333  0.315789      8.000000
  0.380952  0.183333  0.315789      8.000000
  0.428571  0.183333  0.315789      8.000000
  0.476190  0.183333  0.315789      8.000000
  0.000000  0.216667  0.315789      4.000000
  0.047619  0.216667  0.315789      8.000000
  0.095238  0.216667  0.315789      8.000000
  0.142857  0.216667  0.315789      8.000000
  0.190476  0.216667  0.315789      8.000000
  0.238095  0.216667  0.315789      8.000000
  0.285714  0.216667  0.315789      8.000000
  0.333333  0.216667  0.315789      8.000000
  0.380952  0.216667  0.315789      8.000000
  0.428571  0.216667  0.315789      8.000000
  0.476190  0.216667  0.315789      8.000000
  0.000000  0.250000  0.315789      4.000000
  0.047619  0.250000  0.315789      8.000000
  0.095238  0.250000  0.315789      8.000000
  0.142857  0.250000  0.315789      8.000000
  0.190476  0.250000  0.315789      8.000000
  0.238095  0.250000  0.315789      8.000000
  0.285714  0.250000  0.315789      8.000000
  0.333333  0.250000  0.315789      8.000000
  0.380952  0.250000  0.315789      8.000000
  0.428571  0.250000  0.315789      8.000000
  0.476190  0.250000  0.315789      8.000000
  0.000000  0.283333  0.315789      4.000000
  0.047619  0.283333  0.315789      8.000000
  0.095238  0.283333  0.315789      8.000000
  0.142857  0.283333  0.315789      8.000000
  0.190476  0.283333  0.315789      8.000000
  0.238095  0.283333  0.315789      8.000000
  0.285714  0.283333  0.315789      8.000000
  0.333333  0.283333  0.315789      8.000000
  0.380952  0.283333  0.315789      8.000000
  0.428571  0.283333  0.315789      8.000000
  0.476190  0.283333  0.315789      8.000000
  0.000000  0.316667  0.315789      4.000000
  0.047619  0.316667  0.315789      8.000000
  0.095238  0.316667  0.315789      8.000000
  0.142857  0.316667  0.315789      8.000000
  0.190476  0.316667  0.315789      8.000000
  0.238095  0.316667  0.315789      8.000000
  0.285714  0.316667  0.315789      8.000000
  0.333333  0.316667  0.315789      8.000000
  0.380952  0.316667  0.315789      8.000000
  0.428571  0.316667  0.315789      8.000000
  0.476190  0.316667  0.315789      8.000000
  0.000000  0.350000  0.315789      4.000000
  0.047619  0.350000  0.315789      8.000000
  0.095238  0.350000  0.315789      8.000000
  0.142857  0.350000  0.315789      8.000000
  0.190476  0.350000  0.315789      8.000000
  0.238095  0.350000  0.315789      8.000000
  0.285714  0.350000  0.315789      8.000000
  0.333333  0.350000  0.315789      8.000000
  0.380952  0.350000  0.315789      8.000000
  0.428571  0.350000  0.315789      8.000000
  0.476190  0.350000  0.315789      8.000000
  0.000000  0.383333  0.315789      4.000000
  0.047619  0.383333  0.315789      8.000000
  0.095238  0.383333  0.315789      8.000000
  0.142857  0.383333  0.315789      8.000000
  0.190476  0.383333  0.315789      8.000000
  0.238095  0.383333  0.315789      8.000000
  0.285714  0.383333  0.315789      8.000000
  0.333333  0.383333  0.315789      8.000000
  0.380952  0.383333  0.315789      8.000000
  0.428571  0.383333  0.315789      8.000000
  0.476190  0.383333  0.315789      8.000000
  0.000000  0.416667  0.315789      4.000000
  0.047619  0.416667  0.315789      8.000000
  0.095238  0.416667  0.315789      8.000000
  0.142857  0.416667  0.315789      8.000000
  0.190476  0.416667  0.315789      8.000000
  0.238095  0.416667  0.315789      8.000000
  0.285714  0.416667  0.315789      8.000000
  0.333333  0.416667  0.315789      8.000000
  0.380952  0.416667  0.315789      8.000000
  0.428571  0.416667  0.315789      8.000000
  0.476190  0.416667  0.315789      8.000000
  0.000000  0.450000  0.315789      4.000000
  0.047619  0.450000  0.315789      8.000000
  0.095238  0.450000  0.315789      8.000000
  0.142857  0.450000  0.315789      8.000000
  0.190476  0.450000  0.315789      8.000000
  0.238095  0.450000  0.315789      8.000000
  0.285714  0.450000  0.315789      8.000000
  0.333333  0.450000  0.315789      8.000000
  0.380952  0.450000  0.315789      8.000000
  0.428571  0.450000  0.315789      8.000000
  0.476190  0.450000  0.315789      8.000000
  0.000000  0.483333  0.315789      4.000000
  0.047619  0.483333  0.315789      8.000000
  0.095238  0.483333  0.315789      8.000000
  0.142857  0.483333  0.315789      8.000000
  0.190476  0.483333  0.315789      8.000000
  0.238095  0.483333  0.315789      8.000000
  0.285714  0.483333  0.315789      8.000000
  0.333333  0.483333  0.315789      8.000000
  0.380952  0.483333  0.315789      8.000000
  0.428571  0.483333  0.315789      8.000000
  0.476190  0.483333  0.315789      8.000000
  0.000000  0.016667  0.368421      4.000000
  0.047619  0.016667  0.368421      8.000000
  0.095238  0.016667  0.368421      8.000000
  0.142857  0.016667  0.368421      8.000000
  0.190476  0.016667  0.368421      8.000000
  0.238095  0.016667  0.368421      8.000000
  0.285714  0.016667  0.368421      8.000000
  0.333333  0.016667  0.368421      8.000000
  0.380952  0.016667  0.368421      8.000000
  0.428571  0.016667  0.368421      8.000000
  0.476190  0.016667  0.368421      8.000000
  0.000000  0.050000  0.368421      4.000000
  0.047619  0.050000  0.368421      8.000000
  0.095238  0.050000  0.368421      8.000000
  0.142857  0.050000  0.368421      8.000000
  0.190476  0.050000  0.368421      8.000000
  0.238095  0.050000  0.368421      8.000000
  0.285714  0.050000  0.368421      8.000000
  0.333333  0.050000  0.368421      8.000000
  0.380952  0.050000  0.368421      8.000000
  0.428571  0.050000  0.368421      8.000000
  0.476190  0.050000  0.368421      8.000000
  0.000000  0.083333  0.368421      4.000000
  0.047619  0.083333  0.368421      8.000000
  0.095238  0.083333  0.368421      8.000000
  0.142857  0.083333  0.368421      8.000000
  0.190476  0.083333  0.368421      8.000000
  0.238095  0.083333  0.368421      8.000000
  0.285714  0.083333  0.368421      8.000000
  0.333333  0.083333  0.368421      8.000000
  0.380952  0.083333  0.368421      8.000000
  0.428571  0.083333  0.368421      8.000000
  0.476190  0.083333  0.368421      8.000000
  0.000000  0.116667  0.368421      4.000000
  0.047619  0.116667  0.368421      8.000000
  0.095238  0.116667  0.368421      8.000000
  0.142857  0.116667  0.368421      8.000000
  0.190476  0.116667  0.368421      8.000000
  0.238095  0.116667  0.368421      8.000000
  0.285714  0.116667  0.368421      8.000000
  0.333333  0.116667  0.368421      8.000000
  0.380952  0.116667  0.368421      8.000000
  0.428571  0.116667  0.368421      8.000000
  0.476190  0.116667  0.368421      8.000000
  0.000000  0.150000  0.368421      4.000000
  0.047619  0.150000  0.368421      8.000000
  0.095238  0.150000  0.368421      8.000000
  0.142857  0.150000  0.368421      8.000000
  0.190476  0.150000  0.368421      8.000000
  0.238095  0.150000  0.368421      8.000000
  0.285714  0.150000  0.368421      8.000000
  0.333333  0.150000  0.368421      8.000000
  0.380952  0.150000  0.368421      8.000000
  0.428571  0.150000  0.368421      8.000000
  0.476190  0.150000  0.368421      8.000000
  0.000000  0.183333  0.368421      4.000000
  0.047619  0.183333  0.368421      8.000000
  0.095238  0.183333  0.368421      8.000000
  0.142857  0.183333  0.368421      8.000000
  0.190476  0.183333  0.368421      8.000000
  0.238095  0.183333  0.368421      8.000000
  0.285714  0.183333  0.368421      8.000000
  0.333333  0.183333  0.368421      8.000000
  0.380952  0.183333  0.368421      8.000000
  0.428571  0.183333  0.368421      8.000000
  0.476190  0.183333  0.368421      8.000000
  0.000000  0.216667  0.368421      4.000000
  0.047619  0.216667  0.368421      8.000000
  0.095238  0.216667  0.368421      8.000000
  0.142857  0.216667  0.368421      8.000000
  0.190476  0.216667  0.368421      8.000000
  0.238095  0.216667  0.368421      8.000000
  0.285714  0.216667  0.368421      8.000000
  0.333333  0.216667  0.368421      8.000000
  0.380952  0.216667  0.368421      8.000000
  0.428571  0.216667  0.368421      8.000000
  0.476190  0.216667  0.368421      8.000000
  0.000000  0.250000  0.368421      4.000000
  0.047619  0.250000  0.368421      8.000000
  0.095238  0.250000  0.368421      8.000000
  0.142857  0.250000  0.368421      8.000000
  0.190476  0.250000  0.368421      8.000000
  0.238095  0.250000  0.368421      8.000000
  0.285714  0.250000  0.368421      8.000000
  0.333333  0.250000  0.368421      8.000000
  0.380952  0.250000  0.368421      8.000000
  0.428571  0.250000  0.368421      8.000000
  0.476190  0.250000  0.368421      8.000000
  0.000000  0.283333  0.368421      4.000000
  0.047619  0.283333  0.368421      8.000000
  0.095238  0.283333  0.368421      8.000000
  0.142857  0.283333  0.368421      8.000000
  0.190476  0.283333  0.368421      8.000000
  0.238095  0.283333  0.368421      8.000000
  0.285714  0.283333  0.368421      8.000000
  0.333333  0.283333  0.368421      8.000000
  0.380952  0.283333  0.368421      8.000000
  0.428571  0.283333  0.368421      8.000000
  0.476190  0.283333  0.368421      8.000000
  0.000000  0.316667  0.368421      4.000000
  0.047619  0.316667  0.368421      8.000000
  0.095238  0.316667  0.368421      8.000000
  0.142857  0.316667  0.368421      8.000000
  0.190476  0.316667  0.368421      8.000000
  0.238095  0.316667  0.368421      8.000000
  0.285714  0.316667  0.368421      8.000000
  0.333333  0.316667  0.368421      8.000000
  0.380952  0.316667  0.368421      8.000000
  0.428571  0.316667  0.368421      8.000000
  0.476190  0.316667  0.368421      8.000000
  0.000000  0.350000  0.368421      4.000000
  0.047619  0.350000  0.368421      8.000000
  0.095238  0.350000  0.368421      8.000000
  0.142857  0.350000  0.368421      8.000000
  0.190476  0.350000  0.368421      8.000000
  0.238095  0.350000  0.368421      8.000000
  0.285714  0.350000  0.368421      8.000000
  0.333333  0.350000  0.368421      8.000000
  0.380952  0.350000  0.368421      8.000000
  0.428571  0.350000  0.368421      8.000000
  0.476190  0.350000  0.368421      8.000000
  0.000000  0.383333  0.368421      4.000000
  0.047619  0.383333  0.368421      8.000000
  0.095238  0.383333  0.368421      8.000000
  0.142857  0.383333  0.368421      8.000000
  0.190476  0.383333  0.368421      8.000000
  0.238095  0.383333  0.368421      8.000000
  0.285714  0.383333  0.368421      8.000000
  0.333333  0.383333  0.368421      8.000000
  0.380952  0.383333  0.368421      8.000000
  0.428571  0.383333  0.368421      8.000000
  0.476190  0.383333  0.368421      8.000000
  0.000000  0.416667  0.368421      4.000000
  0.047619  0.416667  0.368421      8.000000
  0.095238  0.416667  0.368421      8.000000
  0.142857  0.416667  0.368421      8.000000
  0.190476  0.416667  0.368421      8.000000
  0.238095  0.416667  0.368421      8.000000
  0.285714  0.416667  0.368421      8.000000
  0.333333  0.416667  0.368421      8.000000
  0.380952  0.416667  0.368421      8.000000
  0.428571  0.416667  0.368421      8.000000
  0.476190  0.416667  0.368421      8.000000
  0.000000  0.450000  0.368421      4.000000
  0.047619  0.450000  0.368421      8.000000
  0.095238  0.450000  0.368421      8.000000
  0.142857  0.450000  0.368421      8.000000
  0.190476  0.450000  0.368421      8.000000
  0.238095  0.450000  0.368421      8.000000
  0.285714  0.450000  0.368421      8.000000
  0.333333  0.450000  0.368421      8.000000
  0.380952  0.450000  0.368421      8.000000
  0.428571  0.450000  0.368421      8.000000
  0.476190  0.450000  0.368421      8.000000
  0.000000  0.483333  0.368421      4.000000
  0.047619  0.483333  0.368421      8.000000
  0.095238  0.483333  0.368421      8.000000
  0.142857  0.483333  0.368421      8.000000
  0.190476  0.483333  0.368421      8.000000
  0.238095  0.483333  0.368421      8.000000
  0.285714  0.483333  0.368421      8.000000
  0.333333  0.483333  0.368421      8.000000
  0.380952  0.483333  0.368421      8.000000
  0.428571  0.483333  0.368421      8.000000
  0.476190  0.483333  0.368421      8.000000
  0.000000  0.016667  0.421053      4.000000
  0.047619  0.016667  0.421053      8.000000
  0.095238  0.016667  0.421053      8.000000
  0.142857  0.016667  0.421053      8.000000
  0.190476  0.016667  0.421053      8.000000
  0.238095  0.016667  0.421053      8.000000
  0.285714  0.016667  0.421053      8.000000
  0.333333  0.016667  0.421053      8.000000
  0.380952  0.016667  0.421053      8.000000
  0.428571  0.016667  0.421053      8.000000
  0.476190  0.016667  0.421053      8.000000
  0.000000  0.050000  0.421053      4.000000
  0.047619  0.050000  0.421053      8.000000
  0.095238  0.050000  0.421053      8.000000
  0.142857  0.050000  0.421053      8.000000
  0.190476  0.050000  0.421053      8.000000
  0.238095  0.050000  0.421053      8.000000
  0.285714  0.050000  0.421053      8.000000
  0.333333  0.050000  0.421053      8.000000
  0.380952  0.050000  0.421053      8.000000
  0.428571  0.050000  0.421053      8.000000
  0.476190  0.050000  0.421053      8.000000
  0.000000  0.083333  0.421053      4.000000
  0.047619  0.083333  0.421053      8.000000
  0.095238  0.083333  0.421053      8.000000
  0.142857  0.083333  0.421053      8.000000
  0.190476  0.083333  0.421053      8.000000
  0.238095  0.083333  0.421053      8.000000
  0.285714  0.083333  0.421053      8.000000
  0.333333  0.083333  0.421053      8.000000
  0.380952  0.083333  0.421053      8.000000
  0.428571  0.083333  0.421053      8.000000
  0.476190  0.083333  0.421053      8.000000
  0.000000  0.116667  0.421053      4.000000
  0.047619  0.116667  0.421053      8.000000
  0.095238  0.116667  0.421053      8.000000
  0.142857  0.116667  0.421053      8.000000
  0.190476  0.116667  0.421053      8.000000
  0.238095  0.116667  0.421053      8.000000
  0.285714  0.116667  0.421053      8.000000
  0.333333  0.116667  0.421053      8.000000
  0.380952  0.116667  0.421053      8.000000
  0.428571  0.116667  0.421053      8.000000
  0.476190  0.116667  0.421053      8.000000
  0.000000  0.150000  0.421053      4.000000
  0.047619  0.150000  0.421053      8.000000
  0.095238  0.150000  0.421053      8.000000
  0.142857  0.150000  0.421053      8.000000
  0.190476  0.150000  0.421053      8.000000
  0.238095  0.150000  0.421053      8.000000
  0.285714  0.150000  0.421053      8.000000
  0.333333  0.150000  0.421053      8.000000
  0.380952  0.150000  0.421053      8.000000
  0.428571  0.150000  0.421053      8.000000
  0.476190  0.150000  0.421053      8.000000
  0.000000  0.183333  0.421053      4.000000
  0.047619  0.183333  0.421053      8.000000
  0.095238  0.183333  0.421053      8.000000
  0.142857  0.183333  0.421053      8.000000
  0.190476  0.183333  0.421053      8.000000
  0.238095  0.183333  0.421053      8.000000
  0.285714  0.183333  0.421053      8.000000
  0.333333  0.183333  0.421053      8.000000
  0.380952  0.183333  0.421053      8.000000
  0.428571  0.183333  0.421053      8.000000
  0.476190  0.183333  0.421053      8.000000
  0.000000  0.216667  0.421053      4.000000
  0.047619  0.216667  0.421053      8.000000
  0.095238  0.216667  0.421053      8.000000
  0.142857  0.216667  0.421053      8.000000
  0.190476  0.216667  0.421053      8.000000
  0.238095  0.216667  0.421053      8.000000
  0.285714  0.216667  0.421053      8.000000
  0.333333  0.216667  0.421053      8.000000
  0.380952  0.216667  0.421053      8.000000
  0.428571  0.216667  0.421053      8.000000
  0.476190  0.216667  0.421053      8.000000
  0.000000  0.250000  0.421053      4.000000
  0.047619  0.250000  0.421053      8.000000
  0.095238  0.250000  0.421053      8.000000
  0.142857  0.250000  0.421053      8.000000
  0.190476  0.250000  0.421053      8.000000
  0.238095  0.250000  0.421053      8.000000
  0.285714  0.250000  0.421053      8.000000
  0.333333  0.250000  0.421053      8.000000
  0.380952  0.250000  0.421053      8.000000
  0.428571  0.250000  0.421053      8.000000
  0.476190  0.250000  0.421053      8.000000
  0.000000  0.283333  0.421053      4.000000
  0.047619  0.283333  0.421053      8.000000
  0.095238  0.283333  0.421053      8.000000
  0.142857  0.283333  0.421053      8.000000
  0.190476  0.283333  0.421053      8.000000
  0.238095  0.283333  0.421053      8.000000
  0.285714  0.283333  0.421053      8.000000
  0.333333  0.283333  0.421053      8.000000
  0.380952  0.283333  0.421053      8.000000
  0.428571  0.283333  0.421053      8.000000
  0.476190  0.283333  0.421053      8.000000
  0.000000  0.316667  0.421053      4.000000
  0.047619  0.316667  0.421053      8.000000
  0.095238  0.316667  0.421053      8.000000
  0.142857  0.316667  0.421053      8.000000
  0.190476  0.316667  0.421053      8.000000
  0.238095  0.316667  0.421053      8.000000
  0.285714  0.316667  0.421053      8.000000
  0.333333  0.316667  0.421053      8.000000
  0.380952  0.316667  0.421053      8.000000
  0.428571  0.316667  0.421053      8.000000
  0.476190  0.316667  0.421053      8.000000
  0.000000  0.350000  0.421053      4.000000
  0.047619  0.350000  0.421053      8.000000
  0.095238  0.350000  0.421053      8.000000
  0.142857  0.350000  0.421053      8.000000
  0.190476  0.350000  0.421053      8.000000
  0.238095  0.350000  0.421053      8.000000
  0.285714  0.350000  0.421053      8.000000
  0.333333  0.350000  0.421053      8.000000
  0.380952  0.350000  0.421053      8.000000
  0.428571  0.350000  0.421053      8.000000
  0.476190  0.350000  0.421053      8.000000
  0.000000  0.383333  0.421053      4.000000
  0.047619  0.383333  0.421053      8.000000
  0.095238  0.383333  0.421053      8.000000
  0.142857  0.383333  0.421053      8.000000
  0.190476  0.383333  0.421053      8.000000
  0.238095  0.383333  0.421053      8.000000
  0.285714  0.383333  0.421053      8.000000
  0.333333  0.383333  0.421053      8.000000
  0.380952  0.383333  0.421053      8.000000
  0.428571  0.383333  0.421053      8.000000
  0.476190  0.383333  0.421053      8.000000
  0.000000  0.416667  0.421053      4.000000
  0.047619  0.416667  0.421053      8.000000
  0.095238  0.416667  0.421053      8.000000
  0.142857  0.416667  0.421053      8.000000
  0.190476  0.416667  0.421053      8.000000
  0.238095  0.416667  0.421053      8.000000
  0.285714  0.416667  0.421053      8.000000
  0.333333  0.416667  0.421053      8.000000
  0.380952  0.416667  0.421053      8.000000
  0.428571  0.416667  0.421053      8.000000
  0.476190  0.416667  0.421053      8.000000
  0.000000  0.450000  0.421053      4.000000
  0.047619  0.450000  0.421053      8.000000
  0.095238  0.450000  0.421053      8.000000
  0.142857  0.450000  0.421053      8.000000
  0.190476  0.450000  0.421053      8.000000
  0.238095  0.450000  0.421053      8.000000
  0.285714  0.450000  0.421053      8.000000
  0.333333  0.450000  0.421053      8.000000
  0.380952  0.450000  0.421053      8.000000
  0.428571  0.450000  0.421053      8.000000
  0.476190  0.450000  0.421053      8.000000
  0.000000  0.483333  0.421053      4.000000
  0.047619  0.483333  0.421053      8.000000
  0.095238  0.483333  0.421053      8.000000
  0.142857  0.483333  0.421053      8.000000
  0.190476  0.483333  0.421053      8.000000
  0.238095  0.483333  0.421053      8.000000
  0.285714  0.483333  0.421053      8.000000
  0.333333  0.483333  0.421053      8.000000
  0.380952  0.483333  0.421053      8.000000
  0.428571  0.483333  0.421053      8.000000
  0.476190  0.483333  0.421053      8.000000
  0.000000  0.016667  0.473684      4.000000
  0.047619  0.016667  0.473684      8.000000
  0.095238  0.016667  0.473684      8.000000
  0.142857  0.016667  0.473684      8.000000
  0.190476  0.016667  0.473684      8.000000
  0.238095  0.016667  0.473684      8.000000
  0.285714  0.016667  0.473684      8.000000
  0.333333  0.016667  0.473684      8.000000
  0.380952  0.016667  0.473684      8.000000
  0.428571  0.016667  0.473684      8.000000
  0.476190  0.016667  0.473684      8.000000
  0.000000  0.050000  0.473684      4.000000
  0.047619  0.050000  0.473684      8.000000
  0.095238  0.050000  0.473684      8.000000
  0.142857  0.050000  0.473684      8.000000
  0.190476  0.050000  0.473684      8.000000
  0.238095  0.050000  0.473684      8.000000
  0.285714  0.050000  0.473684      8.000000
  0.333333  0.050000  0.473684      8.000000
  0.380952  0.050000  0.473684      8.000000
  0.428571  0.050000  0.473684      8.000000
  0.476190  0.050000  0.473684      8.000000
  0.000000  0.083333  0.473684      4.000000
  0.047619  0.083333  0.473684      8.000000
  0.095238  0.083333  0.473684      8.000000
  0.142857  0.083333  0.473684      8.000000
  0.190476  0.083333  0.473684      8.000000
  0.238095  0.083333  0.473684      8.000000
  0.285714  0.083333  0.473684      8.000000
  0.333333  0.083333  0.473684      8.000000
  0.380952  0.083333  0.473684      8.000000
  0.428571  0.083333  0.473684      8.000000
  0.476190  0.083333  0.473684      8.000000
[...]
 k-point  1630 :   0.0476 0.4500 0.4737  plane waves:    3432
 k-point  1631 :   0.0952 0.4500 0.4737  plane waves:    3424
 k-point  1632 :   0.1429 0.4500 0.4737  plane waves:    3432
 k-point  1633 :   0.1905 0.4500 0.4737  plane waves:    3430
 k-point  1634 :   0.2381 0.4500 0.4737  plane waves:    3425
 k-point  1635 :   0.2857 0.4500 0.4737  plane waves:    3414
 k-point  1636 :   0.3333 0.4500 0.4737  plane waves:    3416
 k-point  1637 :   0.3810 0.4500 0.4737  plane waves:    3423
 k-point  1638 :   0.4286 0.4500 0.4737  plane waves:    3422
 k-point  1639 :   0.4762 0.4500 0.4737  plane waves:    3423
 k-point  1640 :   0.0000 0.4833 0.4737  plane waves:    3416
 k-point  1641 :   0.0476 0.4833 0.4737  plane waves:    3424
 k-point  1642 :   0.0952 0.4833 0.4737  plane waves:    3428
 k-point  1643 :   0.1429 0.4833 0.4737  plane waves:    3431
 k-point  1644 :   0.1905 0.4833 0.4737  plane waves:    3433
 k-point  1645 :   0.2381 0.4833 0.4737  plane waves:    3428
 k-point  1646 :   0.2857 0.4833 0.4737  plane waves:    3417
 k-point  1647 :   0.3333 0.4833 0.4737  plane waves:    3411
 k-point  1648 :   0.3810 0.4833 0.4737  plane waves:    3420
 k-point  1649 :   0.4286 0.4833 0.4737  plane waves:    3432
 k-point  1650 :   0.4762 0.4833 0.4737  plane waves:    3431

 maximum and minimum number of plane-waves per node :      3441     3384

 maximum number of plane-waves:      3441
 maximum index in each direction: 
   IXMAX=   10   IYMAX=    7   IZMAX=   11
   IXMIN=  -10   IYMIN=   -7   IZMIN=  -11


 serial   3D FFT for wavefunctions
 parallel 3D FFT for charge:
    minimum data exchange during FFTs selected (reduces bandwidth)


 total amount of memory used by VASP MPI-rank0   589161. kBytes
=======================================================================

   base      :      30000. kBytes
   nonl-proj :     365727. kBytes
   fftplans  :       1019. kBytes
   grid      :       3560. kBytes
   one-center:         43. kBytes
   wavefun   :     188812. kBytes
 
     INWAV:  cpu time      0.0000: real time      0.0000
 Broyden mixing: mesh for mixing (old mesh)
   NGX = 21   NGY = 15   NGZ = 23
  (NGX  = 84   NGY  = 60   NGZ  = 96)
  gives a total of   7245 points

 initial charge density was supplied:
 charge density of overlapping atoms calculated
 number of electron      42.0000000 magnetization 
 keeping initial charge density in first step


--------------------------------------------------------------------------------------------------------


 Maximum index for augmentation-charges          566 (set IRDMAX)


--------------------------------------------------------------------------------------------------------


 First call to EWALD:  gamma=   0.339
 Maximum number of real-space cells 3x 3x 2
 Maximum number of reciprocal cells 3x 2x 3

    FEWALD:  cpu time      0.0011: real time      0.0016


--------------------------------------- Ionic step        1  -------------------------------------------




--------------------------------------- Iteration      1(   1)  ---------------------------------------


    POTLOK:  cpu time      0.0156: real time      0.0169
    SETDIJ:  cpu time      0.0016: real time      0.0016
     EDDAV:  cpu time     43.3231: real time     43.3289
       DOS:  cpu time      0.0114: real time      0.0147
    --------------------------------------------
      LOOP:  cpu time     43.3517: real time     43.3621

 eigenvalue-minimisations  :158400
 total energy-change (2. order) : 0.5366409E+02  (-0.1764576E+04)
 number of electron      42.0000000 magnetization 
 augmentation part       42.0000000 magnetization 

 Free energy of the ion-electron system (eV)
  ---------------------------------------------------
  alpha Z        PSCENC =        94.24357992
  Ewald energy   TEWEN  =      -795.76658092
  -Hartree energ DENC   =      -271.33601302
  -exchange      EXHF   =         0.00000000
  -V(xc)+E(xc)   XCENC  =        97.50108136
  PAW double counting   =       608.99811708     -597.02363782
  entropy T*S    EENTRO =        -0.00181514
  eigenvalues    EBANDS =       -79.31677046
  atomic energy  EATOM  =       996.36613177
  Solvation  Ediel_sol  =         0.00000000
  ---------------------------------------------------
  free energy    TOTEN  =        53.66409276 eV

  energy without entropy =       53.66590791  energy(sigma->0) =       53.66500033


--------------------------------------------------------------------------------------------------------




--------------------------------------- Iteration      1(   2)  ---------------------------------------


     EDDAV:  cpu time     58.1826: real time     58.1835
       DOS:  cpu time      0.0082: real time      0.0107
    --------------------------------------------
      LOOP:  cpu time     58.1908: real time     58.1942

 eigenvalue-minimisations  :220560
 total energy-change (2. order) :-0.1465718E+03  (-0.1380023E+03)
 number of electron      42.0000000 magnetization 
 augmentation part       42.0000000 magnetization 

 Free energy of the ion-electron system (eV)
  ---------------------------------------------------
  alpha Z        PSCENC =        94.24357992
  Ewald energy   TEWEN  =      -795.76658092
  -Hartree energ DENC   =      -271.33601302
  -exchange      EXHF   =         0.00000000
  -V(xc)+E(xc)   XCENC  =        97.50108136
  PAW double counting   =       608.99811708     -597.02363782
  entropy T*S    EENTRO =        -0.00402486
  eigenvalues    EBANDS =      -225.88637470
  atomic energy  EATOM  =       996.36613177
  Solvation  Ediel_sol  =         0.00000000
  ---------------------------------------------------
  free energy    TOTEN  =       -92.90772118 eV

  energy without entropy =      -92.90369633  energy(sigma->0) =      -92.90570876


--------------------------------------------------------------------------------------------------------




--------------------------------------- Iteration      1(   3)  ---------------------------------------


     EDDAV:  cpu time     60.8201: real time     60.8206
       DOS:  cpu time      0.0078: real time      0.0107
    --------------------------------------------
      LOOP:  cpu time     60.8279: real time     60.8313

 eigenvalue-minimisations  :230472
 total energy-change (2. order) :-0.4681014E+01  (-0.4657819E+01)
 number of electron      42.0000000 magnetization 
 augmentation part       42.0000000 magnetization 

 Free energy of the ion-electron system (eV)
  ---------------------------------------------------
  alpha Z        PSCENC =        94.24357992
  Ewald energy   TEWEN  =      -795.76658092
  -Hartree energ DENC   =      -271.33601302
  -exchange      EXHF   =         0.00000000
  -V(xc)+E(xc)   XCENC  =        97.50108136
  PAW double counting   =       608.99811708     -597.02363782
  entropy T*S    EENTRO =        -0.00391109
  eigenvalues    EBANDS =      -230.56750198
  atomic energy  EATOM  =       996.36613177
  Solvation  Ediel_sol  =         0.00000000
  ---------------------------------------------------
  free energy    TOTEN  =       -97.58873470 eV

  energy without entropy =      -97.58482362  energy(sigma->0) =      -97.58677916


--------------------------------------------------------------------------------------------------------




--------------------------------------- Iteration      1(   4)  ---------------------------------------


     EDDAV:  cpu time     52.0422: real time     52.0429
       DOS:  cpu time      0.0075: real time      0.0075
    --------------------------------------------
      LOOP:  cpu time     52.0497: real time     52.0504

 eigenvalue-minimisations  :196128
 total energy-change (2. order) :-0.2711973E-01  (-0.2711822E-01)
 number of electron      42.0000000 magnetization 
 augmentation part       42.0000000 magnetization 

 Free energy of the ion-electron system (eV)
  ---------------------------------------------------
  alpha Z        PSCENC =        94.24357992
  Ewald energy   TEWEN  =      -795.76658092
  -Hartree energ DENC   =      -271.33601302
  -exchange      EXHF   =         0.00000000
  -V(xc)+E(xc)   XCENC  =        97.50108136
  PAW double counting   =       608.99811708     -597.02363782
  entropy T*S    EENTRO =        -0.00391094
  eigenvalues    EBANDS =      -230.59462186
  atomic energy  EATOM  =       996.36613177
  Solvation  Ediel_sol  =         0.00000000
  ---------------------------------------------------
  free energy    TOTEN  =       -97.61585443 eV

  energy without entropy =      -97.61194349  energy(sigma->0) =      -97.61389896


--------------------------------------------------------------------------------------------------------




--------------------------------------- Iteration      1(   5)  ---------------------------------------


     EDDAV:  cpu time     60.5089: real time     60.5094
       DOS:  cpu time      0.0076: real time      0.0076
    CHARGE:  cpu time      0.7619: real time      0.7649
    MIXING:  cpu time      0.0012: real time      0.0012
    --------------------------------------------
      LOOP:  cpu time     61.2796: real time     61.2831

 eigenvalue-minimisations  :229224
 total energy-change (2. order) :-0.3100163E-03  (-0.3100101E-03)
 number of electron      41.9999999 magnetization 
 augmentation part       -0.1242628 magnetization 

 Broyden mixing:
  rms(total) = 0.12317E+01    rms(broyden)= 0.12317E+01
  rms(prec ) = 0.22669E+01
  weight for this iteration     100.00

 Free energy of the ion-electron system (eV)
  ---------------------------------------------------
  alpha Z        PSCENC =        94.24357992
  Ewald energy   TEWEN  =      -795.76658092
  -Hartree energ DENC   =      -271.33601302
  -exchange      EXHF   =         0.00000000
  -V(xc)+E(xc)   XCENC  =        97.50108136
  PAW double counting   =       608.99811708     -597.02363782
  entropy T*S    EENTRO =        -0.00391095
  eigenvalues    EBANDS =      -230.59493186
  atomic energy  EATOM  =       996.36613177
  Solvation  Ediel_sol  =         0.00000000
  ---------------------------------------------------
  free energy    TOTEN  =       -97.61616445 eV

  energy without entropy =      -97.61225350  energy(sigma->0) =      -97.61420897


--------------------------------------------------------------------------------------------------------




--------------------------------------- Iteration      1(   6)  ---------------------------------------


    POTLOK:  cpu time      0.0099: real time      0.0108
    SETDIJ:  cpu time      0.0013: real time      0.0013
     EDDAV:  cpu time     60.7536: real time     60.7534
       DOS:  cpu time      0.0078: real time      0.0078
    CHARGE:  cpu time      0.7469: real time      0.7469
    MIXING:  cpu time      0.0009: real time      0.0009
    --------------------------------------------
      LOOP:  cpu time     61.5203: real time     61.5211

 eigenvalue-minimisations  :229584
 total energy-change (2. order) : 0.5413644E+01  (-0.3960842E+00)
 number of electron      41.9999999 magnetization 
 augmentation part       -0.1500969 magnetization 

 Broyden mixing:
  rms(total) = 0.67791E+00    rms(broyden)= 0.67790E+00
  rms(prec ) = 0.11640E+01
  weight for this iteration     100.00

 eigenvalues of (default mixing * dielectric matrix)
  average eigenvalue GAMMA=   2.0635
  2.0635

 Free energy of the ion-electron system (eV)
  ---------------------------------------------------
  alpha Z        PSCENC =        94.24357992
  Ewald energy   TEWEN  =      -795.76658092
  -Hartree energ DENC   =      -306.19963283
  -exchange      EXHF   =         0.00000000
  -V(xc)+E(xc)   XCENC  =        99.13487445
  PAW double counting   =      1502.55758322    -1491.20716909
  entropy T*S    EENTRO =        -0.00416379
  eigenvalues    EBANDS =      -191.32714361
  atomic energy  EATOM  =       996.36613177
  Solvation  Ediel_sol  =         0.00000000
  ---------------------------------------------------
  free energy    TOTEN  =       -92.20252088 eV

  energy without entropy =      -92.19835709  energy(sigma->0) =      -92.20043898


--------------------------------------------------------------------------------------------------------




--------------------------------------- Iteration      1(   7)  ---------------------------------------


    POTLOK:  cpu time      0.0097: real time      0.0107
    SETDIJ:  cpu time      0.0012: real time      0.0012
     EDDAV:  cpu time     62.7601: real time     62.7597
       DOS:  cpu time      0.0076: real time      0.0105
    CHARGE:  cpu time      0.7420: real time      0.7420
    MIXING:  cpu time      0.0008: real time      0.0008
    --------------------------------------------
      LOOP:  cpu time     63.5214: real time     63.5248

 eigenvalue-minimisations  :236496
 total energy-change (2. order) : 0.1649185E+01  (-0.3182303E+00)
 number of electron      41.9999999 magnetization 
 augmentation part       -0.1693184 magnetization 

 Broyden mixing:
  rms(total) = 0.17340E+00    rms(broyden)= 0.17340E+00
  rms(prec ) = 0.25250E+00
  weight for this iteration     100.00

 eigenvalues of (default mixing * dielectric matrix)
  average eigenvalue GAMMA=   1.8172
  1.3964  2.2380

 Free energy of the ion-electron system (eV)
  ---------------------------------------------------
  alpha Z        PSCENC =        94.24357992
  Ewald energy   TEWEN  =      -795.76658092
  -Hartree energ DENC   =      -342.42931916
  -exchange      EXHF   =         0.00000000
  -V(xc)+E(xc)   XCENC  =       101.05787287
  PAW double counting   =      3053.72083819    -3042.92305328
  entropy T*S    EENTRO =        -0.00333914
  eigenvalues    EBANDS =      -154.81946569
  atomic energy  EATOM  =       996.36613177
  Solvation  Ediel_sol  =         0.00000000
  ---------------------------------------------------
  free energy    TOTEN  =       -90.55333545 eV

  energy without entropy =      -90.54999631  energy(sigma->0) =      -90.55166588


--------------------------------------------------------------------------------------------------------




--------------------------------------- Iteration      1(   8)  ---------------------------------------


    POTLOK:  cpu time      0.0095: real time      0.0107
    SETDIJ:  cpu time      0.0012: real time      0.0012
     EDDAV:  cpu time     47.2652: real time     47.2648
       DOS:  cpu time      0.0078: real time      0.0104
    CHARGE:  cpu time      0.7448: real time      0.7448
    MIXING:  cpu time      0.0006: real time      0.0006
    --------------------------------------------
      LOOP:  cpu time     48.0291: real time     48.0324

 eigenvalue-minimisations  :175464
 total energy-change (2. order) :-0.9424555E-02  (-0.2250112E-01)
 number of electron      41.9999999 magnetization 
 augmentation part       -0.1753657 magnetization 

 Broyden mixing:
  rms(total) = 0.78105E-01    rms(broyden)= 0.78105E-01
  rms(prec ) = 0.11595E+00
  weight for this iteration     100.00

 eigenvalues of (default mixing * dielectric matrix)
  average eigenvalue GAMMA=   1.7383
  0.9882  1.8463  2.3804

 Free energy of the ion-electron system (eV)
  ---------------------------------------------------
  alpha Z        PSCENC =        94.24357992
  Ewald energy   TEWEN  =      -795.76658092
  -Hartree energ DENC   =      -346.20018301
  -exchange      EXHF   =         0.00000000
  -V(xc)+E(xc)   XCENC  =       101.35396054
  PAW double counting   =      3468.89207594    -3458.11859498
  entropy T*S    EENTRO =        -0.00336865
  eigenvalues    EBANDS =      -151.32978061
  atomic energy  EATOM  =       996.36613177
  Solvation  Ediel_sol  =         0.00000000
  ---------------------------------------------------
  free energy    TOTEN  =       -90.56276000 eV

  energy without entropy =      -90.55939135  energy(sigma->0) =      -90.56107568


--------------------------------------------------------------------------------------------------------




--------------------------------------- Iteration      1(   9)  ---------------------------------------


    POTLOK:  cpu time      0.0093: real time      0.0105
    SETDIJ:  cpu time      0.0012: real time      0.0012
     EDDAV:  cpu time     59.1862: real time     59.1857
       DOS:  cpu time      0.0092: real time      0.0092
    CHARGE:  cpu time      0.7490: real time      0.7490
    MIXING:  cpu time      0.0007: real time      0.0007
    --------------------------------------------
      LOOP:  cpu time     59.9556: real time     59.9563

 eigenvalue-minimisations  :222072
 total energy-change (2. order) :-0.1493279E-01  (-0.1818247E-02)
 number of electron      41.9999999 magnetization 
 augmentation part       -0.1750205 magnetization 

 Broyden mixing:
  rms(total) = 0.20809E-01    rms(broyden)= 0.20809E-01
  rms(prec ) = 0.37274E-01
  weight for this iteration     100.00

 eigenvalues of (default mixing * dielectric matrix)
  average eigenvalue GAMMA=   1.6685
  2.4093  2.0071  1.0154  1.2422

 Free energy of the ion-electron system (eV)
  ---------------------------------------------------
  alpha Z        PSCENC =        94.24357992
  Ewald energy   TEWEN  =      -795.76658092
  -Hartree energ DENC   =      -348.10396802
  -exchange      EXHF   =         0.00000000
  -V(xc)+E(xc)   XCENC  =       101.52126311
  PAW double counting   =      3710.34542384    -3699.55760738
  entropy T*S    EENTRO =        -0.00336649
  eigenvalues    EBANDS =      -149.62256862
  atomic energy  EATOM  =       996.36613177
  Solvation  Ediel_sol  =         0.00000000
  ---------------------------------------------------
  free energy    TOTEN  =       -90.57769279 eV

  energy without entropy =      -90.57432630  energy(sigma->0) =      -90.57600955


--------------------------------------------------------------------------------------------------------




--------------------------------------- Iteration      1(  10)  ---------------------------------------


    POTLOK:  cpu time      0.0094: real time      0.0104
    SETDIJ:  cpu time      0.0013: real time      0.0013
     EDDAV:  cpu time     47.6334: real time     47.6331
       DOS:  cpu time      0.0075: real time      0.0075
    CHARGE:  cpu time      0.7401: real time      0.7401
    MIXING:  cpu time      0.0008: real time      0.0008
    --------------------------------------------
      LOOP:  cpu time     48.3925: real time     48.3931

 eigenvalue-minimisations  :176424
 total energy-change (2. order) :-0.4468511E-02  (-0.2817429E-03)
 number of electron      41.9999999 magnetization 
 augmentation part       -0.1744669 magnetization 

 Broyden mixing:
  rms(total) = 0.69664E-02    rms(broyden)= 0.69664E-02
  rms(prec ) = 0.13628E-01
  weight for this iteration     100.00

 eigenvalues of (default mixing * dielectric matrix)
  average eigenvalue GAMMA=   1.7105
  2.5294  2.3965  1.0168  1.1142  1.4958

 Free energy of the ion-electron system (eV)
  ---------------------------------------------------
  alpha Z        PSCENC =        94.24357992
  Ewald energy   TEWEN  =      -795.76658092
  -Hartree energ DENC   =      -348.69500973
  -exchange      EXHF   =         0.00000000
  -V(xc)+E(xc)   XCENC  =       101.56021411
  PAW double counting   =      3732.82811203    -3722.02625820
  entropy T*S    EENTRO =        -0.00333696
  eigenvalues    EBANDS =      -149.08901332
  atomic energy  EATOM  =       996.36613177
  Solvation  Ediel_sol  =         0.00000000
  ---------------------------------------------------
  free energy    TOTEN  =       -90.58216130 eV

  energy without entropy =      -90.57882434  energy(sigma->0) =      -90.58049282


--------------------------------------------------------------------------------------------------------




--------------------------------------- Iteration      1(  11)  ---------------------------------------


    POTLOK:  cpu time      0.0093: real time      0.0103
    SETDIJ:  cpu time      0.0011: real time      0.0011
