 running   24 mpi-ranks, with    1 threads/rank, on    1 nodes
 distrk:  each k-point on   24 cores,    1 groups
 distr:  one band on    1 cores,   24 groups
 vasp.6.4.3 19Mar24 (build May 31 2024 16:31:43) complex                        
  
 POSCAR found type information on POSCAR B 
 POSCAR found :  1 types and      14 ions
 Reading from existing POTCAR
 scaLAPACK will be used
 Reading from existing POTCAR
 LDA part: xc-table for (Slater+PW92), standard interpolation
 POSCAR, INCAR and KPOINTS ok, starting setup
 FFT: planning ... GRIDC
 FFT: planning ... GRID_SOFT
 FFT: planning ... GRID
 WAVECAR not read
 entering main loop
       N       E                     dE             d eps       ncg     rms          rms(c)
DAV:   1     0.536640927636E+02    0.53664E+02   -0.17646E+04158400   0.724E+02
DAV:   2    -0.929077211849E+02   -0.14657E+03   -0.13800E+03220560   0.150E+02
