  14  14   0   0
  0.1025950E+02  0.5704406E-09  0.4053162E-09  0.6212266E-09  0.5000000E-15
  1.000000000000000E-004
  CAR 
 Convergence                             
     17.90848019    -14.17890157  301      1.86146239      1.00000000
    -14.179  0.0000E+00  0.0000E+00
    -14.072  0.0000E+00  0.0000E+00
    -13.965  0.0000E+00  0.0000E+00
    -13.858  0.0000E+00  0.0000E+00
    -13.751  0.0000E+00  0.0000E+00
    -13.644  0.0000E+00  0.0000E+00
    -13.537  0.0000E+00  0.0000E+00
    -13.430  0.0000E+00  0.0000E+00
    -13.323  0.0000E+00  0.0000E+00
    -13.216  0.0000E+00  0.0000E+00
    -13.109  0.0000E+00  0.0000E+00
    -13.002  0.5272E-16  0.5639E-17
    -12.895  0.3161E-07  0.3380E-08
    -12.788  0.3878E-02  0.4148E-03
    -12.681  0.5101E+00  0.5497E-01
    -12.575  0.2395E+01  0.3111E+00
    -12.468  0.3573E+01  0.6933E+00
    -12.361  0.4378E+01  0.1162E+01
    -12.254  0.3539E+01  0.1540E+01
    -12.147  0.2737E+01  0.1833E+01
    -12.040  0.2755E+01  0.2128E+01
    -11.933  0.2499E+01  0.2395E+01
    -11.826  0.2772E+01  0.2691E+01
    -11.719  0.3412E+01  0.3056E+01
    -11.612  0.3537E+01  0.3435E+01
    -11.505  0.3137E+01  0.3770E+01
    -11.398  0.1697E+01  0.3952E+01
    -11.291  0.4430E+00  0.3999E+01
    -11.184  0.8581E-02  0.4000E+01
    -11.077  0.2595E-06  0.4000E+01
    -10.970  0.1839E-14  0.4000E+01
    -10.863  0.0000E+00  0.4000E+01
    -10.756  0.0000E+00  0.4000E+01
    -10.649  0.0000E+00  0.4000E+01
    -10.542  0.0000E+00  0.4000E+01
    -10.435  0.0000E+00  0.4000E+01
    -10.328  0.0000E+00  0.4000E+01
    -10.221  0.0000E+00  0.4000E+01
    -10.114  0.0000E+00  0.4000E+01
    -10.008  0.0000E+00  0.4000E+01
     -9.901  0.0000E+00  0.4000E+01
     -9.794  0.0000E+00  0.4000E+01
     -9.687  0.0000E+00  0.4000E+01
     -9.580  0.0000E+00  0.4000E+01
     -9.473  0.0000E+00  0.4000E+01
     -9.366  0.0000E+00  0.4000E+01
     -9.259  0.0000E+00  0.4000E+01
     -9.152  0.0000E+00  0.4000E+01
     -9.045  0.1087E-08  0.4000E+01
     -8.938  0.6605E-03  0.4000E+01
     -8.831  0.2817E+00  0.4030E+01
     -8.724  0.2111E+01  0.4256E+01
     -8.617  0.5377E+01  0.4831E+01
     -8.510  0.7014E+01  0.5581E+01
     -8.403  0.6283E+01  0.6253E+01
     -8.296  0.5329E+01  0.6823E+01
     -8.189  0.4847E+01  0.7342E+01
     -8.082  0.3863E+01  0.7755E+01
     -7.975  0.1662E+01  0.7933E+01
     -7.868  0.5766E+00  0.7994E+01
     -7.761  0.5214E-01  0.8000E+01
     -7.654  0.2476E-04  0.8000E+01
     -7.548  0.2971E-11  0.8000E+01
     -7.441  0.0000E+00  0.8000E+01
     -7.334  0.0000E+00  0.8000E+01
     -7.227  0.0000E+00  0.8000E+01
     -7.120  0.4205E-09  0.8000E+01
     -7.013  0.3614E-03  0.8000E+01
     -6.906  0.1100E+00  0.8012E+01
     -6.799  0.2595E+00  0.8040E+01
     -6.692  0.4244E+00  0.8085E+01
     -6.585  0.7664E+00  0.8167E+01
     -6.478  0.8452E+00  0.8257E+01
     -6.371  0.1433E+01  0.8411E+01
     -6.264  0.1936E+01  0.8618E+01
     -6.157  0.3051E+01  0.8944E+01
     -6.050  0.3800E+01  0.9350E+01
     -5.943  0.4123E+01  0.9791E+01
     -5.836  0.4053E+01  0.1022E+02
     -5.729  0.3886E+01  0.1064E+02
     -5.622  0.4076E+01  0.1108E+02
     -5.515  0.4217E+01  0.1153E+02
     -5.408  0.4568E+01  0.1202E+02
     -5.301  0.4625E+01  0.1251E+02
     -5.194  0.4498E+01  0.1299E+02
     -5.087  0.3884E+01  0.1341E+02
     -4.981  0.3222E+01  0.1375E+02
     -4.874  0.2975E+01  0.1407E+02
     -4.767  0.2307E+01  0.1432E+02
     -4.660  0.2898E+01  0.1463E+02
     -4.553  0.3373E+01  0.1499E+02
     -4.446  0.3446E+01  0.1536E+02
     -4.339  0.3364E+01  0.1572E+02
     -4.232  0.2964E+01  0.1603E+02
     -4.125  0.2912E+01  0.1634E+02
     -4.018  0.2930E+01  0.1666E+02
     -3.911  0.2885E+01  0.1697E+02
     -3.804  0.3106E+01  0.1730E+02
     -3.697  0.2899E+01  0.1761E+02
     -3.590  0.2708E+01  0.1790E+02
     -3.483  0.3078E+01  0.1823E+02
     -3.376  0.2661E+01  0.1851E+02
     -3.269  0.2829E+01  0.1881E+02
     -3.162  0.2795E+01  0.1911E+02
     -3.055  0.2710E+01  0.1940E+02
     -2.948  0.3085E+01  0.1973E+02
     -2.841  0.2986E+01  0.2005E+02
     -2.734  0.2447E+01  0.2031E+02
     -2.627  0.2636E+01  0.2060E+02
     -2.520  0.3011E+01  0.2092E+02
     -2.414  0.3006E+01  0.2124E+02
     -2.307  0.3181E+01  0.2158E+02
     -2.200  0.4000E+01  0.2201E+02
     -2.093  0.3656E+01  0.2240E+02
     -1.986  0.3206E+01  0.2274E+02
     -1.879  0.4987E+01  0.2328E+02
     -1.772  0.5530E+01  0.2387E+02
     -1.665  0.5652E+01  0.2447E+02
     -1.558  0.6170E+01  0.2513E+02
     -1.451  0.6151E+01  0.2579E+02
     -1.344  0.5616E+01  0.2639E+02
     -1.237  0.4689E+01  0.2689E+02
     -1.130  0.6486E+01  0.2759E+02
     -1.023  0.4183E+01  0.2803E+02
     -0.916  0.2289E+01  0.2828E+02
     -0.809  0.2707E+01  0.2857E+02
     -0.702  0.2884E+01  0.2888E+02
     -0.595  0.4425E+01  0.2935E+02
     -0.488  0.6813E+01  0.3008E+02
     -0.381  0.5683E+01  0.3069E+02
     -0.274  0.6632E+01  0.3139E+02
     -0.167  0.6385E+01  0.3208E+02
     -0.060  0.6734E+01  0.3280E+02
      0.047  0.6839E+01  0.3353E+02
      0.153  0.6236E+01  0.3420E+02
      0.260  0.8839E+01  0.3514E+02
      0.367  0.8106E+01  0.3601E+02
      0.474  0.8677E+01  0.3694E+02
      0.581  0.5403E+01  0.3752E+02
      0.688  0.3019E+01  0.3784E+02
      0.795  0.3226E+01  0.3818E+02
      0.902  0.3592E+01  0.3857E+02
      1.009  0.3585E+01  0.3895E+02
      1.116  0.2809E+01  0.3925E+02
      1.223  0.3361E+01  0.3961E+02
      1.330  0.4472E+01  0.4009E+02
      1.437  0.3825E+01  0.4050E+02
      1.544  0.3698E+01  0.4089E+02
      1.651  0.4591E+01  0.4138E+02
      1.758  0.3360E+01  0.4174E+02
      1.865  0.2475E+01  0.4201E+02
      1.972  0.2681E+01  0.4230E+02
      2.079  0.2098E+01  0.4252E+02
      2.186  0.2647E+01  0.4280E+02
      2.293  0.2613E+01  0.4308E+02
      2.400  0.1981E+01  0.4329E+02
      2.507  0.9084E+00  0.4339E+02
      2.613  0.3800E+00  0.4343E+02
      2.720  0.5757E+00  0.4349E+02
      2.827  0.4211E+00  0.4354E+02
      2.934  0.3058E+00  0.4357E+02
      3.041  0.7320E+00  0.4365E+02
      3.148  0.1025E+01  0.4376E+02
      3.255  0.5717E+00  0.4382E+02
      3.362  0.1695E-01  0.4382E+02
      3.469  0.1193E+00  0.4384E+02
      3.576  0.3921E+00  0.4388E+02
      3.683  0.3406E+00  0.4391E+02
      3.790  0.3637E+00  0.4395E+02
      3.897  0.4139E+00  0.4400E+02
      4.004  0.3210E-01  0.4400E+02
      4.111  0.9952E-05  0.4400E+02
      4.218  0.1849E-01  0.4400E+02
      4.325  0.1639E+00  0.4402E+02
      4.432  0.3830E+00  0.4406E+02
      4.539  0.4486E+00  0.4411E+02
      4.646  0.6200E+00  0.4417E+02
      4.753  0.8698E+00  0.4427E+02
      4.860  0.8384E+00  0.4436E+02
      4.967  0.8666E+00  0.4445E+02
      5.074  0.1251E+01  0.4458E+02
      5.180  0.1181E+01  0.4471E+02
      5.287  0.1591E+01  0.4488E+02
      5.394  0.2139E+01  0.4511E+02
      5.501  0.2503E+01  0.4538E+02
      5.608  0.2797E+01  0.4568E+02
      5.715  0.3296E+01  0.4603E+02
      5.822  0.3267E+01  0.4638E+02
      5.929  0.4236E+01  0.4683E+02
      6.036  0.4810E+01  0.4735E+02
      6.143  0.4089E+01  0.4778E+02
      6.250  0.4602E+01  0.4828E+02
      6.357  0.4278E+01  0.4873E+02
      6.464  0.3962E+01  0.4916E+02
      6.571  0.4523E+01  0.4964E+02
      6.678  0.3259E+01  0.4999E+02
      6.785  0.3961E+01  0.5041E+02
      6.892  0.4605E+01  0.5091E+02
      6.999  0.4589E+01  0.5140E+02
      7.106  0.4340E+01  0.5186E+02
      7.213  0.5576E+01  0.5246E+02
      7.320  0.4996E+01  0.5299E+02
      7.427  0.4483E+01  0.5347E+02
      7.534  0.4232E+01  0.5392E+02
      7.641  0.3594E+01  0.5431E+02
      7.747  0.3106E+01  0.5464E+02
      7.854  0.3031E+01  0.5496E+02
      7.961  0.2970E+01  0.5528E+02
      8.068  0.4157E+01  0.5573E+02
      8.175  0.3926E+01  0.5615E+02
      8.282  0.3744E+01  0.5655E+02
      8.389  0.4013E+01  0.5698E+02
      8.496  0.4251E+01  0.5743E+02
      8.603  0.4495E+01  0.5791E+02
      8.710  0.4289E+01  0.5837E+02
      8.817  0.5346E+01  0.5894E+02
      8.924  0.4810E+01  0.5946E+02
      9.031  0.5281E+01  0.6002E+02
      9.138  0.5228E+01  0.6058E+02
      9.245  0.5013E+01  0.6112E+02
      9.352  0.4666E+01  0.6162E+02
      9.459  0.4405E+01  0.6209E+02
      9.566  0.5091E+01  0.6263E+02
      9.673  0.5039E+01  0.6317E+02
      9.780  0.5284E+01  0.6374E+02
      9.887  0.4496E+01  0.6422E+02
      9.994  0.3687E+01  0.6461E+02
     10.101  0.5191E+01  0.6517E+02
     10.208  0.4723E+01  0.6567E+02
     10.314  0.4161E+01  0.6612E+02
     10.421  0.5339E+01  0.6669E+02
     10.528  0.5832E+01  0.6731E+02
     10.635  0.4084E+01  0.6775E+02
     10.742  0.3913E+01  0.6817E+02
     10.849  0.3278E+01  0.6852E+02
     10.956  0.4692E+01  0.6902E+02
     11.063  0.5412E+01  0.6960E+02
     11.170  0.6287E+01  0.7027E+02
     11.277  0.6007E+01  0.7091E+02
     11.384  0.5195E+01  0.7147E+02
     11.491  0.4413E+01  0.7194E+02
     11.598  0.4477E+01  0.7242E+02
     11.705  0.4981E+01  0.7295E+02
     11.812  0.4826E+01  0.7347E+02
     11.919  0.5995E+01  0.7411E+02
     12.026  0.6013E+01  0.7475E+02
     12.133  0.6057E+01  0.7540E+02
     12.240  0.5552E+01  0.7599E+02
     12.347  0.4999E+01  0.7653E+02
     12.454  0.5721E+01  0.7714E+02
     12.561  0.5970E+01  0.7778E+02
     12.668  0.5946E+01  0.7841E+02
     12.774  0.5949E+01  0.7905E+02
     12.881  0.5890E+01  0.7968E+02
     12.988  0.5623E+01  0.8028E+02
     13.095  0.6349E+01  0.8096E+02
     13.202  0.6315E+01  0.8164E+02
     13.309  0.5456E+01  0.8222E+02
     13.416  0.6121E+01  0.8288E+02
     13.523  0.5428E+01  0.8346E+02
     13.630  0.4840E+01  0.8397E+02
     13.737  0.6183E+01  0.8463E+02
     13.844  0.5517E+01  0.8523E+02
     13.951  0.5370E+01  0.8580E+02
     14.058  0.5478E+01  0.8639E+02
     14.165  0.4677E+01  0.8689E+02
     14.272  0.4962E+01  0.8742E+02
     14.379  0.4964E+01  0.8795E+02
     14.486  0.4942E+01  0.8848E+02
     14.593  0.5274E+01  0.8904E+02
     14.700  0.5199E+01  0.8960E+02
     14.807  0.4100E+01  0.9003E+02
     14.914  0.5018E+01  0.9057E+02
     15.021  0.6144E+01  0.9123E+02
     15.128  0.5700E+01  0.9184E+02
     15.235  0.5722E+01  0.9245E+02
     15.341  0.5999E+01  0.9309E+02
     15.448  0.5770E+01  0.9371E+02
     15.555  0.6009E+01  0.9435E+02
     15.662  0.4624E+01  0.9485E+02
     15.769  0.2512E+01  0.9512E+02
     15.876  0.2708E+01  0.9540E+02
     15.983  0.1844E+01  0.9560E+02
     16.090  0.1133E+01  0.9572E+02
     16.197  0.8989E+00  0.9582E+02
     16.304  0.6940E+00  0.9589E+02
     16.411  0.8138E+00  0.9598E+02
     16.518  0.1801E+00  0.9600E+02
     16.625  0.1712E-02  0.9600E+02
     16.732  0.2201E-07  0.9600E+02
     16.839  0.4613E-16  0.9600E+02
     16.946  0.0000E+00  0.9600E+02
     17.053  0.0000E+00  0.9600E+02
     17.160  0.0000E+00  0.9600E+02
     17.267  0.0000E+00  0.9600E+02
     17.374  0.0000E+00  0.9600E+02
     17.481  0.0000E+00  0.9600E+02
     17.588  0.0000E+00  0.9600E+02
     17.695  0.0000E+00  0.9600E+02
     17.802  0.0000E+00  0.9600E+02
     17.908  0.0000E+00  0.9600E+02
