   14   14    1    1
  0.1025950E+02  0.5704406E-09  0.4053162E-09  0.6212265E-09  0.5000000E-15
  1.000000000000000E-004
  CAR 
 Convergence                             
     42    175     48
 
  0.5000000E-01  0.3571429E-01  0.0000000E+00  0.3174603E-02
      1        -12.720384   1.000000
      2        -11.578900   1.000000
      3         -8.663503   1.000000
      4         -8.427319   1.000000
      5         -6.074541   1.000000
      6         -5.141257   1.000000
      7         -4.678133   1.000000
      8         -4.281725   1.000000
      9         -4.043154   1.000000
     10         -3.555525   1.000000
     11         -2.610697   1.000000
     12         -2.342069   1.000000
     13         -1.852035   1.000000
     14         -1.112627   1.000000
     15         -0.085052   1.000000
     16         -0.054639   1.000000
     17          0.135939   1.000000
     18          0.156180   1.000000
     19          0.545393   1.000000
     20          1.997702   0.000058
     21          2.060195   0.000000
     22          2.192367   0.000000
     23          5.427521   0.000000
     24          5.718179   0.000000
     25          5.805175   0.000000
     26          5.928541   0.000000
     27          6.779720   0.000000
     28          7.513830   0.000000
     29          7.840934   0.000000
     30          8.490485   0.000000
     31          8.749613   0.000000
     32          8.902830   0.000000
     33          8.992136   0.000000
     34         10.085294   0.000000
     35         11.148720   0.000000
     36         11.284052   0.000000
     37         11.612021   0.000000
     38         11.733364   0.000000
     39         11.897944   0.000000
     40         12.363328   0.000000
     41         12.814543   0.000000
     42         13.396962   0.000000
     43         13.424342   0.000000
     44         15.312885   0.000000
     45         15.507435   0.000000
     46         15.993967   0.000000
     47         16.273183   0.000000
     48         16.293829   0.000000
 
  0.1500000E+00  0.3571429E-01  0.0000000E+00  0.3174603E-02
      1        -12.676682   1.000000
      2        -11.652726   1.000000
      3         -8.642308   1.000000
      4         -8.415818   1.000000
      5         -6.006574   1.000000
      6         -5.480518   1.000000
      7         -4.799496   1.000000
      8         -4.018878   1.000000
      9         -3.801859   1.000000
     10         -3.219329   1.000000
     11         -2.680598   1.000000
     12         -2.322234   1.000000
     13         -1.929751   1.000000
     14         -1.419137   1.000000
     15         -0.044990   1.000000
     16         -0.037629   1.000000
     17          0.075858   1.000000
     18          0.177596   1.000000
     19          0.450213   1.000000
     20          1.911681   0.077745
     21          1.982454   0.000311
     22          2.071623   0.000000
     23          5.516809   0.000000
     24          5.724103   0.000000
     25          5.835859   0.000000
     26          6.272538   0.000000
     27          6.694707   0.000000
     28          7.153223   0.000000
     29          8.047891   0.000000
     30          8.626924   0.000000
     31          9.001914   0.000000
     32          9.080156   0.000000
     33          9.157650   0.000000
     34         10.192965   0.000000
     35         10.893231   0.000000
     36         11.080172   0.000000
     37         11.221098   0.000000
     38         11.651307   0.000000
     39         12.114849   0.000000
     40         12.451186   0.000000
     41         13.065325   0.000000
     42         13.073384   0.000000
     43         13.953114   0.000000
     44         14.803426   0.000000
     45         15.689773   0.000000
     46         15.772406   0.000000
     47         16.162141   0.000000
     48         16.449963   0.000000
 
  0.2500000E+00  0.3571429E-01  0.0000000E+00  0.3174603E-02
      1        -12.591138   1.000000
      2        -11.785718   1.000000
      3         -8.598632   1.000000
      4         -8.401071   1.000000
      5         -5.984801   1.000000
      6         -5.806271   1.000000
      7         -4.753179   1.000000
      8         -3.892387   1.000000
      9         -3.291440   1.000000
     10         -2.848252   1.000000
     11         -2.728728   1.000000
     12         -2.282313   1.000000
     13         -2.039240   1.000000
     14         -1.922774   1.000000
     15         -0.241113   1.000000
     16         -0.003548   1.000000
     17          0.124324   1.000000
     18          0.140950   1.000000
     19          0.420083   1.000000
     20          1.763977   0.997086
     21          1.843166   0.697599
     22          1.850061   0.626452
     23          5.638026   0.000000
     24          5.680483   0.000000
     25          6.144705   0.000000
     26          6.569426   0.000000
     27          6.729589   0.000000
     28          6.899098   0.000000
     29          8.196986   0.000000
     30          8.775806   0.000000
     31          8.948639   0.000000
     32          9.524629   0.000000
     33          9.602521   0.000000
     34         10.234313   0.000000
     35         10.436305   0.000000
     36         10.575151   0.000000
     37         11.339112   0.000000
     38         11.794734   0.000000
     39         12.349430   0.000000
     40         12.510466   0.000000
     41         12.748435   0.000000
     42         12.861686   0.000000
     43         14.577208   0.000000
     44         14.855829   0.000000
     45         15.172971   0.000000
     46         15.920587   0.000000
     47         15.941587   0.000000
     48         16.224056   0.000000
 
  0.3500000E+00  0.3571429E-01  0.0000000E+00  0.3174603E-02
      1        -12.467739   1.000000
      2        -11.955066   1.000000
      3         -8.536838   1.000000
      4         -8.397754   1.000000
      5         -6.064670   1.000000
      6         -6.039042   1.000000
      7         -4.426377   1.000000
      8         -3.724239   1.000000
      9         -3.041429   1.000000
     10         -2.908181   1.000000
     11         -2.457598   1.000000
     12         -2.268405   1.000000
     13         -2.164931   1.000000
     14         -2.139006   1.000000
     15         -0.540218   1.000000
     16         -0.266159   1.000000
     17          0.156386   1.000000
     18          0.231445   1.000000
     19          0.592814   1.000000
     20          1.507666   1.000000
     21          1.642218   1.000000
     22          1.702234   0.999997
     23          5.665832   0.000000
     24          5.722966   0.000000
     25          6.468981   0.000000
     26          6.641459   0.000000
     27          6.667041   0.000000
     28          7.376631   0.000000
     29          8.320143   0.000000
     30          8.647677   0.000000
     31          8.762029   0.000000
     32          9.491294   0.000000
     33         10.005871   0.000000
     34         10.073528   0.000000
     35         10.348672   0.000000
     36         11.091931   0.000000
     37         11.361320   0.000000
     38         11.891453   0.000000
     39         12.154371   0.000000
     40         12.222919   0.000000
     41         12.476087   0.000000
     42         13.210475   0.000000
     43         14.663427   0.000000
     44         14.920789   0.000000
     45         15.197863   0.000000
     46         15.317273   0.000000
     47         15.512200   0.000000
     48         16.315795   0.000000
 
  0.4500000E+00  0.3571429E-01  0.0000000E+00  0.3174603E-02
      1        -12.313119   1.000000
      2        -12.137380   1.000000
      3         -8.470890   1.000000
      4         -8.420157   1.000000
      5         -6.152859   1.000000
      6         -6.149056   1.000000
      7         -3.911980   1.000000
      8         -3.515974   1.000000
      9         -3.313546   1.000000
     10         -3.279182   1.000000
     11         -2.373890   1.000000
     12         -2.247403   1.000000
     13         -1.979992   1.000000
     14         -1.924664   1.000000
     15         -0.760811   1.000000
     16         -0.624788   1.000000
     17          0.239265   1.000000
     18          0.272613   1.000000
     19          0.852973   1.000000
     20          1.169621   1.000000
     21          1.561779   1.000000
     22          1.588888   1.000000
     23          5.694694   0.000000
     24          5.733194   0.000000
     25          6.448390   0.000000
     26          6.512651   0.000000
     27          7.333854   0.000000
     28          8.035168   0.000000
     29          8.058375   0.000000
     30          8.436720   0.000000
     31          8.573953   0.000000
     32          8.748384   0.000000
     33         10.456537   0.000000
     34         10.470583   0.000000
     35         10.710226   0.000000
     36         11.167384   0.000000
     37         11.351436   0.000000
     38         11.543352   0.000000
     39         11.875687   0.000000
     40         12.431476   0.000000
     41         12.670940   0.000000
     42         13.204474   0.000000
     43         14.541829   0.000000
     44         14.676780   0.000000
     45         14.816537   0.000000
     46         14.876032   0.000000
     47         16.036354   0.000000
     48         16.381811   0.000000
 
  0.5000000E-01  0.1071429E+00  0.0000000E+00  0.3174603E-02
      1        -12.696453   1.000000
      2        -11.557348   1.000000
      3         -8.644837   1.000000
      4         -8.404301   1.000000
      5         -6.047931   1.000000
      6         -5.107583   1.000000
      7         -4.656202   1.000000
      8         -4.580507   1.000000
      9         -4.186702   1.000000
     10         -3.532833   1.000000
     11         -3.302815   1.000000
     12         -1.811169   1.000000
     13         -1.108068   1.000000
     14         -1.054311   1.000000
     15         -0.318070   1.000000
     16         -0.290080   1.000000
     17          0.149455   1.000000
     18          0.226441   1.000000
     19          0.623470   1.000000
     20          1.730921   0.999889
     21          1.810262   0.926214
     22          2.244404   0.000000
     23          5.547450   0.000000
     24          5.676178   0.000000
     25          5.712044   0.000000
     26          5.972025   0.000000
     27          7.064276   0.000000
     28          7.798940   0.000000
     29          8.035699   0.000000
     30          8.149733   0.000000
     31          8.754398   0.000000
     32          9.043215   0.000000
     33          9.098764   0.000000
     34         10.534637   0.000000
     35         11.216488   0.000000
     36         11.361592   0.000000
     37         11.546384   0.000000
     38         11.835799   0.000000
     39         12.008870   0.000000
     40         12.641758   0.000000
     41         12.815699   0.000000
     42         13.136055   0.000000
     43         13.140284   0.000000
     44         15.267165   0.000000
     45         15.314108   0.000000
     46         15.797211   0.000000
     47         15.799672   0.000000
     48         16.155622   0.000000
 
  0.1500000E+00  0.1071429E+00  0.0000000E+00  0.3174603E-02
      1        -12.652841   1.000000
      2        -11.631029   1.000000
      3         -8.623490   1.000000
      4         -8.393174   1.000000
      5         -5.978188   1.000000
      6         -5.450481   1.000000
      7         -4.779575   1.000000
      8         -4.499100   1.000000
      9         -3.763312   1.000000
     10         -3.382987   1.000000
     11         -3.181549   1.000000
     12         -1.789586   1.000000
     13         -1.413739   1.000000
     14         -1.172051   1.000000
     15         -0.279419   1.000000
     16         -0.211650   1.000000
     17          0.116645   1.000000
     18          0.199115   1.000000
     19          0.520655   1.000000
     20          1.650641   1.000000
     21          1.733990   0.999844
     22          2.114020   0.000000
     23          5.623539   0.000000
     24          5.775371   0.000000
     25          5.900562   0.000000
     26          6.080196   0.000000
     27          6.981271   0.000000
     28          7.474360   0.000000
     29          8.181551   0.000000
     30          8.317586   0.000000
     31          9.072709   0.000000
     32          9.110340   0.000000
     33          9.367652   0.000000
     34         10.455991   0.000000
     35         10.825371   0.000000
     36         11.033262   0.000000
     37         11.415704   0.000000
     38         11.824104   0.000000
     39         12.228008   0.000000
     40         12.692760   0.000000
     41         12.815643   0.000000
     42         13.097329   0.000000
     43         13.672221   0.000000
     44         14.888086   0.000000
     45         15.335626   0.000000
     46         15.692588   0.000000
     47         15.731185   0.000000
     48         16.335660   0.000000
 
  0.2500000E+00  0.1071429E+00  0.0000000E+00  0.3174603E-02
      1        -12.567491   1.000000
      2        -11.763765   1.000000
      3         -8.579601   1.000000
      4         -8.379125   1.000000
      5         -5.953666   1.000000
      6         -5.775977   1.000000
      7         -4.736628   1.000000
      8         -4.391210   1.000000
      9         -3.504334   1.000000
     10         -3.238434   1.000000
     11         -2.716251   1.000000
     12         -1.918172   1.000000
     13         -1.745542   1.000000
     14         -1.333849   1.000000
     15         -0.243170   1.000000
     16         -0.233276   1.000000
     17          0.035767   1.000000
     18          0.186227   1.000000
     19          0.444474   1.000000
     20          1.516018   1.000000
     21          1.604234   1.000000
     22          1.866527   0.443050
     23          5.821942   0.000000
     24          5.903406   0.000000
     25          5.981787   0.000000
     26          6.527315   0.000000
     27          6.861243   0.000000
     28          7.247229   0.000000
     29          8.388156   0.000000
     30          8.449262   0.000000
     31          9.047041   0.000000
     32          9.562953   0.000000
     33          9.827289   0.000000
     34         10.079132   0.000000
     35         10.304973   0.000000
     36         10.771199   0.000000
     37         11.479143   0.000000
     38         12.059142   0.000000
     39         12.255219   0.000000
     40         12.510868   0.000000
     41         12.901306   0.000000
     42         12.977034   0.000000
     43         14.248154   0.000000
     44         15.021614   0.000000
     45         15.103228   0.000000
     46         15.583525   0.000000
     47         15.650013   0.000000
     48         16.356135   0.000000
 
  0.3500000E+00  0.1071429E+00  0.0000000E+00  0.3174603E-02
      1        -12.444353   1.000000
      2        -11.932763   1.000000
      3         -8.517559   1.000000
      4         -8.376694   1.000000
      5         -6.032331   1.000000
      6         -6.007900   1.000000
      7         -4.411963   1.000000
      8         -4.244818   1.000000
      9         -3.674934   1.000000
     10         -2.860021   1.000000
     11         -2.376433   1.000000
     12         -2.233992   1.000000
     13         -1.681663   1.000000
     14         -1.496019   1.000000
     15         -0.502205   1.000000
     16         -0.327380   1.000000
     17          0.067023   1.000000
     18          0.097875   1.000000
     19          0.603414   1.000000
     20          1.376609   1.000000
     21          1.459290   1.000000
     22          1.543574   1.000000
     23          5.839532   0.000000
     24          5.976533   0.000000
     25          6.486360   0.000000
     26          6.772595   0.000000
     27          6.846027   0.000000
     28          7.336917   0.000000
     29          8.378679   0.000000
     30          8.556242   0.000000
     31          8.891115   0.000000
     32          9.327820   0.000000
     33         10.024175   0.000000
     34         10.048425   0.000000
     35         10.395265   0.000000
     36         11.168390   0.000000
     37         11.317137   0.000000
     38         11.790823   0.000000
     39         12.234115   0.000000
     40         12.499810   0.000000
     41         12.675142   0.000000
     42         13.411516   0.000000
     43         14.708394   0.000000
     44         14.717502   0.000000
     45         15.092629   0.000000
     46         15.250034   0.000000
     47         15.588537   0.000000
     48         16.329625   0.000000
 
  0.4500000E+00  0.1071429E+00  0.0000000E+00  0.3174603E-02
      1        -12.290063   1.000000
      2        -12.114696   1.000000
      3         -8.451262   1.000000
      4         -8.399936   1.000000
      5         -6.120910   1.000000
      6         -6.116676   1.000000
      7         -4.066659   1.000000
      8         -3.904506   1.000000
      9         -3.863883   1.000000
     10         -3.300815   1.000000
     11         -2.121406   1.000000
     12         -1.929080   1.000000
     13         -1.613548   1.000000
     14         -1.608709   1.000000
     15         -0.722869   1.000000
     16         -0.620754   1.000000
     17          0.100929   1.000000
     18          0.132003   1.000000
     19          0.862316   1.000000
     20          1.176075   1.000000
     21          1.323367   1.000000
     22          1.347307   1.000000
     23          5.891402   0.000000
     24          5.958213   0.000000
     25          6.762507   0.000000
     26          6.813212   0.000000
     27          7.151790   0.000000
     28          7.861429   0.000000
     29          7.904667   0.000000
     30          8.584399   0.000000
     31          8.647913   0.000000
     32          8.759750   0.000000
     33         10.271802   0.000000
     34         10.520932   0.000000
     35         10.759104   0.000000
     36         10.858751   0.000000
     37         11.498758   0.000000
     38         11.602125   0.000000
     39         11.953659   0.000000
     40         12.598847   0.000000
     41         12.977751   0.000000
     42         13.434383   0.000000
     43         14.493020   0.000000
     44         14.678236   0.000000
     45         14.776895   0.000000
     46         14.994691   0.000000
     47         16.061844   0.000000
     48         16.356599   0.000000
 
  0.5000000E-01  0.1785714E+00  0.0000000E+00  0.3174603E-02
      1        -12.652239   1.000000
      2        -11.517604   1.000000
      3         -8.610667   1.000000
      4         -8.361840   1.000000
      5         -5.998746   1.000000
      6         -5.137013   1.000000
      7         -5.017328   1.000000
      8         -4.614643   1.000000
      9         -4.170166   1.000000
     10         -3.923974   1.000000
     11         -3.479808   1.000000
     12         -1.221086   1.000000
     13         -1.098824   1.000000
     14         -0.660433   1.000000
     15         -0.556443   1.000000
     16         -0.197166   1.000000
     17          0.170551   1.000000
     18          0.278842   1.000000
     19          0.701516   1.000000
     20          1.349653   1.000000
     21          1.412636   1.000000
     22          2.282210   0.000000
     23          5.260300   0.000000
     24          5.424416   0.000000
     25          6.088808   0.000000
     26          6.158941   0.000000
     27          7.496940   0.000000
     28          7.585830   0.000000
     29          8.279547   0.000000
     30          8.680149   0.000000
     31          8.837345   0.000000
     32          9.183547   0.000000
     33          9.321255   0.000000
     34         10.835014   0.000000
     35         11.270223   0.000000
     36         11.522021   0.000000
     37         11.659711   0.000000
     38         12.035475   0.000000
     39         12.224771   0.000000
     40         12.696177   0.000000
     41         12.708719   0.000000
     42         12.948133   0.000000
     43         13.178477   0.000000
     44         14.607531   0.000000
     45         15.098032   0.000000
     46         15.275308   0.000000
     47         15.375425   0.000000
     48         15.894657   0.000000
 
  0.1500000E+00  0.1785714E+00  0.0000000E+00  0.3174603E-02
      1        -12.608813   1.000000
      2        -11.591020   1.000000
      3         -8.589018   1.000000
      4         -8.351407   1.000000
      5         -5.925614   1.000000
      6         -5.402061   1.000000
      7         -5.039946   1.000000
      8         -4.742082   1.000000
      9         -3.989675   1.000000
     10         -3.721565   1.000000
     11         -3.142187   1.000000
     12         -1.405450   1.000000
     13         -1.195046   1.000000
     14         -0.768366   1.000000
     15         -0.518556   1.000000
     16         -0.115626   1.000000
     17          0.149745   1.000000
     18          0.224169   1.000000
     19          0.588968   1.000000
     20          1.270761   1.000000
     21          1.343062   1.000000
     22          2.146844   0.000000
     23          5.340731   0.000000
     24          5.768736   0.000000
     25          6.105037   0.000000
     26          6.203991   0.000000
     27          7.416499   0.000000
     28          7.742351   0.000000
     29          8.011906   0.000000
     30          8.772189   0.000000
     31          9.197041   0.000000
     32          9.239349   0.000000
     33          9.604912   0.000000
     34         10.470678   0.000000
     35         10.731272   0.000000
     36         11.226802   0.000000
     37         11.677530   0.000000
     38         12.148904   0.000000
     39         12.381202   0.000000
     40         12.454239   0.000000
     41         13.107657   0.000000
     42         13.225265   0.000000
     43         13.381358   0.000000
     44         14.619714   0.000000
     45         14.761260   0.000000
     46         15.210910   0.000000
     47         15.439505   0.000000
     48         15.925983   0.000000
 
  0.2500000E+00  0.1785714E+00  0.0000000E+00  0.3174603E-02
      1        -12.523802   1.000000
      2        -11.723257   1.000000
      3         -8.544702   1.000000
      4         -8.338682   1.000000
      5         -5.895724   1.000000
      6         -5.721287   1.000000
      7         -4.948429   1.000000
      8         -4.705725   1.000000
      9         -4.112515   1.000000
     10         -3.188760   1.000000
     11         -2.672464   1.000000
     12         -1.901873   1.000000
     13         -1.154656   1.000000
     14         -0.907583   1.000000
     15         -0.465991   1.000000
     16         -0.109263   1.000000
     17         -0.004750   1.000000
     18          0.235528   1.000000
     19          0.474180   1.000000
     20          1.139651   1.000000
     21          1.225019   1.000000
     22          1.891059   0.201260
     23          5.661153   0.000000
     24          6.060114   0.000000
     25          6.243076   0.000000
     26          6.334350   0.000000
     27          7.314794   0.000000
     28          7.823591   0.000000
     29          7.976441   0.000000
     30          8.901075   0.000000
     31          9.194134   0.000000
     32          9.670460   0.000000
     33          9.807460   0.000000
     34         10.087201   0.000000
     35         10.207214   0.000000
     36         11.010529   0.000000
     37         11.541365   0.000000
     38         12.056101   0.000000
     39         12.458726   0.000000
     40         12.755506   0.000000
     41         12.988278   0.000000
     42         13.396448   0.000000
     43         13.903255   0.000000
     44         14.530624   0.000000
     45         14.810408   0.000000
     46         15.234585   0.000000
     47         15.456714   0.000000
     48         16.136758   0.000000
 
  0.3500000E+00  0.1785714E+00  0.0000000E+00  0.3174603E-02
      1        -12.401163   1.000000
      2        -11.891614   1.000000
      3         -8.482197   1.000000
      4         -8.337945   1.000000
      5         -5.972073   1.000000
      6         -5.950463   1.000000
      7         -4.813153   1.000000
      8         -4.385391   1.000000
      9         -4.276104   1.000000
     10         -2.821884   1.000000
     11         -2.335864   1.000000
     12         -2.192921   1.000000
     13         -1.098391   1.000000
     14         -1.044750   1.000000
     15         -0.472884   1.000000
     16         -0.394148   1.000000
     17          0.038858   1.000000
     18          0.041299   1.000000
     19          0.620912   1.000000
     20          1.010372   1.000000
     21          1.092631   1.000000
     22          1.557013   1.000000
     23          6.072020   0.000000
     24          6.194422   0.000000
     25          6.365378   0.000000
     26          6.768012   0.000000
     27          7.260048   0.000000
     28          7.745509   0.000000
     29          8.033289   0.000000
     30          9.000554   0.000000
     31          9.061035   0.000000
     32          9.130379   0.000000
     33          9.838486   0.000000
     34         10.136952   0.000000
     35         10.655691   0.000000
     36         11.029565   0.000000
     37         11.267136   0.000000
     38         11.901875   0.000000
     39         12.296226   0.000000
     40         12.937267   0.000000
     41         12.988275   0.000000
     42         13.738286   0.000000
     43         14.319089   0.000000
     44         14.337500   0.000000
     45         14.969940   0.000000
     46         15.064493   0.000000
     47         15.550396   0.000000
     48         16.315323   0.000000
 
  0.4500000E+00  0.1785714E+00  0.0000000E+00  0.3174603E-02
      1        -12.247499   1.000000
      2        -12.072829   1.000000
      3         -8.415235   1.000000
      4         -8.362786   1.000000
      5         -6.061626   1.000000
      6         -6.056384   1.000000
      7         -4.646152   1.000000
      8         -4.461420   1.000000
      9         -3.873751   1.000000
     10         -3.278390   1.000000
     11         -2.053654   1.000000
     12         -1.888924   1.000000
     13         -1.117664   1.000000
     14         -1.057646   1.000000
     15         -0.649177   1.000000
     16         -0.644208   1.000000
     17         -0.010316   1.000000
     18          0.033178   1.000000
     19          0.877936   1.000000
     20          0.947993   1.000000
     21          0.988413   1.000000
     22          1.204413   1.000000
     23          6.163922   0.000000
     24          6.282978   0.000000
     25          6.844992   0.000000
     26          7.181141   0.000000
     27          7.238832   0.000000
     28          7.587426   0.000000
     29          7.891957   0.000000
     30          8.400870   0.000000
     31          9.056037   0.000000
     32          9.087711   0.000000
     33          9.963069   0.000000
     34         10.435634   0.000000
     35         10.658549   0.000000
     36         10.932878   0.000000
     37         11.678557   0.000000
     38         11.692170   0.000000
     39         12.072928   0.000000
     40         12.853200   0.000000
     41         13.365402   0.000000
     42         13.710669   0.000000
     43         14.169892   0.000000
     44         14.324101   0.000000
     45         14.937445   0.000000
     46         15.076348   0.000000
     47         15.928060   0.000000
     48         16.230750   0.000000
 
  0.5000000E-01  0.2500000E+00  0.0000000E+00  0.3174603E-02
      1        -12.594961   1.000000
      2        -11.466253   1.000000
      3         -8.567017   1.000000
      4         -8.306905   1.000000
      5         -5.934915   1.000000
      6         -5.617242   1.000000
      7         -4.947550   1.000000
      8         -4.558749   1.000000
      9         -4.443391   1.000000
     10         -4.130991   1.000000
     11         -3.418125   1.000000
     12         -1.231745   1.000000
     13         -1.084588   1.000000
     14         -1.013223   1.000000
     15         -0.213566   1.000000
     16          0.198627   1.000000
     17          0.321847   1.000000
     18          0.572699   1.000000
     19          0.764924   1.000000
     20          0.965582   1.000000
     21          0.979578   1.000000
     22          2.316163   0.000000
     23          4.918745   0.000000
     24          5.132248   0.000000
     25          6.318434   0.000000
     26          6.548180   0.000000
     27          7.228989   0.000000
     28          7.924121   0.000000
     29          8.651290   0.000000
     30          9.017909   0.000000
     31          9.408201   0.000000
     32          9.536045   0.000000
     33          9.602362   0.000000
     34         10.696398   0.000000
     35         11.218472   0.000000
     36         11.918527   0.000000
     37         11.974004   0.000000
     38         12.242093   0.000000
     39         12.374938   0.000000
     40         12.401464   0.000000
     41         12.514768   0.000000
     42         12.933019   0.000000
     43         13.726731   0.000000
     44         13.828849   0.000000
     45         14.355060   0.000000
     46         15.046947   0.000000
     47         15.348902   0.000000
     48         15.787507   0.000000
 
  0.1500000E+00  0.2500000E+00  0.0000000E+00  0.3174603E-02
      1        -12.551763   1.000000
      2        -11.539319   1.000000
      3         -8.544956   1.000000
      4         -8.297424   1.000000
      5         -5.857181   1.000000
      6         -5.582474   1.000000
      7         -5.283502   1.000000
      8         -4.692476   1.000000