  14  14   0   0
  0.1019509E+02  0.5692442E-09  0.4044662E-09  0.6199237E-09  0.5000000E-15
  1.000000000000000E-004
  CAR 
 Convergence                             
     18.01594329    -14.19157694  301      1.89806447      1.00000000
    -14.192  0.0000E+00  0.0000E+00
    -14.084  0.0000E+00  0.0000E+00
    -13.977  0.0000E+00  0.0000E+00
    -13.870  0.0000E+00  0.0000E+00
    -13.762  0.0000E+00  0.0000E+00
    -13.655  0.0000E+00  0.0000E+00
    -13.547  0.0000E+00  0.0000E+00
    -13.440  0.0000E+00  0.0000E+00
    -13.333  0.0000E+00  0.0000E+00
    -13.225  0.0000E+00  0.0000E+00
    -13.118  0.0000E+00  0.0000E+00
    -13.011  0.4268E-16  0.4582E-17
    -12.903  0.2851E-07  0.3061E-08
    -12.796  0.3780E-02  0.4058E-03
    -12.689  0.5076E+00  0.5490E-01
    -12.581  0.2388E+01  0.3112E+00
    -12.474  0.3558E+01  0.6932E+00
    -12.366  0.4367E+01  0.1162E+01
    -12.259  0.3539E+01  0.1542E+01
    -12.152  0.2734E+01  0.1836E+01
    -12.044  0.2748E+01  0.2131E+01
    -11.937  0.2509E+01  0.2400E+01
    -11.830  0.2771E+01  0.2697E+01
    -11.722  0.3436E+01  0.3066E+01
    -11.615  0.3534E+01  0.3446E+01
    -11.508  0.3100E+01  0.3779E+01
    -11.400  0.1649E+01  0.3956E+01
    -11.293  0.4074E+00  0.3999E+01
    -11.186  0.6442E-02  0.4000E+01
    -11.078  0.1326E-06  0.4000E+01
    -10.971  0.5844E-15  0.4000E+01
    -10.863  0.0000E+00  0.4000E+01
    -10.756  0.0000E+00  0.4000E+01
    -10.649  0.0000E+00  0.4000E+01
    -10.541  0.0000E+00  0.4000E+01
    -10.434  0.0000E+00  0.4000E+01
    -10.327  0.0000E+00  0.4000E+01
    -10.219  0.0000E+00  0.4000E+01
    -10.112  0.0000E+00  0.4000E+01
    -10.005  0.0000E+00  0.4000E+01
     -9.897  0.0000E+00  0.4000E+01
     -9.790  0.0000E+00  0.4000E+01
     -9.683  0.0000E+00  0.4000E+01
     -9.575  0.0000E+00  0.4000E+01
     -9.468  0.0000E+00  0.4000E+01
     -9.360  0.0000E+00  0.4000E+01
     -9.253  0.0000E+00  0.4000E+01
     -9.146  0.0000E+00  0.4000E+01
     -9.038  0.8560E-09  0.4000E+01
     -8.931  0.5999E-03  0.4000E+01
     -8.824  0.2727E+00  0.4029E+01
     -8.716  0.2078E+01  0.4252E+01
     -8.609  0.5304E+01  0.4822E+01
     -8.502  0.6972E+01  0.5570E+01
     -8.394  0.6306E+01  0.6247E+01
     -8.287  0.5323E+01  0.6819E+01
     -8.180  0.4828E+01  0.7337E+01
     -8.072  0.3878E+01  0.7754E+01
     -7.965  0.1667E+01  0.7933E+01
     -7.857  0.5767E+00  0.7994E+01
     -7.750  0.5155E-01  0.8000E+01
     -7.643  0.2325E-04  0.8000E+01
     -7.535  0.2477E-11  0.8000E+01
     -7.428  0.0000E+00  0.8000E+01
     -7.321  0.0000E+00  0.8000E+01
     -7.213  0.0000E+00  0.8000E+01
     -7.106  0.5295E-09  0.8000E+01
     -6.999  0.4205E-03  0.8000E+01
     -6.891  0.1148E+00  0.8012E+01
     -6.784  0.2565E+00  0.8040E+01
     -6.676  0.4273E+00  0.8086E+01
     -6.569  0.7660E+00  0.8168E+01
     -6.462  0.8552E+00  0.8260E+01
     -6.354  0.1452E+01  0.8416E+01
     -6.247  0.1980E+01  0.8628E+01
     -6.140  0.3060E+01  0.8957E+01
     -6.032  0.3774E+01  0.9362E+01
     -5.925  0.4108E+01  0.9803E+01
     -5.818  0.4041E+01  0.1024E+02
     -5.710  0.3847E+01  0.1065E+02
     -5.603  0.4071E+01  0.1109E+02
     -5.496  0.4222E+01  0.1154E+02
     -5.388  0.4531E+01  0.1203E+02
     -5.281  0.4583E+01  0.1252E+02
     -5.173  0.4487E+01  0.1300E+02
     -5.066  0.3859E+01  0.1341E+02
     -4.959  0.3231E+01  0.1376E+02
     -4.851  0.2938E+01  0.1408E+02
     -4.744  0.2356E+01  0.1433E+02
     -4.637  0.2896E+01  0.1464E+02
     -4.529  0.3365E+01  0.1500E+02
     -4.422  0.3488E+01  0.1538E+02
     -4.315  0.3312E+01  0.1573E+02
     -4.207  0.2949E+01  0.1605E+02
     -4.100  0.2904E+01  0.1636E+02
     -3.993  0.2954E+01  0.1668E+02
     -3.885  0.2847E+01  0.1698E+02
     -3.778  0.3127E+01  0.1732E+02
     -3.670  0.2860E+01  0.1763E+02
     -3.563  0.2704E+01  0.1792E+02
     -3.456  0.3056E+01  0.1824E+02
     -3.348  0.2624E+01  0.1853E+02
     -3.241  0.2881E+01  0.1884E+02
     -3.134  0.2713E+01  0.1913E+02
     -3.026  0.2758E+01  0.1942E+02
     -2.919  0.3022E+01  0.1975E+02
     -2.812  0.2967E+01  0.2007E+02
     -2.704  0.2421E+01  0.2033E+02
     -2.597  0.2670E+01  0.2061E+02
     -2.490  0.3026E+01  0.2094E+02
     -2.382  0.2975E+01  0.2126E+02
     -2.275  0.3201E+01  0.2160E+02
     -2.167  0.4020E+01  0.2203E+02
     -2.060  0.3655E+01  0.2242E+02
     -1.953  0.3306E+01  0.2278E+02
     -1.845  0.5215E+01  0.2334E+02
     -1.738  0.5618E+01  0.2394E+02
     -1.631  0.5574E+01  0.2454E+02
     -1.523  0.6186E+01  0.2520E+02
     -1.416  0.6087E+01  0.2586E+02
     -1.309  0.5534E+01  0.2645E+02
     -1.201  0.4688E+01  0.2696E+02
     -1.094  0.6488E+01  0.2765E+02
     -0.986  0.3854E+01  0.2807E+02
     -0.879  0.2264E+01  0.2831E+02
     -0.772  0.2694E+01  0.2860E+02
     -0.664  0.2880E+01  0.2891E+02
     -0.557  0.4590E+01  0.2940E+02
     -0.450  0.6883E+01  0.3014E+02
     -0.342  0.5648E+01  0.3075E+02
     -0.235  0.6740E+01  0.3147E+02
     -0.128  0.6355E+01  0.3215E+02
     -0.020  0.6753E+01  0.3288E+02
      0.087  0.6699E+01  0.3360E+02
      0.194  0.6340E+01  0.3428E+02
      0.302  0.8782E+01  0.3522E+02
      0.409  0.7906E+01  0.3607E+02
      0.517  0.8709E+01  0.3700E+02
      0.624  0.5147E+01  0.3756E+02
      0.731  0.2886E+01  0.3787E+02
      0.839  0.3333E+01  0.3822E+02
      0.946  0.3585E+01  0.3861E+02
      1.053  0.3539E+01  0.3899E+02
      1.161  0.2785E+01  0.3929E+02
      1.268  0.3415E+01  0.3965E+02
      1.375  0.4505E+01  0.4014E+02
      1.483  0.3754E+01  0.4054E+02
      1.590  0.3743E+01  0.4094E+02
      1.697  0.4564E+01  0.4143E+02
      1.805  0.3148E+01  0.4177E+02
      1.912  0.2486E+01  0.4204E+02
      2.020  0.2643E+01  0.4232E+02
      2.127  0.2094E+01  0.4255E+02
      2.234  0.2653E+01  0.4283E+02
      2.342  0.2543E+01  0.4310E+02
      2.449  0.1905E+01  0.4331E+02
      2.556  0.8157E+00  0.4340E+02
      2.664  0.3786E+00  0.4344E+02
      2.771  0.5695E+00  0.4350E+02
      2.878  0.4186E+00  0.4354E+02
      2.986  0.3062E+00  0.4357E+02
      3.093  0.7763E+00  0.4366E+02
      3.200  0.1006E+01  0.4377E+02
      3.308  0.5135E+00  0.4382E+02
      3.415  0.1083E-01  0.4382E+02
      3.523  0.1397E+00  0.4384E+02
      3.630  0.3983E+00  0.4388E+02
      3.737  0.3228E+00  0.4391E+02
      3.845  0.3783E+00  0.4396E+02
      3.952  0.3931E+00  0.4400E+02
      4.059  0.2301E-01  0.4400E+02
      4.167  0.6082E-04  0.4400E+02
      4.274  0.4151E-01  0.4400E+02
      4.381  0.1848E+00  0.4402E+02
      4.489  0.4085E+00  0.4407E+02
      4.596  0.4858E+00  0.4412E+02
      4.704  0.6453E+00  0.4419E+02
      4.811  0.8963E+00  0.4429E+02
      4.918  0.8470E+00  0.4438E+02
      5.026  0.8563E+00  0.4447E+02
      5.133  0.1287E+01  0.4461E+02
      5.240  0.1139E+01  0.4473E+02
      5.348  0.1656E+01  0.4491E+02
      5.455  0.2217E+01  0.4514E+02
      5.562  0.2481E+01  0.4541E+02
      5.670  0.2783E+01  0.4571E+02
      5.777  0.3412E+01  0.4608E+02
      5.884  0.3200E+01  0.4642E+02
      5.992  0.4351E+01  0.4689E+02
      6.099  0.4719E+01  0.4739E+02
      6.207  0.4028E+01  0.4783E+02
      6.314  0.4634E+01  0.4832E+02
      6.421  0.4073E+01  0.4876E+02
      6.529  0.4058E+01  0.4920E+02
      6.636  0.4444E+01  0.4967E+02
      6.743  0.3216E+01  0.5002E+02
      6.851  0.4021E+01  0.5045E+02
      6.958  0.4615E+01  0.5095E+02
      7.065  0.4530E+01  0.5143E+02
      7.173  0.4342E+01  0.5190E+02
      7.280  0.5614E+01  0.5250E+02
      7.387  0.4876E+01  0.5302E+02
      7.495  0.4435E+01  0.5350E+02
      7.602  0.4162E+01  0.5395E+02
      7.710  0.3550E+01  0.5433E+02
      7.817  0.3138E+01  0.5467E+02
      7.924  0.2994E+01  0.5499E+02
      8.032  0.2990E+01  0.5531E+02
      8.139  0.4172E+01  0.5576E+02
      8.246  0.3864E+01  0.5617E+02
      8.354  0.3654E+01  0.5656E+02
      8.461  0.3982E+01  0.5699E+02
      8.568  0.4190E+01  0.5744E+02
      8.676  0.4434E+01  0.5792E+02
      8.783  0.4183E+01  0.5837E+02
      8.890  0.5212E+01  0.5893E+02
      8.998  0.5027E+01  0.5946E+02
      9.105  0.5294E+01  0.6003E+02
      9.213  0.5247E+01  0.6060E+02
      9.320  0.4939E+01  0.6113E+02
      9.427  0.4707E+01  0.6163E+02
      9.535  0.4349E+01  0.6210E+02
      9.642  0.5111E+01  0.6265E+02
      9.749  0.5020E+01  0.6319E+02
      9.857  0.5310E+01  0.6376E+02
      9.964  0.4469E+01  0.6424E+02
     10.071  0.3607E+01  0.6462E+02
     10.179  0.5165E+01  0.6518E+02
     10.286  0.4711E+01  0.6568E+02
     10.393  0.4090E+01  0.6612E+02
     10.501  0.5468E+01  0.6671E+02
     10.608  0.5792E+01  0.6733E+02
     10.716  0.4055E+01  0.6777E+02
     10.823  0.3868E+01  0.6818E+02
     10.930  0.3210E+01  0.6853E+02
     11.038  0.4659E+01  0.6903E+02
     11.145  0.5525E+01  0.6962E+02
     11.252  0.6130E+01  0.7028E+02
     11.360  0.5982E+01  0.7092E+02
     11.467  0.5339E+01  0.7149E+02
     11.574  0.4235E+01  0.7195E+02
     11.682  0.4471E+01  0.7243E+02
     11.789  0.4905E+01  0.7296E+02
     11.897  0.4796E+01  0.7347E+02
     12.004  0.6051E+01  0.7412E+02
     12.111  0.5933E+01  0.7476E+02
     12.219  0.5937E+01  0.7539E+02
     12.326  0.5654E+01  0.7600E+02
     12.433  0.5027E+01  0.7654E+02
     12.541  0.5660E+01  0.7715E+02
     12.648  0.6006E+01  0.7779E+02
     12.755  0.6066E+01  0.7844E+02
     12.863  0.5851E+01  0.7907E+02
     12.970  0.5846E+01  0.7970E+02
     13.077  0.5579E+01  0.8030E+02
     13.185  0.6348E+01  0.8098E+02
     13.292  0.6235E+01  0.8165E+02
     13.400  0.5346E+01  0.8222E+02
     13.507  0.6142E+01  0.8288E+02
     13.614  0.5284E+01  0.8345E+02
     13.722  0.4799E+01  0.8397E+02
     13.829  0.6094E+01  0.8462E+02
     13.936  0.5525E+01  0.8521E+02
     14.044  0.5330E+01  0.8579E+02
     14.151  0.5473E+01  0.8637E+02
     14.258  0.4694E+01  0.8688E+02
     14.366  0.4869E+01  0.8740E+02
     14.473  0.5054E+01  0.8794E+02
     14.580  0.4974E+01  0.8848E+02
     14.688  0.5270E+01  0.8904E+02
     14.795  0.5147E+01  0.8959E+02
     14.903  0.4089E+01  0.9003E+02
     15.010  0.5120E+01  0.9058E+02
     15.117  0.6211E+01  0.9125E+02
     15.225  0.5605E+01  0.9185E+02
     15.332  0.5641E+01  0.9246E+02
     15.439  0.6046E+01  0.9311E+02
     15.547  0.5713E+01  0.9372E+02
     15.654  0.5916E+01  0.9436E+02
     15.761  0.4573E+01  0.9485E+02
     15.869  0.2446E+01  0.9511E+02
     15.976  0.2702E+01  0.9540E+02
     16.083  0.1872E+01  0.9560E+02
     16.191  0.1152E+01  0.9572E+02
     16.298  0.8889E+00  0.9582E+02
     16.406  0.6968E+00  0.9589E+02
     16.513  0.8122E+00  0.9598E+02
     16.620  0.1750E+00  0.9600E+02
     16.728  0.1667E-02  0.9600E+02
     16.835  0.1993E-07  0.9600E+02
     16.942  0.3940E-16  0.9600E+02
     17.050  0.0000E+00  0.9600E+02
     17.157  0.0000E+00  0.9600E+02
     17.264  0.0000E+00  0.9600E+02
     17.372  0.0000E+00  0.9600E+02
     17.479  0.0000E+00  0.9600E+02
     17.587  0.0000E+00  0.9600E+02
     17.694  0.0000E+00  0.9600E+02
     17.801  0.0000E+00  0.9600E+02
     17.909  0.0000E+00  0.9600E+02
     18.016  0.0000E+00  0.9600E+02
