   14   14    1    1
  0.1019509E+02  0.5692442E-09  0.4044662E-09  0.6199237E-09  0.5000000E-15
  1.000000000000000E-004
  CAR 
 Convergence                             
     42    175     48
 
  0.5000000E-01  0.3571429E-01  0.0000000E+00  0.3174603E-02
      1        -12.727599   1.000000
      2        -11.585388   1.000000
      3         -8.654428   1.000000
      4         -8.417368   1.000000
      5         -6.056879   1.000000
      6         -5.122917   1.000000
      7         -4.657891   1.000000
      8         -4.270512   1.000000
      9         -4.026497   1.000000
     10         -3.536364   1.000000
     11         -2.582843   1.000000
     12         -2.313501   1.000000
     13         -1.821861   1.000000
     14         -1.085328   1.000000
     15         -0.060104   1.000000
     16         -0.030104   1.000000
     17          0.169030   1.000000
     18          0.191496   1.000000
     19          0.578529   1.000000
     20          2.032056   0.000075
     21          2.095491   0.000000
     22          2.232592   0.000000
     23          5.476705   0.000000
     24          5.768195   0.000000
     25          5.858642   0.000000
     26          5.978204   0.000000
     27          6.835943   0.000000
     28          7.569913   0.000000
     29          7.900519   0.000000
     30          8.563125   0.000000
     31          8.834697   0.000000
     32          8.978550   0.000000
     33          9.088825   0.000000
     34         10.146529   0.000000
     35         11.205554   0.000000
     36         11.365362   0.000000
     37         11.696957   0.000000
     38         11.811445   0.000000
     39         11.967336   0.000000
     40         12.427766   0.000000
     41         12.901412   0.000000
     42         13.486095   0.000000
     43         13.513270   0.000000
     44         15.423146   0.000000
     45         15.609224   0.000000
     46         16.102319   0.000000
     47         16.369294   0.000000
     48         16.393973   0.000000
 
  0.1500000E+00  0.3571429E-01  0.0000000E+00  0.3174603E-02
      1        -12.683824   1.000000
      2        -11.659151   1.000000
      3         -8.633399   1.000000
      4         -8.405865   1.000000
      5         -5.988516   1.000000
      6         -5.465080   1.000000
      7         -4.781182   1.000000
      8         -4.003667   1.000000
      9         -3.785689   1.000000
     10         -3.197920   1.000000
     11         -2.653297   1.000000
     12         -2.293244   1.000000
     13         -1.901106   1.000000
     14         -1.392528   1.000000
     15         -0.019621   1.000000
     16         -0.006192   1.000000
     17          0.105342   1.000000
     18          0.211093   1.000000
     19          0.483511   1.000000
     20          1.945717   0.088858
     21          2.017445   0.000367
     22          2.111111   0.000000
     23          5.565179   0.000000
     24          5.778274   0.000000
     25          5.884593   0.000000
     26          6.324813   0.000000
     27          6.750110   0.000000
     28          7.207391   0.000000
     29          8.112313   0.000000
     30          8.699435   0.000000
     31          9.094274   0.000000
     32          9.163015   0.000000
     33          9.232778   0.000000
     34         10.262463   0.000000
     35         10.972046   0.000000
     36         11.161245   0.000000
     37         11.278953   0.000000
     38         11.728073   0.000000
     39         12.184795   0.000000
     40         12.518133   0.000000
     41         13.155229   0.000000
     42         13.161041   0.000000
     43         14.046440   0.000000
     44         14.909969   0.000000
     45         15.786926   0.000000
     46         15.863846   0.000000
     47         16.265709   0.000000
     48         16.551965   0.000000
 
  0.2500000E+00  0.3571429E-01  0.0000000E+00  0.3174603E-02
      1        -12.598145   1.000000
      2        -11.792081   1.000000
      3         -8.589886   1.000000
      4         -8.391162   1.000000
      5         -5.967050   1.000000
      6         -5.792244   1.000000
      7         -4.735543   1.000000
      8         -3.875618   1.000000
      9         -3.274346   1.000000
     10         -2.822774   1.000000
     11         -2.704562   1.000000
     12         -2.252479   1.000000
     13         -2.012496   1.000000
     14         -1.897240   1.000000
     15         -0.205338   1.000000
     16          0.025184   1.000000
     17          0.156021   1.000000
     18          0.167435   1.000000
     19          0.453220   1.000000
     20          1.798116   0.997651
     21          1.880721   0.688130
     22          1.884477   0.649626
     23          5.685790   0.000000
     24          5.734900   0.000000
     25          6.193796   0.000000
     26          6.623631   0.000000
     27          6.784249   0.000000
     28          6.952504   0.000000
     29          8.264408   0.000000
     30          8.847565   0.000000
     31          9.032298   0.000000
     32          9.606855   0.000000
     33          9.676174   0.000000
     34         10.309319   0.000000
     35         10.516447   0.000000
     36         10.656933   0.000000
     37         11.400684   0.000000
     38         11.869345   0.000000
     39         12.419947   0.000000
     40         12.599919   0.000000
     41         12.820480   0.000000
     42         12.953260   0.000000
     43         14.673064   0.000000
     44         14.956301   0.000000
     45         15.258278   0.000000
     46         16.021251   0.000000
     47         16.039215   0.000000
     48         16.331878   0.000000
 
  0.3500000E+00  0.3571429E-01  0.0000000E+00  0.3174603E-02
      1        -12.474567   1.000000
      2        -11.961443   1.000000
      3         -8.528073   1.000000
      4         -8.388029   1.000000
      5         -6.048351   1.000000
      6         -6.025500   1.000000
      7         -4.407665   1.000000
      8         -3.706116   1.000000
      9         -3.017447   1.000000
     10         -2.889063   1.000000
     11         -2.435260   1.000000
     12         -2.242509   1.000000
     13         -2.133421   1.000000
     14         -2.114372   1.000000
     15         -0.504423   1.000000
     16         -0.231710   1.000000
     17          0.183195   1.000000
     18          0.258958   1.000000
     19          0.626645   1.000000
     20          1.544773   1.000000
     21          1.674756   1.000000
     22          1.735852   0.999998
     23          5.719244   0.000000
     24          5.771331   0.000000
     25          6.521721   0.000000
     26          6.692736   0.000000
     27          6.718844   0.000000
     28          7.435718   0.000000
     29          8.389578   0.000000
     30          8.714492   0.000000
     31          8.838763   0.000000
     32          9.562080   0.000000
     33         10.087233   0.000000
     34         10.146374   0.000000
     35         10.429371   0.000000
     36         11.184234   0.000000
     37         11.431464   0.000000
     38         11.979648   0.000000
     39         12.234531   0.000000
     40         12.308809   0.000000
     41         12.549290   0.000000
     42         13.286246   0.000000
     43         14.744067   0.000000
     44         15.011481   0.000000
     45         15.304032   0.000000
     46         15.410159   0.000000
     47         15.610679   0.000000
     48         16.415172   0.000000
 
  0.4500000E+00  0.3571429E-01  0.0000000E+00  0.3174603E-02
      1        -12.319755   1.000000
      2        -12.143852   1.000000
      3         -8.461872   1.000000
      4         -8.410759   1.000000
      5         -6.138979   1.000000
      6         -6.134186   1.000000
      7         -3.891681   1.000000
      8         -3.496227   1.000000
      9         -3.291702   1.000000
     10         -3.257353   1.000000
     11         -2.353713   1.000000
     12         -2.223936   1.000000
     13         -1.949556   1.000000
     14         -1.897908   1.000000
     15         -0.724902   1.000000
     16         -0.589790   1.000000
     17          0.266676   1.000000
     18          0.300467   1.000000
     19          0.887725   1.000000
     20          1.205526   1.000000
     21          1.594069   1.000000
     22          1.621704   1.000000
     23          5.746688   0.000000
     24          5.783358   0.000000
     25          6.499686   0.000000
     26          6.563418   0.000000
     27          7.389439   0.000000
     28          8.098148   0.000000
     29          8.118749   0.000000
     30          8.508095   0.000000
     31          8.647681   0.000000
     32          8.815327   0.000000
     33         10.529359   0.000000
     34         10.547126   0.000000
     35         10.792781   0.000000
     36         11.251345   0.000000
     37         11.436137   0.000000
     38         11.635001   0.000000
     39         11.969379   0.000000
     40         12.514272   0.000000
     41         12.745009   0.000000
     42         13.282619   0.000000
     43         14.621099   0.000000
     44         14.771431   0.000000
     45         14.902149   0.000000
     46         14.960527   0.000000
     47         16.142615   0.000000
     48         16.486570   0.000000
 
  0.5000000E-01  0.1071429E+00  0.0000000E+00  0.3174603E-02
      1        -12.703532   1.000000
      2        -11.563818   1.000000
      3         -8.635563   1.000000
      4         -8.394147   1.000000
      5         -6.029998   1.000000
      6         -5.089144   1.000000
      7         -4.635740   1.000000
      8         -4.568389   1.000000
      9         -4.170654   1.000000
     10         -3.513391   1.000000
     11         -3.276822   1.000000
     12         -1.782662   1.000000
     13         -1.080734   1.000000
     14         -1.022287   1.000000
     15         -0.294375   1.000000
     16         -0.266367   1.000000
     17          0.182524   1.000000
     18          0.261764   1.000000
     19          0.657095   1.000000
     20          1.763674   0.999928
     21          1.843999   0.936893
     22          2.284917   0.000000
     23          5.594079   0.000000
     24          5.727517   0.000000
     25          5.759980   0.000000
     26          6.028610   0.000000
     27          7.122886   0.000000
     28          7.855795   0.000000
     29          8.102651   0.000000
     30          8.211580   0.000000
     31          8.838511   0.000000
     32          9.133121   0.000000
     33          9.182749   0.000000
     34         10.600540   0.000000
     35         11.296137   0.000000
     36         11.422059   0.000000
     37         11.630565   0.000000
     38         11.914513   0.000000
     39         12.077895   0.000000
     40         12.709143   0.000000
     41         12.900979   0.000000
     42         13.221352   0.000000
     43         13.228730   0.000000
     44         15.369895   0.000000
     45         15.421318   0.000000
     46         15.895393   0.000000
     47         15.910991   0.000000
     48         16.259771   0.000000
 
  0.1500000E+00  0.1071429E+00  0.0000000E+00  0.3174603E-02
      1        -12.659856   1.000000
      2        -11.637429   1.000000
      3         -8.614396   1.000000
      4         -8.383027   1.000000
      5         -5.959846   1.000000
      6         -5.434969   1.000000
      7         -4.761067   1.000000
      8         -4.484695   1.000000
      9         -3.745836   1.000000
     10         -3.357977   1.000000
     11         -3.159626   1.000000
     12         -1.760862   1.000000
     13         -1.387116   1.000000
     14         -1.142439   1.000000
     15         -0.255205   1.000000
     16         -0.184267   1.000000
     17          0.150373   1.000000
     18          0.232452   1.000000
     19          0.554443   1.000000
     20          1.682996   1.000000
     21          1.767415   0.999890
     22          2.153801   0.000000
     23          5.669772   0.000000
     24          5.825797   0.000000
     25          5.956571   0.000000
     26          6.131218   0.000000
     27          7.039142   0.000000
     28          7.530258   0.000000
     29          8.248493   0.000000
     30          8.383903   0.000000
     31          9.165622   0.000000
     32          9.191679   0.000000
     33          9.445981   0.000000
     34         10.527806   0.000000
     35         10.902650   0.000000
     36         11.113514   0.000000
     37         11.476873   0.000000
     38         11.900969   0.000000
     39         12.297894   0.000000
     40         12.766484   0.000000
     41         12.898195   0.000000
     42         13.185201   0.000000
     43         13.762682   0.000000
     44         14.995430   0.000000
     45         15.436532   0.000000
     46         15.785170   0.000000
     47         15.835223   0.000000
     48         16.439930   0.000000
 
  0.2500000E+00  0.1071429E+00  0.0000000E+00  0.3174603E-02
      1        -12.574376   1.000000
      2        -11.770085   1.000000
      3         -8.570673   1.000000
      4         -8.369028   1.000000
      5         -5.935603   1.000000
      6         -5.761769   1.000000
      7         -4.718827   1.000000
      8         -4.375623   1.000000
      9         -3.480415   1.000000
     10         -3.219265   1.000000
     11         -2.692390   1.000000
     12         -1.892673   1.000000
     13         -1.716375   1.000000
     14         -1.306542   1.000000
     15         -0.207841   1.000000
     16         -0.207427   1.000000
     17          0.063337   1.000000
     18          0.219685   1.000000
     19          0.477901   1.000000
     20          1.547748   1.000000
     21          1.637100   1.000000
     22          1.905029   0.421914
     23          5.876592   0.000000
     24          5.953166   0.000000
     25          6.030547   0.000000
     26          6.581061   0.000000
     27          6.917975   0.000000
     28          7.301873   0.000000
     29          8.454432   0.000000
     30          8.517890   0.000000
     31          9.133625   0.000000
     32          9.644273   0.000000
     33          9.902466   0.000000
     34         10.152515   0.000000
     35         10.382777   0.000000
     36         10.855132   0.000000
     37         11.544083   0.000000
     38         12.135061   0.000000
     39         12.340772   0.000000
     40         12.582334   0.000000
     41         12.992886   0.000000
     42         13.051448   0.000000
     43         14.340327   0.000000
     44         15.125629   0.000000
     45         15.197931   0.000000
     46         15.683406   0.000000
     47         15.744744   0.000000
     48         16.459893   0.000000
 
  0.3500000E+00  0.1071429E+00  0.0000000E+00  0.3174603E-02
      1        -12.451070   1.000000
      2        -11.939075   1.000000
      3         -8.508618   1.000000
      4         -8.366789   1.000000
      5         -6.015693   1.000000
      6         -5.994110   1.000000
      7         -4.393095   1.000000
      8         -4.227940   1.000000
      9         -3.652748   1.000000
     10         -2.838679   1.000000
     11         -2.353289   1.000000
     12         -2.208551   1.000000
     13         -1.651829   1.000000
     14         -1.470462   1.000000
     15         -0.465557   1.000000
     16         -0.295849   1.000000
     17          0.095816   1.000000
     18          0.125136   1.000000
     19          0.637390   1.000000
     20          1.408030   1.000000
     21          1.491379   1.000000
     22          1.580319   1.000000
     23          5.894962   0.000000
     24          6.027034   0.000000
     25          6.536169   0.000000
     26          6.827766   0.000000
     27          6.900292   0.000000
     28          7.393556   0.000000
     29          8.441849   0.000000
     30          8.626402   0.000000
     31          8.969146   0.000000
     32          9.396777   0.000000
     33         10.101750   0.000000
     34         10.129624   0.000000
     35         10.469861   0.000000
     36         11.261876   0.000000
     37         11.392585   0.000000
     38         11.872607   0.000000
     39         12.329298   0.000000
     40         12.573764   0.000000
     41         12.749974   0.000000
     42         13.489586   0.000000
     43         14.800752   0.000000
     44         14.807468   0.000000
     45         15.191791   0.000000
     46         15.342898   0.000000
     47         15.690897   0.000000
     48         16.427747   0.000000
 
  0.4500000E+00  0.1071429E+00  0.0000000E+00  0.3174603E-02
      1        -12.296606   1.000000
      2        -12.121090   1.000000
      3         -8.442080   1.000000
      4         -8.390372   1.000000
      5         -6.106770   1.000000
      6         -6.101512   1.000000
      7         -4.048223   1.000000
      8         -3.884499   1.000000
      9         -3.843143   1.000000
     10         -3.278787   1.000000
     11         -2.099765   1.000000
     12         -1.904868   1.000000
     13         -1.583669   1.000000
     14         -1.582182   1.000000
     15         -0.686422   1.000000
     16         -0.586167   1.000000
     17          0.128153   1.000000
     18          0.159460   1.000000
     19          0.897148   1.000000
     20          1.211854   1.000000
     21          1.354277   1.000000
     22          1.378575   1.000000
     23          5.945586   0.000000
     24          6.010620   0.000000
     25          6.816136   0.000000
     26          6.866458   0.000000
     27          7.205176   0.000000
     28          7.919463   0.000000
     29          7.965838   0.000000
     30          8.650112   0.000000
     31          8.719701   0.000000
     32          8.833158   0.000000
     33         10.350067   0.000000
     34         10.597867   0.000000
     35         10.833815   0.000000
     36         10.941108   0.000000
     37         11.583249   0.000000
     38         11.694541   0.000000
     39         12.049307   0.000000
     40         12.684613   0.000000
     41         13.054682   0.000000
     42         13.514962   0.000000
     43         14.583113   0.000000
     44         14.767395   0.000000
     45         14.863334   0.000000
     46         15.080601   0.000000
     47         16.166246   0.000000
     48         16.460485   0.000000
 
  0.5000000E-01  0.1785714E+00  0.0000000E+00  0.3174603E-02
      1        -12.659068   1.000000
      2        -11.524040   1.000000
      3         -8.601022   1.000000
      4         -8.351301   1.000000
      5         -5.980297   1.000000
      6         -5.125573   1.000000
      7         -4.997836   1.000000
      8         -4.593751   1.000000
      9         -4.154730   1.000000
     10         -3.899581   1.000000
     11         -3.459991   1.000000
     12         -1.194171   1.000000
     13         -1.071349   1.000000
     14         -0.639478   1.000000
     15         -0.532298   1.000000
     16         -0.162837   1.000000
     17          0.203781   1.000000
     18          0.315018   1.000000
     19          0.735795   1.000000
     20          1.379852   1.000000
     21          1.443949   1.000000
     22          2.323227   0.000000
     23          5.303393   0.000000
     24          5.469965   0.000000
     25          6.144023   0.000000
     26          6.217953   0.000000
     27          7.560170   0.000000
     28          7.648874   0.000000
     29          8.339621   0.000000
     30          8.754450   0.000000
     31          8.910144   0.000000
     32          9.276327   0.000000
     33          9.401642   0.000000
     34         10.908866   0.000000
     35         11.346695   0.000000
     36         11.602046   0.000000
     37         11.725144   0.000000
     38         12.115779   0.000000
     39         12.294273   0.000000
     40         12.775576   0.000000
     41         12.789552   0.000000
     42         13.040718   0.000000
     43         13.251316   0.000000
     44         14.716409   0.000000
     45         15.198085   0.000000
     46         15.383061   0.000000
     47         15.462805   0.000000
     48         16.001508   0.000000
 
  0.1500000E+00  0.1785714E+00  0.0000000E+00  0.3174603E-02
      1        -12.615577   1.000000
      2        -11.597363   1.000000
      3         -8.579554   1.000000
      4         -8.340887   1.000000
      5         -5.906713   1.000000
      6         -5.387035   1.000000
      7         -5.025833   1.000000
      8         -4.723180   1.000000
      9         -3.966043   1.000000
     10         -3.703463   1.000000
     11         -3.120165   1.000000
     12         -1.378882   1.000000
     13         -1.167540   1.000000
     14         -0.746196   1.000000
     15         -0.494210   1.000000
     16         -0.082120   1.000000
     17          0.185265   1.000000
     18          0.257676   1.000000
     19          0.623416   1.000000
     20          1.300578   1.000000
     21          1.374129   1.000000
     22          2.187090   0.000000
     23          5.383564   0.000000
     24          5.817007   0.000000
     25          6.163947   0.000000
     26          6.258036   0.000000
     27          7.479220   0.000000
     28          7.805443   0.000000
     29          8.071832   0.000000
     30          8.844748   0.000000
     31          9.287156   0.000000
     32          9.314826   0.000000
     33          9.686778   0.000000
     34         10.544238   0.000000
     35         10.807641   0.000000
     36         11.305281   0.000000
     37         11.743242   0.000000
     38         12.227236   0.000000
     39         12.460173   0.000000
     40         12.528181   0.000000
     41         13.194766   0.000000
     42         13.300783   0.000000
     43         13.470505   0.000000
     44         14.725395   0.000000
     45         14.858681   0.000000
     46         15.327088   0.000000
     47         15.526471   0.000000
     48         16.024250   0.000000
 
  0.2500000E+00  0.1785714E+00  0.0000000E+00  0.3174603E-02
      1        -12.530453   1.000000
      2        -11.729495   1.000000
      3         -8.535426   1.000000
      4         -8.328232   1.000000
      5         -5.877052   1.000000
      6         -5.706850   1.000000
      7         -4.934063   1.000000
      8         -4.687604   1.000000
      9         -4.090272   1.000000
     10         -3.168568   1.000000
     11         -2.648291   1.000000
     12         -1.876240   1.000000
     13         -1.126726   1.000000
     14         -0.884744   1.000000
     15         -0.441013   1.000000
     16         -0.071349   1.000000
     17          0.025098   1.000000
     18          0.269927   1.000000
     19          0.508050   1.000000
     20          1.168832   1.000000
     21          1.255636   1.000000
     22          1.930004   0.183160
     23          5.705303   0.000000
     24          6.118929   0.000000
     25          6.294530   0.000000
     26          6.387530   0.000000
     27          7.376349   0.000000
     28          7.881958   0.000000
     29          8.039198   0.000000
     30          8.973170   0.000000
     31          9.278611   0.000000
     32          9.749019   0.000000
     33          9.878207   0.000000
     34         10.168646   0.000000
     35         10.282078   0.000000
     36         11.093856   0.000000
     37         11.613658   0.000000
     38         12.134167   0.000000
     39         12.539327   0.000000
     40         12.828589   0.000000
     41         13.078255   0.000000
     42         13.476330   0.000000
     43         13.993235   0.000000
     44         14.632660   0.000000
     45         14.908688   0.000000
     46         15.345134   0.000000
     47         15.546788   0.000000
     48         16.234773   0.000000
 
  0.3500000E+00  0.1785714E+00  0.0000000E+00  0.3174603E-02
      1        -12.407667   1.000000
      2        -11.897807   1.000000
      3         -8.472933   1.000000
      4         -8.327711   1.000000
      5         -5.954841   1.000000
      6         -5.936245   1.000000
      7         -4.797743   1.000000
      8         -4.366253   1.000000
      9         -4.255599   1.000000
     10         -2.799668   1.000000
     11         -2.311946   1.000000
     12         -2.167358   1.000000
     13         -1.069955   1.000000
     14         -1.021354   1.000000
     15         -0.445328   1.000000
     16         -0.358071   1.000000
     17          0.069193   1.000000
     18          0.073916   1.000000
     19          0.655089   1.000000
     20          1.039035   1.000000
     21          1.122651   1.000000
     22          1.594437   1.000000
     23          6.129767   0.000000
     24          6.241783   0.000000
     25          6.419483   0.000000
     26          6.823038   0.000000
     27          7.319674   0.000000
     28          7.802730   0.000000
     29          8.093099   0.000000
     30          9.072819   0.000000
     31          9.129626   0.000000
     32          9.204132   0.000000
     33          9.917943   0.000000
     34         10.217142   0.000000
     35         10.729031   0.000000
     36         11.107017   0.000000
     37         11.361179   0.000000
     38         11.980438   0.000000
     39         12.392037   0.000000
     40         13.014758   0.000000
     41         13.065684   0.000000
     42         13.821855   0.000000
     43         14.417883   0.000000
     44         14.432072   0.000000
     45         15.066754   0.000000
     46         15.159496   0.000000
     47         15.652712   0.000000
     48         16.411193   0.000000
 
  0.4500000E+00  0.1785714E+00  0.0000000E+00  0.3174603E-02
      1        -12.253851   1.000000
      2        -12.079066   1.000000
      3         -8.405736   1.000000
      4         -8.352910   1.000000
      5         -6.046962   1.000000
      6         -6.040660   1.000000
      7         -4.629285   1.000000
      8         -4.442821   1.000000
      9         -3.852983   1.000000
     10         -3.256104   1.000000
     11         -2.030175   1.000000
     12         -1.864013   1.000000
     13         -1.092192   1.000000
     14         -1.029589   1.000000
     15         -0.617040   1.000000
     16         -0.609422   1.000000
     17          0.019234   1.000000
     18          0.062797   1.000000
     19          0.912842   1.000000
     20          0.976796   1.000000
     21          1.017842   1.000000
     22          1.240437   1.000000
     23          6.221298   0.000000
     24          6.338923   0.000000
     25          6.896074   0.000000
     26          7.237880   0.000000
     27          7.297032   0.000000
     28          7.641912   0.000000
     29          7.950249   0.000000
     30          8.463261   0.000000
     31          9.129189   0.000000
     32          9.161653   0.000000
     33         10.041275   0.000000
     34         10.512916   0.000000
     35         10.737924   0.000000
     36         11.005807   0.000000
     37         11.763764   0.000000
     38         11.784859   0.000000
     39         12.171327   0.000000
     40         12.943994   0.000000
     41         13.446024   0.000000
     42         13.794710   0.000000
     43         14.263413   0.000000
     44         14.418191   0.000000
     45         15.026873   0.000000
     46         15.167361   0.000000
     47         16.028424   0.000000
     48         16.333080   0.000000
 
  0.5000000E-01  0.2500000E+00  0.0000000E+00  0.3174603E-02
      1        -12.601457   1.000000
      2        -11.472653   1.000000
      3         -8.556883   1.000000
      4         -8.295873   1.000000
      5         -5.915765   1.000000
      6         -5.607045   1.000000
      7         -4.927243   1.000000
      8         -4.537245   1.000000
      9         -4.420318   1.000000
     10         -4.115301   1.000000
     11         -3.397771   1.000000
     12         -1.212750   1.000000
     13         -1.057146   1.000000
     14         -0.995293   1.000000
     15         -0.182364   1.000000
     16          0.232164   1.000000
     17          0.358674   1.000000
     18          0.608553   1.000000
     19          0.799731   1.000000
     20          0.994027   1.000000
     21          1.008290   1.000000
     22          2.357633   0.000000
     23          4.958457   0.000000
     24          5.175389   0.000000
     25          6.378923   0.000000
     26          6.608235   0.000000
     27          7.289345   0.000000
     28          7.993687   0.000000
     29          8.730856   0.000000
     30          9.082527   0.000000
     31          9.498210   0.000000
     32          9.605149   0.000000
     33          9.682894   0.000000
     34         10.770379   0.000000
     35         11.298594   0.000000
     36         11.993887   0.000000
     37         12.042842   0.000000
     38         12.325942   0.000000
     39         12.451785   0.000000
     40         12.474939   0.000000
     41         12.594336   0.000000
     42         13.026372   0.000000
     43         13.832870   0.000000
     44         13.910394   0.000000
     45         14.454651   0.000000
     46         15.135231   0.000000
     47         15.434639   0.000000
     48         15.903170   0.000000
 
  0.1500000E+00  0.2500000E+00  0.0000000E+00  0.3174603E-02
      1        -12.558210   1.000000
      2        -11.545607   1.000000
      3         -8.535030   1.000000
      4         -8.286425   1.000000
      5         -5.837549   1.000000
      6         -5.572327   1.000000
      7         -5.265302   1.000000
      8         -4.673044   1.000000