   1   1   0   0
  0.3393258E+04  0.1502700E-08  0.1252250E-08  0.1803240E-08  0.5000000E-15
  1.000000000000000E-004
  CAR 
 Convergence                             
      2.48650173     -9.97659006  301     -3.60738033      1.00000000
     -9.977  0.0000E+00  0.0000E+00
     -9.935  0.0000E+00  0.0000E+00
     -9.894  0.0000E+00  0.0000E+00
     -9.852  0.0000E+00  0.0000E+00
     -9.810  0.0000E+00  0.0000E+00
     -9.769  0.0000E+00  0.0000E+00
     -9.727  0.0000E+00  0.0000E+00
     -9.686  0.1523E-12  0.6328E-14
     -9.644  0.8476E-09  0.3522E-10
     -9.603  0.1226E-05  0.5097E-07
     -9.561  0.4633E-03  0.1930E-04
     -9.520  0.4646E-01  0.1949E-02
     -9.478  0.1265E+01  0.5451E-01
     -9.437  0.9631E+01  0.4546E+00
     -9.395  0.2109E+02  0.1331E+01
     -9.353  0.1348E+02  0.1891E+01
     -9.312  0.2494E+01  0.1995E+01
     -9.270  0.1301E+00  0.2000E+01
     -9.229  0.1856E-02  0.2000E+01
     -9.187  0.7064E-05  0.2000E+01
     -9.146  0.7051E-08  0.2000E+01
     -9.104  0.1826E-11  0.2000E+01
     -9.063  0.0000E+00  0.2000E+01
     -9.021  0.0000E+00  0.2000E+01
     -8.980  0.0000E+00  0.2000E+01
     -8.938  0.0000E+00  0.2000E+01
     -8.896  0.0000E+00  0.2000E+01
     -8.855  0.0000E+00  0.2000E+01
     -8.813  0.0000E+00  0.2000E+01
     -8.772  0.0000E+00  0.2000E+01
     -8.730  0.0000E+00  0.2000E+01
     -8.689  0.0000E+00  0.2000E+01
     -8.647  0.0000E+00  0.2000E+01
     -8.606  0.0000E+00  0.2000E+01
     -8.564  0.0000E+00  0.2000E+01
     -8.523  0.0000E+00  0.2000E+01
     -8.481  0.0000E+00  0.2000E+01
     -8.439  0.0000E+00  0.2000E+01
     -8.398  0.0000E+00  0.2000E+01
     -8.356  0.0000E+00  0.2000E+01
     -8.315  0.0000E+00  0.2000E+01
     -8.273  0.0000E+00  0.2000E+01
     -8.232  0.0000E+00  0.2000E+01
     -8.190  0.0000E+00  0.2000E+01
     -8.149  0.0000E+00  0.2000E+01
     -8.107  0.0000E+00  0.2000E+01
     -8.066  0.0000E+00  0.2000E+01
     -8.024  0.0000E+00  0.2000E+01
     -7.982  0.0000E+00  0.2000E+01
     -7.941  0.0000E+00  0.2000E+01
     -7.899  0.0000E+00  0.2000E+01
     -7.858  0.0000E+00  0.2000E+01
     -7.816  0.0000E+00  0.2000E+01
     -7.775  0.0000E+00  0.2000E+01
     -7.733  0.0000E+00  0.2000E+01
     -7.692  0.0000E+00  0.2000E+01
     -7.650  0.0000E+00  0.2000E+01
     -7.609  0.0000E+00  0.2000E+01
     -7.567  0.0000E+00  0.2000E+01
     -7.526  0.0000E+00  0.2000E+01
     -7.484  0.0000E+00  0.2000E+01
     -7.442  0.0000E+00  0.2000E+01
     -7.401  0.0000E+00  0.2000E+01
     -7.359  0.0000E+00  0.2000E+01
     -7.318  0.0000E+00  0.2000E+01
     -7.276  0.0000E+00  0.2000E+01
     -7.235  0.0000E+00  0.2000E+01
     -7.193  0.0000E+00  0.2000E+01
     -7.152  0.0000E+00  0.2000E+01
     -7.110  0.0000E+00  0.2000E+01
     -7.069  0.0000E+00  0.2000E+01
     -7.027  0.0000E+00  0.2000E+01
     -6.985  0.0000E+00  0.2000E+01
     -6.944  0.0000E+00  0.2000E+01
     -6.902  0.0000E+00  0.2000E+01
     -6.861  0.0000E+00  0.2000E+01
     -6.819  0.0000E+00  0.2000E+01
     -6.778  0.0000E+00  0.2000E+01
     -6.736  0.0000E+00  0.2000E+01
     -6.695  0.0000E+00  0.2000E+01
     -6.653  0.0000E+00  0.2000E+01
     -6.612  0.0000E+00  0.2000E+01
     -6.570  0.0000E+00  0.2000E+01
     -6.528  0.0000E+00  0.2000E+01
     -6.487  0.0000E+00  0.2000E+01
     -6.445  0.0000E+00  0.2000E+01
     -6.404  0.0000E+00  0.2000E+01
     -6.362  0.0000E+00  0.2000E+01
     -6.321  0.0000E+00  0.2000E+01
     -6.279  0.0000E+00  0.2000E+01
     -6.238  0.0000E+00  0.2000E+01
     -6.196  0.0000E+00  0.2000E+01
     -6.155  0.0000E+00  0.2000E+01
     -6.113  0.0000E+00  0.2000E+01
     -6.071  0.0000E+00  0.2000E+01
     -6.030  0.0000E+00  0.2000E+01
     -5.988  0.0000E+00  0.2000E+01
     -5.947  0.0000E+00  0.2000E+01
     -5.905  0.0000E+00  0.2000E+01
     -5.864  0.0000E+00  0.2000E+01
     -5.822  0.0000E+00  0.2000E+01
     -5.781  0.0000E+00  0.2000E+01
     -5.739  0.0000E+00  0.2000E+01
     -5.698  0.0000E+00  0.2000E+01
     -5.656  0.0000E+00  0.2000E+01
     -5.615  0.0000E+00  0.2000E+01
     -5.573  0.0000E+00  0.2000E+01
     -5.531  0.0000E+00  0.2000E+01
     -5.490  0.0000E+00  0.2000E+01
     -5.448  0.0000E+00  0.2000E+01
     -5.407  0.0000E+00  0.2000E+01
     -5.365  0.0000E+00  0.2000E+01
     -5.324  0.0000E+00  0.2000E+01
     -5.282  0.0000E+00  0.2000E+01
     -5.241  0.0000E+00  0.2000E+01
     -5.199  0.0000E+00  0.2000E+01
     -5.158  0.0000E+00  0.2000E+01
     -5.116  0.0000E+00  0.2000E+01
     -5.074  0.0000E+00  0.2000E+01
     -5.033  0.0000E+00  0.2000E+01
     -4.991  0.0000E+00  0.2000E+01
     -4.950  0.0000E+00  0.2000E+01
     -4.908  0.0000E+00  0.2000E+01
     -4.867  0.0000E+00  0.2000E+01
     -4.825  0.0000E+00  0.2000E+01
     -4.784  0.0000E+00  0.2000E+01
     -4.742  0.0000E+00  0.2000E+01
     -4.701  0.0000E+00  0.2000E+01
     -4.659  0.0000E+00  0.2000E+01
     -4.617  0.0000E+00  0.2000E+01
     -4.576  0.0000E+00  0.2000E+01
     -4.534  0.0000E+00  0.2000E+01
     -4.493  0.0000E+00  0.2000E+01
     -4.451  0.0000E+00  0.2000E+01
     -4.410  0.0000E+00  0.2000E+01
     -4.368  0.0000E+00  0.2000E+01
     -4.327  0.0000E+00  0.2000E+01
     -4.285  0.0000E+00  0.2000E+01
     -4.244  0.0000E+00  0.2000E+01
     -4.202  0.0000E+00  0.2000E+01
     -4.160  0.0000E+00  0.2000E+01
     -4.119  0.0000E+00  0.2000E+01
     -4.077  0.0000E+00  0.2000E+01
     -4.036  0.0000E+00  0.2000E+01
     -3.994  0.0000E+00  0.2000E+01
     -3.953  0.0000E+00  0.2000E+01
     -3.911  0.0000E+00  0.2000E+01
     -3.870  0.0000E+00  0.2000E+01
     -3.828  0.4005E-10  0.2000E+01
     -3.787  0.1139E-06  0.2000E+01
     -3.745  0.8417E-04  0.2000E+01
     -3.704  0.1636E-01  0.2001E+01
     -3.662  0.8527E+00  0.2036E+01
     -3.620  0.1224E+02  0.2545E+01
     -3.579  0.4987E+02  0.4616E+01
     -3.537  0.5902E+02  0.7068E+01
     -3.496  0.2036E+02  0.7914E+01
     -3.454  0.2009E+01  0.7998E+01
     -3.413  0.5505E-01  0.8000E+01
     -3.371  0.4072E-03  0.8000E+01
     -3.330  0.7958E-06  0.8000E+01
     -3.288  0.4052E-09  0.8000E+01
     -3.247  0.6337E-13  0.8000E+01
     -3.205  0.0000E+00  0.8000E+01
     -3.163  0.0000E+00  0.8000E+01
     -3.122  0.0000E+00  0.8000E+01
     -3.080  0.0000E+00  0.8000E+01
     -3.039  0.0000E+00  0.8000E+01
     -2.997  0.0000E+00  0.8000E+01
     -2.956  0.0000E+00  0.8000E+01
     -2.914  0.0000E+00  0.8000E+01
     -2.873  0.0000E+00  0.8000E+01
     -2.831  0.0000E+00  0.8000E+01
     -2.790  0.0000E+00  0.8000E+01
     -2.748  0.0000E+00  0.8000E+01
     -2.706  0.0000E+00  0.8000E+01
     -2.665  0.0000E+00  0.8000E+01
     -2.623  0.0000E+00  0.8000E+01
     -2.582  0.0000E+00  0.8000E+01
     -2.540  0.0000E+00  0.8000E+01
     -2.499  0.0000E+00  0.8000E+01
     -2.457  0.0000E+00  0.8000E+01
     -2.416  0.0000E+00  0.8000E+01
     -2.374  0.0000E+00  0.8000E+01
     -2.333  0.0000E+00  0.8000E+01
     -2.291  0.0000E+00  0.8000E+01
     -2.249  0.0000E+00  0.8000E+01
     -2.208  0.0000E+00  0.8000E+01
     -2.166  0.0000E+00  0.8000E+01
     -2.125  0.0000E+00  0.8000E+01
     -2.083  0.0000E+00  0.8000E+01
     -2.042  0.0000E+00  0.8000E+01
     -2.000  0.0000E+00  0.8000E+01
     -1.959  0.0000E+00  0.8000E+01
     -1.917  0.0000E+00  0.8000E+01
     -1.876  0.0000E+00  0.8000E+01
     -1.834  0.0000E+00  0.8000E+01
     -1.792  0.0000E+00  0.8000E+01
     -1.751  0.0000E+00  0.8000E+01
     -1.709  0.0000E+00  0.8000E+01
     -1.668  0.0000E+00  0.8000E+01
     -1.626  0.0000E+00  0.8000E+01
     -1.585  0.0000E+00  0.8000E+01
     -1.543  0.0000E+00  0.8000E+01
     -1.502  0.0000E+00  0.8000E+01
     -1.460  0.0000E+00  0.8000E+01
     -1.419  0.0000E+00  0.8000E+01
     -1.377  0.0000E+00  0.8000E+01
     -1.336  0.0000E+00  0.8000E+01
     -1.294  0.0000E+00  0.8000E+01
     -1.252  0.0000E+00  0.8000E+01
     -1.211  0.0000E+00  0.8000E+01
     -1.169  0.0000E+00  0.8000E+01
     -1.128  0.0000E+00  0.8000E+01
     -1.086  0.0000E+00  0.8000E+01
     -1.045  0.0000E+00  0.8000E+01
     -1.003  0.0000E+00  0.8000E+01
     -0.962  0.0000E+00  0.8000E+01
     -0.920  0.0000E+00  0.8000E+01
     -0.879  0.0000E+00  0.8000E+01
     -0.837  0.0000E+00  0.8000E+01
     -0.795  0.0000E+00  0.8000E+01
     -0.754  0.0000E+00  0.8000E+01
     -0.712  0.0000E+00  0.8000E+01
     -0.671  0.0000E+00  0.8000E+01
     -0.629  0.0000E+00  0.8000E+01
     -0.588  0.0000E+00  0.8000E+01
     -0.546  0.1612E-15  0.8000E+01
     -0.505  0.1433E-11  0.8000E+01
     -0.463  0.3357E-08  0.8000E+01
     -0.422  0.2159E-05  0.8000E+01
     -0.380  0.3950E-03  0.8000E+01
     -0.338  0.2169E-01  0.8001E+01
     -0.297  0.3871E+00  0.8017E+01
     -0.255  0.2521E+01  0.8122E+01
     -0.214  0.7074E+01  0.8416E+01
     -0.172  0.1056E+02  0.8854E+01
     -0.131  0.1064E+02  0.9296E+01
     -0.089  0.8865E+01  0.9665E+01
     -0.048  0.5637E+01  0.9899E+01
     -0.006  0.2091E+01  0.9986E+01
      0.035  0.6450E+00  0.1001E+02
      0.077  0.1761E+01  0.1009E+02
      0.119  0.5174E+01  0.1030E+02
      0.160  0.9809E+01  0.1071E+02
      0.202  0.1368E+02  0.1128E+02
      0.243  0.1558E+02  0.1192E+02
      0.285  0.1584E+02  0.1258E+02
      0.326  0.1595E+02  0.1324E+02
      0.368  0.1624E+02  0.1392E+02
      0.409  0.1652E+02  0.1461E+02
      0.451  0.1749E+02  0.1533E+02
      0.492  0.1851E+02  0.1610E+02
      0.534  0.1855E+02  0.1687E+02
      0.575  0.1896E+02  0.1766E+02
      0.617  0.1989E+02  0.1849E+02
      0.659  0.2040E+02  0.1933E+02
      0.700  0.2099E+02  0.2020E+02
      0.742  0.2238E+02  0.2113E+02
      0.783  0.2256E+02  0.2207E+02
      0.825  0.2192E+02  0.2298E+02
      0.866  0.2326E+02  0.2395E+02
      0.908  0.2459E+02  0.2497E+02
      0.949  0.2434E+02  0.2598E+02
      0.991  0.2486E+02  0.2701E+02
      1.032  0.2596E+02  0.2809E+02
      1.074  0.2610E+02  0.2918E+02
      1.116  0.2615E+02  0.3026E+02
      1.157  0.2686E+02  0.3138E+02
      1.199  0.2778E+02  0.3253E+02
      1.240  0.2746E+02  0.3367E+02
      1.282  0.2755E+02  0.3482E+02
      1.323  0.2863E+02  0.3601E+02
      1.365  0.2874E+02  0.3720E+02
      1.406  0.2842E+02  0.3838E+02
      1.448  0.2938E+02  0.3960E+02
      1.489  0.3098E+02  0.4089E+02
      1.531  0.3019E+02  0.4214E+02
      1.573  0.2966E+02  0.4338E+02
      1.614  0.3019E+02  0.4463E+02
      1.656  0.2792E+02  0.4579E+02
      1.697  0.2148E+02  0.4668E+02
      1.739  0.1426E+02  0.4727E+02
      1.780  0.8456E+01  0.4763E+02
      1.822  0.4861E+01  0.4783E+02
      1.863  0.2607E+01  0.4794E+02
      1.905  0.1107E+01  0.4798E+02
      1.946  0.3509E+00  0.4800E+02
      1.988  0.7378E-01  0.4800E+02
      2.030  0.7136E-02  0.4800E+02
      2.071  0.2288E-03  0.4800E+02
      2.113  0.2100E-05  0.4800E+02
      2.154  0.5219E-08  0.4800E+02
      2.196  0.3426E-11  0.4800E+02
      2.237  0.5769E-15  0.4800E+02
      2.279  0.0000E+00  0.4800E+02
      2.320  0.0000E+00  0.4800E+02
      2.362  0.0000E+00  0.4800E+02
      2.403  0.0000E+00  0.4800E+02
      2.445  0.0000E+00  0.4800E+02
      2.487  0.0000E+00  0.4800E+02
