 running   24 mpi-ranks, with    1 threads/rank, on    1 nodes
 distrk:  each k-point on   24 cores,    1 groups
 distr:  one band on    1 cores,   24 groups
 vasp.6.4.3 19Mar24 (build May 31 2024 16:31:43) complex                        
  
 POSCAR found type information on POSCAR B 
 POSCAR found :  1 types and      14 ions
 Reading from existing POTCAR
 scaLAPACK will be used
 Reading from existing POTCAR
 LDA part: xc-table for (Slater+PW92), standard interpolation
 POSCAR, INCAR and KPOINTS ok, starting setup
 FFT: planning ... GRIDC
 FFT: planning ... GRID_SOFT
 FFT: planning ... GRID
 WAVECAR not read
 entering main loop
       N       E                     dE             d eps       ncg     rms          rms(c)
DAV:   1     0.530796983958E+02    0.53080E+02   -0.17530E+04 16800   0.718E+02
DAV:   2    -0.929294970938E+02   -0.14601E+03   -0.13740E+03 23616   0.149E+02
DAV:   3    -0.975957754106E+02   -0.46663E+01   -0.46456E+01 24240   0.239E+01
DAV:   4    -0.976227962567E+02   -0.27021E-01   -0.27019E-01 20784   0.208E+00
DAV:   5    -0.976231076433E+02   -0.31139E-03   -0.31138E-03 24048   0.216E-01    0.123E+01
DAV:   6    -0.922078727468E+02    0.54152E+01   -0.39490E+00 24288   0.658E+00    0.678E+00
DAV:   7    -0.905568823882E+02    0.16510E+01   -0.32169E+00 25176   0.585E+00    0.171E+00
DAV:   8    -0.905691820893E+02   -0.12300E-01   -0.23346E-01 18600   0.165E+00    0.705E-01
DAV:   9    -0.905833605354E+02   -0.14178E-01   -0.16904E-02 23376   0.436E-01    0.198E-01
DAV:  10    -0.905874017293E+02   -0.40412E-02   -0.20917E-03 19152   0.160E-01    0.609E-02
DAV:  11    -0.905884733886E+02   -0.10717E-02   -0.62770E-04 21648   0.857E-02    0.321E-02
DAV:  12    -0.905885885056E+02   -0.11512E-03   -0.91129E-05 20832   0.357E-02    0.429E-03
DAV:  13    -0.905885932157E+02   -0.47100E-05   -0.39283E-06 23592   0.824E-03    0.182E-03
DAV:  14    -0.905885938727E+02   -0.65704E-06   -0.26877E-07 20448   0.212E-03
   1 F= -.90588594E+02 E0= -.90586987E+02  d E =-.321292E-02
