  14  14   0   0
  0.1021960E+02  0.5697000E-09  0.4047900E-09  0.6204200E-09  0.5000000E-15
  1.000000000000000E-004
  CAR 
 Kpoints                                 
     18.06736302    -14.19995769  301      1.87914471      1.00000000
    -14.200  0.0000E+00  0.0000E+00
    -14.092  0.0000E+00  0.0000E+00
    -13.985  0.0000E+00  0.0000E+00
    -13.877  0.0000E+00  0.0000E+00
    -13.770  0.0000E+00  0.0000E+00
    -13.662  0.0000E+00  0.0000E+00
    -13.555  0.0000E+00  0.0000E+00
    -13.447  0.0000E+00  0.0000E+00
    -13.339  0.0000E+00  0.0000E+00
    -13.232  0.0000E+00  0.0000E+00
    -13.124  0.0000E+00  0.0000E+00
    -13.017  0.6746E-17  0.7256E-18
    -12.909  0.8222E-08  0.8843E-09
    -12.802  0.1947E-02  0.2094E-03
    -12.694  0.4068E+00  0.4396E-01
    -12.587  0.2250E+01  0.2860E+00
    -12.479  0.3508E+01  0.6633E+00
    -12.371  0.4340E+01  0.1130E+01
    -12.264  0.3575E+01  0.1515E+01
    -12.156  0.2874E+01  0.1824E+01
    -12.049  0.2634E+01  0.2107E+01
    -11.941  0.2588E+01  0.2385E+01
    -11.834  0.2744E+01  0.2681E+01
    -11.726  0.3323E+01  0.3038E+01
    -11.619  0.3621E+01  0.3427E+01
    -11.511  0.3125E+01  0.3764E+01
    -11.403  0.1728E+01  0.3949E+01
    -11.296  0.4610E+00  0.3999E+01
    -11.188  0.9157E-02  0.4000E+01
    -11.081  0.3644E-06  0.4000E+01
    -10.973  0.3842E-14  0.4000E+01
    -10.866  0.0000E+00  0.4000E+01
    -10.758  0.0000E+00  0.4000E+01
    -10.651  0.0000E+00  0.4000E+01
    -10.543  0.0000E+00  0.4000E+01
    -10.435  0.0000E+00  0.4000E+01
    -10.328  0.0000E+00  0.4000E+01
    -10.220  0.0000E+00  0.4000E+01
    -10.113  0.0000E+00  0.4000E+01
    -10.005  0.0000E+00  0.4000E+01
     -9.898  0.0000E+00  0.4000E+01
     -9.790  0.0000E+00  0.4000E+01
     -9.683  0.0000E+00  0.4000E+01
     -9.575  0.0000E+00  0.4000E+01
     -9.467  0.0000E+00  0.4000E+01
     -9.360  0.0000E+00  0.4000E+01
     -9.252  0.0000E+00  0.4000E+01
     -9.145  0.0000E+00  0.4000E+01
     -9.037  0.1130E-08  0.4000E+01
     -8.930  0.7305E-03  0.4000E+01
     -8.822  0.3054E+00  0.4033E+01
     -8.715  0.2176E+01  0.4267E+01
     -8.607  0.5432E+01  0.4851E+01
     -8.499  0.7008E+01  0.5605E+01
     -8.392  0.6216E+01  0.6274E+01
     -8.284  0.5296E+01  0.6843E+01
     -8.177  0.4866E+01  0.7367E+01
     -8.069  0.3712E+01  0.7766E+01
     -7.962  0.1605E+01  0.7938E+01
     -7.854  0.5340E+00  0.7996E+01
     -7.746  0.3867E-01  0.8000E+01
     -7.639  0.2162E-04  0.8000E+01
     -7.531  0.5177E-11  0.8000E+01
     -7.424  0.0000E+00  0.8000E+01
     -7.316  0.0000E+00  0.8000E+01
     -7.209  0.2010E-13  0.8000E+01
     -7.101  0.6031E-06  0.8000E+01
     -6.994  0.4325E-02  0.8000E+01
     -6.886  0.1138E+00  0.8013E+01
     -6.778  0.2896E+00  0.8044E+01
     -6.671  0.4675E+00  0.8094E+01
     -6.563  0.7277E+00  0.8172E+01
     -6.456  0.9148E+00  0.8271E+01
     -6.348  0.1504E+01  0.8433E+01
     -6.241  0.2130E+01  0.8662E+01
     -6.133  0.3072E+01  0.8992E+01
     -6.026  0.3960E+01  0.9418E+01
     -5.918  0.3969E+01  0.9845E+01
     -5.810  0.4046E+01  0.1028E+02
     -5.703  0.4074E+01  0.1072E+02
     -5.595  0.4081E+01  0.1116E+02
     -5.488  0.4067E+01  0.1159E+02
     -5.380  0.4516E+01  0.1208E+02
     -5.273  0.4767E+01  0.1259E+02
     -5.165  0.4352E+01  0.1306E+02
     -5.058  0.3872E+01  0.1348E+02
     -4.950  0.3335E+01  0.1384E+02
     -4.842  0.2377E+01  0.1409E+02
     -4.735  0.2494E+01  0.1436E+02
     -4.627  0.2984E+01  0.1468E+02
     -4.520  0.3714E+01  0.1508E+02
     -4.412  0.3315E+01  0.1544E+02
     -4.305  0.3186E+01  0.1578E+02
     -4.197  0.2906E+01  0.1609E+02
     -4.090  0.2844E+01  0.1640E+02
     -3.982  0.3034E+01  0.1672E+02
     -3.874  0.3037E+01  0.1705E+02
     -3.767  0.2846E+01  0.1736E+02
     -3.659  0.3059E+01  0.1769E+02
     -3.552  0.2744E+01  0.1798E+02
     -3.444  0.2738E+01  0.1828E+02
     -3.337  0.2887E+01  0.1859E+02
     -3.229  0.2658E+01  0.1887E+02
     -3.122  0.2802E+01  0.1917E+02
     -3.014  0.2953E+01  0.1949E+02
     -2.906  0.3068E+01  0.1982E+02
     -2.799  0.2730E+01  0.2012E+02
     -2.691  0.2446E+01  0.2038E+02
     -2.584  0.2619E+01  0.2066E+02
     -2.476  0.3012E+01  0.2098E+02
     -2.369  0.3242E+01  0.2133E+02
     -2.261  0.3826E+01  0.2174E+02
     -2.153  0.3258E+01  0.2209E+02
     -2.046  0.3467E+01  0.2247E+02
     -1.938  0.4231E+01  0.2292E+02
     -1.831  0.4807E+01  0.2344E+02
     -1.723  0.5709E+01  0.2405E+02
     -1.616  0.5912E+01  0.2469E+02
     -1.508  0.6004E+01  0.2534E+02
     -1.401  0.6029E+01  0.2598E+02
     -1.293  0.5787E+01  0.2661E+02
     -1.185  0.4997E+01  0.2714E+02
     -1.078  0.5191E+01  0.2770E+02
     -0.970  0.3823E+01  0.2811E+02
     -0.863  0.2695E+01  0.2840E+02
     -0.755  0.2158E+01  0.2864E+02
     -0.648  0.3778E+01  0.2904E+02
     -0.540  0.5312E+01  0.2961E+02
     -0.433  0.5900E+01  0.3025E+02
     -0.325  0.6457E+01  0.3094E+02
     -0.217  0.6185E+01  0.3161E+02
     -0.110  0.6887E+01  0.3235E+02
     -0.002  0.6915E+01  0.3309E+02
      0.105  0.6264E+01  0.3377E+02
      0.213  0.6882E+01  0.3451E+02
      0.320  0.8678E+01  0.3544E+02
      0.428  0.8544E+01  0.3636E+02
      0.535  0.7966E+01  0.3721E+02
      0.643  0.4176E+01  0.3766E+02
      0.751  0.2860E+01  0.3797E+02
      0.858  0.3222E+01  0.3832E+02
      0.966  0.3316E+01  0.3867E+02
      1.073  0.3368E+01  0.3904E+02
      1.181  0.4034E+01  0.3947E+02
      1.288  0.3412E+01  0.3984E+02
      1.396  0.3758E+01  0.4024E+02
      1.503  0.4114E+01  0.4068E+02
      1.611  0.3878E+01  0.4110E+02
      1.719  0.3460E+01  0.4147E+02
      1.826  0.3405E+01  0.4184E+02
      1.934  0.2908E+01  0.4215E+02
      2.041  0.2448E+01  0.4242E+02
      2.149  0.2587E+01  0.4269E+02
      2.256  0.2417E+01  0.4295E+02
      2.364  0.1886E+01  0.4316E+02
      2.471  0.1126E+01  0.4328E+02
      2.579  0.9341E+00  0.4338E+02
      2.687  0.8090E+00  0.4347E+02
      2.794  0.6013E+00  0.4353E+02
      2.902  0.4477E+00  0.4358E+02
      3.009  0.5744E+00  0.4364E+02
      3.117  0.5568E+00  0.4370E+02
      3.224  0.4400E+00  0.4375E+02
      3.332  0.3557E+00  0.4379E+02
      3.440  0.3929E+00  0.4383E+02
      3.547  0.4416E+00  0.4388E+02
      3.655  0.2756E+00  0.4391E+02
      3.762  0.2789E+00  0.4394E+02
      3.870  0.3210E+00  0.4397E+02
      3.977  0.2062E+00  0.4399E+02
      4.085  0.7052E-01  0.4400E+02
      4.192  0.4196E-02  0.4400E+02
      4.300  0.9297E-01  0.4401E+02
      4.408  0.2720E+00  0.4404E+02
      4.515  0.3989E+00  0.4408E+02
      4.623  0.5818E+00  0.4414E+02
      4.730  0.7427E+00  0.4422E+02
      4.838  0.8449E+00  0.4432E+02
      4.945  0.8991E+00  0.4441E+02
      5.053  0.1013E+01  0.4452E+02
      5.160  0.1184E+01  0.4465E+02
      5.268  0.1441E+01  0.4480E+02
      5.376  0.1814E+01  0.4500E+02
      5.483  0.2258E+01  0.4524E+02
      5.591  0.2694E+01  0.4553E+02
      5.698  0.2981E+01  0.4585E+02
      5.806  0.3456E+01  0.4622E+02
      5.913  0.3798E+01  0.4663E+02
      6.021  0.4214E+01  0.4709E+02
      6.128  0.4667E+01  0.4759E+02
      6.236  0.4425E+01  0.4806E+02
      6.344  0.4136E+01  0.4851E+02
      6.451  0.4241E+01  0.4896E+02
      6.559  0.4325E+01  0.4943E+02
      6.666  0.3825E+01  0.4984E+02
      6.774  0.3501E+01  0.5022E+02
      6.881  0.4228E+01  0.5067E+02
      6.989  0.4438E+01  0.5115E+02
      7.096  0.4973E+01  0.5168E+02
      7.204  0.5073E+01  0.5223E+02
      7.312  0.4958E+01  0.5276E+02
      7.419  0.4441E+01  0.5324E+02
      7.527  0.4483E+01  0.5372E+02
      7.634  0.3951E+01  0.5415E+02
      7.742  0.3218E+01  0.5449E+02
      7.849  0.3141E+01  0.5483E+02
      7.957  0.3274E+01  0.5518E+02
      8.064  0.3336E+01  0.5554E+02
      8.172  0.3650E+01  0.5594E+02
      8.280  0.4112E+01  0.5638E+02
      8.387  0.3996E+01  0.5681E+02
      8.495  0.4029E+01  0.5724E+02
      8.602  0.4105E+01  0.5768E+02
      8.710  0.4467E+01  0.5816E+02
      8.817  0.4925E+01  0.5869E+02
      8.925  0.5242E+01  0.5926E+02
      9.033  0.4927E+01  0.5979E+02
      9.140  0.5129E+01  0.6034E+02
      9.248  0.5203E+01  0.6090E+02
      9.355  0.4732E+01  0.6141E+02
      9.463  0.4899E+01  0.6193E+02
      9.570  0.4381E+01  0.6241E+02
      9.678  0.4966E+01  0.6294E+02
      9.785  0.5174E+01  0.6350E+02
      9.893  0.5012E+01  0.6404E+02
     10.001  0.4841E+01  0.6456E+02
     10.108  0.3784E+01  0.6496E+02
     10.216  0.4294E+01  0.6542E+02
     10.323  0.4442E+01  0.6590E+02
     10.431  0.5491E+01  0.6649E+02
     10.538  0.5454E+01  0.6708E+02
     10.646  0.4755E+01  0.6759E+02
     10.753  0.4134E+01  0.6804E+02
     10.861  0.3801E+01  0.6844E+02
     10.969  0.3669E+01  0.6884E+02
     11.076  0.4980E+01  0.6937E+02
     11.184  0.5840E+01  0.7000E+02
     11.291  0.6308E+01  0.7068E+02
     11.399  0.5487E+01  0.7127E+02
     11.506  0.4612E+01  0.7177E+02
     11.614  0.4723E+01  0.7228E+02
     11.721  0.4748E+01  0.7279E+02
     11.829  0.4783E+01  0.7330E+02
     11.937  0.5607E+01  0.7390E+02
     12.044  0.6105E+01  0.7456E+02
     12.152  0.5803E+01  0.7518E+02
     12.259  0.5504E+01  0.7578E+02
     12.367  0.5142E+01  0.7633E+02
     12.474  0.5790E+01  0.7695E+02
     12.582  0.6069E+01  0.7761E+02
     12.689  0.5706E+01  0.7822E+02
     12.797  0.5914E+01  0.7885E+02
     12.905  0.5984E+01  0.7950E+02
     13.012  0.5822E+01  0.8012E+02
     13.120  0.6299E+01  0.8080E+02
     13.227  0.6006E+01  0.8145E+02
     13.335  0.5959E+01  0.8209E+02
     13.442  0.5410E+01  0.8267E+02
     13.550  0.5390E+01  0.8325E+02
     13.657  0.5325E+01  0.8382E+02
     13.765  0.5703E+01  0.8444E+02
     13.873  0.5713E+01  0.8505E+02
     13.980  0.5437E+01  0.8564E+02
     14.088  0.5258E+01  0.8620E+02
     14.195  0.5133E+01  0.8675E+02
     14.303  0.5083E+01  0.8730E+02
     14.410  0.4581E+01  0.8779E+02
     14.518  0.5115E+01  0.8834E+02
     14.626  0.5413E+01  0.8893E+02
     14.733  0.4910E+01  0.8945E+02
     14.841  0.4176E+01  0.8990E+02
     14.948  0.4814E+01  0.9042E+02
     15.056  0.5893E+01  0.9105E+02
     15.163  0.6095E+01  0.9171E+02
     15.271  0.5690E+01  0.9232E+02
     15.378  0.5895E+01  0.9296E+02
     15.486  0.5852E+01  0.9359E+02
     15.594  0.5941E+01  0.9422E+02
     15.701  0.4649E+01  0.9472E+02
     15.809  0.3292E+01  0.9508E+02
     15.916  0.2419E+01  0.9534E+02
     16.024  0.1841E+01  0.9554E+02
     16.131  0.1364E+01  0.9568E+02
     16.239  0.1011E+01  0.9579E+02
     16.346  0.9296E+00  0.9589E+02
     16.454  0.6995E+00  0.9597E+02
     16.562  0.2852E+00  0.9600E+02
     16.669  0.1596E-01  0.9600E+02
     16.777  0.5854E-04  0.9600E+02
     16.884  0.6845E-09  0.9600E+02
     16.992  0.9469E-18  0.9600E+02
     17.099  0.0000E+00  0.9600E+02
     17.207  0.0000E+00  0.9600E+02
     17.314  0.0000E+00  0.9600E+02
     17.422  0.0000E+00  0.9600E+02
     17.530  0.0000E+00  0.9600E+02
     17.637  0.0000E+00  0.9600E+02
     17.745  0.0000E+00  0.9600E+02
     17.852  0.0000E+00  0.9600E+02
     17.960  0.0000E+00  0.9600E+02
     18.067  0.0000E+00  0.9600E+02
