       N       E                     dE             d eps       ncg     rms          rms(c)
DAV:   1     0.446829998965E+02    0.44683E+02   -0.16782E+04120960   0.676E+02
DAV:   2    -0.932907420525E+02   -0.13797E+03   -0.13005E+03169848   0.144E+02
DAV:   3    -0.975877642896E+02   -0.42970E+01   -0.42768E+01175128   0.228E+01
DAV:   4    -0.976125703547E+02   -0.24806E-01   -0.24805E-01152520   0.196E+00
DAV:   5    -0.976128574199E+02   -0.28707E-03   -0.28706E-03173880   0.205E-01    0.123E+01
