  14  14   0   0
  0.1029335E+02  0.5710673E-09  0.4057615E-09  0.6219090E-09  0.5000000E-15
  1.000000000000000E-004
  CAR 
 Convergence                             
     17.85241307    -14.17224884  301      1.84238659      1.00000000
    -14.172  0.0000E+00  0.0000E+00
    -14.065  0.0000E+00  0.0000E+00
    -13.959  0.0000E+00  0.0000E+00
    -13.852  0.0000E+00  0.0000E+00
    -13.745  0.0000E+00  0.0000E+00
    -13.639  0.0000E+00  0.0000E+00
    -13.532  0.0000E+00  0.0000E+00
    -13.425  0.0000E+00  0.0000E+00
    -13.318  0.0000E+00  0.0000E+00
    -13.212  0.0000E+00  0.0000E+00
    -13.105  0.0000E+00  0.0000E+00
    -12.998  0.5613E-16  0.5992E-17
    -12.891  0.3334E-07  0.3559E-08
    -12.785  0.3930E-02  0.4195E-03
    -12.678  0.5113E+00  0.5500E-01
    -12.571  0.2399E+01  0.3110E+00
    -12.464  0.3581E+01  0.6933E+00
    -12.358  0.4384E+01  0.1161E+01
    -12.251  0.3539E+01  0.1539E+01
    -12.144  0.2739E+01  0.1832E+01
    -12.037  0.2759E+01  0.2126E+01
    -11.931  0.2494E+01  0.2392E+01
    -11.824  0.2773E+01  0.2688E+01
    -11.717  0.3399E+01  0.3051E+01
    -11.610  0.3539E+01  0.3429E+01
    -11.504  0.3156E+01  0.3766E+01
    -11.397  0.1722E+01  0.3950E+01
    -11.290  0.4622E+00  0.3999E+01
    -11.183  0.9917E-02  0.4000E+01
    -11.077  0.3657E-06  0.4000E+01
    -10.970  0.3355E-14  0.4000E+01
    -10.863  0.0000E+00  0.4000E+01
    -10.756  0.0000E+00  0.4000E+01
    -10.650  0.0000E+00  0.4000E+01
    -10.543  0.0000E+00  0.4000E+01
    -10.436  0.0000E+00  0.4000E+01
    -10.329  0.0000E+00  0.4000E+01
    -10.223  0.0000E+00  0.4000E+01
    -10.116  0.0000E+00  0.4000E+01
    -10.009  0.0000E+00  0.4000E+01
     -9.902  0.0000E+00  0.4000E+01
     -9.796  0.0000E+00  0.4000E+01
     -9.689  0.0000E+00  0.4000E+01
     -9.582  0.0000E+00  0.4000E+01
     -9.475  0.0000E+00  0.4000E+01
     -9.369  0.0000E+00  0.4000E+01
     -9.262  0.0000E+00  0.4000E+01
     -9.155  0.0000E+00  0.4000E+01
     -9.048  0.1232E-08  0.4000E+01
     -8.942  0.6947E-03  0.4000E+01
     -8.835  0.2865E+00  0.4031E+01
     -8.728  0.2129E+01  0.4258E+01
     -8.621  0.5415E+01  0.4836E+01
     -8.515  0.7036E+01  0.5587E+01
     -8.408  0.6271E+01  0.6256E+01
     -8.301  0.5333E+01  0.6826E+01
     -8.194  0.4857E+01  0.7344E+01
     -8.088  0.3855E+01  0.7756E+01
     -7.981  0.1659E+01  0.7933E+01
     -7.874  0.5766E+00  0.7994E+01
     -7.767  0.5246E-01  0.8000E+01
     -7.661  0.2561E-04  0.8000E+01
     -7.554  0.3271E-11  0.8000E+01
     -7.447  0.0000E+00  0.8000E+01
     -7.340  0.0000E+00  0.8000E+01
     -7.234  0.0000E+00  0.8000E+01
     -7.127  0.3734E-09  0.8000E+01
     -7.020  0.3340E-03  0.8000E+01
     -6.913  0.1074E+00  0.8012E+01
     -6.807  0.2611E+00  0.8039E+01
     -6.700  0.4229E+00  0.8085E+01
     -6.593  0.7666E+00  0.8166E+01
     -6.486  0.8413E+00  0.8256E+01
     -6.380  0.1422E+01  0.8408E+01
     -6.273  0.1913E+01  0.8612E+01
     -6.166  0.3047E+01  0.8937E+01
     -6.059  0.3814E+01  0.9345E+01
     -5.953  0.4130E+01  0.9785E+01
     -5.846  0.4060E+01  0.1022E+02
     -5.739  0.3907E+01  0.1064E+02
     -5.632  0.4080E+01  0.1107E+02
     -5.526  0.4213E+01  0.1152E+02
     -5.419  0.4587E+01  0.1201E+02
     -5.312  0.4646E+01  0.1251E+02
     -5.205  0.4506E+01  0.1299E+02
     -5.099  0.3897E+01  0.1340E+02
     -4.992  0.3218E+01  0.1375E+02
     -4.885  0.2993E+01  0.1407E+02
     -4.778  0.2283E+01  0.1431E+02
     -4.672  0.2900E+01  0.1462E+02
     -4.565  0.3374E+01  0.1498E+02
     -4.458  0.3425E+01  0.1535E+02
     -4.351  0.3390E+01  0.1571E+02
     -4.245  0.2974E+01  0.1603E+02
     -4.138  0.2915E+01  0.1634E+02
     -4.031  0.2918E+01  0.1665E+02
     -3.924  0.2907E+01  0.1696E+02
     -3.818  0.3093E+01  0.1729E+02
     -3.711  0.2918E+01  0.1760E+02
     -3.604  0.2713E+01  0.1789E+02
     -3.497  0.3088E+01  0.1822E+02
     -3.391  0.2682E+01  0.1851E+02
     -3.284  0.2802E+01  0.1880E+02
     -3.177  0.2840E+01  0.1911E+02
     -3.070  0.2683E+01  0.1939E+02
     -2.964  0.3118E+01  0.1973E+02
     -2.857  0.2996E+01  0.2005E+02
     -2.750  0.2463E+01  0.2031E+02
     -2.643  0.2617E+01  0.2059E+02
     -2.537  0.3000E+01  0.2091E+02
     -2.430  0.3026E+01  0.2123E+02
     -2.323  0.3170E+01  0.2157E+02
     -2.216  0.4001E+01  0.2200E+02
     -2.110  0.3649E+01  0.2239E+02
     -2.003  0.3138E+01  0.2272E+02
     -1.896  0.4875E+01  0.2324E+02
     -1.789  0.5506E+01  0.2383E+02
     -1.683  0.5682E+01  0.2444E+02
     -1.576  0.6149E+01  0.2509E+02
     -1.469  0.6187E+01  0.2575E+02
     -1.362  0.5654E+01  0.2636E+02
     -1.256  0.4706E+01  0.2686E+02
     -1.149  0.6452E+01  0.2755E+02
     -1.042  0.4368E+01  0.2801E+02
     -0.935  0.2311E+01  0.2826E+02
     -0.829  0.2714E+01  0.2855E+02
     -0.722  0.2894E+01  0.2886E+02
     -0.615  0.4350E+01  0.2932E+02
     -0.508  0.6754E+01  0.3005E+02
     -0.402  0.5713E+01  0.3065E+02
     -0.295  0.6561E+01  0.3136E+02
     -0.188  0.6421E+01  0.3204E+02
     -0.081  0.6721E+01  0.3276E+02
      0.025  0.6898E+01  0.3349E+02
      0.132  0.6187E+01  0.3416E+02
      0.239  0.8864E+01  0.3510E+02
      0.346  0.8206E+01  0.3598E+02
      0.452  0.8661E+01  0.3690E+02
      0.559  0.5546E+01  0.3749E+02
      0.666  0.3095E+01  0.3782E+02
      0.773  0.3167E+01  0.3816E+02
      0.879  0.3596E+01  0.3855E+02
      0.986  0.3596E+01  0.3893E+02
      1.093  0.2833E+01  0.3923E+02
      1.200  0.3340E+01  0.3959E+02
      1.306  0.4438E+01  0.4006E+02
      1.413  0.3870E+01  0.4048E+02
      1.520  0.3678E+01  0.4087E+02
      1.627  0.4598E+01  0.4136E+02
      1.733  0.3471E+01  0.4173E+02
      1.840  0.2474E+01  0.4199E+02
      1.947  0.2693E+01  0.4228E+02
      2.054  0.2110E+01  0.4251E+02
      2.160  0.2638E+01  0.4279E+02
      2.267  0.2648E+01  0.4307E+02
      2.374  0.2019E+01  0.4329E+02
      2.481  0.9616E+00  0.4339E+02
      2.587  0.3840E+00  0.4343E+02
      2.694  0.5774E+00  0.4349E+02
      2.801  0.4224E+00  0.4354E+02
      2.908  0.3073E+00  0.4357E+02
      3.014  0.7079E+00  0.4365E+02
      3.121  0.1034E+01  0.4376E+02
      3.228  0.6018E+00  0.4382E+02
      3.335  0.2137E-01  0.4382E+02
      3.441  0.1089E+00  0.4383E+02
      3.548  0.3884E+00  0.4388E+02
      3.655  0.3503E+00  0.4391E+02
      3.762  0.3557E+00  0.4395E+02
      3.868  0.4239E+00  0.4400E+02
      3.975  0.3784E-01  0.4400E+02
      4.082  0.7655E-05  0.4400E+02
      4.189  0.1098E-01  0.4400E+02
      4.295  0.1528E+00  0.4402E+02
      4.402  0.3585E+00  0.4406E+02
      4.509  0.4338E+00  0.4410E+02
      4.616  0.6114E+00  0.4417E+02
      4.722  0.8482E+00  0.4426E+02
      4.829  0.8430E+00  0.4435E+02
      4.936  0.8793E+00  0.4444E+02
      5.043  0.1220E+01  0.4457E+02
      5.149  0.1209E+01  0.4470E+02
      5.256  0.1551E+01  0.4487E+02
      5.363  0.2088E+01  0.4509E+02
      5.470  0.2522E+01  0.4536E+02
      5.576  0.2801E+01  0.4566E+02
      5.683  0.3237E+01  0.4600E+02
      5.790  0.3320E+01  0.4636E+02
      5.897  0.4153E+01  0.4680E+02
      6.003  0.4846E+01  0.4732E+02
      6.110  0.4144E+01  0.4776E+02
      6.217  0.4579E+01  0.4825E+02
      6.324  0.4380E+01  0.4872E+02
      6.430  0.3925E+01  0.4914E+02
      6.537  0.4548E+01  0.4962E+02
      6.644  0.3299E+01  0.4997E+02
      6.751  0.3929E+01  0.5039E+02
      6.857  0.4594E+01  0.5088E+02
      6.964  0.4625E+01  0.5138E+02
      7.071  0.4340E+01  0.5184E+02
      7.178  0.5554E+01  0.5243E+02
      7.284  0.5059E+01  0.5297E+02
      7.391  0.4510E+01  0.5345E+02
      7.498  0.4262E+01  0.5391E+02
      7.605  0.3620E+01  0.5430E+02
      7.711  0.3093E+01  0.5463E+02
      7.818  0.3045E+01  0.5495E+02
      7.925  0.2971E+01  0.5527E+02
      8.032  0.4141E+01  0.5571E+02
      8.138  0.3960E+01  0.5613E+02
      8.245  0.3789E+01  0.5654E+02
      8.352  0.4038E+01  0.5697E+02
      8.459  0.4277E+01  0.5743E+02
      8.565  0.4524E+01  0.5791E+02
      8.672  0.4354E+01  0.5837E+02
      8.779  0.5409E+01  0.5895E+02
      8.886  0.4703E+01  0.5945E+02
      8.992  0.5261E+01  0.6001E+02
      9.099  0.5228E+01  0.6057E+02
      9.206  0.5043E+01  0.6111E+02
      9.313  0.4650E+01  0.6161E+02
      9.419  0.4437E+01  0.6208E+02
      9.526  0.5075E+01  0.6262E+02
      9.633  0.5050E+01  0.6316E+02
      9.739  0.5270E+01  0.6372E+02
      9.846  0.4508E+01  0.6421E+02
      9.953  0.3736E+01  0.6460E+02
     10.060  0.5198E+01  0.6516E+02
     10.166  0.4730E+01  0.6566E+02
     10.273  0.4197E+01  0.6611E+02
     10.380  0.5278E+01  0.6668E+02
     10.487  0.5844E+01  0.6730E+02
     10.593  0.4100E+01  0.6774E+02
     10.700  0.3939E+01  0.6816E+02
     10.807  0.3313E+01  0.6851E+02
     10.914  0.4721E+01  0.6901E+02
     11.020  0.5346E+01  0.6959E+02
     11.127  0.6373E+01  0.7027E+02
     11.234  0.6008E+01  0.7091E+02
     11.341  0.5121E+01  0.7145E+02
     11.447  0.4514E+01  0.7194E+02
     11.554  0.4479E+01  0.7241E+02
     11.661  0.5023E+01  0.7295E+02
     11.768  0.4848E+01  0.7347E+02
     11.874  0.5949E+01  0.7410E+02
     11.981  0.6069E+01  0.7475E+02
     12.088  0.6095E+01  0.7540E+02
     12.195  0.5495E+01  0.7599E+02
     12.301  0.5013E+01  0.7652E+02
     12.408  0.5735E+01  0.7714E+02
     12.515  0.5961E+01  0.7777E+02
     12.622  0.5882E+01  0.7840E+02
     12.728  0.5999E+01  0.7904E+02
     12.835  0.5912E+01  0.7967E+02
     12.942  0.5646E+01  0.8027E+02
     13.049  0.6345E+01  0.8095E+02
     13.155  0.6362E+01  0.8163E+02
     13.262  0.5516E+01  0.8222E+02
     13.369  0.6115E+01  0.8287E+02
     13.476  0.5493E+01  0.8346E+02
     13.582  0.4874E+01  0.8398E+02
     13.689  0.6221E+01  0.8464E+02
     13.796  0.5512E+01  0.8523E+02
     13.903  0.5392E+01  0.8581E+02
     14.009  0.5477E+01  0.8639E+02
     14.116  0.4675E+01  0.8689E+02
     14.223  0.5003E+01  0.8742E+02
     14.330  0.4922E+01  0.8795E+02
     14.436  0.4928E+01  0.8848E+02
     14.543  0.5272E+01  0.8904E+02
     14.650  0.5227E+01  0.8960E+02
     14.757  0.4110E+01  0.9004E+02
     14.863  0.4965E+01  0.9057E+02
     14.970  0.6107E+01  0.9122E+02
     15.077  0.5754E+01  0.9183E+02
     15.184  0.5756E+01  0.9245E+02
     15.290  0.5976E+01  0.9308E+02
     15.397  0.5799E+01  0.9370E+02
     15.504  0.6059E+01  0.9435E+02
     15.611  0.4650E+01  0.9485E+02
     15.717  0.2552E+01  0.9512E+02
     15.824  0.2707E+01  0.9541E+02
     15.931  0.1830E+01  0.9560E+02
     16.038  0.1122E+01  0.9572E+02
     16.144  0.8778E+00  0.9582E+02
     16.251  0.7200E+00  0.9589E+02
     16.358  0.8187E+00  0.9598E+02
     16.465  0.1780E+00  0.9600E+02
     16.571  0.1730E-02  0.9600E+02
     16.678  0.2318E-07  0.9600E+02
     16.785  0.5283E-16  0.9600E+02
     16.892  0.0000E+00  0.9600E+02
     16.998  0.0000E+00  0.9600E+02
     17.105  0.0000E+00  0.9600E+02
     17.212  0.0000E+00  0.9600E+02
     17.319  0.0000E+00  0.9600E+02
     17.425  0.0000E+00  0.9600E+02
     17.532  0.0000E+00  0.9600E+02
     17.639  0.0000E+00  0.9600E+02
     17.746  0.0000E+00  0.9600E+02
     17.852  0.0000E+00  0.9600E+02
