   14   14    1    1
  0.1029335E+02  0.5710673E-09  0.4057615E-09  0.6219090E-09  0.5000000E-15
  1.000000000000000E-004
  CAR 
 Convergence                             
     42    175     48
 
  0.5000000E-01  0.3571429E-01  0.0000000E+00  0.3174603E-02
      1        -12.716582   1.000000
      2        -11.575482   1.000000
      3         -8.668200   1.000000
      4         -8.432480   1.000000
      5         -6.083727   1.000000
      6         -5.150811   1.000000
      7         -4.688678   1.000000
      8         -4.287586   1.000000
      9         -4.051848   1.000000
     10         -3.565516   1.000000
     11         -2.625222   1.000000
     12         -2.356937   1.000000
     13         -1.867757   1.000000
     14         -1.126833   1.000000
     15         -0.098050   1.000000
     16         -0.067469   1.000000
     17          0.118706   1.000000
     18          0.137834   1.000000
     19          0.528140   1.000000
     20          1.979786   0.000051
     21          2.041793   0.000000
     22          2.171417   0.000000
     23          5.401869   0.000000
     24          5.692009   0.000000
     25          5.777383   0.000000
     26          5.902649   0.000000
     27          6.750401   0.000000
     28          7.484583   0.000000
     29          7.809870   0.000000
     30          8.452567   0.000000
     31          8.705275   0.000000
     32          8.863272   0.000000
     33          8.941760   0.000000
     34         10.053419   0.000000
     35         11.119040   0.000000
     36         11.241649   0.000000
     37         11.567742   0.000000
     38         11.692616   0.000000
     39         11.861800   0.000000
     40         12.329691   0.000000
     41         12.769285   0.000000
     42         13.350502   0.000000
     43         13.377983   0.000000
     44         15.255377   0.000000
     45         15.454026   0.000000
     46         15.937247   0.000000
     47         16.223007   0.000000
     48         16.241597   0.000000
 
  0.1500000E+00  0.3571429E-01  0.0000000E+00  0.3174603E-02
      1        -12.672916   1.000000
      2        -11.649338   1.000000
      3         -8.646918   1.000000
      4         -8.420980   1.000000
      5         -6.015966   1.000000
      6         -5.488569   1.000000
      7         -4.809039   1.000000
      8         -4.026818   1.000000
      9         -3.810291   1.000000
     10         -3.230489   1.000000
     11         -2.694829   1.000000
     12         -2.337310   1.000000
     13         -1.944681   1.000000
     14         -1.432983   1.000000
     15         -0.058208   1.000000
     16         -0.054215   1.000000
     17          0.060717   1.000000
     18          0.160163   1.000000
     19          0.432867   1.000000
     20          1.893933   0.072428
     21          1.964225   0.000284
     22          2.051073   0.000000
     23          5.491590   0.000000
     24          5.695819   0.000000
     25          5.810488   0.000000
     26          6.245279   0.000000
     27          6.665799   0.000000
     28          7.124978   0.000000
     29          8.014285   0.000000
     30          8.589085   0.000000
     31          8.953645   0.000000
     32          9.037002   0.000000
     33          9.118496   0.000000
     34         10.156808   0.000000
     35         10.852135   0.000000
     36         11.037918   0.000000
     37         11.190893   0.000000
     38         11.611291   0.000000
     39         12.078415   0.000000
     40         12.416227   0.000000
     41         13.018441   0.000000
     42         13.027704   0.000000
     43         13.904469   0.000000
     44         14.747838   0.000000
     45         15.638771   0.000000
     46         15.724788   0.000000
     47         16.107963   0.000000
     48         16.396747   0.000000
 
  0.2500000E+00  0.3571429E-01  0.0000000E+00  0.3174603E-02
      1        -12.587446   1.000000
      2        -11.782364   1.000000
      3         -8.603160   1.000000
      4         -8.406209   1.000000
      5         -5.994038   1.000000
      6         -5.813585   1.000000
      7         -4.762370   1.000000
      8         -3.901145   1.000000
      9         -3.300378   1.000000
     10         -2.861545   1.000000
     11         -2.741319   1.000000
     12         -2.297828   1.000000
     13         -2.053192   1.000000
     14         -1.936080   1.000000
     15         -0.259747   1.000000
     16         -0.018638   1.000000
     17          0.107930   1.000000
     18          0.127153   1.000000
     19          0.402819   1.000000
     20          1.746141   0.996758
     21          1.823646   0.701970
     22          1.832122   0.614222
     23          5.613112   0.000000
     24          5.652110   0.000000
     25          6.119110   0.000000
     26          6.541141   0.000000
     27          6.701075   0.000000
     28          6.871251   0.000000
     29          8.161821   0.000000
     30          8.738302   0.000000
     31          8.904941   0.000000
     32          9.481790   0.000000
     33          9.564173   0.000000
     34         10.195224   0.000000
     35         10.394500   0.000000
     36         10.532539   0.000000
     37         11.306962   0.000000
     38         11.755860   0.000000
     39         12.312660   0.000000
     40         12.463797   0.000000
     41         12.710857   0.000000
     42         12.813966   0.000000
     43         14.527226   0.000000
     44         14.803430   0.000000
     45         15.128479   0.000000
     46         15.867851   0.000000
     47         15.890610   0.000000
     48         16.167829   0.000000
 
  0.3500000E+00  0.3571429E-01  0.0000000E+00  0.3174603E-02
      1        -12.464137   1.000000
      2        -11.951703   1.000000
      3         -8.541378   1.000000
      4         -8.402802   1.000000
      5         -6.073170   1.000000
      6         -6.046107   1.000000
      7         -4.436127   1.000000
      8         -3.733689   1.000000
      9         -3.053938   1.000000
     10         -2.918176   1.000000
     11         -2.469214   1.000000
     12         -2.281910   1.000000
     13         -2.181344   1.000000
     14         -2.151859   1.000000
     15         -0.558866   1.000000
     16         -0.284120   1.000000
     17          0.142421   1.000000
     18          0.217115   1.000000
     19          0.575185   1.000000
     20          1.488324   1.000000
     21          1.625256   1.000000
     22          1.684705   0.999996
     23          5.637976   0.000000
     24          5.697744   0.000000
     25          6.441463   0.000000
     26          6.614708   0.000000
     27          6.640028   0.000000
     28          7.345819   0.000000
     29          8.283923   0.000000
     30          8.612763   0.000000
     31          8.721971   0.000000
     32          9.454360   0.000000
     33          9.963423   0.000000
     34         10.035605   0.000000
     35         10.306598   0.000000
     36         11.043742   0.000000
     37         11.324710   0.000000
     38         11.845435   0.000000
     39         12.111103   0.000000
     40         12.179609   0.000000
     41         12.437888   0.000000
     42         13.170972   0.000000
     43         14.621358   0.000000
     44         14.873487   0.000000
     45         15.142521   0.000000
     46         15.268618   0.000000
     47         15.461034   0.000000
     48         16.263803   0.000000
 
  0.4500000E+00  0.3571429E-01  0.0000000E+00  0.3174603E-02
      1        -12.309617   1.000000
      2        -12.133967   1.000000
      3         -8.475562   1.000000
      4         -8.425028   1.000000
      5         -6.160083   1.000000
      6         -6.156807   1.000000
      7         -3.922553   1.000000
      8         -3.526265   1.000000
      9         -3.324917   1.000000
     10         -3.290561   1.000000
     11         -2.384421   1.000000
     12         -2.259673   1.000000
     13         -1.995834   1.000000
     14         -1.938580   1.000000
     15         -0.779512   1.000000
     16         -0.643022   1.000000
     17          0.224986   1.000000
     18          0.258105   1.000000
     19          0.834869   1.000000
     20          1.150922   1.000000
     21          1.544954   1.000000
     22          1.571800   1.000000
     23          5.667577   0.000000
     24          5.707037   0.000000
     25          6.421640   0.000000
     26          6.486170   0.000000
     27          7.304870   0.000000
     28          8.002333   0.000000
     29          8.026901   0.000000
     30          8.399492   0.000000
     31          8.535476   0.000000
     32          8.713502   0.000000
     33         10.418541   0.000000
     34         10.430601   0.000000
     35         10.667230   0.000000
     36         11.123593   0.000000
     37         11.307308   0.000000
     38         11.495522   0.000000
     39         11.826765   0.000000
     40         12.388200   0.000000
     41         12.632355   0.000000
     42         13.163764   0.000000
     43         14.500438   0.000000
     44         14.627589   0.000000
     45         14.771755   0.000000
     46         14.832167   0.000000
     47         15.980951   0.000000
     48         16.327115   0.000000
 
  0.5000000E-01  0.1071429E+00  0.0000000E+00  0.3174603E-02
      1        -12.692719   1.000000
      2        -11.553939   1.000000
      3         -8.649640   1.000000
      4         -8.409575   1.000000
      5         -6.057261   1.000000
      6         -5.117204   1.000000
      7         -4.666864   1.000000
      8         -4.586846   1.000000
      9         -4.195057   1.000000
     10         -3.542975   1.000000
     11         -3.316360   1.000000
     12         -1.826000   1.000000
     13         -1.122308   1.000000
     14         -1.070994   1.000000
     15         -0.330422   1.000000
     16         -0.302456   1.000000
     17          0.132228   1.000000
     18          0.208050   1.000000
     19          0.605941   1.000000
     20          1.713842   0.999861
     21          1.792676   0.920144
     22          2.223302   0.000000
     23          5.523124   0.000000
     24          5.649385   0.000000
     25          5.687037   0.000000
     26          5.942538   0.000000
     27          7.033687   0.000000
     28          7.769276   0.000000
     29          8.000749   0.000000
     30          8.117467   0.000000
     31          8.710555   0.000000
     32          8.995221   0.000000
     33          9.056072   0.000000
     34         10.500295   0.000000
     35         11.174946   0.000000
     36         11.330014   0.000000
     37         11.502490   0.000000
     38         11.794716   0.000000
     39         11.972907   0.000000
     40         12.606586   0.000000
     41         12.771225   0.000000
     42         13.091555   0.000000
     43         13.094191   0.000000
     44         15.213237   0.000000
     45         15.258098   0.000000
     46         15.741494   0.000000
     47         15.746056   0.000000
     48         16.101384   0.000000
 
  0.1500000E+00  0.1071429E+00  0.0000000E+00  0.3174603E-02
      1        -12.649146   1.000000
      2        -11.627661   1.000000
      3         -8.628204   1.000000
      4         -8.398439   1.000000
      5         -5.987737   1.000000
      6         -5.458586   1.000000
      7         -4.789229   1.000000
      8         -4.506618   1.000000
      9         -3.772424   1.000000
     10         -3.396029   1.000000
     11         -3.192982   1.000000
     12         -1.804544   1.000000
     13         -1.427608   1.000000
     14         -1.187522   1.000000
     15         -0.292048   1.000000
     16         -0.225966   1.000000
     17          0.099131   1.000000
     18          0.181744   1.000000
     19          0.503041   1.000000
     20          1.633766   1.000000
     21          1.716567   0.999814
     22          2.093289   0.000000
     23          5.599407   0.000000
     24          5.749061   0.000000
     25          5.871355   0.000000
     26          6.053600   0.000000
     27          6.951064   0.000000
     28          7.445190   0.000000
     29          8.146608   0.000000
     30          8.282959   0.000000
     31          9.024243   0.000000
     32          9.067982   0.000000
     33          9.326758   0.000000
     34         10.418578   0.000000
     35         10.785087   0.000000
     36         10.991412   0.000000
     37         11.383768   0.000000
     38         11.784027   0.000000
     39         12.191581   0.000000
     40         12.653940   0.000000
     41         12.772887   0.000000
     42         13.051523   0.000000
     43         13.625064   0.000000
     44         14.832045   0.000000
     45         15.282803   0.000000
     46         15.644219   0.000000
     47         15.676809   0.000000
     48         16.281309   0.000000
 
  0.2500000E+00  0.1071429E+00  0.0000000E+00  0.3174603E-02
      1        -12.563862   1.000000
      2        -11.760432   1.000000
      3         -8.584228   1.000000
      4         -8.384360   1.000000
      5         -5.963067   1.000000
      6         -5.783385   1.000000
      7         -4.745903   1.000000
      8         -4.399342   1.000000
      9         -3.516801   1.000000
     10         -3.248436   1.000000
     11         -2.728698   1.000000
     12         -1.931453   1.000000
     13         -1.760726   1.000000
     14         -1.348103   1.000000
     15         -0.261589   1.000000
     16         -0.246769   1.000000
     17          0.021450   1.000000
     18          0.168821   1.000000
     19          0.427062   1.000000
     20          1.499479   1.000000
     21          1.587108   1.000000
     22          1.846461   0.454122
     23          5.793374   0.000000
     24          5.877459   0.000000
     25          5.956423   0.000000
     26          6.499289   0.000000
     27          6.831631   0.000000
     28          7.218715   0.000000
     29          8.353569   0.000000
     30          8.413467   0.000000
     31          9.001832   0.000000
     32          9.520575   0.000000
     33          9.788028   0.000000
     34         10.040863   0.000000
     35         10.264461   0.000000
     36         10.727467   0.000000
     37         11.445240   0.000000
     38         12.019554   0.000000
     39         12.210594   0.000000
     40         12.473616   0.000000
     41         12.853589   0.000000
     42         12.938187   0.000000
     43         14.200104   0.000000
     44         14.967356   0.000000
     45         15.053753   0.000000
     46         15.531363   0.000000
     47         15.600518   0.000000
     48         16.301963   0.000000
 
  0.3500000E+00  0.1071429E+00  0.0000000E+00  0.3174603E-02
      1        -12.440811   1.000000
      2        -11.929437   1.000000
      3         -8.522190   1.000000
      4         -8.381833   1.000000
      5         -6.041003   1.000000
      6         -6.015091   1.000000
      7         -4.421791   1.000000
      8         -4.253622   1.000000
      9         -3.686505   1.000000
     10         -2.871160   1.000000
     11         -2.388503   1.000000
     12         -2.247256   1.000000
     13         -1.697186   1.000000
     14         -1.509353   1.000000
     15         -0.521303   1.000000
     16         -0.343869   1.000000
     17          0.052067   1.000000
     18          0.083684   1.000000
     19          0.585715   1.000000
     20          1.360212   1.000000
     21          1.442562   1.000000
     22          1.524426   1.000000
     23          5.810625   0.000000
     24          5.950187   0.000000
     25          6.460379   0.000000
     26          6.743815   0.000000
     27          6.817725   0.000000
     28          7.307386   0.000000
     29          8.345720   0.000000
     30          8.519655   0.000000
     31          8.850354   0.000000
     32          9.291864   0.000000
     33          9.983759   0.000000
     34         10.006065   0.000000
     35         10.356395   0.000000
     36         11.119609   0.000000
     37         11.277723   0.000000
     38         11.748211   0.000000
     39         12.184478   0.000000
     40         12.461277   0.000000
     41         12.636079   0.000000
     42         13.370797   0.000000
     43         14.660243   0.000000
     44         14.670429   0.000000
     45         15.041029   0.000000
     46         15.201526   0.000000
     47         15.535135   0.000000
     48         16.278314   0.000000
 
  0.4500000E+00  0.1071429E+00  0.0000000E+00  0.3174603E-02
      1        -12.286617   1.000000
      2        -12.111325   1.000000
      3         -8.456024   1.000000
      4         -8.404896   1.000000
      5         -6.128285   1.000000
      6         -6.124571   1.000000
      7         -4.076284   1.000000
      8         -3.914933   1.000000
      9         -3.874696   1.000000
     10         -3.312287   1.000000
     11         -2.132695   1.000000
     12         -1.941718   1.000000
     13         -1.629107   1.000000
     14         -1.622526   1.000000
     15         -0.741856   1.000000
     16         -0.638784   1.000000
     17          0.086750   1.000000
     18          0.117683   1.000000
     19          0.844170   1.000000
     20          1.157431   1.000000
     21          1.307264   1.000000
     22          1.331002   1.000000
     23          5.863144   0.000000
     24          5.930885   0.000000
     25          6.734526   0.000000
     26          6.785434   0.000000
     27          7.123945   0.000000
     28          7.831160   0.000000
     29          7.872768   0.000000
     30          8.550105   0.000000
     31          8.610472   0.000000
     32          8.721468   0.000000
     33         10.230987   0.000000
     34         10.480758   0.000000
     35         10.720179   0.000000
     36         10.815798   0.000000
     37         11.454723   0.000000
     38         11.553899   0.000000
     39         11.903739   0.000000
     40         12.554021   0.000000
     41         12.937672   0.000000
     42         13.392398   0.000000
     43         14.445995   0.000000
     44         14.631740   0.000000
     45         14.731941   0.000000
     46         14.949903   0.000000
     47         16.007363   0.000000
     48         16.302359   0.000000
 
  0.5000000E-01  0.1785714E+00  0.0000000E+00  0.3174603E-02
      1        -12.648638   1.000000
      2        -11.514209   1.000000
      3         -8.615662   1.000000
      4         -8.367304   1.000000
      5         -6.008344   1.000000
      6         -5.143023   1.000000
      7         -5.027465   1.000000
      8         -4.625531   1.000000
      9         -4.178207   1.000000
     10         -3.936683   1.000000
     11         -3.490147   1.000000
     12         -1.235128   1.000000
     13         -1.113140   1.000000
     14         -0.671366   1.000000
     15         -0.568998   1.000000
     16         -0.215046   1.000000
     17          0.153232   1.000000
     18          0.259998   1.000000
     19          0.683658   1.000000
     20          1.333903   1.000000
     21          1.396306   1.000000
     22          2.260845   0.000000
     23          5.237823   0.000000
     24          5.400647   0.000000
     25          6.060002   0.000000
     26          6.128187   0.000000
     27          7.463925   0.000000
     28          7.552928   0.000000
     29          8.248148   0.000000
     30          8.641062   0.000000
     31          8.799800   0.000000
     32          9.134983   0.000000
     33          9.279545   0.000000
     34         10.796479   0.000000
     35         11.230299   0.000000
     36         11.480380   0.000000
     37         11.625541   0.000000
     38         11.993571   0.000000
     39         12.188557   0.000000
     40         12.654799   0.000000
     41         12.666545   0.000000
     42         12.899882   0.000000
     43         13.140455   0.000000
     44         14.550712   0.000000
     45         15.045475   0.000000
     46         15.219254   0.000000
     47         15.329679   0.000000
     48         15.839058   0.000000
 
  0.1500000E+00  0.1785714E+00  0.0000000E+00  0.3174603E-02
      1        -12.605242   1.000000
      2        -11.587673   1.000000
      3         -8.593915   1.000000
      4         -8.356864   1.000000
      5         -5.935447   1.000000
      6         -5.409928   1.000000
      7         -5.047283   1.000000
      8         -4.751930   1.000000
      9         -4.001988   1.000000
     10         -3.730998   1.000000
     11         -3.153671   1.000000
     12         -1.419287   1.000000
     13         -1.209378   1.000000
     14         -0.779939   1.000000
     15         -0.531224   1.000000
     16         -0.133074   1.000000
     17          0.131270   1.000000
     18          0.206716   1.000000
     19          0.571015   1.000000
     20          1.255223   1.000000
     21          1.326874   1.000000
     22          2.125884   0.000000
     23          5.318395   0.000000
     24          5.743556   0.000000
     25          6.074339   0.000000
     26          6.175808   0.000000
     27          7.383748   0.000000
     28          7.709427   0.000000
     29          7.980608   0.000000
     30          8.734279   0.000000
     31          9.150016   0.000000
     32          9.200111   0.000000
     33          9.562236   0.000000
     34         10.432320   0.000000
     35         10.691472   0.000000
     36         11.185885   0.000000
     37         11.643228   0.000000
     38         12.108062   0.000000
     39         12.339755   0.000000
     40         12.415955   0.000000
     41         13.062225   0.000000
     42         13.185827   0.000000
     43         13.334907   0.000000
     44         14.564580   0.000000
     45         14.710361   0.000000
     46         15.150352   0.000000
     47         15.394000   0.000000
     48         15.874750   0.000000
 
  0.2500000E+00  0.1785714E+00  0.0000000E+00  0.3174603E-02
      1        -12.520291   1.000000
      2        -11.719966   1.000000
      3         -8.549502   1.000000
      4         -8.344098   1.000000
      5         -5.905434   1.000000
      6         -5.728815   1.000000
      7         -4.955913   1.000000
      8         -4.715167   1.000000
      9         -4.124106   1.000000
     10         -3.199281   1.000000
     11         -2.685059   1.000000
     12         -1.915219   1.000000
     13         -1.169208   1.000000
     14         -0.919492   1.000000
     15         -0.478992   1.000000
     16         -0.129020   1.000000
     17         -0.020264   1.000000
     18          0.217621   1.000000
     19          0.456543   1.000000
     20          1.124452   1.000000
     21          1.209071   1.000000
     22          1.870784   0.210931
     23          5.638132   0.000000
     24          6.029458   0.000000
     25          6.216255   0.000000
     26          6.306626   0.000000
     27          7.282670   0.000000
     28          7.793140   0.000000
     29          7.943692   0.000000
     30          8.863461   0.000000
     31          9.150040   0.000000
     32          9.629552   0.000000
     33          9.770559   0.000000
     34         10.044716   0.000000
     35         10.168202   0.000000
     36         10.967146   0.000000
     37         11.503576   0.000000
     38         12.015452   0.000000
     39         12.416627   0.000000
     40         12.717416   0.000000
     41         12.941470   0.000000
     42         13.354730   0.000000
     43         13.856352   0.000000
     44         14.477393   0.000000
     45         14.759075   0.000000
     46         15.176973   0.000000
     47         15.409629   0.000000
     48         16.085692   0.000000
 
  0.3500000E+00  0.1785714E+00  0.0000000E+00  0.3174603E-02
      1        -12.397732   1.000000
      2        -11.888356   1.000000
      3         -8.487000   1.000000
      4         -8.343260   1.000000
      5         -5.981048   1.000000
      6         -5.957879   1.000000
      7         -4.821187   1.000000
      8         -4.395357   1.000000
      9         -4.286806   1.000000
     10         -2.833465   1.000000
     11         -2.348340   1.000000
     12         -2.206250   1.000000
     13         -1.113211   1.000000
     14         -1.056954   1.000000
     15         -0.487281   1.000000
     16         -0.412982   1.000000
     17          0.023097   1.000000
     18          0.024333   1.000000
     19          0.603102   1.000000
     20          0.995421   1.000000
     21          1.076977   1.000000
     22          1.537507   1.000000
     23          6.041864   0.000000
     24          6.169750   0.000000
     25          6.337149   0.000000
     26          6.739318   0.000000
     27          7.228927   0.000000
     28          7.715645   0.000000
     29          8.002077   0.000000
     30          8.962841   0.000000
     31          9.025032   0.000000
     32          9.092065   0.000000
     33          9.797125   0.000000
     34         10.095109   0.000000
     35         10.617435   0.000000
     36         10.989139   0.000000
     37         11.218067   0.000000
     38         11.860898   0.000000
     39         12.246265   0.000000
     40         12.896891   0.000000
     41         12.947870   0.000000
     42         13.694663   0.000000
     43         14.267559   0.000000
     44         14.288149   0.000000
     45         14.919403   0.000000
     46         15.014935   0.000000
     47         15.497003   0.000000
     48         16.265174   0.000000
 
  0.4500000E+00  0.1785714E+00  0.0000000E+00  0.3174603E-02
      1        -12.244147   1.000000
      2        -12.069539   1.000000
      3         -8.420157   1.000000
      4         -8.367907   1.000000
      5         -6.069265   1.000000
      6         -6.064576   1.000000
      7         -4.654946   1.000000
      8         -4.471121   1.000000
      9         -3.884564   1.000000
     10         -3.289987   1.000000
     11         -2.065903   1.000000
     12         -1.901917   1.000000
     13         -1.130935   1.000000
     14         -1.072255   1.000000
     15         -0.665952   1.000000
     16         -0.662360   1.000000
     17         -0.025682   1.000000
     18          0.017792   1.000000
     19          0.859751   1.000000
     20          0.932984   1.000000
     21          0.973084   1.000000
     22          1.185650   1.000000
     23          6.134005   0.000000
     24          6.253798   0.000000
     25          6.818325   0.000000
     26          7.151559   0.000000
     27          7.208474   0.000000
     28          7.559005   0.000000
     29          7.861547   0.000000
     30          8.368334   0.000000
     31          9.017887   0.000000
     32          9.049113   0.000000
     33          9.922311   0.000000
     34         10.395322   0.000000
     35         10.617120   0.000000
     36         10.894850   0.000000
     37         11.634141   0.000000
     38         11.643784   0.000000
     39         12.021604   0.000000
     40         12.805758   0.000000
     41         13.323391   0.000000
     42         13.666886   0.000000
     43         14.121142   0.000000
     44         14.275005   0.000000
     45         14.890817   0.000000
     46         15.028888   0.000000
     47         15.875636   0.000000
     48         16.177285   0.000000
 
  0.5000000E-01  0.2500000E+00  0.0000000E+00  0.3174603E-02
      1        -12.591530   1.000000
      2        -11.462875   1.000000
      3         -8.572259   1.000000
      4         -8.312624   1.000000
      5         -5.944869   1.000000
      6         -5.622574   1.000000
      7         -4.958125   1.000000
      8         -4.569959   1.000000
      9         -4.455409   1.000000
     10         -4.139157   1.000000
     11         -3.428737   1.000000
     12         -1.241648   1.000000
     13         -1.098867   1.000000
     14         -1.022561   1.000000
     15         -0.229809   1.000000
     16          0.181164   1.000000
     17          0.302668   1.000000
     18          0.554006   1.000000
     19          0.746791   1.000000
     20          0.950782   1.000000
     21          0.964623   1.000000
     22          2.294563   0.000000
     23          4.898032   0.000000
     24          5.109752   0.000000
     25          6.286923   0.000000
     26          6.516830   0.000000
     27          7.197503   0.000000
     28          7.887760   0.000000
     29          8.609697   0.000000
     30          8.984304   0.000000
     31          9.361181   0.000000
     32          9.500019   0.000000
     33          9.560516   0.000000
     34         10.657820   0.000000
     35         11.176699   0.000000
     36         11.879263   0.000000
     37         11.938057   0.000000
     38         12.198304   0.000000
     39         12.334769   0.000000
     40         12.363262   0.000000
     41         12.473252   0.000000
     42         12.884407   0.000000
     43         13.671072   0.000000
     44         13.786646   0.000000
     45         14.303073   0.000000
     46         15.000866   0.000000
     47         15.303922   0.000000
     48         15.727295   0.000000
 
  0.1500000E+00  0.2500000E+00  0.0000000E+00  0.3174603E-02
      1        -12.548362   1.000000
      2        -11.536005   1.000000
      3         -8.550098   1.000000
      4         -8.303131   1.000000
      5         -5.867398   1.000000
      6         -5.587781   1.000000
      7         -5.292986   1.000000
      8         -4.702602   1.000000