 running   24 mpi-ranks, with    1 threads/rank, on    1 nodes
 distrk:  each k-point on   24 cores,    1 groups
 distr:  one band on    1 cores,   24 groups
 vasp.6.4.3 19Mar24 (build May 31 2024 16:31:43) complex                        
  
 POSCAR found type information on POSCAR B 
 POSCAR found :  1 types and      14 ions
 Reading from existing POTCAR
 scaLAPACK will be used
 Reading from existing POTCAR
 LDA part: xc-table for (Slater+PW92), standard interpolation
 POSCAR, INCAR and KPOINTS ok, starting setup
 FFT: planning ... GRIDC
 FFT: planning ... GRID_SOFT
 FFT: planning ... GRID
 WAVECAR not read
 entering main loop
       N       E                     dE             d eps       ncg     rms          rms(c)
DAV:   1     0.787784240493E+02    0.78778E+02   -0.19967E+04 16800   0.861E+02
DAV:   2    -0.916482577253E+02   -0.17043E+03   -0.15954E+03 23088   0.167E+02
DAV:   3    -0.974729329569E+02   -0.58247E+01   -0.57905E+01 24768   0.274E+01
DAV:   4    -0.975075903140E+02   -0.34657E-01   -0.34655E-01 19848   0.245E+00
DAV:   5    -0.975079794230E+02   -0.38911E-03   -0.38910E-03 24600   0.248E-01    0.122E+01
DAV:   6    -0.921978384861E+02    0.53101E+01   -0.38754E+00 24288   0.651E+00    0.675E+00
DAV:   7    -0.905743130481E+02    0.16235E+01   -0.31678E+00 25176   0.580E+00    0.169E+00
DAV:   8    -0.905868254397E+02   -0.12512E-01   -0.23061E-01 18864   0.166E+00    0.702E-01
DAV:   9    -0.906010254386E+02   -0.14200E-01   -0.16758E-02 23280   0.438E-01    0.196E-01
DAV:  10    -0.906050607542E+02   -0.40353E-02   -0.20976E-03 19320   0.161E-01    0.608E-02
DAV:  11    -0.906061300233E+02   -0.10693E-02   -0.62976E-04 21600   0.871E-02    0.319E-02
DAV:  12    -0.906062432282E+02   -0.11320E-03   -0.90701E-05 20736   0.368E-02    0.427E-03
DAV:  13    -0.906062481035E+02   -0.48753E-05   -0.40704E-06 23472   0.875E-03    0.177E-03
DAV:  14    -0.906062487760E+02   -0.67249E-06   -0.27737E-07 20640   0.228E-03
   1 F= -.90606249E+02 E0= -.90604640E+02  d E =-.321824E-02
