 running   24 mpi-ranks, with    1 threads/rank, on    1 nodes
 distrk:  each k-point on   24 cores,    1 groups
 distr:  one band on    1 cores,   24 groups
 vasp.6.4.3 19Mar24 (build May 31 2024 16:31:43) complex                        
  
 POSCAR found type information on POSCAR B 
 POSCAR found :  1 types and      14 ions
 Reading from existing POTCAR
 scaLAPACK will be used
 Reading from existing POTCAR
 LDA part: xc-table for (Slater+PW92), standard interpolation
 POSCAR, INCAR and KPOINTS ok, starting setup
 FFT: planning ... GRIDC
 FFT: planning ... GRID_SOFT
 FFT: planning ... GRID
 WAVECAR not read
 entering main loop
       N       E                     dE             d eps       ncg     rms          rms(c)
DAV:   1     0.774498918814E+02    0.77450E+02   -0.20012E+04 16800   0.862E+02
DAV:   2    -0.917127355994E+02   -0.16916E+03   -0.15845E+03 22704   0.166E+02
DAV:   3    -0.974620485771E+02   -0.57493E+01   -0.57117E+01 25008   0.273E+01
DAV:   4    -0.974961163758E+02   -0.34068E-01   -0.34066E-01 19176   0.243E+00
DAV:   5    -0.974964963861E+02   -0.38001E-03   -0.38000E-03 25032   0.245E-01    0.122E+01
DAV:   6    -0.921951436387E+02    0.53014E+01   -0.38702E+00 24264   0.650E+00    0.674E+00
DAV:   7    -0.905737874068E+02    0.16214E+01   -0.31611E+00 25176   0.579E+00    0.169E+00
DAV:   8    -0.905863819897E+02   -0.12595E-01   -0.23104E-01 18504   0.166E+00    0.701E-01
DAV:   9    -0.906005812651E+02   -0.14199E-01   -0.16719E-02 23424   0.437E-01    0.196E-01
DAV:  10    -0.906046120827E+02   -0.40308E-02   -0.20959E-03 19008   0.161E-01    0.609E-02
DAV:  11    -0.906056820734E+02   -0.10700E-02   -0.62957E-04 21744   0.870E-02    0.318E-02
DAV:  12    -0.906057952473E+02   -0.11317E-03   -0.90638E-05 20784   0.368E-02    0.427E-03
DAV:  13    -0.906058001278E+02   -0.48805E-05   -0.40714E-06 23400   0.875E-03    0.176E-03
DAV:  14    -0.906058007980E+02   -0.67020E-06   -0.27545E-07 20448   0.227E-03
   1 F= -.90605801E+02 E0= -.90604191E+02  d E =-.321874E-02
