    1    1    1    1
  0.3375000E+04  0.1500000E-08  0.1250000E-08  0.1800000E-08  0.5000000E-15
  1.000000000000000E-004
  CAR 
 Convergence                             
      3    175      8
 
  0.5000000E-01  0.3571429E-01  0.0000000E+00  0.3174603E-02
      1         -9.409712   1.000000
      2         -3.572594   0.166736
      3         -3.572581   0.166647
      4         -3.572470   0.165862
      5         -0.261643   0.000000
      6          0.295297   0.000000
      7          0.310072   0.000000
      8          0.439942   0.000000
 
  0.1500000E+00  0.3571429E-01  0.0000000E+00  0.3174603E-02
      1         -9.409712   1.000000
      2         -3.572595   0.166743
      3         -3.572584   0.166668
      4         -3.572470   0.165862
      5         -0.251788   0.000000
      6          0.269182   0.000000
      7          0.321304   0.000000
      8          0.375506   0.000000
 
  0.2500000E+00  0.3571429E-01  0.0000000E+00  0.3174603E-02
      1         -9.409713   1.000000
      2         -3.572595   0.166746
      3         -3.572592   0.166722
      4         -3.572469   0.165856
      5         -0.233635   0.000000
      6          0.199249   0.000000
      7          0.342926   0.000000
      8          0.377831   0.000000
 
  0.3500000E+00  0.3571429E-01  0.0000000E+00  0.3174603E-02
      1         -9.409714   1.000000
      2         -3.572600   0.166781
      3         -3.572596   0.166751
      4         -3.572471   0.165868
      5         -0.211436   0.000000
      6          0.131510   0.000000
      7          0.372039   0.000000
      8          0.409318   0.000000
 
  0.4500000E+00  0.3571429E-01  0.0000000E+00  0.3174603E-02
      1         -9.409713   1.000000
      2         -3.572603   0.166806
      3         -3.572594   0.166740
      4         -3.572470   0.165865
      5         -0.194398   0.000000
      6          0.090395   0.000000
      7          0.398523   0.000000
      8          0.448303   0.000000
 
  0.5000000E-01  0.1071429E+00  0.0000000E+00  0.3174603E-02
      1         -9.409712   1.000000
      2         -3.572590   0.166712
      3         -3.572581   0.166646
      4         -3.572492   0.166016
      5         -0.252515   0.000000
      6          0.303385   0.000000
      7          0.319045   0.000000
      8          0.448810   0.000000
 
  0.1500000E+00  0.1071429E+00  0.0000000E+00  0.3174603E-02
      1         -9.409712   1.000000
      2         -3.572592   0.166724
      3         -3.572581   0.166649
      4         -3.572492   0.166015
      5         -0.242675   0.000000
      6          0.277660   0.000000
      7          0.330254   0.000000
      8          0.384455   0.000000
 
  0.2500000E+00  0.1071429E+00  0.0000000E+00  0.3174603E-02
      1         -9.409713   1.000000
      2         -3.572594   0.166738
      3         -3.572592   0.166722
      4         -3.572491   0.166012
      5         -0.224554   0.000000
      6          0.208294   0.000000
      7          0.351821   0.000000
      8          0.386413   0.000000
 
  0.3500000E+00  0.1071429E+00  0.0000000E+00  0.3174603E-02
      1         -9.409712   1.000000
      2         -3.572597   0.166757
      3         -3.572592   0.166726
      4         -3.572489   0.165996
      5         -0.202404   0.000000
      6          0.140797   0.000000
      7          0.380828   0.000000
      8          0.417763   0.000000
 
  0.4500000E+00  0.1071429E+00  0.0000000E+00  0.3174603E-02
      1         -9.409713   1.000000
      2         -3.572603   0.166800
      3         -3.572594   0.166740
      4         -3.572490   0.166006
      5         -0.185416   0.000000
      6          0.099798   0.000000
      7          0.407151   0.000000
      8          0.456629   0.000000
 
  0.5000000E-01  0.1785714E+00  0.0000000E+00  0.3174603E-02
      1         -9.409712   1.000000
      2         -3.572586   0.166686
      3         -3.572578   0.166624
      4         -3.572530   0.166289
      5         -0.234573   0.000000
      6          0.316147   0.000000
      7          0.336880   0.000000
      8          0.462460   0.000000
 
  0.1500000E+00  0.1785714E+00  0.0000000E+00  0.3174603E-02
      1         -9.409713   1.000000
      2         -3.572589   0.166700
      3         -3.572581   0.166647
      4         -3.572534   0.166315
      5         -0.224769   0.000000
      6          0.292773   0.000000
      7          0.348039   0.000000
      8          0.400778   0.000000
 
  0.2500000E+00  0.1785714E+00  0.0000000E+00  0.3174603E-02
      1         -9.409713   1.000000
      2         -3.572589   0.166704
      3         -3.572588   0.166694
      4         -3.572532   0.166303
      5         -0.206725   0.000000
      6          0.225928   0.000000
      7          0.369488   0.000000
      8          0.400250   0.000000
 
  0.3500000E+00  0.1785714E+00  0.0000000E+00  0.3174603E-02
      1         -9.409713   1.000000
      2         -3.572592   0.166725
      3         -3.572591   0.166720
      4         -3.572534   0.166313
      5         -0.184698   0.000000
      6          0.159221   0.000000
      7          0.398269   0.000000
      8          0.430402   0.000000
 
  0.4500000E+00  0.1785714E+00  0.0000000E+00  0.3174603E-02
      1         -9.409714   1.000000
      2         -3.572599   0.166771
      3         -3.572591   0.166720
      4         -3.572533   0.166311
      5         -0.167836   0.000000
      6          0.118543   0.000000
      7          0.424250   0.000000
      8          0.467345   0.000000
 
  0.5000000E-01  0.2500000E+00  0.0000000E+00  0.3174603E-02
      1         -9.409712   1.000000
      2         -3.572583   0.166660
      3         -3.572582   0.166654
      4         -3.572572   0.166587
      5         -0.208615   0.000000
      6          0.307603   0.000000
      7          0.363274   0.000000
      8          0.400664   0.000000
 
  0.1500000E+00  0.2500000E+00  0.0000000E+00  0.3174603E-02
      1         -9.409713   1.000000
      2         -3.572586   0.166680
      3         -3.572585   0.166674
      4         -3.572575   0.166608
      5         -0.198881   0.000000
      6          0.300589   0.000000
      7          0.374346   0.000000
      8          0.384727   0.000000
 
  0.2500000E+00  0.2500000E+00  0.0000000E+00  0.3174603E-02
      1         -9.409714   1.000000
      2         -3.572587   0.166693
      3         -3.572586   0.166680
      4         -3.572581   0.166650
      5         -0.180993   0.000000
      6          0.249946   0.000000
      7          0.374849   0.000000
      8          0.395593   0.000000
 
  0.3500000E+00  0.2500000E+00  0.0000000E+00  0.3174603E-02
      1         -9.409714   1.000000
      2         -3.572589   0.166706
      3         -3.572588   0.166698
      4         -3.572587   0.166690
      5         -0.159218   0.000000
      6          0.186297   0.000000
      7          0.397399   0.000000
      8          0.423985   0.000000
 
  0.4500000E+00  0.2500000E+00  0.0000000E+00  0.3174603E-02
      1         -9.409714   1.000000
      2         -3.572595   0.166743
      3         -3.572588   0.166693
      4         -3.572585   0.166672
      5         -0.142613   0.000000
      6          0.146462   0.000000
      7          0.422062   0.000000
      8          0.449393   0.000000
 
  0.5000000E-01  0.3214286E+00  0.0000000E+00  0.3174603E-02
      1         -9.409713   1.000000
      2         -3.572637   0.167042
      3         -3.572580   0.166639
      4         -3.572573   0.166590
      5         -0.176448   0.000000
      6          0.243193   0.000000
      7          0.397441   0.000000
      8          0.415063   0.000000
 
  0.1500000E+00  0.3214286E+00  0.0000000E+00  0.3174603E-02
      1         -9.409712   1.000000
      2         -3.572635   0.167030
      3         -3.572580   0.166640
      4         -3.572572   0.166580
      5         -0.166846   0.000000
      6          0.252022   0.000000
      7          0.384612   0.000000
      8          0.408366   0.000000
 
  0.2500000E+00  0.3214286E+00  0.0000000E+00  0.3174603E-02
      1         -9.409712   1.000000
      2         -3.572632   0.167011
      3         -3.572580   0.166641
      4         -3.572578   0.166624
      5         -0.149253   0.000000
      6          0.258473   0.000000
      7          0.321712   0.000000
      8          0.429272   0.000000
 
  0.3500000E+00  0.3214286E+00  0.0000000E+00  0.3174603E-02
      1         -9.409713   1.000000
      2         -3.572634   0.167023
      3         -3.572583   0.166662
      4         -3.572583   0.166660
      5         -0.127955   0.000000
      6          0.219901   0.000000
      7          0.319656   0.000000
      8          0.457020   0.000000
 
  0.4500000E+00  0.3214286E+00  0.0000000E+00  0.3174603E-02
      1         -9.409715   1.000000
      2         -3.572636   0.167038
      3         -3.572590   0.166708
      4         -3.572587   0.166687
      5         -0.111841   0.000000
      6          0.183087   0.000000
      7          0.340675   0.000000
      8          0.481506   0.000000
 
  0.5000000E-01  0.3928571E+00  0.0000000E+00  0.3174603E-02
      1         -9.409713   1.000000
      2         -3.572677   0.167329
      3         -3.572580   0.166638
      4         -3.572570   0.166569
      5         -0.142433   0.000000
      6          0.176156   0.000000
      7          0.436956   0.000000
      8          0.457482   0.000000
 
  0.1500000E+00  0.3928571E+00  0.0000000E+00  0.3174603E-02
      1         -9.409714   1.000000
      2         -3.572678   0.167331
      3         -3.572580   0.166643
      4         -3.572572   0.166584
      5         -0.133060   0.000000
      6          0.187207   0.000000
      7          0.422121   0.000000
      8          0.447617   0.000000
 
  0.2500000E+00  0.3928571E+00  0.0000000E+00  0.3174603E-02
      1         -9.409713   1.000000
      2         -3.572675   0.167310
      3         -3.572578   0.166628
      4         -3.572574   0.166595
      5         -0.115973   0.000000
      6          0.208006   0.000000
      7          0.344911   0.000000
      8          0.467917   0.000000
 
  0.3500000E+00  0.3928571E+00  0.0000000E+00  0.3174603E-02
      1         -9.409714   1.000000
      2         -3.572678   0.167332
      3         -3.572579   0.166635
      4         -3.572579   0.166631
      5         -0.095493   0.000000
      6          0.232088   0.000000
      7          0.281681   0.000000
      8          0.496348   0.000000
 
  0.4500000E+00  0.3928571E+00  0.0000000E+00  0.3174603E-02
      1         -9.409714   1.000000
      2         -3.572674   0.167301
      3         -3.572585   0.166677
      4         -3.572582   0.166652
      5         -0.080209   0.000000
      6          0.226395   0.000000
      7          0.273469   0.000000
      8          0.447258   0.000000
 
  0.5000000E-01  0.4642857E+00  0.0000000E+00  0.3174603E-02
      1         -9.409714   1.000000
      2         -3.572703   0.167512
      3         -3.572580   0.166642
      4         -3.572569   0.166562
      5         -0.117206   0.000000
      6          0.133313   0.000000
      7          0.471983   0.000000
      8          0.505875   0.000000
 
  0.1500000E+00  0.4642857E+00  0.0000000E+00  0.3174603E-02
      1         -9.409714   1.000000
      2         -3.572701   0.167499
      3         -3.572580   0.166639
      4         -3.572571   0.166573
      5         -0.108105   0.000000
      6          0.145006   0.000000
      7          0.462227   0.000000
      8          0.482199   0.000000
 
  0.2500000E+00  0.4642857E+00  0.0000000E+00  0.3174603E-02
      1         -9.409713   1.000000
      2         -3.572699   0.167482
      3         -3.572578   0.166623
      4         -3.572573   0.166588
      5         -0.091619   0.000000
      6          0.167700   0.000000
      7          0.381850   0.000000
      8          0.501589   0.000000
 
  0.3500000E+00  0.4642857E+00  0.0000000E+00  0.3174603E-02
      1         -9.409712   1.000000
      2         -3.572695   0.167451
      3         -3.572575   0.166605
      4         -3.572574   0.166598
      5         -0.072090   0.000000
      6          0.198977   0.000000
      7          0.313948   0.000000
      8          0.438220   0.000000
 
  0.4500000E+00  0.4642857E+00  0.0000000E+00  0.3174603E-02
      1         -9.409712   1.000000
      2         -3.572692   0.167432
      3         -3.572581   0.166649
      4         -3.572576   0.166609
      5         -0.057741   0.000000
      6          0.229596   0.000000
      7          0.273541   0.000000
      8          0.384858   0.000000
 
  0.5000000E-01  0.3571429E-01  0.1111111E+00  0.6349206E-02
      1         -9.409712   1.000000
      2         -3.572593   0.166731
      3         -3.572582   0.166655
      4         -3.572469   0.165854
      5         -0.258615   0.000000
      6          0.218362   0.000000
      7          0.388190   0.000000
      8          0.453266   0.000000
 
  0.1500000E+00  0.3571429E-01  0.1111111E+00  0.6349206E-02
      1         -9.409712   1.000000
      2         -3.572595   0.166743
      3         -3.572583   0.166664
      4         -3.572469   0.165857
      5         -0.248809   0.000000
      6          0.223556   0.000000
      7          0.319392   0.000000
      8          0.439594   0.000000
 
  0.2500000E+00  0.3571429E-01  0.1111111E+00  0.6349206E-02
      1         -9.409712   1.000000
      2         -3.572595   0.166743
      3         -3.572589   0.166706
      4         -3.572469   0.165854
      5         -0.230765   0.000000
      6          0.197229   0.000000
      7          0.279875   0.000000
      8          0.459435   0.000000
 
  0.3500000E+00  0.3571429E-01  0.1111111E+00  0.6349206E-02
      1         -9.409713   1.000000
      2         -3.572598   0.166770
      3         -3.572594   0.166737
      4         -3.572469   0.165859
      5         -0.208746   0.000000
      6          0.135506   0.000000
      7          0.302505   0.000000
      8          0.488069   0.000000
 
  0.4500000E+00  0.3571429E-01  0.1111111E+00  0.6349206E-02
      1         -9.409714   1.000000
      2         -3.572606   0.166820
      3         -3.572595   0.166749
      4         -3.572470   0.165863
      5         -0.191896   0.000000
      6          0.095278   0.000000
      7          0.333147   0.000000
      8          0.471898   0.000000
 
  0.5000000E-01  0.1071429E+00  0.1111111E+00  0.6349206E-02
      1         -9.409712   1.000000
      2         -3.572594   0.166735
      3         -3.572580   0.166640
      4         -3.572492   0.166018
      5         -0.249497   0.000000
      6          0.227363   0.000000
      7          0.395677   0.000000
      8          0.462003   0.000000
 
  0.1500000E+00  0.1071429E+00  0.1111111E+00  0.6349206E-02
      1         -9.409712   1.000000
      2         -3.572592   0.166726
      3         -3.572582   0.166653
      4         -3.572490   0.166008
      5         -0.239705   0.000000
      6          0.232514   0.000000
      7          0.328238   0.000000
      8          0.447541   0.000000
 
  0.2500000E+00  0.1071429E+00  0.1111111E+00  0.6349206E-02
      1         -9.409713   1.000000
      2         -3.572593   0.166732
      3         -3.572590   0.166713
      4         -3.572491   0.166009
      5         -0.221693   0.000000
      6          0.206284   0.000000
      7          0.289010   0.000000
      8          0.467174   0.000000
 
  0.3500000E+00  0.1071429E+00  0.1111111E+00  0.6349206E-02
      1         -9.409713   1.000000
      2         -3.572597   0.166758
      3         -3.572593   0.166733
      4         -3.572490   0.166006
      5         -0.199722   0.000000
      6          0.144788   0.000000
      7          0.311539   0.000000
      8          0.495858   0.000000
 
  0.4500000E+00  0.1071429E+00  0.1111111E+00  0.6349206E-02
      1         -9.409713   1.000000
      2         -3.572602   0.166797
      3         -3.572593   0.166730
      4         -3.572490   0.166004
      5         -0.182922   0.000000
      6          0.104674   0.000000
      7          0.342058   0.000000
      8          0.481176   0.000000
 
  0.5000000E-01  0.1785714E+00  0.1111111E+00  0.6349206E-02
      1         -9.409712   1.000000
      2         -3.572590   0.166710
      3         -3.572577   0.166622
      4         -3.572531   0.166292
      5         -0.231579   0.000000
      6          0.244699   0.000000
      7          0.402287   0.000000
      8          0.471391   0.000000
 
  0.1500000E+00  0.1785714E+00  0.1111111E+00  0.6349206E-02
      1         -9.409712   1.000000
      2         -3.572588   0.166693
      3         -3.572577   0.166620
      4         -3.572532   0.166301
      5         -0.221823   0.000000
      6          0.249696   0.000000
      7          0.345185   0.000000
      8          0.449817   0.000000
 
  0.2500000E+00  0.1785714E+00  0.1111111E+00  0.6349206E-02
      1         -9.409713   1.000000
      2         -3.572592   0.166722
      3         -3.572586   0.166683
      4         -3.572533   0.166308
      5         -0.203887   0.000000
      6          0.223929   0.000000
      7          0.307116   0.000000
      8          0.467264   0.000000
 
  0.3500000E+00  0.1785714E+00  0.1111111E+00  0.6349206E-02
      1         -9.409713   1.000000
      2         -3.572593   0.166732
      3         -3.572589   0.166706
      4         -3.572533   0.166310
      5         -0.182038   0.000000
      6          0.163201   0.000000
      7          0.329255   0.000000
      8          0.495634   0.000000
 
  0.4500000E+00  0.1785714E+00  0.1111111E+00  0.6349206E-02
      1         -9.409714   1.000000
      2         -3.572598   0.166770
      3         -3.572590   0.166712
      4         -3.572535   0.166321
      5         -0.165361   0.000000
      6          0.123403   0.000000
      7          0.359452   0.000000
      8          0.499355   0.000000
 
  0.5000000E-01  0.2500000E+00  0.1111111E+00  0.6349206E-02
      1         -9.409713   1.000000
      2         -3.572587   0.166690
      3         -3.572583   0.166661
      4         -3.572574   0.166596
      5         -0.205668   0.000000
      6          0.265808   0.000000
      7          0.351941   0.000000
      8          0.458463   0.000000
 
  0.1500000E+00  0.2500000E+00  0.1111111E+00  0.6349206E-02
      1         -9.409713   1.000000
      2         -3.572587   0.166688
      3         -3.572584   0.166671
      4         -3.572574   0.166599
      5         -0.195982   0.000000
      6          0.270430   0.000000
      7          0.355906   0.000000
      8          0.390404   0.000000
 
  0.2500000E+00  0.2500000E+00  0.1111111E+00  0.6349206E-02
      1         -9.409714   1.000000
      2         -3.572589   0.166701
      3         -3.572587   0.166692
      4         -3.572582   0.166651
      5         -0.178201   0.000000
      6          0.247993   0.000000
      7          0.333221   0.000000
      8          0.389485   0.000000
 
  0.3500000E+00  0.2500000E+00  0.1111111E+00  0.6349206E-02
      1         -9.409713   1.000000
      2         -3.572589   0.166703
      3         -3.572585   0.166678
      4         -3.572585   0.166676
      5         -0.156601   0.000000
      6          0.190249   0.000000
      7          0.352873   0.000000
      8          0.415720   0.000000
 
  0.4500000E+00  0.2500000E+00  0.1111111E+00  0.6349206E-02
      1         -9.409713   1.000000
      2         -3.572593   0.166734
      3         -3.572585   0.166673
      4         -3.572584   0.166671
      5         -0.140178   0.000000
      6          0.151295   0.000000
      7          0.381690   0.000000
      8          0.439577   0.000000
 
  0.5000000E-01  0.3214286E+00  0.1111111E+00  0.6349206E-02
      1         -9.409714   1.000000
      2         -3.572637   0.167046
      3         -3.572585   0.166677
      4         -3.572572   0.166584
      5         -0.173590   0.000000
      6          0.243315   0.000000
      7          0.327266   0.000000
      8          0.489496   0.000000
 
  0.1500000E+00  0.3214286E+00  0.1111111E+00  0.6349206E-02
      1         -9.409713   1.000000
      2         -3.572635   0.167030
      3         -3.572582   0.166657
      4         -3.572573   0.166593
      5         -0.164036   0.000000
      6          0.252046   0.000000
      7          0.336462   0.000000
      8          0.412617   0.000000
 
  0.2500000E+00  0.3214286E+00  0.1111111E+00  0.6349206E-02
      1         -9.409712   1.000000
      2         -3.572633   0.167015
      3         -3.572581   0.166646
      4         -3.572576   0.166609
      5         -0.146547   0.000000
      6          0.258922   0.000000
      7          0.324931   0.000000
      8          0.371720   0.000000
 
  0.3500000E+00  0.3214286E+00  0.1111111E+00  0.6349206E-02
      1         -9.409713   1.000000
      2         -3.572634   0.167019
      3         -3.572585   0.166675
      4         -3.572580   0.166640
      5         -0.125419   0.000000
      6          0.223774   0.000000
      7          0.322263   0.000000
      8          0.398087   0.000000
 
  0.4500000E+00  0.3214286E+00  0.1111111E+00  0.6349206E-02
      1         -9.409714   1.000000
      2         -3.572635   0.167030
      3         -3.572588   0.166699
      4         -3.572581   0.166647
      5         -0.109477   0.000000
      6          0.187870   0.000000
      7          0.342724   0.000000
      8          0.427429   0.000000
 
  0.5000000E-01  0.3928571E+00  0.1111111E+00  0.6349206E-02
      1         -9.409714   1.000000
      2         -3.572677   0.167327
      3         -3.572581   0.166649
      4         -3.572570   0.166571
      5         -0.139730   0.000000
      6          0.180044   0.000000
      7          0.363599   0.000000
      8          0.529482   0.000000
 
  0.1500000E+00  0.3928571E+00  0.1111111E+00  0.6349206E-02
      1         -9.409713   1.000000
      2         -3.572677   0.167325
      3         -3.572580   0.166641
      4         -3.572572   0.166581
      5         -0.130402   0.000000
      6          0.191069   0.000000
      7          0.370977   0.000000
      8          0.452112   0.000000
 
  0.2500000E+00  0.3928571E+00  0.1111111E+00  0.6349206E-02
      1         -9.409713   1.000000
      2         -3.572675   0.167311
      3         -3.572577   0.166622
      4         -3.572574   0.166595
      5         -0.113414   0.000000
      6          0.211813   0.000000
      7          0.345017   0.000000
      8          0.412427   0.000000
 
  0.3500000E+00  0.3928571E+00  0.1111111E+00  0.6349206E-02
      1         -9.409713   1.000000
      2         -3.572675   0.167311
      3         -3.572580   0.166640
      4         -3.572577   0.166618
      5         -0.093091   0.000000
      6          0.235912   0.000000
      7          0.285757   0.000000
      8          0.437041   0.000000
 
  0.4500000E+00  0.3928571E+00  0.1111111E+00  0.6349206E-02
      1         -9.409714   1.000000
      2         -3.572675   0.167310
      3         -3.572585   0.166672
      4         -3.572578   0.166628
      5         -0.077961   0.000000
      6          0.231059   0.000000
      7          0.277043   0.000000
      8          0.451807   0.000000
 
  0.5000000E-01  0.4642857E+00  0.1111111E+00  0.6349206E-02
      1         -9.409714   1.000000
      2         -3.572702   0.167500
      3         -3.572580   0.166642
      4         -3.572569   0.166561
      5         -0.114689   0.000000
      6          0.137765   0.000000
      7          0.404369   0.000000
      8          0.524486   0.000000
 
  0.1500000E+00  0.4642857E+00  0.1111111E+00  0.6349206E-02
      1         -9.409713   1.000000
      2         -3.572701   0.167496
      3         -3.572577   0.166619
      4         -3.572569   0.166561
      5         -0.105629   0.000000
      6          0.149424   0.000000
      7          0.411265   0.000000
      8          0.488347   0.000000
 
  0.2500000E+00  0.4642857E+00  0.1111111E+00  0.6349206E-02
      1         -9.409713   1.000000
      2         -3.572699   0.167479
      3         -3.572577   0.166620
      4         -3.572573   0.166593
      5         -0.089232   0.000000
      6          0.172040   0.000000
      7          0.381810   0.000000
      8          0.451053   0.000000
 
  0.3500000E+00  0.4642857E+00  0.1111111E+00  0.6349206E-02
      1         -9.409713   1.000000
      2         -3.572696   0.167458
      3         -3.572578   0.166624
      4         -3.572576   0.166609
      5         -0.069840   0.000000
      6          0.203153   0.000000
      7          0.317796   0.000000
      8          0.442459   0.000000
 
  0.4500000E+00  0.4642857E+00  0.1111111E+00  0.6349206E-02
      1         -9.409713   1.000000
      2         -3.572694   0.167450
      3         -3.572581   0.166649
      4         -3.572575   0.166604
      5         -0.055619   0.000000
      6          0.233472   0.000000
      7          0.277967   0.000000
      8          0.390023   0.000000
 
  0.5000000E-01  0.3571429E-01  0.2222222E+00  0.6349206E-02
      1         -9.409712   1.000000
      2         -3.572594   0.166742
      3         -3.572581   0.166650
      4         -3.572468   0.165852
      5         -0.250397   0.000000
      6          0.147244   0.000000
      7          0.433177   0.000000
      8          0.516075   0.000000
 
  0.1500000E+00  0.3571429E-01  0.2222222E+00  0.6349206E-02
      1         -9.409712   1.000000
      2         -3.572594   0.166740
      3         -3.572584   0.166669
      4         -3.572469   0.165855
      5         -0.240735   0.000000
      6          0.157751   0.000000
      7          0.330124   0.000000
      8          0.540866   0.000000
 
  0.2500000E+00  0.3571429E-01  0.2222222E+00  0.6349206E-02
      1         -9.409712   1.000000
      2         -3.572592   0.166721
      3         -3.572591   0.166720
      4         -3.572470   0.165863
      5         -0.223013   0.000000
      6          0.171972   0.000000
      7          0.246946   0.000000
      8          0.529048   0.000000
 
  0.3500000E+00  0.3571429E-01  0.2222222E+00  0.6349206E-02
      1         -9.409713   1.000000
      2         -3.572598   0.166766
      3         -3.572591   0.166715
      4         -3.572470   0.165864
      5         -0.201518   0.000000
      6          0.145897   0.000000
      7          0.234366   0.000000
      8          0.452189   0.000000
 
  0.4500000E+00  0.3571429E-01  0.2222222E+00  0.6349206E-02
      1         -9.409713   1.000000
      2         -3.572604   0.166808
      3         -3.572590   0.166714
      4         -3.572470   0.165862
      5         -0.185215   0.000000
      6          0.109498   0.000000
      7          0.263454   0.000000
      8          0.392656   0.000000
 
  0.5000000E-01  0.1071429E+00  0.2222222E+00  0.6349206E-02
      1         -9.409712   1.000000
      2         -3.572593   0.166734
      3         -3.572580   0.166641
      4         -3.572491   0.166010
      5         -0.241307   0.000000
      6          0.156525   0.000000
      7          0.440785   0.000000
      8          0.519916   0.000000
 
  0.1500000E+00  0.1071429E+00  0.2222222E+00  0.6349206E-02
      1         -9.409712   1.000000
      2         -3.572593   0.166735
      3         -3.572583   0.166659
      4         -3.572491   0.166012
      5         -0.231660   0.000000
      6          0.167020   0.000000
      7          0.338893   0.000000
      8          0.543873   0.000000
 
  0.2500000E+00  0.1071429E+00  0.2222222E+00  0.6349206E-02
      1         -9.409713   1.000000
      2         -3.572591   0.166719
      3         -3.572590   0.166712
      4         -3.572492   0.166016
      5         -0.213968   0.000000
      6          0.181206   0.000000
      7          0.256078   0.000000
      8          0.537431   0.000000
 
  0.3500000E+00  0.1071429E+00  0.2222222E+00  0.6349206E-02
      1         -9.409712   1.000000
      2         -3.572596   0.166750
      3         -3.572589   0.166704
      4         -3.572491   0.166012
      5         -0.192521   0.000000
      6          0.155173   0.000000
      7          0.243585   0.000000
      8          0.461504   0.000000
 
  0.4500000E+00  0.1071429E+00  0.2222222E+00  0.6349206E-02
      1         -9.409713   1.000000
      2         -3.572601   0.166785
      3         -3.572589   0.166705
      4         -3.572491   0.166011
      5         -0.176264   0.000000
      6          0.118870   0.000000
      7          0.272582   0.000000
      8          0.402133   0.000000
 
  0.5000000E-01  0.1785714E+00  0.2222222E+00  0.6349206E-02
      1         -9.409712   1.000000
      2         -3.572589   0.166707
      3         -3.572578   0.166624
      4         -3.572532   0.166304
      5         -0.223460   0.000000
      6          0.174846   0.000000
      7          0.440005   0.000000
      8          0.481985   0.000000
 
  0.1500000E+00  0.1785714E+00  0.2222222E+00  0.6349206E-02
      1         -9.409712   1.000000
      2         -3.572591   0.166718
      3         -3.572579   0.166635
      4         -3.572532   0.166299
      5         -0.213847   0.000000
      6          0.185305   0.000000
      7          0.355449   0.000000
      8          0.476289   0.000000
 
  0.2500000E+00  0.1785714E+00  0.2222222E+00  0.6349206E-02
      1         -9.409713   1.000000
      2         -3.572589   0.166704
      3         -3.572586   0.166682
      4         -3.572532   0.166304
      5         -0.196230   0.000000
      6          0.199382   0.000000
      7          0.274197   0.000000
      8          0.495590   0.000000
 