<?xml version="1.0" encoding="ISO-8859-1"?>
<modeling>
 <generator>
  <i name="program" type="string">vasp </i>
  <i name="version" type="string">6.4.3  </i>
  <i name="subversion" type="string">19Mar24 (build May 31 2024 16:31:43) complex                          parallel </i>
  <i name="platform" type="string">LinuxIFC </i>
  <i name="date" type="string">2024 11 01 </i>
  <i name="time" type="string">16:32:24 </i>
 </generator>
 <incar>
  <i type="string" name="SYSTEM">Convergence</i>
  <i type="int" name="ISTART">     0</i>
  <i type="string" name="PREC">Accurate</i>
  <i type="string" name="ALGO">Normal</i>
  <i type="int" name="ISPIN">     1</i>
  <i type="int" name="ICHARG">     2</i>
  <i type="int" name="NELM">   100</i>
  <i type="int" name="IBRION">    -1</i>
  <i name="EDIFF">      0.00000100</i>
  <i name="EDIFFG">     -0.00100000</i>
  <i type="int" name="NSW">     0</i>
  <i type="int" name="ISIF">     2</i>
  <i name="ENCUT">    380.00000000</i>
  <i name="POTIM">      0.50000000</i>
  <i type="int" name="ISMEAR">     0</i>
  <i name="SIGMA">      0.05000000</i>
  <i type="logical" name="LWAVE"> F  </i>
  <i type="logical" name="LCHARG"> F  </i>
  <i type="string" name="GGA">PE</i>
 </incar>
 <primitive_cell>
  <structure name="primitive_cell" >
   <crystal>
    <varray name="basis" >
     <v>      15.00000000       0.00000000       0.00000000 </v>
     <v>       0.00000000      12.50000000       0.00000000 </v>
     <v>       0.00000000       0.00000000      18.00000000 </v>
    </varray>
    <i name="volume">   3375.00000000 </i>
    <varray name="rec_basis" >
     <v>       0.06666667       0.00000000       0.00000000 </v>
     <v>       0.00000000       0.08000000       0.00000000 </v>
     <v>       0.00000000       0.00000000       0.05555556 </v>
    </varray>
   </crystal>
   <varray name="positions" >
    <v>       0.52123000       0.54500000       0.63796000 </v>
   </varray>
  </structure>
  <varray name="primitive_index" >
   <v type="int" >        1 </v>
  </varray>
 </primitive_cell>
 <kpoints>
  <generation param="Monkhorst-Pack">
   <v type="int" name="divisions">      10       14        9 </v>
   <v name="usershift">      0.00000000       0.00000000       0.00000000 </v>
   <v name="genvec1">      0.10000000       0.00000000       0.00000000 </v>
   <v name="genvec2">      0.00000000       0.07142857       0.00000000 </v>
   <v name="genvec3">      0.00000000       0.00000000       0.11111111 </v>
   <v name="shift">      0.50000000       0.50000000       0.00000000 </v>
  </generation>
  <varray name="kpointlist" >
   <v>       0.05000000       0.03571429       0.00000000 </v>
   <v>       0.15000000       0.03571429       0.00000000 </v>
   <v>       0.25000000       0.03571429       0.00000000 </v>
   <v>       0.35000000       0.03571429       0.00000000 </v>
   <v>       0.45000000       0.03571429       0.00000000 </v>
   <v>       0.05000000       0.10714286       0.00000000 </v>
   <v>       0.15000000       0.10714286       0.00000000 </v>
   <v>       0.25000000       0.10714286       0.00000000 </v>
   <v>       0.35000000       0.10714286       0.00000000 </v>
   <v>       0.45000000       0.10714286       0.00000000 </v>
   <v>       0.05000000       0.17857143       0.00000000 </v>
   <v>       0.15000000       0.17857143       0.00000000 </v>
   <v>       0.25000000       0.17857143       0.00000000 </v>
   <v>       0.35000000       0.17857143       0.00000000 </v>
   <v>       0.45000000       0.17857143       0.00000000 </v>
   <v>       0.05000000       0.25000000       0.00000000 </v>
   <v>       0.15000000       0.25000000       0.00000000 </v>
   <v>       0.25000000       0.25000000       0.00000000 </v>
   <v>       0.35000000       0.25000000       0.00000000 </v>
   <v>       0.45000000       0.25000000       0.00000000 </v>
   <v>       0.05000000       0.32142857       0.00000000 </v>
   <v>       0.15000000       0.32142857       0.00000000 </v>
   <v>       0.25000000       0.32142857       0.00000000 </v>
   <v>       0.35000000       0.32142857       0.00000000 </v>
   <v>       0.45000000       0.32142857       0.00000000 </v>
   <v>       0.05000000       0.39285714       0.00000000 </v>
   <v>       0.15000000       0.39285714       0.00000000 </v>
   <v>       0.25000000       0.39285714       0.00000000 </v>
   <v>       0.35000000       0.39285714       0.00000000 </v>
   <v>       0.45000000       0.39285714       0.00000000 </v>
   <v>       0.05000000       0.46428571       0.00000000 </v>
   <v>       0.15000000       0.46428571       0.00000000 </v>
   <v>       0.25000000       0.46428571       0.00000000 </v>
   <v>       0.35000000       0.46428571       0.00000000 </v>
   <v>       0.45000000       0.46428571       0.00000000 </v>
   <v>       0.05000000       0.03571429       0.11111111 </v>
   <v>       0.15000000       0.03571429       0.11111111 </v>
   <v>       0.25000000       0.03571429       0.11111111 </v>
   <v>       0.35000000       0.03571429       0.11111111 </v>
   <v>       0.45000000       0.03571429       0.11111111 </v>
   <v>       0.05000000       0.10714286       0.11111111 </v>
   <v>       0.15000000       0.10714286       0.11111111 </v>
   <v>       0.25000000       0.10714286       0.11111111 </v>
   <v>       0.35000000       0.10714286       0.11111111 </v>
   <v>       0.45000000       0.10714286       0.11111111 </v>
   <v>       0.05000000       0.17857143       0.11111111 </v>
   <v>       0.15000000       0.17857143       0.11111111 </v>
   <v>       0.25000000       0.17857143       0.11111111 </v>
   <v>       0.35000000       0.17857143       0.11111111 </v>
   <v>       0.45000000       0.17857143       0.11111111 </v>
   <v>       0.05000000       0.25000000       0.11111111 </v>
   <v>       0.15000000       0.25000000       0.11111111 </v>
   <v>       0.25000000       0.25000000       0.11111111 </v>
   <v>       0.35000000       0.25000000       0.11111111 </v>
   <v>       0.45000000       0.25000000       0.11111111 </v>
   <v>       0.05000000       0.32142857       0.11111111 </v>
   <v>       0.15000000       0.32142857       0.11111111 </v>
   <v>       0.25000000       0.32142857       0.11111111 </v>
   <v>       0.35000000       0.32142857       0.11111111 </v>
   <v>       0.45000000       0.32142857       0.11111111 </v>
   <v>       0.05000000       0.39285714       0.11111111 </v>
   <v>       0.15000000       0.39285714       0.11111111 </v>
   <v>       0.25000000       0.39285714       0.11111111 </v>
   <v>       0.35000000       0.39285714       0.11111111 </v>
   <v>       0.45000000       0.39285714       0.11111111 </v>
   <v>       0.05000000       0.46428571       0.11111111 </v>
   <v>       0.15000000       0.46428571       0.11111111 </v>
   <v>       0.25000000       0.46428571       0.11111111 </v>
   <v>       0.35000000       0.46428571       0.11111111 </v>
   <v>       0.45000000       0.46428571       0.11111111 </v>
   <v>       0.05000000       0.03571429       0.22222222 </v>
   <v>       0.15000000       0.03571429       0.22222222 </v>
   <v>       0.25000000       0.03571429       0.22222222 </v>
   <v>       0.35000000       0.03571429       0.22222222 </v>
   <v>       0.45000000       0.03571429       0.22222222 </v>
   <v>       0.05000000       0.10714286       0.22222222 </v>
   <v>       0.15000000       0.10714286       0.22222222 </v>
   <v>       0.25000000       0.10714286       0.22222222 </v>
   <v>       0.35000000       0.10714286       0.22222222 </v>
   <v>       0.45000000       0.10714286       0.22222222 </v>
   <v>       0.05000000       0.17857143       0.22222222 </v>
   <v>       0.15000000       0.17857143       0.22222222 </v>
   <v>       0.25000000       0.17857143       0.22222222 </v>
   <v>       0.35000000       0.17857143       0.22222222 </v>
   <v>       0.45000000       0.17857143       0.22222222 </v>
   <v>       0.05000000       0.25000000       0.22222222 </v>
   <v>       0.15000000       0.25000000       0.22222222 </v>
   <v>       0.25000000       0.25000000       0.22222222 </v>
   <v>       0.35000000       0.25000000       0.22222222 </v>
   <v>       0.45000000       0.25000000       0.22222222 </v>
   <v>       0.05000000       0.32142857       0.22222222 </v>
   <v>       0.15000000       0.32142857       0.22222222 </v>
   <v>       0.25000000       0.32142857       0.22222222 </v>
   <v>       0.35000000       0.32142857       0.22222222 </v>
   <v>       0.45000000       0.32142857       0.22222222 </v>
   <v>       0.05000000       0.39285714       0.22222222 </v>
   <v>       0.15000000       0.39285714       0.22222222 </v>
   <v>       0.25000000       0.39285714       0.22222222 </v>
   <v>       0.35000000       0.39285714       0.22222222 </v>
   <v>       0.45000000       0.39285714       0.22222222 </v>
   <v>       0.05000000       0.46428571       0.22222222 </v>
   <v>       0.15000000       0.46428571       0.22222222 </v>
   <v>       0.25000000       0.46428571       0.22222222 </v>
   <v>       0.35000000       0.46428571       0.22222222 </v>
   <v>       0.45000000       0.46428571       0.22222222 </v>
   <v>       0.05000000       0.03571429       0.33333333 </v>
   <v>       0.15000000       0.03571429       0.33333333 </v>
   <v>       0.25000000       0.03571429       0.33333333 </v>
   <v>       0.35000000       0.03571429       0.33333333 </v>
   <v>       0.45000000       0.03571429       0.33333333 </v>
   <v>       0.05000000       0.10714286       0.33333333 </v>
   <v>       0.15000000       0.10714286       0.33333333 </v>
   <v>       0.25000000       0.10714286       0.33333333 </v>
   <v>       0.35000000       0.10714286       0.33333333 </v>
   <v>       0.45000000       0.10714286       0.33333333 </v>
   <v>       0.05000000       0.17857143       0.33333333 </v>
   <v>       0.15000000       0.17857143       0.33333333 </v>
   <v>       0.25000000       0.17857143       0.33333333 </v>
   <v>       0.35000000       0.17857143       0.33333333 </v>
   <v>       0.45000000       0.17857143       0.33333333 </v>
   <v>       0.05000000       0.25000000       0.33333333 </v>
   <v>       0.15000000       0.25000000       0.33333333 </v>
   <v>       0.25000000       0.25000000       0.33333333 </v>
   <v>       0.35000000       0.25000000       0.33333333 </v>
   <v>       0.45000000       0.25000000       0.33333333 </v>
   <v>       0.05000000       0.32142857       0.33333333 </v>
   <v>       0.15000000       0.32142857       0.33333333 </v>
   <v>       0.25000000       0.32142857       0.33333333 </v>
   <v>       0.35000000       0.32142857       0.33333333 </v>
   <v>       0.45000000       0.32142857       0.33333333 </v>
   <v>       0.05000000       0.39285714       0.33333333 </v>
   <v>       0.15000000       0.39285714       0.33333333 </v>
   <v>       0.25000000       0.39285714       0.33333333 </v>
   <v>       0.35000000       0.39285714       0.33333333 </v>
   <v>       0.45000000       0.39285714       0.33333333 </v>
   <v>       0.05000000       0.46428571       0.33333333 </v>
   <v>       0.15000000       0.46428571       0.33333333 </v>
   <v>       0.25000000       0.46428571       0.33333333 </v>
   <v>       0.35000000       0.46428571       0.33333333 </v>
   <v>       0.45000000       0.46428571       0.33333333 </v>
   <v>       0.05000000       0.03571429       0.44444444 </v>
   <v>       0.15000000       0.03571429       0.44444444 </v>
   <v>       0.25000000       0.03571429       0.44444444 </v>
   <v>       0.35000000       0.03571429       0.44444444 </v>
   <v>       0.45000000       0.03571429       0.44444444 </v>
   <v>       0.05000000       0.10714286       0.44444444 </v>
   <v>       0.15000000       0.10714286       0.44444444 </v>
   <v>       0.25000000       0.10714286       0.44444444 </v>
   <v>       0.35000000       0.10714286       0.44444444 </v>
   <v>       0.45000000       0.10714286       0.44444444 </v>
   <v>       0.05000000       0.17857143       0.44444444 </v>
   <v>       0.15000000       0.17857143       0.44444444 </v>
   <v>       0.25000000       0.17857143       0.44444444 </v>
   <v>       0.35000000       0.17857143       0.44444444 </v>
   <v>       0.45000000       0.17857143       0.44444444 </v>
   <v>       0.05000000       0.25000000       0.44444444 </v>
   <v>       0.15000000       0.25000000       0.44444444 </v>
   <v>       0.25000000       0.25000000       0.44444444 </v>
   <v>       0.35000000       0.25000000       0.44444444 </v>
   <v>       0.45000000       0.25000000       0.44444444 </v>
   <v>       0.05000000       0.32142857       0.44444444 </v>
   <v>       0.15000000       0.32142857       0.44444444 </v>
   <v>       0.25000000       0.32142857       0.44444444 </v>
   <v>       0.35000000       0.32142857       0.44444444 </v>
   <v>       0.45000000       0.32142857       0.44444444 </v>
   <v>       0.05000000       0.39285714       0.44444444 </v>
   <v>       0.15000000       0.39285714       0.44444444 </v>
   <v>       0.25000000       0.39285714       0.44444444 </v>
   <v>       0.35000000       0.39285714       0.44444444 </v>
   <v>       0.45000000       0.39285714       0.44444444 </v>
   <v>       0.05000000       0.46428571       0.44444444 </v>
   <v>       0.15000000       0.46428571       0.44444444 </v>
   <v>       0.25000000       0.46428571       0.44444444 </v>
   <v>       0.35000000       0.46428571       0.44444444 </v>
   <v>       0.45000000       0.46428571       0.44444444 </v>
  </varray>
  <varray name="weights" >
   <v>       0.00317460 </v>
   <v>       0.00317460 </v>
   <v>       0.00317460 </v>
   <v>       0.00317460 </v>
   <v>       0.00317460 </v>
   <v>       0.00317460 </v>
   <v>       0.00317460 </v>
   <v>       0.00317460 </v>
   <v>       0.00317460 </v>
   <v>       0.00317460 </v>
   <v>       0.00317460 </v>
   <v>       0.00317460 </v>
   <v>       0.00317460 </v>
   <v>       0.00317460 </v>
   <v>       0.00317460 </v>
   <v>       0.00317460 </v>
   <v>       0.00317460 </v>
   <v>       0.00317460 </v>
   <v>       0.00317460 </v>
   <v>       0.00317460 </v>
   <v>       0.00317460 </v>
   <v>       0.00317460 </v>
   <v>       0.00317460 </v>
   <v>       0.00317460 </v>
   <v>       0.00317460 </v>
   <v>       0.00317460 </v>
   <v>       0.00317460 </v>
   <v>       0.00317460 </v>
   <v>       0.00317460 </v>
   <v>       0.00317460 </v>
   <v>       0.00317460 </v>
   <v>       0.00317460 </v>
   <v>       0.00317460 </v>
   <v>       0.00317460 </v>
   <v>       0.00317460 </v>
   <v>       0.00634921 </v>
   <v>       0.00634921 </v>
   <v>       0.00634921 </v>
   <v>       0.00634921 </v>
   <v>       0.00634921 </v>
   <v>       0.00634921 </v>
   <v>       0.00634921 </v>
   <v>       0.00634921 </v>
   <v>       0.00634921 </v>
   <v>       0.00634921 </v>
   <v>       0.00634921 </v>
   <v>       0.00634921 </v>
   <v>       0.00634921 </v>
   <v>       0.00634921 </v>
   <v>       0.00634921 </v>
   <v>       0.00634921 </v>
   <v>       0.00634921 </v>
   <v>       0.00634921 </v>
   <v>       0.00634921 </v>
   <v>       0.00634921 </v>
   <v>       0.00634921 </v>
   <v>       0.00634921 </v>
   <v>       0.00634921 </v>
   <v>       0.00634921 </v>
   <v>       0.00634921 </v>
   <v>       0.00634921 </v>
   <v>       0.00634921 </v>
   <v>       0.00634921 </v>
   <v>       0.00634921 </v>
   <v>       0.00634921 </v>
   <v>       0.00634921 </v>
   <v>       0.00634921 </v>
   <v>       0.00634921 </v>
   <v>       0.00634921 </v>
   <v>       0.00634921 </v>
   <v>       0.00634921 </v>
   <v>       0.00634921 </v>
   <v>       0.00634921 </v>
   <v>       0.00634921 </v>
   <v>       0.00634921 </v>
   <v>       0.00634921 </v>
   <v>       0.00634921 </v>
   <v>       0.00634921 </v>
   <v>       0.00634921 </v>
   <v>       0.00634921 </v>
   <v>       0.00634921 </v>
   <v>       0.00634921 </v>
   <v>       0.00634921 </v>
   <v>       0.00634921 </v>
   <v>       0.00634921 </v>
   <v>       0.00634921 </v>
   <v>       0.00634921 </v>
   <v>       0.00634921 </v>
   <v>       0.00634921 </v>
   <v>       0.00634921 </v>
   <v>       0.00634921 </v>
   <v>       0.00634921 </v>
   <v>       0.00634921 </v>
   <v>       0.00634921 </v>
   <v>       0.00634921 </v>
   <v>       0.00634921 </v>
   <v>       0.00634921 </v>
   <v>       0.00634921 </v>
   <v>       0.00634921 </v>
   <v>       0.00634921 </v>
   <v>       0.00634921 </v>
   <v>       0.00634921 </v>
   <v>       0.00634921 </v>
   <v>       0.00634921 </v>
   <v>       0.00634921 </v>
   <v>       0.00634921 </v>
   <v>       0.00634921 </v>
   <v>       0.00634921 </v>
   <v>       0.00634921 </v>
   <v>       0.00634921 </v>
   <v>       0.00634921 </v>
   <v>       0.00634921 </v>
   <v>       0.00634921 </v>
   <v>       0.00634921 </v>
   <v>       0.00634921 </v>
   <v>       0.00634921 </v>
   <v>       0.00634921 </v>
   <v>       0.00634921 </v>
   <v>       0.00634921 </v>
   <v>       0.00634921 </v>
   <v>       0.00634921 </v>
   <v>       0.00634921 </v>
   <v>       0.00634921 </v>
   <v>       0.00634921 </v>
   <v>       0.00634921 </v>
   <v>       0.00634921 </v>
   <v>       0.00634921 </v>
   <v>       0.00634921 </v>
   <v>       0.00634921 </v>
   <v>       0.00634921 </v>
   <v>       0.00634921 </v>
   <v>       0.00634921 </v>
   <v>       0.00634921 </v>
   <v>       0.00634921 </v>
   <v>       0.00634921 </v>
   <v>       0.00634921 </v>
   <v>       0.00634921 </v>
   <v>       0.00634921 </v>
   <v>       0.00634921 </v>
   <v>       0.00634921 </v>
   <v>       0.00634921 </v>
   <v>       0.00634921 </v>
   <v>       0.00634921 </v>
   <v>       0.00634921 </v>
   <v>       0.00634921 </v>
   <v>       0.00634921 </v>
   <v>       0.00634921 </v>
   <v>       0.00634921 </v>
   <v>       0.00634921 </v>
   <v>       0.00634921 </v>
   <v>       0.00634921 </v>
   <v>       0.00634921 </v>
   <v>       0.00634921 </v>
   <v>       0.00634921 </v>
   <v>       0.00634921 </v>
   <v>       0.00634921 </v>
   <v>       0.00634921 </v>
   <v>       0.00634921 </v>
   <v>       0.00634921 </v>
   <v>       0.00634921 </v>
   <v>       0.00634921 </v>
   <v>       0.00634921 </v>
   <v>       0.00634921 </v>
   <v>       0.00634921 </v>
   <v>       0.00634921 </v>
   <v>       0.00634921 </v>
   <v>       0.00634921 </v>
   <v>       0.00634921 </v>
   <v>       0.00634921 </v>
   <v>       0.00634921 </v>
   <v>       0.00634921 </v>
   <v>       0.00634921 </v>
   <v>       0.00634921 </v>
   <v>       0.00634921 </v>
   <v>       0.00634921 </v>
  </varray>
 </kpoints>
 <parameters>
  <separator name="general" >
   <i type="string" name="SYSTEM">Convergence</i>
   <i type="logical" name="LCOMPAT"> F  </i>
  </separator>
  <separator name="electronic" >
   <i type="string" name="PREC">accura</i>
   <i name="ENMAX">    380.00000000</i>
   <i name="ENAUG">    535.51400000</i>
   <i name="EDIFF">      0.00000100</i>
   <i type="int" name="IALGO">    38</i>
   <i type="int" name="IWAVPR">    10</i>
   <i type="int" name="NBANDS">     8</i>
   <i type="int" name="NBANDSLOW">    -1</i>
   <i type="int" name="NBANDSHIGH">    -1</i>
   <i name="NELECT">      3.00000000</i>
   <i type="int" name="TURBO">     0</i>
   <i type="int" name="IRESTART">     0</i>
   <i type="int" name="NREBOOT">     0</i>
   <i type="int" name="NMIN">     0</i>
   <i name="EREF">      0.00000000</i>
   <separator name="electronic smearing" >
    <i type="int" name="ISMEAR">     0</i>
    <i name="SIGMA">      0.05000000</i>
    <i name="KSPACING">      0.50000000</i>
    <i type="logical" name="KGAMMA"> T  </i>
    <i type="logical" name="KBLOWUP"> T  </i>
   </separator>
   <separator name="electronic projectors" >
    <i type="logical" name="LREAL"> F  </i>
    <v name="ROPT">      0.00000000</v>
    <i type="int" name="LMAXPAW">  -100</i>
    <i type="int" name="LMAXMIX">     2</i>
    <i type="logical" name="NLSPLINE"> F  </i>
   </separator>
   <separator name="electronic startup" >
    <i type="int" name="ISTART">     0</i>
    <i type="int" name="ICHARG">     2</i>
    <i type="int" name="INIWAV">     1</i>
   </separator>
   <separator name="electronic spin" >
    <i type="int" name="ISPIN">     1</i>
    <i type="logical" name="LNONCOLLINEAR"> F  </i>
    <v name="MAGMOM">      1.00000000</v>
    <i name="NUPDOWN">     -1.00000000</i>
    <i type="logical" name="LSORBIT"> F  </i>
    <v name="SAXIS">      0.00000000      0.00000000      1.00000000</v>
    <i type="logical" name="LSPIRAL"> F  </i>
    <v name="QSPIRAL">      0.00000000      0.00000000      0.00000000</v>
    <i type="logical" name="LZEROZ"> F  </i>
   </separator>
   <separator name="electronic exchange-correlation" >
    <i type="logical" name="LASPH"> F  </i>
   </separator>
   <separator name="electronic convergence" >
    <i type="int" name="NELM">   100</i>
    <i type="int" name="NELMDL">    -5</i>
    <i type="int" name="NELMIN">     2</i>
    <i name="ENINI">    380.00000000</i>
    <separator name="electronic convergence detail" >
     <i type="logical" name="LDIAG"> T  </i>
     <i type="logical" name="LSUBROT"> F  </i>
     <i name="WEIMIN">      0.00000000</i>
     <i name="EBREAK">      0.00000003</i>
     <i name="DEPER">      0.30000000</i>
     <i type="int" name="NRMM">     4</i>
     <i name="TIME">      0.40000000</i>
    </separator>
   </separator>
   <separator name="electronic mixer" >
    <i name="AMIX">      0.40000000</i>
    <i name="BMIX">      1.00000000</i>
    <i name="AMIN">      0.10000000</i>
    <i name="AMIX_MAG">      1.60000000</i>
    <i name="BMIX_MAG">      1.00000000</i>
    <separator name="electronic mixer details" >
     <i type="int" name="IMIX">     4</i>
     <i type="logical" name="MIXFIRST"> F  </i>
     <i type="int" name="MAXMIX">   -45</i>
     <i name="WC">    100.00000000</i>
     <i type="int" name="INIMIX">     1</i>
     <i type="int" name="MIXPRE">     1</i>
     <i type="int" name="MREMOVE">     5</i>
    </separator>
   </separator>
   <separator name="electronic dipolcorrection" >
    <i type="logical" name="LDIPOL"> F  </i>
    <i type="logical" name="LMONO"> F  </i>
    <i type="int" name="IDIPOL">     0</i>
    <i name="EPSILON">      1.00000000</i>
    <v name="DIPOL">   -100.00000000   -100.00000000   -100.00000000</v>
    <i name="EFIELD">      0.00000000</i>
    <i type="logical" name="LVACPOTAV"> F  </i>
   </separator>
  </separator>
  <separator name="grids" >
   <i type="int" name="NGX">    96</i>
   <i type="int" name="NGY">    80</i>
   <i type="int" name="NGZ">   120</i>
   <i type="int" name="NGXF">   192</i>
   <i type="int" name="NGYF">   160</i>
   <i type="int" name="NGZF">   240</i>
   <i type="logical" name="ADDGRID"> F  </i>
  </separator>
  <separator name="ionic" >
   <i type="int" name="NSW">     0</i>
   <i type="int" name="IBRION">    -1</i>
   <i type="int" name="MDALGO">     0</i>
   <i type="int" name="ISIF">     2</i>
   <i name="PSTRESS">      0.00000000</i>
   <i name="EDIFFG">     -0.00100000</i>
   <i type="int" name="NFREE">     0</i>
   <i name="POTIM">      0.50000000</i>
   <i name="SMASS">     -3.00000000</i>
   <i name="SCALEE">      1.00000000</i>
  </separator>
  <separator name="ionic md" >
   <i name="TEBEG">      0.00010000</i>
   <i name="TEEND">      0.00010000</i>
   <i type="int" name="NBLOCK">     1</i>
   <i type="int" name="KBLOCK">     1</i>
   <i type="int" name="NPACO">   256</i>
   <i name="APACO">     10.00000000</i>
  </separator>
  <separator name="symmetry" >
   <i type="int" name="ISYM">     2</i>
   <i name="SYMPREC">      0.00001000</i>
  </separator>
  <separator name="dos" >
   <i type="int" name="LORBIT">     0</i>
   <v name="RWIGS">     -1.00000000</v>
   <i type="int" name="NEDOS">   301</i>
   <i name="EMIN">     10.00000000</i>
   <i name="EMAX">    -10.00000000</i>
   <i name="EFERMI">      0.00000000</i>
  </separator>
  <separator name="writing" >
   <i type="int" name="NWRITE">     2</i>
   <i type="logical" name="LWAVE"> F  </i>
   <i type="logical" name="LDOWNSAMPLE"> F  </i>
   <i type="logical" name="LCHARG"> F  </i>
   <i type="logical" name="LPARD"> F  </i>
   <i type="logical" name="LVTOT"> F  </i>
   <i type="logical" name="LVHAR"> F  </i>
   <i type="logical" name="LELF"> F  </i>
   <i type="logical" name="LOPTICS"> F  </i>
   <v name="STM">      0.00000000      0.00000000      0.00000000      0.00000000      0.00000000      0.00000000      0.00000000</v>
  </separator>
  <separator name="performance" >
   <i type="int" name="NPAR">     8</i>
   <i type="int" name="NSIM">     4</i>
   <i type="int" name="NBLK">    -1</i>
   <i type="logical" name="LPLANE"> T  </i>
   <i type="logical" name="LSCALAPACK"> T  </i>
   <i type="logical" name="LSCAAWARE"> F  </i>
   <i type="logical" name="LSCALU"> F  </i>
   <i type="logical" name="LASYNC"> F  </i>
   <i type="logical" name="LORBITALREAL"> F  </i>
  </separator>
  <separator name="miscellaneous" >
   <i type="int" name="IDIOT">     3</i>
   <i type="int" name="PHON_NSTRUCT">    -1</i>
   <i type="logical" name="LMUSIC"> F  </i>
   <v name="POMASS">     10.81100000</v>
   <v name="DARWINR">      0.00000000</v>
   <v name="DARWINV">      1.00000000</v>
   <i type="logical" name="LCORR"> T  </i>
  </separator>
  <i type="logical" name="GGA_COMPAT"> T  </i>
  <i type="logical" name="LBERRY"> F  </i>
  <i type="int" name="ICORELEVEL">     0</i>
  <i type="logical" name="LDAU"> F  </i>
  <i type="int" name="I_CONSTRAINED_M">     0</i>
  <separator name="electronic exchange-correlation" >
   <i type="string" name="GGA    ">PE</i>
   <i type="string" name="XC_C">1</i>
   <i type="int" name="VOSKOWN">     0</i>
   <i type="logical" name="LHFCALC"> F  </i>
   <i type="string" name="PRECFOCK"></i>
   <i type="logical" name="LSYMGRAD"> F  </i>
   <i type="logical" name="LHFONE"> F  </i>
   <i type="logical" name="LRHFCALC"> F  </i>
   <i type="logical" name="LTHOMAS"> F  </i>
   <i type="logical" name="LMODELHF"> F  </i>
   <i type="logical" name="LFOCKACE"> F  </i>
   <i name="ENCUT4O">     -1.00000000</i>
   <i type="int" name="EXXOEP">     0</i>
   <i type="int" name="FOURORBIT">     0</i>
   <i name="AEXX">      0.00000000</i>
   <i name="HFALPHA">      0.00000000</i>
   <i name="MCALPHA">      0.00000000</i>
   <i name="ALDAX">      1.00000000</i>
   <i name="AGGAX">      1.00000000</i>
   <i name="AMGGAX">      1.00000000</i>
   <i name="ALDAC">      1.00000000</i>
   <i name="AGGAC">      1.00000000</i>
   <i name="AMGGAC">      1.00000000</i>
   <i type="int" name="NKREDX">     1</i>
   <i type="int" name="NKREDY">     1</i>
   <i type="int" name="NKREDZ">     1</i>
   <i type="logical" name="SHIFTRED"> F  </i>
   <i type="logical" name="ODDONLY"> F  </i>
   <i type="logical" name="EVENONLY"> F  </i>
   <i type="int" name="LMAXFOCK">     0</i>
   <i type="int" name="NMAXFOCKAE">     0</i>
   <i type="logical" name="LFOCKAEDFT"> F  </i>
   <i name="HFSCREEN">      0.00000000</i>
   <i name="HFSCREENC">      0.00000000</i>
   <i type="int" name="NBANDSGWLOW">     0</i>
  </separator>
  <separator name="vdW DFT" >
   <i type="logical" name="LUSE_VDW"> F  </i>
   <i type="int" name="IVDW_NL">    -1</i>
   <i type="logical" name="LSPIN_VDW"> F  </i>
   <i name="ZAB_VDW">     -0.84910000</i>
   <i name="GAMMA_VDW">      1.39626340</i>
   <i name="ALPHA_VDW">      0.00000000</i>
   <i name="PARAM1">      0.12340000</i>
   <i name="PARAM2">      1.00000000</i>
   <i name="BPARAM">      6.30000000</i>
   <i name="CPARAM">      0.00930000</i>
  </separator>
  <separator name="model GW" >
   <i type="int" name="MODEL_GW">     0</i>
   <i name="MODEL_EPS0">   2025.00000000</i>
   <i name="MODEL_ALPHA">      1.00000000</i>
  </separator>
  <separator name="linear response parameters" >
   <i type="logical" name="LEPSILON"> F  </i>
   <i type="logical" name="LRPA"> F  </i>
   <i type="logical" name="LNABLA"> F  </i>
   <i type="logical" name="LVEL"> F  </i>
   <i name="CSHIFT">      0.10000000</i>
   <i name="OMEGAMAX">     -1.00000000</i>
   <i name="DEG_THRESHOLD">      0.00200000</i>
   <i name="RTIME">     -0.10000000</i>
   <i name="WPLASMAI">      0.00000000</i>
   <v name="DFIELD">      0.00000000      0.00000000      0.00000000</v>
   <v name="WPLASMA">      0.00000000      0.00000000      0.00000000      0.00000000      0.00000000      0.00000000      0.00000000      0.00000000      0.00000000</v>
  </separator>
  <separator name="orbital magnetization" >
   <i type="logical" name="NUCIND"> F  </i>
   <v name="MAGPOS">      0.00000000      0.00000000      0.00000000</v>
   <i type="logical" name="LNICSALL"> T  </i>
   <i type="logical" name="ORBITALMAG"> F  </i>
   <i type="logical" name="LMAGBLOCH"> F  </i>
   <i type="logical" name="LCHIMAG"> F  </i>
   <i type="logical" name="LGAUGE"> T  </i>
   <i type="int" name="MAGATOM">     0</i>
   <v name="MAGDIPOL">      0.00000000      0.00000000      0.00000000</v>
   <v name="AVECCONST">      0.00000000      0.00000000      0.00000000</v>
  </separator>
  <separator name="response functions" >
   <i type="logical" name="LALL_IN_ONE"> F  </i>
   <i type="int" name="IALL_IN_ONE">    -1</i>
   <i type="int" name="NBANDS_WAVE">    -1</i>
   <i type="logical" name="LFINITE_TEMPERATURE"> F  </i>
   <i type="logical" name="LADDER"> F  </i>
   <i type="logical" name="LRPAFORCE"> F  </i>
   <i type="logical" name="LFXC"> F  </i>
   <i type="logical" name="LHARTREE"> T  </i>
   <i type="int" name="IBSE">     0</i>
   <v type="int" name="KPOINT">    -1     0     0     0</v>
   <i type="logical" name="LTCTC"> F  </i>
   <i type="logical" name="LTCTE"> F  </i>
   <i type="logical" name="LTETE"> F  </i>
   <i type="logical" name="LTRIPLET"> F  </i>
   <i type="logical" name="LFXCEPS"> F  </i>
   <i type="logical" name="LFXHEG"> F  </i>
   <i type="int" name="NATURALO">     2</i>
   <i type="logical" name="LHOLEGF"> F  </i>
   <i type="logical" name="L2ORDER"> F  </i>
   <i type="logical" name="LDMP1"> F  </i>
   <i type="logical" name="LMP2LT"> F  </i>
   <i type="logical" name="LSMP2LT"> F  </i>
   <i type="logical" name="LGWLF"> F  </i>
   <i name="ENCUTGW">     -1.60000002</i>
   <i name="ENCUTGWSOFT">     -1.60000002</i>
   <i name="ENCUTLF">     -1.00000000</i>
   <i type="logical" name="ESF_SPLINES"> F  </i>
   <i name="ESF_CONV">      0.01000000</i>
   <i type="int" name="ESF_NINTER">    15</i>
   <i type="int" name="LMAXMP2">    -1</i>
   <i name="SCISSOR">      0.00000000</i>
   <i type="int" name="NOMEGA">     0</i>
   <i type="int" name="NOMEGAR">     0</i>
   <i type="int" name="NBANDSGW">    -1</i>
   <i type="int" name="NBANDSO">    -1</i>
   <i type="int" name="NBANDSV">    -1</i>
   <i type="int" name="NELMGW">     1</i>
   <i type="int" name="NELMHF">     1</i>
   <i type="int" name="DIM">     3</i>
   <i type="int" name="IESPILON">     4</i>
   <i type="int" name="ANTIRES">     0</i>
   <i name="OMEGAMAX">    -30.00000000</i>
   <i name="OMEGAMIN">    -30.00000000</i>
   <i name="OMEGATL">   -200.00000000</i>
   <i type="int" name="OMEGAGRID">     0</i>
   <i name="CSHIFT">     -0.10000000</i>
   <i type="logical" name="LSELFENERGY"> F  </i>
   <i type="logical" name="LSPECTRAL"> F  </i>
   <i type="logical" name="LSPECTRALGW"> F  </i>
   <i type="logical" name="LSINGLES"> F  </i>
   <i type="logical" name="LFERMIGW"> F  </i>
   <i type="logical" name="ODDONLYGW"> F  </i>
   <i type="logical" name="EVENONLYGW"> F  </i>
   <i type="int" name="NKREDLFX">     1</i>
   <i type="int" name="NKREDLFY">     1</i>
   <i type="int" name="NKREDLFZ">     1</i>
   <i type="int" name="MAXMEM">  2800</i>
   <i type="int" name="TELESCOPE">     0</i>
   <i type="int" name="NTAUPAR">    -1</i>
   <i type="int" name="NOMEGAPAR">    -1</i>
   <i name="DAMP_NEWTON">      0.80000001</i>
   <i name="LAMBDA">      1.00000000</i>
  </separator>
  <separator name="External order field" >
   <i name="OFIELD_KAPPA">      0.00000000</i>
   <v name="OFIELD_K">      0.00000000      0.00000000      0.00000000</v>
   <i name="OFIELD_Q6_NEAR">      0.00000000</i>
   <i name="OFIELD_Q6_FAR">      0.00000000</i>
   <i name="OFIELD_A">      0.00000000</i>
  </separator>
  <separator name="optional k-points parameters" >
   <i type="int" name="KPOINTS_OPT_MODE">     1</i>
   <i type="logical" name="LKPOINTS_OPT"> F  </i>
  </separator>
 </parameters>
 <atominfo>
  <atoms>       1 </atoms>
  <types>       1 </types>
  <array name="atoms" >
   <dimension dim="1">ion</dimension>
   <field type="string">element</field>
   <field type="int">atomtype</field>
   <set>
    <rc><c>B </c><c>   1</c></rc>
   </set>
  </array>
  <array name="atomtypes" >
   <dimension dim="1">type</dimension>
   <field type="int">atomspertype</field>
   <field type="string">element</field>
   <field>mass</field>
   <field>valence</field>
   <field type="string">pseudopotential</field>
   <set>
    <rc><c>   1</c><c>B </c><c>     10.81100000</c><c>      3.00000000</c><c>  PAW_PBE B 06Sep2000                   </c></rc>
   </set>
  </array>
 </atominfo>
 <structure name="initialpos" >
  <crystal>
   <varray name="basis" >
    <v>      15.00000000       0.00000000       0.00000000 </v>
    <v>       0.00000000      12.50000000       0.00000000 </v>
    <v>       0.00000000       0.00000000      18.00000000 </v>
   </varray>
   <i name="volume">   3375.00000000 </i>
   <varray name="rec_basis" >
    <v>       0.06666667       0.00000000       0.00000000 </v>
    <v>       0.00000000       0.08000000       0.00000000 </v>
    <v>       0.00000000       0.00000000       0.05555556 </v>
   </varray>
  </crystal>
  <varray name="positions" >
   <v>       0.52123000       0.54500000       0.63796000 </v>
  </varray>
 </structure>
 <calculation>
  <scstep>
   <time name="dav">   28.00   28.06</time>
   <time name="total">   28.59   28.65</time>
   <energy>
    <i name="alphaZ">      0.02038373 </i>
    <i name="ewald">    -11.82901664 </i>
    <i name="hartreedc">    -42.58396533 </i>
    <i name="XCdc">      4.75549655 </i>
    <i name="pawpsdc">     43.49986551 </i>
    <i name="pawaedc">    -42.64454556 </i>
    <i name="eentropy">     -0.01012519 </i>
    <i name="bandstr">    -15.63737812 </i>
    <i name="atom">     71.16789707 </i>
    <i name="e_fr_energy">      6.73861202 </i>
    <i name="e_wo_entrp">      6.74873721 </i>
    <i name="e_0_energy">      6.74367462 </i>
   </energy>
  </scstep>
  <scstep>
   <time name="dav">   43.12   43.21</time>
   <time name="total">   43.12   43.22</time>
   <energy>
    <i name="e_fr_energy">      0.38709694 </i>
    <i name="e_wo_entrp">      0.39321435 </i>
    <i name="e_0_energy">      0.39015564 </i>
   </energy>
  </scstep>
  <scstep>
   <time name="dav">   33.72   33.81</time>
   <time name="total">   33.73   33.82</time>
   <energy>
    <i name="e_fr_energy">     -0.03675362 </i>
    <i name="e_wo_entrp">      0.00785647 </i>
    <i name="e_0_energy">     -0.01444857 </i>
   </energy>
  </scstep>
  <scstep>
   <time name="dav">   28.08   28.17</time>
   <time name="total">   28.08   28.17</time>
   <energy>
    <i name="e_fr_energy">     -0.05727284 </i>
    <i name="e_wo_entrp">     -0.00430782 </i>
    <i name="e_0_energy">     -0.03079033 </i>
   </energy>
  </scstep>
  <scstep>
   <time name="dav">   34.34   34.42</time>
   <time name="total">   38.66   38.75</time>
   <energy>
    <i name="e_fr_energy">     -0.05815871 </i>
    <i name="e_wo_entrp">     -0.00515747 </i>
    <i name="e_0_energy">     -0.03165809 </i>
   </energy>
  </scstep>
  <scstep>
   <time name="dav">   36.74   36.81</time>
   <time name="total">   41.61   41.69</time>
   <energy>
    <i name="e_fr_energy">     -0.05818902 </i>
    <i name="e_wo_entrp">     -0.00518768 </i>
    <i name="e_0_energy">     -0.03168835 </i>
   </energy>
  </scstep>
  <scstep>
   <time name="dav">   34.39   34.48</time>
   <time name="total">   39.18   39.27</time>
   <energy>
    <i name="e_fr_energy">     -0.05820207 </i>
    <i name="e_wo_entrp">     -0.00520073 </i>
    <i name="e_0_energy">     -0.03170140 </i>
   </energy>
  </scstep>
  <scstep>
   <time name="dav">   33.26   33.32</time>
   <time name="total">   38.12   38.19</time>
   <energy>
    <i name="e_fr_energy">     -0.05820455 </i>
    <i name="e_wo_entrp">     -0.00520321 </i>
    <i name="e_0_energy">     -0.03170388 </i>
   </energy>
  </scstep>
  <scstep>
   <time name="dav">   40.51   40.59</time>
   <time name="total">   41.25   41.32</time>
   <energy>
    <i name="alphaZ">      0.02038373 </i>
    <i name="ewald">    -11.82901664 </i>
    <i name="hartreedc">    -42.58285885 </i>
    <i name="XCdc">      4.75549046 </i>
    <i name="pawpsdc">     43.80902961 </i>
    <i name="pawaedc">    -42.95411913 </i>
    <i name="eentropy">     -0.05300134 </i>
    <i name="bandstr">    -22.39200947 </i>
    <i name="atom">     71.16789707 </i>
    <i name="e_fr_energy">     -0.05820456 </i>
    <i name="e_wo_entrp">     -0.00520322 </i>
    <i name="e_0_energy">     -0.03170389 </i>
   </energy>
  </scstep>
  <structure>
   <crystal>
    <varray name="basis" >
     <v>      15.00000000       0.00000000       0.00000000 </v>
     <v>       0.00000000      12.50000000       0.00000000 </v>
     <v>       0.00000000       0.00000000      18.00000000 </v>
    </varray>
    <i name="volume">   3375.00000000 </i>
    <varray name="rec_basis" >
     <v>       0.06666667       0.00000000       0.00000000 </v>
     <v>       0.00000000       0.08000000       0.00000000 </v>
     <v>       0.00000000       0.00000000       0.05555556 </v>
    </varray>
   </crystal>
   <varray name="positions" >
    <v>       0.52123000       0.54500000       0.63796000 </v>
   </varray>
  </structure>
  <varray name="forces" >
   <v>       0.00000000       0.00000000       0.00000000 </v>
  </varray>
  <varray name="stress" >
   <v>      -0.00357763       0.00000000       0.00000000 </v>
   <v>       0.00000000      -0.00359647       0.00000000 </v>
   <v>       0.00000000       0.00000000      -0.00358591 </v>
  </varray>
  <energy>
   <i name="e_fr_energy">     -0.05820456 </i>
   <i name="e_wo_entrp">     -0.00520322 </i>
   <i name="e_0_energy">     -0.03170389 </i>
  </energy>
  <time name="totalsc">  367.44  368.20</time>
  <eigenvalues>
   <array>
    <dimension dim="1">band</dimension>
    <dimension dim="2">kpoint</dimension>
    <dimension dim="3">spin</dimension>
    <field>eigene</field>
    <field>occ</field>
    <set>
     <set comment="spin 1">
      <set comment="kpoint 1">
       <r>   -9.4097    1.0000 </r>
       <r>   -3.5726    0.1667 </r>
       <r>   -3.5726    0.1666 </r>
       <r>   -3.5725    0.1659 </r>
       <r>   -0.2616    0.0000 </r>
       <r>    0.2953    0.0000 </r>
       <r>    0.3101    0.0000 </r>
       <r>    0.4399    0.0000 </r>
      </set>
      <set comment="kpoint 2">
       <r>   -9.4097    1.0000 </r>
       <r>   -3.5726    0.1667 </r>
       <r>   -3.5726    0.1667 </r>
       <r>   -3.5725    0.1659 </r>
       <r>   -0.2518    0.0000 </r>
       <r>    0.2692    0.0000 </r>
       <r>    0.3213    0.0000 </r>
       <r>    0.3755    0.0000 </r>
      </set>
      <set comment="kpoint 3">
       <r>   -9.4097    1.0000 </r>
       <r>   -3.5726    0.1667 </r>
       <r>   -3.5726    0.1667 </r>
       <r>   -3.5725    0.1659 </r>
       <r>   -0.2336    0.0000 </r>
       <r>    0.1992    0.0000 </r>
       <r>    0.3429    0.0000 </r>
       <r>    0.3778    0.0000 </r>
      </set>
      <set comment="kpoint 4">
       <r>   -9.4097    1.0000 </r>
       <r>   -3.5726    0.1668 </r>
       <r>   -3.5726    0.1668 </r>
       <r>   -3.5725    0.1659 </r>
       <r>   -0.2114    0.0000 </r>
       <r>    0.1315    0.0000 </r>
       <r>    0.3720    0.0000 </r>
       <r>    0.4093    0.0000 </r>
      </set>
      <set comment="kpoint 5">
       <r>   -9.4097    1.0000 </r>
       <r>   -3.5726    0.1668 </r>
       <r>   -3.5726    0.1667 </r>
       <r>   -3.5725    0.1659 </r>
       <r>   -0.1944    0.0000 </r>
       <r>    0.0904    0.0000 </r>
       <r>    0.3985    0.0000 </r>
       <r>    0.4483    0.0000 </r>
      </set>
      <set comment="kpoint 6">
       <r>   -9.4097    1.0000 </r>
       <r>   -3.5726    0.1667 </r>
       <r>   -3.5726    0.1666 </r>
       <r>   -3.5725    0.1660 </r>
       <r>   -0.2525    0.0000 </r>
       <r>    0.3034    0.0000 </r>
       <r>    0.3190    0.0000 </r>
       <r>    0.4488    0.0000 </r>
      </set>
      <set comment="kpoint 7">
       <r>   -9.4097    1.0000 </r>
       <r>   -3.5726    0.1667 </r>
       <r>   -3.5726    0.1666 </r>
       <r>   -3.5725    0.1660 </r>
       <r>   -0.2427    0.0000 </r>
       <r>    0.2777    0.0000 </r>
       <r>    0.3303    0.0000 </r>
       <r>    0.3845    0.0000 </r>
      </set>
      <set comment="kpoint 8">
       <r>   -9.4097    1.0000 </r>
       <r>   -3.5726    0.1667 </r>
       <r>   -3.5726    0.1667 </r>
       <r>   -3.5725    0.1660 </r>
       <r>   -0.2246    0.0000 </r>
       <r>    0.2083    0.0000 </r>
       <r>    0.3518    0.0000 </r>
       <r>    0.3864    0.0000 </r>
      </set>
      <set comment="kpoint 9">
       <r>   -9.4097    1.0000 </r>
       <r>   -3.5726    0.1668 </r>
       <r>   -3.5726    0.1667 </r>
       <r>   -3.5725    0.1660 </r>
       <r>   -0.2024    0.0000 </r>
       <r>    0.1408    0.0000 </r>
       <r>    0.3808    0.0000 </r>
       <r>    0.4178    0.0000 </r>
      </set>
      <set comment="kpoint 10">
       <r>   -9.4097    1.0000 </r>
       <r>   -3.5726    0.1668 </r>
       <r>   -3.5726    0.1667 </r>
       <r>   -3.5725    0.1660 </r>
       <r>   -0.1854    0.0000 </r>
       <r>    0.0998    0.0000 </r>
       <r>    0.4072    0.0000 </r>
       <r>    0.4566    0.0000 </r>
      </set>
      <set comment="kpoint 11">
       <r>   -9.4097    1.0000 </r>
       <r>   -3.5726    0.1667 </r>
       <r>   -3.5726    0.1666 </r>
       <r>   -3.5725    0.1663 </r>
       <r>   -0.2346    0.0000 </r>
       <r>    0.3161    0.0000 </r>
       <r>    0.3369    0.0000 </r>
       <r>    0.4625    0.0000 </r>
      </set>
      <set comment="kpoint 12">
       <r>   -9.4097    1.0000 </r>
       <r>   -3.5726    0.1667 </r>
       <r>   -3.5726    0.1666 </r>
       <r>   -3.5725    0.1663 </r>
       <r>   -0.2248    0.0000 </r>
       <r>    0.2928    0.0000 </r>
       <r>    0.3480    0.0000 </r>
       <r>    0.4008    0.0000 </r>
      </set>
      <set comment="kpoint 13">
       <r>   -9.4097    1.0000 </r>
       <r>   -3.5726    0.1667 </r>
       <r>   -3.5726    0.1667 </r>
       <r>   -3.5725    0.1663 </r>
       <r>   -0.2067    0.0000 </r>
       <r>    0.2259    0.0000 </r>
       <r>    0.3695    0.0000 </r>
       <r>    0.4002    0.0000 </r>
      </set>
      <set comment="kpoint 14">
       <r>   -9.4097    1.0000 </r>
       <r>   -3.5726    0.1667 </r>
       <r>   -3.5726    0.1667 </r>
       <r>   -3.5725    0.1663 </r>
       <r>   -0.1847    0.0000 </r>
       <r>    0.1592    0.0000 </r>
       <r>    0.3983    0.0000 </r>
       <r>    0.4304    0.0000 </r>
      </set>
      <set comment="kpoint 15">
       <r>   -9.4097    1.0000 </r>
       <r>   -3.5726    0.1668 </r>
       <r>   -3.5726    0.1667 </r>
       <r>   -3.5725    0.1663 </r>
       <r>   -0.1678    0.0000 </r>
       <r>    0.1185    0.0000 </r>
       <r>    0.4242    0.0000 </r>
       <r>    0.4673    0.0000 </r>
      </set>
      <set comment="kpoint 16">
       <r>   -9.4097    1.0000 </r>
       <r>   -3.5726    0.1667 </r>
       <r>   -3.5726    0.1667 </r>
       <r>   -3.5726    0.1666 </r>
       <r>   -0.2086    0.0000 </r>
       <r>    0.3076    0.0000 </r>
       <r>    0.3633    0.0000 </r>
       <r>    0.4007    0.0000 </r>
      </set>
      <set comment="kpoint 17">
       <r>   -9.4097    1.0000 </r>
       <r>   -3.5726    0.1667 </r>
       <r>   -3.5726    0.1667 </r>
       <r>   -3.5726    0.1666 </r>
       <r>   -0.1989    0.0000 </r>
       <r>    0.3006    0.0000 </r>
       <r>    0.3743    0.0000 </r>
       <r>    0.3847    0.0000 </r>
      </set>
      <set comment="kpoint 18">
       <r>   -9.4097    1.0000 </r>
       <r>   -3.5726    0.1667 </r>
       <r>   -3.5726    0.1667 </r>
       <r>   -3.5726    0.1667 </r>
       <r>   -0.1810    0.0000 </r>
       <r>    0.2499    0.0000 </r>
       <r>    0.3748    0.0000 </r>
       <r>    0.3956    0.0000 </r>
      </set>
      <set comment="kpoint 19">
       <r>   -9.4097    1.0000 </r>
       <r>   -3.5726    0.1667 </r>
       <r>   -3.5726    0.1667 </r>
       <r>   -3.5726    0.1667 </r>
       <r>   -0.1592    0.0000 </r>
       <r>    0.1863    0.0000 </r>
       <r>    0.3974    0.0000 </r>
       <r>    0.4240    0.0000 </r>
      </set>
      <set comment="kpoint 20">
       <r>   -9.4097    1.0000 </r>
       <r>   -3.5726    0.1667 </r>
       <r>   -3.5726    0.1667 </r>
       <r>   -3.5726    0.1667 </r>
       <r>   -0.1426    0.0000 </r>
       <r>    0.1465    0.0000 </r>
       <r>    0.4221    0.0000 </r>
       <r>    0.4494    0.0000 </r>
      </set>
      <set comment="kpoint 21">
       <r>   -9.4097    1.0000 </r>
       <r>   -3.5726    0.1670 </r>
       <r>   -3.5726    0.1666 </r>
       <r>   -3.5726    0.1666 </r>
       <r>   -0.1764    0.0000 </r>
       <r>    0.2432    0.0000 </r>
       <r>    0.3974    0.0000 </r>
       <r>    0.4151    0.0000 </r>
      </set>
      <set comment="kpoint 22">
       <r>   -9.4097    1.0000 </r>
       <r>   -3.5726    0.1670 </r>
       <r>   -3.5726    0.1666 </r>
       <r>   -3.5726    0.1666 </r>
       <r>   -0.1668    0.0000 </r>
       <r>    0.2520    0.0000 </r>
       <r>    0.3846    0.0000 </r>
       <r>    0.4084    0.0000 </r>
      </set>
      <set comment="kpoint 23">
       <r>   -9.4097    1.0000 </r>
       <r>   -3.5726    0.1670 </r>
       <r>   -3.5726    0.1666 </r>
       <r>   -3.5726    0.1666 </r>
       <r>   -0.1493    0.0000 </r>
       <r>    0.2585    0.0000 </r>
       <r>    0.3217    0.0000 </r>
       <r>    0.4293    0.0000 </r>
      </set>
      <set comment="kpoint 24">
       <r>   -9.4097    1.0000 </r>
       <r>   -3.5726    0.1670 </r>
       <r>   -3.5726    0.1667 </r>
       <r>   -3.5726    0.1667 </r>
       <r>   -0.1280    0.0000 </r>
       <r>    0.2199    0.0000 </r>
       <r>    0.3197    0.0000 </r>
       <r>    0.4570    0.0000 </r>
      </set>
      <set comment="kpoint 25">
       <r>   -9.4097    1.0000 </r>
       <r>   -3.5726    0.1670 </r>
       <r>   -3.5726    0.1667 </r>
       <r>   -3.5726    0.1667 </r>
       <r>   -0.1118    0.0000 </r>
       <r>    0.1831    0.0000 </r>
       <r>    0.3407    0.0000 </r>
       <r>    0.4815    0.0000 </r>
      </set>
      <set comment="kpoint 26">
       <r>   -9.4097    1.0000 </r>
       <r>   -3.5727    0.1673 </r>
       <r>   -3.5726    0.1666 </r>
       <r>   -3.5726    0.1666 </r>
       <r>   -0.1424    0.0000 </r>
       <r>    0.1762    0.0000 </r>
       <r>    0.4370    0.0000 </r>
       <r>    0.4575    0.0000 </r>
      </set>
      <set comment="kpoint 27">
       <r>   -9.4097    1.0000 </r>
       <r>   -3.5727    0.1673 </r>
       <r>   -3.5726    0.1666 </r>
       <r>   -3.5726    0.1666 </r>
       <r>   -0.1331    0.0000 </r>
       <r>    0.1872    0.0000 </r>
       <r>    0.4221    0.0000 </r>
       <r>    0.4476    0.0000 </r>
      </set>
      <set comment="kpoint 28">
       <r>   -9.4097    1.0000 </r>
       <r>   -3.5727    0.1673 </r>
       <r>   -3.5726    0.1666 </r>
       <r>   -3.5726    0.1666 </r>
       <r>   -0.1160    0.0000 </r>
       <r>    0.2080    0.0000 </r>
       <r>    0.3449    0.0000 </r>
       <r>    0.4679    0.0000 </r>
      </set>
      <set comment="kpoint 29">
       <r>   -9.4097    1.0000 </r>
       <r>   -3.5727    0.1673 </r>
       <r>   -3.5726    0.1666 </r>
       <r>   -3.5726    0.1666 </r>
       <r>   -0.0955    0.0000 </r>
       <r>    0.2321    0.0000 </r>
       <r>    0.2817    0.0000 </r>
       <r>    0.4963    0.0000 </r>
      </set>
      <set comment="kpoint 30">
       <r>   -9.4097    1.0000 </r>
       <r>   -3.5727    0.1673 </r>
       <r>   -3.5726    0.1667 </r>
       <r>   -3.5726    0.1667 </r>
       <r>   -0.0802    0.0000 </r>
       <r>    0.2264    0.0000 </r>
       <r>    0.2735    0.0000 </r>
       <r>    0.4473    0.0000 </r>
      </set>
      <set comment="kpoint 31">
       <r>   -9.4097    1.0000 </r>
       <r>   -3.5727    0.1675 </r>
       <r>   -3.5726    0.1666 </r>
       <r>   -3.5726    0.1666 </r>
       <r>   -0.1172    0.0000 </r>
       <r>    0.1333    0.0000 </r>
       <r>    0.4720    0.0000 </r>
       <r>    0.5059    0.0000 </r>
      </set>
      <set comment="kpoint 32">
       <r>   -9.4097    1.0000 </r>
       <r>   -3.5727    0.1675 </r>
       <r>   -3.5726    0.1666 </r>
       <r>   -3.5726    0.1666 </r>
       <r>   -0.1081    0.0000 </r>
       <r>    0.1450    0.0000 </r>
       <r>    0.4622    0.0000 </r>
       <r>    0.4822    0.0000 </r>
      </set>
      <set comment="kpoint 33">
       <r>   -9.4097    1.0000 </r>
       <r>   -3.5727    0.1675 </r>
       <r>   -3.5726    0.1666 </r>
       <r>   -3.5726    0.1666 </r>
       <r>   -0.0916    0.0000 </r>
       <r>    0.1677    0.0000 </r>
       <r>    0.3819    0.0000 </r>
       <r>    0.5016    0.0000 </r>
      </set>
      <set comment="kpoint 34">
       <r>   -9.4097    1.0000 </r>
       <r>   -3.5727    0.1675 </r>
       <r>   -3.5726    0.1666 </r>
       <r>   -3.5726    0.1666 </r>
       <r>   -0.0721    0.0000 </r>
       <r>    0.1990    0.0000 </r>
       <r>    0.3139    0.0000 </r>
       <r>    0.4382    0.0000 </r>
      </set>
      <set comment="kpoint 35">
       <r>   -9.4097    1.0000 </r>
       <r>   -3.5727    0.1674 </r>
       <r>   -3.5726    0.1666 </r>
       <r>   -3.5726    0.1666 </r>
       <r>   -0.0577    0.0000 </r>
       <r>    0.2296    0.0000 </r>
       <r>    0.2735    0.0000 </r>
       <r>    0.3849    0.0000 </r>
      </set>
      <set comment="kpoint 36">
       <r>   -9.4097    1.0000 </r>
       <r>   -3.5726    0.1667 </r>
       <r>   -3.5726    0.1667 </r>
       <r>   -3.5725    0.1659 </r>
       <r>   -0.2586    0.0000 </r>
       <r>    0.2184    0.0000 </r>
       <r>    0.3882    0.0000 </r>
       <r>    0.4533    0.0000 </r>
      </set>
      <set comment="kpoint 37">
       <r>   -9.4097    1.0000 </r>
       <r>   -3.5726    0.1667 </r>
       <r>   -3.5726    0.1667 </r>
       <r>   -3.5725    0.1659 </r>
       <r>   -0.2488    0.0000 </r>
       <r>    0.2236    0.0000 </r>
       <r>    0.3194    0.0000 </r>
       <r>    0.4396    0.0000 </r>
      </set>
      <set comment="kpoint 38">
       <r>   -9.4097    1.0000 </r>
       <r>   -3.5726    0.1667 </r>
       <r>   -3.5726    0.1667 </r>
       <r>   -3.5725    0.1659 </r>
       <r>   -0.2308    0.0000 </r>
       <r>    0.1972    0.0000 </r>
       <r>    0.2799    0.0000 </r>
       <r>    0.4594    0.0000 </r>
      </set>
      <set comment="kpoint 39">
       <r>   -9.4097    1.0000 </r>
       <r>   -3.5726    0.1668 </r>
       <r>   -3.5726    0.1667 </r>
       <r>   -3.5725    0.1659 </r>
       <r>   -0.2087    0.0000 </r>
       <r>    0.1355    0.0000 </r>
       <r>    0.3025    0.0000 </r>
       <r>    0.4881    0.0000 </r>
      </set>
      <set comment="kpoint 40">
       <r>   -9.4097    1.0000 </r>
       <r>   -3.5726    0.1668 </r>
       <r>   -3.5726    0.1667 </r>
       <r>   -3.5725    0.1659 </r>
       <r>   -0.1919    0.0000 </r>
       <r>    0.0953    0.0000 </r>
       <r>    0.3331    0.0000 </r>
       <r>    0.4719    0.0000 </r>
      </set>
      <set comment="kpoint 41">
       <r>   -9.4097    1.0000 </r>
       <r>   -3.5726    0.1667 </r>
       <r>   -3.5726    0.1666 </r>
       <r>   -3.5725    0.1660 </r>
       <r>   -0.2495    0.0000 </r>
       <r>    0.2274    0.0000 </r>
       <r>    0.3957    0.0000 </r>
       <r>    0.4620    0.0000 </r>
      </set>
      <set comment="kpoint 42">
       <r>   -9.4097    1.0000 </r>
       <r>   -3.5726    0.1667 </r>
       <r>   -3.5726    0.1667 </r>
       <r>   -3.5725    0.1660 </r>
       <r>   -0.2397    0.0000 </r>
       <r>    0.2325    0.0000 </r>
       <r>    0.3282    0.0000 </r>
       <r>    0.4475    0.0000 </r>
      </set>
      <set comment="kpoint 43">
       <r>   -9.4097    1.0000 </r>
       <r>   -3.5726    0.1667 </r>
       <r>   -3.5726    0.1667 </r>
       <r>   -3.5725    0.1660 </r>
       <r>   -0.2217    0.0000 </r>
       <r>    0.2063    0.0000 </r>
       <r>    0.2890    0.0000 </r>
       <r>    0.4672    0.0000 </r>
      </set>
      <set comment="kpoint 44">
       <r>   -9.4097    1.0000 </r>
       <r>   -3.5726    0.1668 </r>
       <r>   -3.5726    0.1667 </r>
       <r>   -3.5725    0.1660 </r>
       <r>   -0.1997    0.0000 </r>
       <r>    0.1448    0.0000 </r>
       <r>    0.3115    0.0000 </r>
       <r>    0.4959    0.0000 </r>
      </set>
      <set comment="kpoint 45">
       <r>   -9.4097    1.0000 </r>
       <r>   -3.5726    0.1668 </r>
       <r>   -3.5726    0.1667 </r>
       <r>   -3.5725    0.1660 </r>
       <r>   -0.1829    0.0000 </r>
       <r>    0.1047    0.0000 </r>
       <r>    0.3421    0.0000 </r>
       <r>    0.4812    0.0000 </r>
      </set>
      <set comment="kpoint 46">
       <r>   -9.4097    1.0000 </r>
       <r>   -3.5726    0.1667 </r>
       <r>   -3.5726    0.1666 </r>
       <r>   -3.5725    0.1663 </r>
       <r>   -0.2316    0.0000 </r>
       <r>    0.2447    0.0000 </r>
       <r>    0.4023    0.0000 </r>
       <r>    0.4714    0.0000 </r>
      </set>
      <set comment="kpoint 47">
       <r>   -9.4097    1.0000 </r>
       <r>   -3.5726    0.1667 </r>
       <r>   -3.5726    0.1666 </r>
       <r>   -3.5725    0.1663 </r>
       <r>   -0.2218    0.0000 </r>
       <r>    0.2497    0.0000 </r>
       <r>    0.3452    0.0000 </r>
       <r>    0.4498    0.0000 </r>
      </set>
      <set comment="kpoint 48">
       <r>   -9.4097    1.0000 </r>
       <r>   -3.5726    0.1667 </r>
       <r>   -3.5726    0.1667 </r>
       <r>   -3.5725    0.1663 </r>
       <r>   -0.2039    0.0000 </r>
       <r>    0.2239    0.0000 </r>
       <r>    0.3071    0.0000 </r>
       <r>    0.4673    0.0000 </r>
      </set>
      <set comment="kpoint 49">
       <r>   -9.4097    1.0000 </r>
       <r>   -3.5726    0.1667 </r>
       <r>   -3.5726    0.1667 </r>
       <r>   -3.5725    0.1663 </r>
       <r>   -0.1820    0.0000 </r>
       <r>    0.1632    0.0000 </r>
       <r>    0.3293    0.0000 </r>
       <r>    0.4956    0.0000 </r>
      </set>
      <set comment="kpoint 50">
       <r>   -9.4097    1.0000 </r>
       <r>   -3.5726    0.1668 </r>
       <r>   -3.5726    0.1667 </r>
       <r>   -3.5725    0.1663 </r>
       <r>   -0.1654    0.0000 </r>
       <r>    0.1234    0.0000 </r>
       <r>    0.3595    0.0000 </r>
       <r>    0.4994    0.0000 </r>
      </set>
      <set comment="kpoint 51">
       <r>   -9.4097    1.0000 </r>
       <r>   -3.5726    0.1667 </r>
       <r>   -3.5726    0.1667 </r>
       <r>   -3.5726    0.1666 </r>
       <r>   -0.2057    0.0000 </r>
       <r>    0.2658    0.0000 </r>
       <r>    0.3519    0.0000 </r>
       <r>    0.4585    0.0000 </r>
      </set>
      <set comment="kpoint 52">
       <r>   -9.4097    1.0000 </r>
       <r>   -3.5726    0.1667 </r>
       <r>   -3.5726    0.1667 </r>
       <r>   -3.5726    0.1666 </r>
       <r>   -0.1960    0.0000 </r>
       <r>    0.2704    0.0000 </r>
       <r>    0.3559    0.0000 </r>
       <r>    0.3904    0.0000 </r>
      </set>
      <set comment="kpoint 53">
       <r>   -9.4097    1.0000 </r>
       <r>   -3.5726    0.1667 </r>
       <r>   -3.5726    0.1667 </r>
       <r>   -3.5726    0.1667 </r>
       <r>   -0.1782    0.0000 </r>
       <r>    0.2480    0.0000 </r>
       <r>    0.3332    0.0000 </r>
       <r>    0.3895    0.0000 </r>
      </set>
      <set comment="kpoint 54">
       <r>   -9.4097    1.0000 </r>
       <r>   -3.5726    0.1667 </r>
       <r>   -3.5726    0.1667 </r>
       <r>   -3.5726    0.1667 </r>
       <r>   -0.1566    0.0000 </r>
       <r>    0.1902    0.0000 </r>
       <r>    0.3529    0.0000 </r>
       <r>    0.4157    0.0000 </r>
      </set>
      <set comment="kpoint 55">
       <r>   -9.4097    1.0000 </r>
       <r>   -3.5726    0.1667 </r>
       <r>   -3.5726    0.1667 </r>
       <r>   -3.5726    0.1667 </r>
       <r>   -0.1402    0.0000 </r>
       <r>    0.1513    0.0000 </r>
       <r>    0.3817    0.0000 </r>
       <r>    0.4396    0.0000 </r>
      </set>
      <set comment="kpoint 56">
       <r>   -9.4097    1.0000 </r>
       <r>   -3.5726    0.1670 </r>
       <r>   -3.5726    0.1667 </r>
       <r>   -3.5726    0.1666 </r>
       <r>   -0.1736    0.0000 </r>
       <r>    0.2433    0.0000 </r>
       <r>    0.3273    0.0000 </r>
       <r>    0.4895    0.0000 </r>
      </set>
      <set comment="kpoint 57">
       <r>   -9.4097    1.0000 </r>
       <r>   -3.5726    0.1670 </r>
       <r>   -3.5726    0.1667 </r>
       <r>   -3.5726    0.1666 </r>
       <r>   -0.1640    0.0000 </r>
       <r>    0.2520    0.0000 </r>
       <r>    0.3365    0.0000 </r>
       <r>    0.4126    0.0000 </r>
      </set>
      <set comment="kpoint 58">
       <r>   -9.4097    1.0000 </r>
       <r>   -3.5726    0.1670 </r>
       <r>   -3.5726    0.1666 </r>
       <r>   -3.5726    0.1666 </r>
       <r>   -0.1465    0.0000 </r>
       <r>    0.2589    0.0000 </r>
       <r>    0.3249    0.0000 </r>
       <r>    0.3717    0.0000 </r>
      </set>
      <set comment="kpoint 59">
       <r>   -9.4097    1.0000 </r>
       <r>   -3.5726    0.1670 </r>
       <r>   -3.5726    0.1667 </r>
       <r>   -3.5726    0.1666 </r>
       <r>   -0.1254    0.0000 </r>
       <r>    0.2238    0.0000 </r>
       <r>    0.3223    0.0000 </r>
       <r>    0.3981    0.0000 </r>
      </set>
      <set comment="kpoint 60">
       <r>   -9.4097    1.0000 </r>
       <r>   -3.5726    0.1670 </r>
       <r>   -3.5726    0.1667 </r>
       <r>   -3.5726    0.1666 </r>
       <r>   -0.1095    0.0000 </r>
       <r>    0.1879    0.0000 </r>
       <r>    0.3427    0.0000 </r>
       <r>    0.4274    0.0000 </r>
      </set>
      <set comment="kpoint 61">
       <r>   -9.4097    1.0000 </r>
       <r>   -3.5727    0.1673 </r>
       <r>   -3.5726    0.1666 </r>
       <r>   -3.5726    0.1666 </r>
       <r>   -0.1397    0.0000 </r>
       <r>    0.1800    0.0000 </r>
       <r>    0.3636    0.0000 </r>
       <r>    0.5295    0.0000 </r>
      </set>
      <set comment="kpoint 62">
       <r>   -9.4097    1.0000 </r>
       <r>   -3.5727    0.1673 </r>
       <r>   -3.5726    0.1666 </r>
       <r>   -3.5726    0.1666 </r>
       <r>   -0.1304    0.0000 </r>
       <r>    0.1911    0.0000 </r>
       <r>    0.3710    0.0000 </r>
       <r>    0.4521    0.0000 </r>
      </set>
      <set comment="kpoint 63">
       <r>   -9.4097    1.0000 </r>
       <r>   -3.5727    0.1673 </r>
       <r>   -3.5726    0.1666 </r>
       <r>   -3.5726    0.1666 </r>
       <r>   -0.1134    0.0000 </r>
       <r>    0.2118    0.0000 </r>
       <r>    0.3450    0.0000 </r>
       <r>    0.4124    0.0000 </r>
      </set>
      <set comment="kpoint 64">
       <r>   -9.4097    1.0000 </r>
       <r>   -3.5727    0.1673 </r>
       <r>   -3.5726    0.1666 </r>
       <r>   -3.5726    0.1666 </r>
       <r>   -0.0931    0.0000 </r>
       <r>    0.2359    0.0000 </r>
       <r>    0.2858    0.0000 </r>
       <r>    0.4370    0.0000 </r>
      </set>
      <set comment="kpoint 65">
       <r>   -9.4097    1.0000 </r>
       <r>   -3.5727    0.1673 </r>
       <r>   -3.5726    0.1667 </r>
       <r>   -3.5726    0.1666 </r>
       <r>   -0.0780    0.0000 </r>
       <r>    0.2311    0.0000 </r>
       <r>    0.2770    0.0000 </r>
       <r>    0.4518    0.0000 </r>
      </set>
      <set comment="kpoint 66">
       <r>   -9.4097    1.0000 </r>
       <r>   -3.5727    0.1675 </r>
       <r>   -3.5726    0.1666 </r>
       <r>   -3.5726    0.1666 </r>
       <r>   -0.1147    0.0000 </r>
       <r>    0.1378    0.0000 </r>
       <r>    0.4044    0.0000 </r>
       <r>    0.5245    0.0000 </r>
      </set>
      <set comment="kpoint 67">
       <r>   -9.4097    1.0000 </r>
       <r>   -3.5727    0.1675 </r>
       <r>   -3.5726    0.1666 </r>
       <r>   -3.5726    0.1666 </r>
       <r>   -0.1056    0.0000 </r>
       <r>    0.1494    0.0000 </r>
       <r>    0.4113    0.0000 </r>
       <r>    0.4883    0.0000 </r>
      </set>
      <set comment="kpoint 68">
       <r>   -9.4097    1.0000 </r>
       <r>   -3.5727    0.1675 </r>
       <r>   -3.5726    0.1666 </r>
       <r>   -3.5726    0.1666 </r>
       <r>   -0.0892    0.0000 </r>
       <r>    0.1720    0.0000 </r>
       <r>    0.3818    0.0000 </r>
       <r>    0.4511    0.0000 </r>
      </set>
      <set comment="kpoint 69">
       <r>   -9.4097    1.0000 </r>
       <r>   -3.5727    0.1675 </r>
       <r>   -3.5726    0.1666 </r>
       <r>   -3.5726    0.1666 </r>
       <r>   -0.0698    0.0000 </r>
       <r>    0.2032    0.0000 </r>
       <r>    0.3178    0.0000 </r>
       <r>    0.4425    0.0000 </r>
      </set>
      <set comment="kpoint 70">
       <r>   -9.4097    1.0000 </r>
       <r>   -3.5727    0.1674 </r>
       <r>   -3.5726    0.1666 </r>
       <r>   -3.5726    0.1666 </r>
       <r>   -0.0556    0.0000 </r>
       <r>    0.2335    0.0000 </r>
       <r>    0.2780    0.0000 </r>
       <r>    0.3900    0.0000 </r>
      </set>
      <set comment="kpoint 71">
       <r>   -9.4097    1.0000 </r>
       <r>   -3.5726    0.1667 </r>
       <r>   -3.5726    0.1667 </r>
       <r>   -3.5725    0.1659 </r>
       <r>   -0.2504    0.0000 </r>
       <r>    0.1472    0.0000 </r>
       <r>    0.4332    0.0000 </r>
       <r>    0.5161    0.0000 </r>
      </set>
      <set comment="kpoint 72">
       <r>   -9.4097    1.0000 </r>
       <r>   -3.5726    0.1667 </r>
       <r>   -3.5726    0.1667 </r>
       <r>   -3.5725    0.1659 </r>
       <r>   -0.2407    0.0000 </r>
       <r>    0.1578    0.0000 </r>
       <r>    0.3301    0.0000 </r>
       <r>    0.5409    0.0000 </r>
      </set>
      <set comment="kpoint 73">
       <r>   -9.4097    1.0000 </r>
       <r>   -3.5726    0.1667 </r>
       <r>   -3.5726    0.1667 </r>
       <r>   -3.5725    0.1659 </r>
       <r>   -0.2230    0.0000 </r>
       <r>    0.1720    0.0000 </r>
       <r>    0.2469    0.0000 </r>
       <r>    0.5290    0.0000 </r>
      </set>
      <set comment="kpoint 74">
       <r>   -9.4097    1.0000 </r>
       <r>   -3.5726    0.1668 </r>
       <r>   -3.5726    0.1667 </r>
       <r>   -3.5725    0.1659 </r>
       <r>   -0.2015    0.0000 </r>
       <r>    0.1459    0.0000 </r>
       <r>    0.2344    0.0000 </r>
       <r>    0.4522    0.0000 </r>
      </set>
      <set comment="kpoint 75">
       <r>   -9.4097    1.0000 </r>
       <r>   -3.5726    0.1668 </r>
       <r>   -3.5726    0.1667 </r>
       <r>   -3.5725    0.1659 </r>
       <r>   -0.1852    0.0000 </r>
       <r>    0.1095    0.0000 </r>
       <r>    0.2635    0.0000 </r>
       <r>    0.3927    0.0000 </r>
      </set>
      <set comment="kpoint 76">
       <r>   -9.4097    1.0000 </r>
       <r>   -3.5726    0.1667 </r>
       <r>   -3.5726    0.1666 </r>
       <r>   -3.5725    0.1660 </r>
       <r>   -0.2413    0.0000 </r>
       <r>    0.1565    0.0000 </r>
       <r>    0.4408    0.0000 </r>
       <r>    0.5199    0.0000 </r>
      </set>
      <set comment="kpoint 77">
       <r>   -9.4097    1.0000 </r>
       <r>   -3.5726    0.1667 </r>
       <r>   -3.5726    0.1667 </r>
       <r>   -3.5725    0.1660 </r>
       <r>   -0.2317    0.0000 </r>
       <r>    0.1670    0.0000 </r>
       <r>    0.3389    0.0000 </r>
       <r>    0.5439    0.0000 </r>
      </set>
      <set comment="kpoint 78">
       <r>   -9.4097    1.0000 </r>
       <r>   -3.5726    0.1667 </r>
       <r>   -3.5726    0.1667 </r>
       <r>   -3.5725    0.1660 </r>
       <r>   -0.2140    0.0000 </r>
       <r>    0.1812    0.0000 </r>
       <r>    0.2561    0.0000 </r>
       <r>    0.5374    0.0000 </r>
      </set>
      <set comment="kpoint 79">
       <r>   -9.4097    1.0000 </r>
       <r>   -3.5726    0.1668 </r>
       <r>   -3.5726    0.1667 </r>
       <r>   -3.5725    0.1660 </r>
       <r>   -0.1925    0.0000 </r>
       <r>    0.1552    0.0000 </r>
       <r>    0.2436    0.0000 </r>
       <r>    0.4615    0.0000 </r>
      </set>
      <set comment="kpoint 80">
       <r>   -9.4097    1.0000 </r>
       <r>   -3.5726    0.1668 </r>
       <r>   -3.5726    0.1667 </r>
       <r>   -3.5725    0.1660 </r>
       <r>   -0.1763    0.0000 </r>
       <r>    0.1189    0.0000 </r>
       <r>    0.2726    0.0000 </r>
       <r>    0.4021    0.0000 </r>
      </set>
      <set comment="kpoint 81">
       <r>   -9.4097    1.0000 </r>
       <r>   -3.5726    0.1667 </r>
       <r>   -3.5726    0.1666 </r>
       <r>   -3.5725    0.1663 </r>
       <r>   -0.2235    0.0000 </r>
       <r>    0.1748    0.0000 </r>
       <r>    0.4400    0.0000 </r>
       <r>    0.4820    0.0000 </r>
      </set>
      <set comment="kpoint 82">
       <r>   -9.4097    1.0000 </r>
       <r>   -3.5726    0.1667 </r>
       <r>   -3.5726    0.1666 </r>
       <r>   -3.5725    0.1663 </r>
       <r>   -0.2138    0.0000 </r>
       <r>    0.1853    0.0000 </r>
       <r>    0.3554    0.0000 </r>
       <r>    0.4763    0.0000 </r>
      </set>
      <set comment="kpoint 83">
       <r>   -9.4097    1.0000 </r>
       <r>   -3.5726    0.1667 </r>
       <r>   -3.5726    0.1667 </r>
       <r>   -3.5725    0.1663 </r>
       <r>   -0.1962    0.0000 </r>
       <r>    0.1994    0.0000 </r>
       <r>    0.2742    0.0000 </r>
       <r>    0.4956    0.0000 </r>
      </set>
      <set comment="kpoint 84">
       <r>   -9.4097    1.0000 </r>
       <r>   -3.5726    0.1667 </r>
       <r>   -3.5726    0.1667 </r>
       <r>   -3.5725    0.1663 </r>
       <r>   -0.1749    0.0000 </r>
       <r>    0.1736    0.0000 </r>
       <r>    0.2619    0.0000 </r>
       <r>    0.4800    0.0000 </r>
      </set>
      <set comment="kpoint 85">
       <r>   -9.4097    1.0000 </r>
       <r>   -3.5726    0.1668 </r>
       <r>   -3.5726    0.1667 </r>
       <r>   -3.5725    0.1663 </r>
       <r>   -0.1588    0.0000 </r>
       <r>    0.1375    0.0000 </r>
       <r>    0.2906    0.0000 </r>
       <r>    0.4210    0.0000 </r>
      </set>
      <set comment="kpoint 86">
       <r>   -9.4097    1.0000 </r>
       <r>   -3.5726    0.1667 </r>
       <r>   -3.5726    0.1667 </r>
       <r>   -3.5726    0.1666 </r>
       <r>   -0.1977    0.0000 </r>
       <r>    0.2012    0.0000 </r>
       <r>    0.3600    0.0000 </r>
       <r>    0.4929    0.0000 </r>
      </set>
      <set comment="kpoint 87">
       <r>   -9.4097    1.0000 </r>
       <r>   -3.5726    0.1667 </r>
       <r>   -3.5726    0.1667 </r>
       <r>   -3.5726    0.1666 </r>
       <r>   -0.1881    0.0000 </r>
       <r>    0.2115    0.0000 </r>
       <r>    0.3599    0.0000 </r>
       <r>    0.4018    0.0000 </r>
      </set>
      <set comment="kpoint 88">
       <r>   -9.4097    1.0000 </r>
       <r>   -3.5726    0.1667 </r>
       <r>   -3.5726    0.1667 </r>
       <r>   -3.5726    0.1666 </r>
       <r>   -0.1707    0.0000 </r>
       <r>    0.2253    0.0000 </r>
       <r>    0.3007    0.0000 </r>
       <r>    0.3992    0.0000 </r>
      </set>
      <set comment="kpoint 89">
       <r>   -9.4097    1.0000 </r>
       <r>   -3.5726    0.1667 </r>
       <r>   -3.5726    0.1667 </r>
       <r>   -3.5726    0.1667 </r>
       <r>   -0.1496    0.0000 </r>
       <r>    0.2006    0.0000 </r>
       <r>    0.2888    0.0000 </r>
       <r>    0.4244    0.0000 </r>
      </set>
      <set comment="kpoint 90">
       <r>   -9.4097    1.0000 </r>
       <r>   -3.5726    0.1667 </r>
       <r>   -3.5726    0.1667 </r>
       <r>   -3.5726    0.1667 </r>
       <r>   -0.1337    0.0000 </r>
       <r>    0.1653    0.0000 </r>
       <r>    0.3168    0.0000 </r>
       <r>    0.4476    0.0000 </r>
      </set>
      <set comment="kpoint 91">
       <r>   -9.4097    1.0000 </r>
       <r>   -3.5726    0.1670 </r>
       <r>   -3.5726    0.1667 </r>
       <r>   -3.5726    0.1666 </r>
       <r>   -0.1659    0.0000 </r>
       <r>    0.2265    0.0000 </r>
       <r>    0.2852    0.0000 </r>
       <r>    0.5254    0.0000 </r>
      </set>
      <set comment="kpoint 92">
       <r>   -9.4097    1.0000 </r>
       <r>   -3.5726    0.1670 </r>
       <r>   -3.5726    0.1667 </r>
       <r>   -3.5726    0.1666 </r>
       <r>   -0.1565    0.0000 </r>
       <r>    0.2364    0.0000 </r>
       <r>    0.2963    0.0000 </r>
       <r>    0.4242    0.0000 </r>
      </set>
      <set comment="kpoint 93">
       <r>   -9.4097    1.0000 </r>
       <r>   -3.5726    0.1670 </r>
       <r>   -3.5726    0.1666 </r>
       <r>   -3.5726    0.1666 </r>
       <r>   -0.1393    0.0000 </r>
       <r>    0.2503    0.0000 </r>
       <r>    0.3174    0.0000 </r>
       <r>    0.3417    0.0000 </r>
      </set>
      <set comment="kpoint 94">
       <r>   -9.4097    1.0000 </r>
       <r>   -3.5726    0.1670 </r>
       <r>   -3.5726    0.1667 </r>
       <r>   -3.5726    0.1667 </r>
       <r>   -0.1186    0.0000 </r>
       <r>    0.2339    0.0000 </r>
       <r>    0.3176    0.0000 </r>
       <r>    0.3471    0.0000 </r>
      </set>
      <set comment="kpoint 95">
       <r>   -9.4097    1.0000 </r>
       <r>   -3.5726    0.1670 </r>
       <r>   -3.5726    0.1667 </r>
       <r>   -3.5726    0.1666 </r>
       <r>   -0.1032    0.0000 </r>
       <r>    0.2018    0.0000 </r>
       <r>    0.3384    0.0000 </r>
       <r>    0.3745    0.0000 </r>
      </set>
      <set comment="kpoint 96">
       <r>   -9.4097    1.0000 </r>
       <r>   -3.5727    0.1673 </r>
       <r>   -3.5726    0.1666 </r>
       <r>   -3.5726    0.1666 </r>
       <r>   -0.1325    0.0000 </r>
       <r>    0.1908    0.0000 </r>
       <r>    0.2945    0.0000 </r>
       <r>    0.5110    0.0000 </r>
      </set>
      <set comment="kpoint 97">
       <r>   -9.4097    1.0000 </r>
       <r>   -3.5727    0.1673 </r>
       <r>   -3.5726    0.1666 </r>
       <r>   -3.5726    0.1666 </r>
       <r>   -0.1233    0.0000 </r>
       <r>    0.2017    0.0000 </r>
       <r>    0.3055    0.0000 </r>
       <r>    0.4633    0.0000 </r>
      </set>
      <set comment="kpoint 98">
       <r>   -9.4097    1.0000 </r>
       <r>   -3.5727    0.1673 </r>
       <r>   -3.5726    0.1666 </r>
       <r>   -3.5726    0.1666 </r>
       <r>   -0.1066    0.0000 </r>
       <r>    0.2223    0.0000 </r>
       <r>    0.3225    0.0000 </r>
       <r>    0.3792    0.0000 </r>
      </set>
      <set comment="kpoint 99">
       <r>   -9.4097    1.0000 </r>
       <r>   -3.5727    0.1673 </r>
       <r>   -3.5726    0.1667 </r>
       <r>   -3.5726    0.1666 </r>
       <r>   -0.0867    0.0000 </r>
       <r>    0.2466    0.0000 </r>
       <r>    0.2970    0.0000 </r>
       <r>    0.3707    0.0000 </r>
      </set>
      <set comment="kpoint 100">
       <r>   -9.4097    1.0000 </r>
       <r>   -3.5727    0.1673 </r>
       <r>   -3.5726    0.1667 </r>
       <r>   -3.5726    0.1666 </r>
       <r>   -0.0720    0.0000 </r>
       <r>    0.2445    0.0000 </r>
       <r>    0.2870    0.0000 </r>
       <r>    0.3997    0.0000 </r>
      </set>
      <set comment="kpoint 101">
       <r>   -9.4097    1.0000 </r>
       <r>   -3.5727    0.1675 </r>
       <r>   -3.5726    0.1666 </r>
       <r>   -3.5726    0.1666 </r>
       <r>   -0.1080    0.0000 </r>
       <r>    0.1505    0.0000 </r>
       <r>    0.3354    0.0000 </r>
       <r>    0.4492    0.0000 </r>
      </set>
      <set comment="kpoint 102">
       <r>   -9.4097    1.0000 </r>
       <r>   -3.5727    0.1675 </r>
       <r>   -3.5726    0.1666 </r>
       <r>   -3.5726    0.1666 </r>
       <r>   -0.0990    0.0000 </r>
       <r>    0.1621    0.0000 </r>
       <r>    0.3460    0.0000 </r>
       <r>    0.4605    0.0000 </r>
      </set>
      <set comment="kpoint 103">
       <r>   -9.4097    1.0000 </r>
       <r>   -3.5727    0.1675 </r>
       <r>   -3.5726    0.1666 </r>
       <r>   -3.5726    0.1666 </r>
       <r>   -0.0829    0.0000 </r>
       <r>    0.1844    0.0000 </r>
       <r>    0.3607    0.0000 </r>
       <r>    0.4168    0.0000 </r>
      </set>
      <set comment="kpoint 104">
       <r>   -9.4097    1.0000 </r>
       <r>   -3.5727    0.1675 </r>
       <r>   -3.5726    0.1666 </r>
       <r>   -3.5726    0.1666 </r>
       <r>   -0.0639    0.0000 </r>
       <r>    0.2150    0.0000 </r>
       <r>    0.3282    0.0000 </r>
       <r>    0.4106    0.0000 </r>
      </set>
      <set comment="kpoint 105">
       <r>   -9.4097    1.0000 </r>
       <r>   -3.5727    0.1675 </r>
       <r>   -3.5726    0.1666 </r>
       <r>   -3.5726    0.1666 </r>
       <r>   -0.0500    0.0000 </r>
       <r>    0.2444    0.0000 </r>
       <r>    0.2906    0.0000 </r>
       <r>    0.4052    0.0000 </r>
      </set>
      <set comment="kpoint 106">
       <r>   -9.4097    1.0000 </r>
       <r>   -3.5726    0.1667 </r>
       <r>   -3.5726    0.1667 </r>
       <r>   -3.5725    0.1659 </r>
       <r>   -0.2399    0.0000 </r>
       <r>    0.0940    0.0000 </r>
       <r>    0.4543    0.0000 </r>
       <r>    0.5758    0.0000 </r>
      </set>
      <set comment="kpoint 107">
       <r>   -9.4097    1.0000 </r>
       <r>   -3.5726    0.1667 </r>
       <r>   -3.5726    0.1667 </r>
       <r>   -3.5725    0.1659 </r>
       <r>   -0.2304    0.0000 </r>
       <r>    0.1061    0.0000 </r>
       <r>    0.3469    0.0000 </r>
       <r>    0.5724    0.0000 </r>
      </set>
      <set comment="kpoint 108">
       <r>   -9.4097    1.0000 </r>
       <r>   -3.5726    0.1667 </r>
       <r>   -3.5726    0.1667 </r>
       <r>   -3.5725    0.1659 </r>
       <r>   -0.2132    0.0000 </r>
       <r>    0.1290    0.0000 </r>
       <r>    0.2549    0.0000 </r>
       <r>    0.4762    0.0000 </r>
      </set>
      <set comment="kpoint 109">
       <r>   -9.4097    1.0000 </r>
       <r>   -3.5726    0.1668 </r>
       <r>   -3.5726    0.1667 </r>
       <r>   -3.5725    0.1659 </r>
       <r>   -0.1924    0.0000 </r>
       <r>    0.1515    0.0000 </r>
       <r>    0.1953    0.0000 </r>
       <r>    0.3904    0.0000 </r>
      </set>
      <set comment="kpoint 110">
       <r>   -9.4097    1.0000 </r>
       <r>   -3.5726    0.1668 </r>
       <r>   -3.5726    0.1667 </r>
       <r>   -3.5725    0.1659 </r>
       <r>   -0.1769    0.0000 </r>
       <r>    0.1311    0.0000 </r>
       <r>    0.2118    0.0000 </r>
       <r>    0.3273    0.0000 </r>
      </set>
      <set comment="kpoint 111">
       <r>   -9.4097    1.0000 </r>
       <r>   -3.5726    0.1667 </r>
       <r>   -3.5726    0.1666 </r>
       <r>   -3.5725    0.1660 </r>
       <r>   -0.2308    0.0000 </r>
       <r>    0.1035    0.0000 </r>
       <r>    0.4622    0.0000 </r>
       <r>    0.5686    0.0000 </r>
      </set>
      <set comment="kpoint 112">
       <r>   -9.4097    1.0000 </r>
       <r>   -3.5726    0.1667 </r>
       <r>   -3.5726    0.1667 </r>
       <r>   -3.5725    0.1660 </r>
       <r>   -0.2214    0.0000 </r>
       <r>    0.1155    0.0000 </r>
       <r>    0.3556    0.0000 </r>
       <r>    0.5803    0.0000 </r>
      </set>
      <set comment="kpoint 113">
       <r>   -9.4097    1.0000 </r>
       <r>   -3.5726    0.1667 </r>
       <r>   -3.5726    0.1667 </r>
       <r>   -3.5725    0.1660 </r>
       <r>   -0.2042    0.0000 </r>
       <r>    0.1384    0.0000 </r>
       <r>    0.2639    0.0000 </r>
       <r>    0.4855    0.0000 </r>
      </set>
      <set comment="kpoint 114">
       <r>   -9.4097    1.0000 </r>
       <r>   -3.5726    0.1668 </r>
       <r>   -3.5726    0.1667 </r>
       <r>   -3.5725    0.1660 </r>
       <r>   -0.1835    0.0000 </r>
       <r>    0.1609    0.0000 </r>
       <r>    0.2045    0.0000 </r>
       <r>    0.3999    0.0000 </r>
      </set>
      <set comment="kpoint 115">
       <r>   -9.4097    1.0000 </r>
       <r>   -3.5726    0.1668 </r>
       <r>   -3.5726    0.1667 </r>
       <r>   -3.5725    0.1660 </r>
       <r>   -0.1680    0.0000 </r>
       <r>    0.1404    0.0000 </r>
       <r>    0.2210    0.0000 </r>
       <r>    0.3369    0.0000 </r>
      </set>
      <set comment="kpoint 116">
       <r>   -9.4097    1.0000 </r>
       <r>   -3.5726    0.1667 </r>
       <r>   -3.5726    0.1666 </r>
       <r>   -3.5725    0.1663 </r>
       <r>   -0.2131    0.0000 </r>
       <r>    0.1223    0.0000 </r>
       <r>    0.4615    0.0000 </r>
       <r>    0.4963    0.0000 </r>
      </set>
      <set comment="kpoint 117">
       <r>   -9.4097    1.0000 </r>
       <r>   -3.5726    0.1667 </r>
       <r>   -3.5726    0.1666 </r>
       <r>   -3.5725    0.1663 </r>
       <r>   -0.2037    0.0000 </r>
       <r>    0.1343    0.0000 </r>
       <r>    0.3719    0.0000 </r>
       <r>    0.4924    0.0000 </r>
      </set>
      <set comment="kpoint 118">
       <r>   -9.4097    1.0000 </r>
       <r>   -3.5726    0.1667 </r>
       <r>   -3.5726    0.1667 </r>
       <r>   -3.5725    0.1663 </r>
       <r>   -0.1865    0.0000 </r>
       <r>    0.1572    0.0000 </r>
       <r>    0.2817    0.0000 </r>
       <r>    0.5040    0.0000 </r>
      </set>
      <set comment="kpoint 119">
       <r>   -9.4097    1.0000 </r>
       <r>   -3.5726    0.1667 </r>
       <r>   -3.5726    0.1667 </r>
       <r>   -3.5725    0.1663 </r>
       <r>   -0.1659    0.0000 </r>
       <r>    0.1794    0.0000 </r>
       <r>    0.2229    0.0000 </r>
       <r>    0.4187    0.0000 </r>
      </set>
      <set comment="kpoint 120">
       <r>   -9.4097    1.0000 </r>
       <r>   -3.5726    0.1668 </r>
       <r>   -3.5726    0.1667 </r>
       <r>   -3.5725    0.1663 </r>
       <r>   -0.1506    0.0000 </r>
       <r>    0.1590    0.0000 </r>
       <r>    0.2395    0.0000 </r>
       <r>    0.3560    0.0000 </r>
      </set>
      <set comment="kpoint 121">
       <r>   -9.4097    1.0000 </r>
       <r>   -3.5726    0.1667 </r>
       <r>   -3.5726    0.1667 </r>
       <r>   -3.5726    0.1666 </r>
       <r>   -0.1875    0.0000 </r>
       <r>    0.1501    0.0000 </r>
       <r>    0.3743    0.0000 </r>
       <r>    0.5107    0.0000 </r>
      </set>
      <set comment="kpoint 122">
       <r>   -9.4097    1.0000 </r>
       <r>   -3.5726    0.1667 </r>
       <r>   -3.5726    0.1667 </r>
       <r>   -3.5726    0.1666 </r>
       <r>   -0.1782    0.0000 </r>
       <r>    0.1621    0.0000 </r>
       <r>    0.3736    0.0000 </r>
       <r>    0.4174    0.0000 </r>
      </set>
      <set comment="kpoint 123">
       <r>   -9.4097    1.0000 </r>
       <r>   -3.5726    0.1667 </r>
       <r>   -3.5726    0.1667 </r>
       <r>   -3.5726    0.1666 </r>
       <r>   -0.1612    0.0000 </r>
       <r>    0.1849    0.0000 </r>
       <r>    0.3070    0.0000 </r>
       <r>    0.4132    0.0000 </r>
      </set>
      <set comment="kpoint 124">
       <r>   -9.4097    1.0000 </r>
       <r>   -3.5726    0.1667 </r>
       <r>   -3.5726    0.1667 </r>
       <r>   -3.5726    0.1666 </r>
       <r>   -0.1408    0.0000 </r>
       <r>    0.2068    0.0000 </r>
       <r>    0.2502    0.0000 </r>
       <r>    0.4376    0.0000 </r>
      </set>
[...]
      <set comment="kpoint 164">
       <r>   -9.4097    1.0000 </r>
       <r>   -3.5726    0.1670 </r>
       <r>   -3.5726    0.1667 </r>
       <r>   -3.5726    0.1666 </r>
       <r>   -0.1041    0.0000 </r>
       <r>    0.2318    0.0000 </r>
       <r>    0.2840    0.0000 </r>
       <r>    0.3627    0.0000 </r>
      </set>
      <set comment="kpoint 165">
       <r>   -9.4097    1.0000 </r>
       <r>   -3.5726    0.1670 </r>
       <r>   -3.5726    0.1667 </r>
       <r>   -3.5726    0.1666 </r>
       <r>   -0.0899    0.0000 </r>
       <r>    0.2436    0.0000 </r>
       <r>    0.2744    0.0000 </r>
       <r>    0.3810    0.0000 </r>
      </set>
      <set comment="kpoint 166">
       <r>   -9.4097    1.0000 </r>
       <r>   -3.5727    0.1673 </r>
       <r>   -3.5726    0.1666 </r>
       <r>   -3.5726    0.1666 </r>
       <r>   -0.1167    0.0000 </r>
       <r>    0.2036    0.0000 </r>
       <r>    0.2309    0.0000 </r>
       <r>    0.4189    0.0000 </r>
      </set>
      <set comment="kpoint 167">
       <r>   -9.4097    1.0000 </r>
       <r>   -3.5727    0.1673 </r>
       <r>   -3.5726    0.1666 </r>
       <r>   -3.5726    0.1666 </r>
       <r>   -0.1079    0.0000 </r>
       <r>    0.2159    0.0000 </r>
       <r>    0.2417    0.0000 </r>
       <r>    0.4314    0.0000 </r>
      </set>
      <set comment="kpoint 168">
       <r>   -9.4097    1.0000 </r>
       <r>   -3.5727    0.1673 </r>
       <r>   -3.5726    0.1666 </r>
       <r>   -3.5726    0.1666 </r>
       <r>   -0.0919    0.0000 </r>
       <r>    0.2401    0.0000 </r>
       <r>    0.2621    0.0000 </r>
       <r>    0.4010    0.0000 </r>
      </set>
      <set comment="kpoint 169">
       <r>   -9.4097    1.0000 </r>
       <r>   -3.5727    0.1673 </r>
       <r>   -3.5726    0.1667 </r>
       <r>   -3.5726    0.1666 </r>
       <r>   -0.0732    0.0000 </r>
       <r>    0.2729    0.0000 </r>
       <r>    0.2894    0.0000 </r>
       <r>    0.3332    0.0000 </r>
      </set>
      <set comment="kpoint 170">
       <r>   -9.4097    1.0000 </r>
       <r>   -3.5727    0.1673 </r>
       <r>   -3.5726    0.1666 </r>
       <r>   -3.5726    0.1666 </r>
       <r>   -0.0595    0.0000 </r>
       <r>    0.2845    0.0000 </r>
       <r>    0.3119    0.0000 </r>
       <r>    0.3208    0.0000 </r>
      </set>
      <set comment="kpoint 171">
       <r>   -9.4097    1.0000 </r>
       <r>   -3.5727    0.1675 </r>
       <r>   -3.5726    0.1666 </r>
       <r>   -3.5726    0.1665 </r>
       <r>   -0.0936    0.0000 </r>
       <r>    0.1863    0.0000 </r>
       <r>    0.2550    0.0000 </r>
       <r>    0.3513    0.0000 </r>
      </set>
      <set comment="kpoint 172">
       <r>   -9.4097    1.0000 </r>
       <r>   -3.5727    0.1675 </r>
       <r>   -3.5726    0.1666 </r>
       <r>   -3.5726    0.1666 </r>
       <r>   -0.0850    0.0000 </r>
       <r>    0.1974    0.0000 </r>
       <r>    0.2672    0.0000 </r>
       <r>    0.3643    0.0000 </r>
      </set>
      <set comment="kpoint 173">
       <r>   -9.4097    1.0000 </r>
       <r>   -3.5727    0.1675 </r>
       <r>   -3.5726    0.1666 </r>
       <r>   -3.5726    0.1666 </r>
       <r>   -0.0695    0.0000 </r>
       <r>    0.2185    0.0000 </r>
       <r>    0.2911    0.0000 </r>
       <r>    0.3899    0.0000 </r>
      </set>
      <set comment="kpoint 174">
       <r>   -9.4097    1.0000 </r>
       <r>   -3.5727    0.1675 </r>
       <r>   -3.5726    0.1667 </r>
       <r>   -3.5726    0.1666 </r>
       <r>   -0.0514    0.0000 </r>
       <r>    0.2467    0.0000 </r>
       <r>    0.3247    0.0000 </r>
       <r>    0.3666    0.0000 </r>
      </set>
      <set comment="kpoint 175">
       <r>   -9.4097    1.0000 </r>
       <r>   -3.5727    0.1675 </r>
       <r>   -3.5726    0.1666 </r>
       <r>   -3.5726    0.1666 </r>
       <r>   -0.0384    0.0000 </r>
       <r>    0.2719    0.0000 </r>
       <r>    0.3259    0.0000 </r>
       <r>    0.3616    0.0000 </r>
      </set>
     </set>
    </set>
   </array>
  </eigenvalues>
  <separator name="orbital magnetization" >
   <v name="MAGDIPOLOUT">      0.00000000      0.00000000      0.00000000</v>
  </separator>
  <dos>
   <i name="efermi">     -3.60678730 </i>
   <total>
    <array>
     <dimension dim="1">gridpoints</dimension>
     <dimension dim="2">spin</dimension>
     <field>energy</field>
     <field>total</field>
     <field>integrated</field>
     <set>
      <set comment="spin 1">
       <r>    -9.9104     0.0000     0.0000 </r>
       <r>    -9.8737     0.0000     0.0000 </r>
       <r>    -9.8370     0.0000     0.0000 </r>
       <r>    -9.8003     0.0000     0.0000 </r>
       <r>    -9.7636     0.0000     0.0000 </r>
       <r>    -9.7268     0.0000     0.0000 </r>
       <r>    -9.6901     0.0000     0.0000 </r>
       <r>    -9.6534     0.0000     0.0000 </r>
       <r>    -9.6167     0.0000     0.0000 </r>
       <r>    -9.5800     0.0000     0.0000 </r>
       <r>    -9.5432     0.0043     0.0002 </r>
       <r>    -9.5065     0.1640     0.0062 </r>
       <r>    -9.4698     2.2615     0.0892 </r>
       <r>    -9.4331    11.4223     0.5086 </r>
       <r>    -9.3964    21.3960     1.2943 </r>
       <r>    -9.3596    14.9515     1.8433 </r>
       <r>    -9.3229     3.8843     1.9859 </r>
       <r>    -9.2862     0.3710     1.9995 </r>
       <r>    -9.2495     0.0128     2.0000 </r>
       <r>    -9.2128     0.0002     2.0000 </r>
       <r>    -9.1760     0.0000     2.0000 </r>
       <r>    -9.1393     0.0000     2.0000 </r>
       <r>    -9.1026     0.0000     2.0000 </r>
       <r>    -9.0659     0.0000     2.0000 </r>
       <r>    -9.0292     0.0000     2.0000 </r>
       <r>    -8.9925     0.0000     2.0000 </r>
       <r>    -8.9557     0.0000     2.0000 </r>
       <r>    -8.9190     0.0000     2.0000 </r>
       <r>    -8.8823     0.0000     2.0000 </r>
       <r>    -8.8456     0.0000     2.0000 </r>
       <r>    -8.8089     0.0000     2.0000 </r>
       <r>    -8.7721     0.0000     2.0000 </r>
       <r>    -8.7354     0.0000     2.0000 </r>
       <r>    -8.6987     0.0000     2.0000 </r>
       <r>    -8.6620     0.0000     2.0000 </r>
       <r>    -8.6253     0.0000     2.0000 </r>
       <r>    -8.5885     0.0000     2.0000 </r>
       <r>    -8.5518     0.0000     2.0000 </r>
       <r>    -8.5151     0.0000     2.0000 </r>
       <r>    -8.4784     0.0000     2.0000 </r>
       <r>    -8.4417     0.0000     2.0000 </r>
       <r>    -8.4050     0.0000     2.0000 </r>
       <r>    -8.3682     0.0000     2.0000 </r>
       <r>    -8.3315     0.0000     2.0000 </r>
       <r>    -8.2948     0.0000     2.0000 </r>
       <r>    -8.2581     0.0000     2.0000 </r>
       <r>    -8.2214     0.0000     2.0000 </r>
       <r>    -8.1846     0.0000     2.0000 </r>
       <r>    -8.1479     0.0000     2.0000 </r>
       <r>    -8.1112     0.0000     2.0000 </r>
       <r>    -8.0745     0.0000     2.0000 </r>
       <r>    -8.0378     0.0000     2.0000 </r>
       <r>    -8.0010     0.0000     2.0000 </r>
       <r>    -7.9643     0.0000     2.0000 </r>
       <r>    -7.9276     0.0000     2.0000 </r>
       <r>    -7.8909     0.0000     2.0000 </r>
       <r>    -7.8542     0.0000     2.0000 </r>
       <r>    -7.8174     0.0000     2.0000 </r>
       <r>    -7.7807     0.0000     2.0000 </r>
       <r>    -7.7440     0.0000     2.0000 </r>
       <r>    -7.7073     0.0000     2.0000 </r>
       <r>    -7.6706     0.0000     2.0000 </r>
       <r>    -7.6339     0.0000     2.0000 </r>
       <r>    -7.5971     0.0000     2.0000 </r>
       <r>    -7.5604     0.0000     2.0000 </r>
       <r>    -7.5237     0.0000     2.0000 </r>
       <r>    -7.4870     0.0000     2.0000 </r>
       <r>    -7.4503     0.0000     2.0000 </r>
       <r>    -7.4135     0.0000     2.0000 </r>
       <r>    -7.3768     0.0000     2.0000 </r>
       <r>    -7.3401     0.0000     2.0000 </r>
       <r>    -7.3034     0.0000     2.0000 </r>
       <r>    -7.2667     0.0000     2.0000 </r>
       <r>    -7.2299     0.0000     2.0000 </r>
       <r>    -7.1932     0.0000     2.0000 </r>
       <r>    -7.1565     0.0000     2.0000 </r>
       <r>    -7.1198     0.0000     2.0000 </r>
       <r>    -7.0831     0.0000     2.0000 </r>
       <r>    -7.0464     0.0000     2.0000 </r>
       <r>    -7.0096     0.0000     2.0000 </r>
       <r>    -6.9729     0.0000     2.0000 </r>
       <r>    -6.9362     0.0000     2.0000 </r>
       <r>    -6.8995     0.0000     2.0000 </r>
       <r>    -6.8628     0.0000     2.0000 </r>
       <r>    -6.8260     0.0000     2.0000 </r>
       <r>    -6.7893     0.0000     2.0000 </r>
       <r>    -6.7526     0.0000     2.0000 </r>
       <r>    -6.7159     0.0000     2.0000 </r>
       <r>    -6.6792     0.0000     2.0000 </r>
       <r>    -6.6424     0.0000     2.0000 </r>
       <r>    -6.6057     0.0000     2.0000 </r>
       <r>    -6.5690     0.0000     2.0000 </r>
       <r>    -6.5323     0.0000     2.0000 </r>
       <r>    -6.4956     0.0000     2.0000 </r>
       <r>    -6.4588     0.0000     2.0000 </r>
       <r>    -6.4221     0.0000     2.0000 </r>
       <r>    -6.3854     0.0000     2.0000 </r>
       <r>    -6.3487     0.0000     2.0000 </r>
       <r>    -6.3120     0.0000     2.0000 </r>
       <r>    -6.2753     0.0000     2.0000 </r>
       <r>    -6.2385     0.0000     2.0000 </r>
       <r>    -6.2018     0.0000     2.0000 </r>
       <r>    -6.1651     0.0000     2.0000 </r>
       <r>    -6.1284     0.0000     2.0000 </r>
       <r>    -6.0917     0.0000     2.0000 </r>
       <r>    -6.0549     0.0000     2.0000 </r>
       <r>    -6.0182     0.0000     2.0000 </r>
       <r>    -5.9815     0.0000     2.0000 </r>
       <r>    -5.9448     0.0000     2.0000 </r>
       <r>    -5.9081     0.0000     2.0000 </r>
       <r>    -5.8713     0.0000     2.0000 </r>
       <r>    -5.8346     0.0000     2.0000 </r>
       <r>    -5.7979     0.0000     2.0000 </r>
       <r>    -5.7612     0.0000     2.0000 </r>
       <r>    -5.7245     0.0000     2.0000 </r>
       <r>    -5.6878     0.0000     2.0000 </r>
       <r>    -5.6510     0.0000     2.0000 </r>
       <r>    -5.6143     0.0000     2.0000 </r>
       <r>    -5.5776     0.0000     2.0000 </r>
       <r>    -5.5409     0.0000     2.0000 </r>
       <r>    -5.5042     0.0000     2.0000 </r>
       <r>    -5.4674     0.0000     2.0000 </r>
       <r>    -5.4307     0.0000     2.0000 </r>
       <r>    -5.3940     0.0000     2.0000 </r>
       <r>    -5.3573     0.0000     2.0000 </r>
       <r>    -5.3206     0.0000     2.0000 </r>
       <r>    -5.2838     0.0000     2.0000 </r>
       <r>    -5.2471     0.0000     2.0000 </r>
       <r>    -5.2104     0.0000     2.0000 </r>
       <r>    -5.1737     0.0000     2.0000 </r>
       <r>    -5.1370     0.0000     2.0000 </r>
       <r>    -5.1002     0.0000     2.0000 </r>
       <r>    -5.0635     0.0000     2.0000 </r>
       <r>    -5.0268     0.0000     2.0000 </r>
       <r>    -4.9901     0.0000     2.0000 </r>
       <r>    -4.9534     0.0000     2.0000 </r>
       <r>    -4.9167     0.0000     2.0000 </r>
       <r>    -4.8799     0.0000     2.0000 </r>
       <r>    -4.8432     0.0000     2.0000 </r>
       <r>    -4.8065     0.0000     2.0000 </r>
       <r>    -4.7698     0.0000     2.0000 </r>
       <r>    -4.7331     0.0000     2.0000 </r>
       <r>    -4.6963     0.0000     2.0000 </r>
       <r>    -4.6596     0.0000     2.0000 </r>
       <r>    -4.6229     0.0000     2.0000 </r>
       <r>    -4.5862     0.0000     2.0000 </r>
       <r>    -4.5495     0.0000     2.0000 </r>
       <r>    -4.5127     0.0000     2.0000 </r>
       <r>    -4.4760     0.0000     2.0000 </r>
       <r>    -4.4393     0.0000     2.0000 </r>
       <r>    -4.4026     0.0000     2.0000 </r>
       <r>    -4.3659     0.0000     2.0000 </r>
       <r>    -4.3292     0.0000     2.0000 </r>
       <r>    -4.2924     0.0000     2.0000 </r>
       <r>    -4.2557     0.0000     2.0000 </r>
       <r>    -4.2190     0.0000     2.0000 </r>
       <r>    -4.1823     0.0000     2.0000 </r>
       <r>    -4.1456     0.0000     2.0000 </r>
       <r>    -4.1088     0.0000     2.0000 </r>
       <r>    -4.0721     0.0000     2.0000 </r>
       <r>    -4.0354     0.0000     2.0000 </r>
       <r>    -3.9987     0.0000     2.0000 </r>
       <r>    -3.9620     0.0000     2.0000 </r>
       <r>    -3.9252     0.0000     2.0000 </r>
       <r>    -3.8885     0.0000     2.0000 </r>
       <r>    -3.8518     0.0000     2.0000 </r>
       <r>    -3.8151     0.0000     2.0000 </r>
       <r>    -3.7784     0.0000     2.0000 </r>
       <r>    -3.7416     0.0001     2.0000 </r>
       <r>    -3.7049     0.0147     2.0005 </r>
       <r>    -3.6682     0.5437     2.0205 </r>
       <r>    -3.6315     7.2593     2.2871 </r>
       <r>    -3.5948    35.5079     3.5909 </r>
       <r>    -3.5581    64.4333     5.9568 </r>
       <r>    -3.5213    43.6197     7.5585 </r>
       <r>    -3.4846    10.9755     7.9615 </r>
       <r>    -3.4479     1.0148     7.9987 </r>
       <r>    -3.4112     0.0340     8.0000 </r>
       <r>    -3.3745     0.0004     8.0000 </r>
       <r>    -3.3377     0.0000     8.0000 </r>
       <r>    -3.3010     0.0000     8.0000 </r>
       <r>    -3.2643     0.0000     8.0000 </r>
       <r>    -3.2276     0.0000     8.0000 </r>
       <r>    -3.1909     0.0000     8.0000 </r>
       <r>    -3.1541     0.0000     8.0000 </r>
       <r>    -3.1174     0.0000     8.0000 </r>
       <r>    -3.0807     0.0000     8.0000 </r>
       <r>    -3.0440     0.0000     8.0000 </r>
       <r>    -3.0073     0.0000     8.0000 </r>
       <r>    -2.9705     0.0000     8.0000 </r>
       <r>    -2.9338     0.0000     8.0000 </r>
       <r>    -2.8971     0.0000     8.0000 </r>
       <r>    -2.8604     0.0000     8.0000 </r>
       <r>    -2.8237     0.0000     8.0000 </r>
       <r>    -2.7870     0.0000     8.0000 </r>
       <r>    -2.7502     0.0000     8.0000 </r>
       <r>    -2.7135     0.0000     8.0000 </r>
       <r>    -2.6768     0.0000     8.0000 </r>
       <r>    -2.6401     0.0000     8.0000 </r>
       <r>    -2.6034     0.0000     8.0000 </r>
       <r>    -2.5666     0.0000     8.0000 </r>
       <r>    -2.5299     0.0000     8.0000 </r>
       <r>    -2.4932     0.0000     8.0000 </r>
       <r>    -2.4565     0.0000     8.0000 </r>
       <r>    -2.4198     0.0000     8.0000 </r>
       <r>    -2.3830     0.0000     8.0000 </r>
       <r>    -2.3463     0.0000     8.0000 </r>
       <r>    -2.3096     0.0000     8.0000 </r>
       <r>    -2.2729     0.0000     8.0000 </r>
       <r>    -2.2362     0.0000     8.0000 </r>
       <r>    -2.1995     0.0000     8.0000 </r>
       <r>    -2.1627     0.0000     8.0000 </r>
       <r>    -2.1260     0.0000     8.0000 </r>
       <r>    -2.0893     0.0000     8.0000 </r>
       <r>    -2.0526     0.0000     8.0000 </r>
       <r>    -2.0159     0.0000     8.0000 </r>
       <r>    -1.9791     0.0000     8.0000 </r>
       <r>    -1.9424     0.0000     8.0000 </r>
       <r>    -1.9057     0.0000     8.0000 </r>
       <r>    -1.8690     0.0000     8.0000 </r>
       <r>    -1.8323     0.0000     8.0000 </r>
       <r>    -1.7955     0.0000     8.0000 </r>
       <r>    -1.7588     0.0000     8.0000 </r>
       <r>    -1.7221     0.0000     8.0000 </r>
       <r>    -1.6854     0.0000     8.0000 </r>
       <r>    -1.6487     0.0000     8.0000 </r>
       <r>    -1.6119     0.0000     8.0000 </r>
       <r>    -1.5752     0.0000     8.0000 </r>
       <r>    -1.5385     0.0000     8.0000 </r>
       <r>    -1.5018     0.0000     8.0000 </r>
       <r>    -1.4651     0.0000     8.0000 </r>
       <r>    -1.4284     0.0000     8.0000 </r>
       <r>    -1.3916     0.0000     8.0000 </r>
       <r>    -1.3549     0.0000     8.0000 </r>
       <r>    -1.3182     0.0000     8.0000 </r>
       <r>    -1.2815     0.0000     8.0000 </r>
       <r>    -1.2448     0.0000     8.0000 </r>
       <r>    -1.2080     0.0000     8.0000 </r>
       <r>    -1.1713     0.0000     8.0000 </r>
       <r>    -1.1346     0.0000     8.0000 </r>
       <r>    -1.0979     0.0000     8.0000 </r>
       <r>    -1.0612     0.0000     8.0000 </r>
       <r>    -1.0244     0.0000     8.0000 </r>
       <r>    -0.9877     0.0000     8.0000 </r>
       <r>    -0.9510     0.0000     8.0000 </r>
       <r>    -0.9143     0.0000     8.0000 </r>
       <r>    -0.8776     0.0000     8.0000 </r>
       <r>    -0.8409     0.0000     8.0000 </r>
       <r>    -0.8041     0.0000     8.0000 </r>
       <r>    -0.7674     0.0000     8.0000 </r>
       <r>    -0.7307     0.0000     8.0000 </r>
       <r>    -0.6940     0.0000     8.0000 </r>
       <r>    -0.6573     0.0000     8.0000 </r>
       <r>    -0.6205     0.0000     8.0000 </r>
       <r>    -0.5838     0.0000     8.0000 </r>
       <r>    -0.5471     0.0000     8.0000 </r>
       <r>    -0.5104     0.0000     8.0000 </r>
       <r>    -0.4737     0.0000     8.0000 </r>
       <r>    -0.4369     0.0000     8.0000 </r>
       <r>    -0.4002     0.0000     8.0000 </r>
       <r>    -0.3635     0.0025     8.0001 </r>
       <r>    -0.3268     0.0609     8.0023 </r>
       <r>    -0.2901     0.6191     8.0251 </r>
       <r>    -0.2533     2.8919     8.1313 </r>
       <r>    -0.2166     7.0195     8.3890 </r>
       <r>    -0.1799    10.3112     8.7676 </r>
       <r>    -0.1432    10.8330     9.1654 </r>
       <r>    -0.1065     9.6243     9.5188 </r>
       <r>    -0.0698     7.3892     9.7901 </r>
       <r>    -0.0330     4.1107     9.9411 </r>
       <r>     0.0037     1.4039     9.9926 </r>
       <r>     0.0404     0.6220    10.0154 </r>
       <r>     0.0771     1.8051    10.0817 </r>
       <r>     0.1138     4.7925    10.2577 </r>
       <r>     0.1506     8.8615    10.5831 </r>
       <r>     0.1873    12.6080    11.0460 </r>
       <r>     0.2240    14.9682    11.5957 </r>
       <r>     0.2607    15.7479    12.1739 </r>
       <r>     0.2974    15.7699    12.7530 </r>
       <r>     0.3342    15.9227    13.3376 </r>
       <r>     0.3709    15.9655    13.9239 </r>
       <r>     0.4076    15.2572    14.4841 </r>
       <r>     0.4443    13.7757    14.9899 </r>
       <r>     0.4810    11.5789    15.4151 </r>
       <r>     0.5177     8.1001    15.7125 </r>
       <r>     0.5545     4.5508    15.8796 </r>
       <r>     0.5912     2.1729    15.9594 </r>
       <r>     0.6279     0.8569    15.9908 </r>
       <r>     0.6646     0.2195    15.9989 </r>
       <r>     0.7013     0.0282    15.9999 </r>
       <r>     0.7381     0.0016    16.0000 </r>
       <r>     0.7748     0.0000    16.0000 </r>
       <r>     0.8115     0.0000    16.0000 </r>
       <r>     0.8482     0.0000    16.0000 </r>
       <r>     0.8849     0.0000    16.0000 </r>
       <r>     0.9217     0.0000    16.0000 </r>
       <r>     0.9584     0.0000    16.0000 </r>
       <r>     0.9951     0.0000    16.0000 </r>
       <r>     1.0318     0.0000    16.0000 </r>
       <r>     1.0685     0.0000    16.0000 </r>
       <r>     1.1053     0.0000    16.0000 </r>
      </set>
     </set>
    </array>
   </total>
  </dos>
 </calculation>
 <structure name="finalpos" >
  <crystal>
   <varray name="basis" >
    <v>      15.00000000       0.00000000       0.00000000 </v>
    <v>       0.00000000      12.50000000       0.00000000 </v>
    <v>       0.00000000       0.00000000      18.00000000 </v>
   </varray>
   <i name="volume">   3375.00000000 </i>
   <varray name="rec_basis" >
    <v>       0.06666667       0.00000000       0.00000000 </v>
    <v>       0.00000000       0.08000000       0.00000000 </v>
    <v>       0.00000000       0.00000000       0.05555556 </v>
   </varray>
  </crystal>
  <varray name="positions" >
   <v>       0.52123000       0.54500000       0.63796000 </v>
  </varray>
 </structure>
</modeling>
