  14  14   0   0
  0.1021960E+02  0.5697000E-09  0.4047900E-09  0.6204200E-09  0.5000000E-15
  1.000000000000000E-004
  CAR 
 Kpoints                                 
     18.18965294    -13.85713599  301      2.36410001      1.00000000
    -13.857  0.0000E+00  0.0000E+00
    -13.750  0.0000E+00  0.0000E+00
    -13.643  0.0000E+00  0.0000E+00
    -13.537  0.0000E+00  0.0000E+00
    -13.430  0.0000E+00  0.0000E+00
    -13.323  0.0000E+00  0.0000E+00
    -13.216  0.0000E+00  0.0000E+00
    -13.109  0.0000E+00  0.0000E+00
    -13.003  0.0000E+00  0.0000E+00
    -12.896  0.0000E+00  0.0000E+00
    -12.789  0.0000E+00  0.0000E+00
    -12.682  0.1559E-13  0.1665E-14
    -12.575  0.7161E-05  0.7649E-06
    -12.468  0.5103E+00  0.5452E-01
    -12.362  0.1567E+02  0.1728E+01
    -12.255  0.2545E+01  0.2000E+01
    -12.148  0.3545E-03  0.2000E+01
    -12.041  0.8643E-11  0.2000E+01
    -11.934  0.0000E+00  0.2000E+01
    -11.828  0.0000E+00  0.2000E+01
    -11.721  0.0000E+00  0.2000E+01
    -11.614  0.0000E+00  0.2000E+01
    -11.507  0.2979E-09  0.2000E+01
    -11.400  0.2795E-02  0.2000E+01
    -11.293  0.5163E+01  0.2552E+01
    -11.187  0.1341E+02  0.3985E+01
    -11.080  0.1428E+00  0.4000E+01
    -10.973  0.4777E-06  0.4000E+01
    -10.866  0.0000E+00  0.4000E+01
    -10.759  0.0000E+00  0.4000E+01
    -10.652  0.0000E+00  0.4000E+01
    -10.546  0.0000E+00  0.4000E+01
    -10.439  0.0000E+00  0.4000E+01
    -10.332  0.0000E+00  0.4000E+01
    -10.225  0.0000E+00  0.4000E+01
    -10.118  0.0000E+00  0.4000E+01
    -10.012  0.0000E+00  0.4000E+01
     -9.905  0.0000E+00  0.4000E+01
     -9.798  0.0000E+00  0.4000E+01
     -9.691  0.0000E+00  0.4000E+01
     -9.584  0.0000E+00  0.4000E+01
     -9.477  0.0000E+00  0.4000E+01
     -9.371  0.0000E+00  0.4000E+01
     -9.264  0.0000E+00  0.4000E+01
     -9.157  0.0000E+00  0.4000E+01
     -9.050  0.0000E+00  0.4000E+01
     -8.943  0.0000E+00  0.4000E+01
     -8.836  0.0000E+00  0.4000E+01
     -8.730  0.0000E+00  0.4000E+01
     -8.623  0.0000E+00  0.4000E+01
     -8.516  0.2870E-10  0.4000E+01
     -8.409  0.7216E-03  0.4000E+01
     -8.302  0.3289E+01  0.4351E+01
     -8.196  0.1782E+02  0.6255E+01
     -8.089  0.1588E+02  0.7951E+01
     -7.982  0.4610E+00  0.8000E+01
     -7.875  0.5716E-05  0.8000E+01
     -7.768  0.1039E-13  0.8000E+01
     -7.661  0.0000E+00  0.8000E+01
     -7.555  0.0000E+00  0.8000E+01
     -7.448  0.0000E+00  0.8000E+01
     -7.341  0.0000E+00  0.8000E+01
     -7.234  0.0000E+00  0.8000E+01
     -7.127  0.0000E+00  0.8000E+01
     -7.020  0.0000E+00  0.8000E+01
     -6.914  0.0000E+00  0.8000E+01
     -6.807  0.0000E+00  0.8000E+01
     -6.700  0.0000E+00  0.8000E+01
     -6.593  0.0000E+00  0.8000E+01
     -6.486  0.0000E+00  0.8000E+01
     -6.380  0.0000E+00  0.8000E+01
     -6.273  0.0000E+00  0.8000E+01
     -6.166  0.0000E+00  0.8000E+01
     -6.059  0.5810E-12  0.8000E+01
     -5.952  0.6917E-04  0.8000E+01
     -5.845  0.1349E+01  0.8144E+01
     -5.739  0.1626E+02  0.9881E+01
     -5.632  0.1110E+01  0.1000E+02
     -5.525  0.4311E-04  0.1000E+02
     -5.418  0.2702E-12  0.1000E+02
     -5.311  0.0000E+00  0.1000E+02
     -5.205  0.0000E+00  0.1000E+02
     -5.098  0.3739E-10  0.1000E+02
     -4.991  0.8429E-03  0.1000E+02
     -4.884  0.3472E+01  0.1037E+02
     -4.777  0.1494E+02  0.1197E+02
     -4.670  0.3130E+00  0.1200E+02
     -4.564  0.7627E-01  0.1201E+02
     -4.457  0.1203E+02  0.1329E+02
     -4.350  0.6615E+01  0.1400E+02
     -4.243  0.2702E+01  0.1429E+02
     -4.136  0.1556E+02  0.1595E+02
     -4.029  0.4692E+00  0.1600E+02
     -3.923  0.5946E-05  0.1600E+02
     -3.816  0.1111E-01  0.1600E+02
     -3.709  0.7715E+01  0.1683E+02
     -3.602  0.1097E+02  0.1800E+02
     -3.495  0.9398E+01  0.1900E+02
     -3.389  0.9325E+01  0.2000E+02
     -3.282  0.2342E-01  0.2000E+02
     -3.175  0.1403E-07  0.2000E+02
     -3.068  0.0000E+00  0.2000E+02
     -2.961  0.0000E+00  0.2000E+02
     -2.854  0.0000E+00  0.2000E+02
     -2.748  0.2490E-07  0.2000E+02
     -2.641  0.3174E-01  0.2000E+02
     -2.534  0.1001E+02  0.2107E+02
     -2.427  0.9742E+01  0.2211E+02
     -2.320  0.1628E+02  0.2385E+02
     -2.213  0.1384E+01  0.2400E+02
     -2.107  0.7907E-04  0.2400E+02
     -2.000  0.4462E+00  0.2405E+02
     -1.893  0.1549E+02  0.2570E+02
     -1.786  0.2788E+01  0.2600E+02
     -1.679  0.4545E-03  0.2600E+02
     -1.573  0.1312E-10  0.2600E+02
     -1.466  0.0000E+00  0.2600E+02
     -1.359  0.0000E+00  0.2600E+02
     -1.252  0.0000E+00  0.2600E+02
     -1.145  0.0000E+00  0.2600E+02
     -1.038  0.0000E+00  0.2600E+02
     -0.932  0.7966E-11  0.2600E+02
     -0.825  0.3377E-03  0.2600E+02
     -0.718  0.2500E+01  0.2627E+02
     -0.611  0.1570E+02  0.2794E+02
     -0.504  0.5237E+00  0.2800E+02
     -0.397  0.7584E-05  0.2800E+02
     -0.291  0.1663E-13  0.2800E+02
     -0.184  0.0000E+00  0.2800E+02
     -0.077  0.1370E-07  0.2800E+02
      0.030  0.2312E-01  0.2800E+02
      0.137  0.9359E+01  0.2900E+02
      0.243  0.2345E+02  0.3151E+02
      0.350  0.3918E+02  0.3569E+02
      0.457  0.2869E+01  0.3600E+02
      0.564  0.3946E-03  0.3600E+02
      0.671  0.1912E+01  0.3620E+02
      0.778  0.1606E+02  0.3792E+02
      0.884  0.7468E+00  0.3800E+02
      0.991  0.1696E-04  0.3800E+02
      1.098  0.6028E-13  0.3800E+02
      1.205  0.0000E+00  0.3800E+02
      1.312  0.0000E+00  0.3800E+02
      1.419  0.0000E+00  0.3800E+02
      1.525  0.0000E+00  0.3800E+02
      1.632  0.0000E+00  0.3800E+02
      1.739  0.0000E+00  0.3800E+02
      1.846  0.0000E+00  0.3800E+02
      1.953  0.0000E+00  0.3800E+02
      2.059  0.9873E-13  0.3800E+02
      2.166  0.2979E-04  0.3800E+02
      2.273  0.1460E+01  0.3816E+02
      2.380  0.4328E+02  0.4278E+02
      2.487  0.1142E+02  0.4400E+02
      2.594  0.9875E-02  0.4400E+02
      2.700  0.2652E-08  0.4400E+02
      2.807  0.0000E+00  0.4400E+02
      2.914  0.0000E+00  0.4400E+02
      3.021  0.0000E+00  0.4400E+02
      3.128  0.0000E+00  0.4400E+02
      3.234  0.0000E+00  0.4400E+02
      3.341  0.0000E+00  0.4400E+02
      3.448  0.0000E+00  0.4400E+02
      3.555  0.0000E+00  0.4400E+02
      3.662  0.0000E+00  0.4400E+02
      3.769  0.0000E+00  0.4400E+02
      3.875  0.0000E+00  0.4400E+02
      3.982  0.0000E+00  0.4400E+02
      4.089  0.0000E+00  0.4400E+02
      4.196  0.0000E+00  0.4400E+02
      4.303  0.0000E+00  0.4400E+02
      4.410  0.0000E+00  0.4400E+02
      4.516  0.0000E+00  0.4400E+02
      4.623  0.0000E+00  0.4400E+02
      4.730  0.0000E+00  0.4400E+02
      4.837  0.0000E+00  0.4400E+02
      4.944  0.0000E+00  0.4400E+02
      5.050  0.0000E+00  0.4400E+02
      5.157  0.0000E+00  0.4400E+02
      5.264  0.3118E-14  0.4400E+02
      5.371  0.2603E-05  0.4400E+02
      5.478  0.3213E+00  0.4403E+02
      5.585  0.1498E+02  0.4563E+02
      5.691  0.3420E+01  0.4600E+02
      5.798  0.7245E-02  0.4600E+02
      5.905  0.8479E+01  0.4691E+02
      6.012  0.2822E+02  0.4992E+02
      6.119  0.1320E+02  0.5133E+02
      6.226  0.6260E+01  0.5200E+02
      6.332  0.5276E-02  0.5200E+02
      6.439  0.9177E-09  0.5200E+02
      6.546  0.0000E+00  0.5200E+02
      6.653  0.1734E-06  0.5200E+02
      6.760  0.8630E-01  0.5201E+02
      6.866  0.1231E+02  0.5332E+02
      6.973  0.6325E+01  0.5400E+02
      7.080  0.5466E-02  0.5400E+02
      7.187  0.9778E-09  0.5400E+02
      7.294  0.0000E+00  0.5400E+02
      7.401  0.0000E+00  0.5400E+02
      7.507  0.0000E+00  0.5400E+02
      7.614  0.4210E-06  0.5400E+02
      7.721  0.1342E+00  0.5401E+02
      7.828  0.1336E+02  0.5544E+02
      7.935  0.1739E+02  0.5730E+02
      8.042  0.6554E+01  0.5800E+02
      8.148  0.6167E-02  0.5800E+02
      8.255  0.1214E-08  0.5800E+02
      8.362  0.0000E+00  0.5800E+02
      8.469  0.0000E+00  0.5800E+02
      8.576  0.1154E-10  0.5800E+02
      8.682  0.4211E-03  0.5800E+02
      8.789  0.2714E+01  0.5829E+02
      8.896  0.2097E+02  0.6053E+02
      9.003  0.1535E+02  0.6217E+02
      9.110  0.1629E+02  0.6391E+02
      9.217  0.1144E+01  0.6403E+02
      9.323  0.1480E+02  0.6561E+02
      9.430  0.3635E+01  0.6600E+02
      9.537  0.9623E-03  0.6600E+02
      9.644  0.4690E-10  0.6600E+02
      9.751  0.0000E+00  0.6600E+02
      9.857  0.5399E-08  0.6600E+02
      9.964  0.1401E-01  0.6600E+02
     10.071  0.8203E+01  0.6688E+02
     10.178  0.1047E+02  0.6800E+02
     10.285  0.3872E-01  0.6800E+02
     10.392  0.3638E-07  0.6800E+02
     10.498  0.0000E+00  0.6800E+02
     10.605  0.0000E+00  0.6800E+02
     10.712  0.0000E+00  0.6800E+02
     10.819  0.1039E-14  0.6800E+02
     10.926  0.1569E-05  0.6800E+02
     11.033  0.2533E+00  0.6803E+02
     11.139  0.1456E+02  0.6958E+02
     11.246  0.3907E+01  0.7000E+02
     11.353  0.1189E-02  0.7000E+02
     11.460  0.7701E-10  0.7000E+02
     11.567  0.3764E-03  0.7000E+02
     11.673  0.2602E+01  0.7028E+02
     11.780  0.1573E+02  0.7196E+02
     11.887  0.1378E+02  0.7343E+02
     11.994  0.2349E+02  0.7594E+02
     12.101  0.1836E+02  0.7790E+02
     12.208  0.9263E+00  0.7800E+02
     12.314  0.2805E-04  0.7800E+02
     12.421  0.4849E-01  0.7801E+02
     12.528  0.1098E+02  0.7918E+02
     12.635  0.7678E+01  0.8000E+02
     12.742  0.1092E-01  0.8000E+02
     12.849  0.6270E+00  0.8007E+02
     12.955  0.1590E+02  0.8177E+02
     13.062  0.2192E+01  0.8200E+02
     13.169  0.2380E-03  0.8200E+02
     13.276  0.2409E-09  0.8200E+02
     13.383  0.2451E-02  0.8200E+02
     13.489  0.4953E+01  0.8253E+02
     13.596  0.1361E+02  0.8398E+02
     13.703  0.4537E+01  0.8447E+02
     13.810  0.1414E+02  0.8598E+02
     13.917  0.2030E+00  0.8600E+02
     14.024  0.9859E-06  0.8600E+02
     14.130  0.0000E+00  0.8600E+02
     14.237  0.0000E+00  0.8600E+02
     14.344  0.0000E+00  0.8600E+02
     14.451  0.0000E+00  0.8600E+02
     14.558  0.0000E+00  0.8600E+02
     14.665  0.0000E+00  0.8600E+02
     14.771  0.0000E+00  0.8600E+02
     14.878  0.0000E+00  0.8600E+02
     14.985  0.0000E+00  0.8600E+02
     15.092  0.0000E+00  0.8600E+02
     15.199  0.0000E+00  0.8600E+02
     15.305  0.0000E+00  0.8600E+02
     15.412  0.3991E-12  0.8600E+02
     15.519  0.5493E-04  0.8600E+02
     15.626  0.1274E+01  0.8614E+02
     15.733  0.2717E+02  0.8904E+02
     15.840  0.8986E+01  0.9000E+02
     15.946  0.1142E-01  0.9000E+02
     16.053  0.1031E-01  0.9000E+02
     16.160  0.7561E+01  0.9081E+02
     16.267  0.1110E+02  0.9199E+02
     16.374  0.5251E-01  0.9200E+02
     16.480  0.4254E+01  0.9245E+02
     16.587  0.1425E+02  0.9398E+02
     16.694  0.2760E+01  0.9427E+02
     16.801  0.1567E+02  0.9595E+02
     16.908  0.5103E+00  0.9600E+02
     17.015  0.7161E-05  0.9600E+02
     17.121  0.1663E-13  0.9600E+02
     17.228  0.0000E+00  0.9600E+02
     17.335  0.0000E+00  0.9600E+02
     17.442  0.0000E+00  0.9600E+02
     17.549  0.0000E+00  0.9600E+02
     17.656  0.0000E+00  0.9600E+02
     17.762  0.0000E+00  0.9600E+02
     17.869  0.0000E+00  0.9600E+02
     17.976  0.0000E+00  0.9600E+02
     18.083  0.0000E+00  0.9600E+02
     18.190  0.0000E+00  0.9600E+02
