  14  14   0   0
  0.1016451E+02  0.5686745E-09  0.4040614E-09  0.6193033E-09  0.5000000E-15
  1.000000000000000E-004
  CAR 
 Convergence                             
     18.06730483    -14.19759719  301      1.91558011      1.00000000
    -14.198  0.0000E+00  0.0000E+00
    -14.090  0.0000E+00  0.0000E+00
    -13.982  0.0000E+00  0.0000E+00
    -13.875  0.0000E+00  0.0000E+00
    -13.767  0.0000E+00  0.0000E+00
    -13.660  0.0000E+00  0.0000E+00
    -13.552  0.0000E+00  0.0000E+00
    -13.445  0.0000E+00  0.0000E+00
    -13.337  0.0000E+00  0.0000E+00
    -13.230  0.0000E+00  0.0000E+00
    -13.122  0.0000E+00  0.0000E+00
    -13.015  0.3933E-16  0.4229E-17
    -12.907  0.2714E-07  0.2919E-08
    -12.799  0.3734E-02  0.4016E-03
    -12.692  0.5064E+00  0.5487E-01
    -12.584  0.2384E+01  0.3113E+00
    -12.477  0.3551E+01  0.6932E+00
    -12.369  0.4362E+01  0.1162E+01
    -12.262  0.3539E+01  0.1543E+01
    -12.154  0.2732E+01  0.1837E+01
    -12.047  0.2745E+01  0.2132E+01
    -11.939  0.2513E+01  0.2402E+01
    -11.832  0.2771E+01  0.2700E+01
    -11.724  0.3447E+01  0.3071E+01
    -11.616  0.3533E+01  0.3451E+01
    -11.509  0.3082E+01  0.3782E+01
    -11.401  0.1626E+01  0.3957E+01
    -11.294  0.3909E+00  0.3999E+01
    -11.186  0.5591E-02  0.4000E+01
    -11.079  0.9549E-07  0.4000E+01
    -10.971  0.3277E-15  0.4000E+01
    -10.864  0.0000E+00  0.4000E+01
    -10.756  0.0000E+00  0.4000E+01
    -10.648  0.0000E+00  0.4000E+01
    -10.541  0.0000E+00  0.4000E+01
    -10.433  0.0000E+00  0.4000E+01
    -10.326  0.0000E+00  0.4000E+01
    -10.218  0.0000E+00  0.4000E+01
    -10.111  0.0000E+00  0.4000E+01
    -10.003  0.0000E+00  0.4000E+01
     -9.896  0.0000E+00  0.4000E+01
     -9.788  0.0000E+00  0.4000E+01
     -9.681  0.0000E+00  0.4000E+01
     -9.573  0.0000E+00  0.4000E+01
     -9.465  0.0000E+00  0.4000E+01
     -9.358  0.0000E+00  0.4000E+01
     -9.250  0.0000E+00  0.4000E+01
     -9.143  0.0000E+00  0.4000E+01
     -9.035  0.7633E-09  0.4000E+01
     -8.928  0.5729E-03  0.4000E+01
     -8.820  0.2686E+00  0.4029E+01
     -8.713  0.2063E+01  0.4251E+01
     -8.605  0.5270E+01  0.4818E+01
     -8.497  0.6952E+01  0.5565E+01
     -8.390  0.6316E+01  0.6245E+01
     -8.282  0.5320E+01  0.6817E+01
     -8.175  0.4819E+01  0.7335E+01
     -8.067  0.3885E+01  0.7753E+01
     -7.960  0.1670E+01  0.7932E+01
     -7.852  0.5767E+00  0.7994E+01
     -7.745  0.5128E-01  0.8000E+01
     -7.637  0.2257E-04  0.8000E+01
     -7.530  0.2271E-11  0.8000E+01
     -7.422  0.0000E+00  0.8000E+01
     -7.314  0.0000E+00  0.8000E+01
     -7.207  0.0000E+00  0.8000E+01
     -7.099  0.5924E-09  0.8000E+01
     -6.992  0.4522E-03  0.8000E+01
     -6.884  0.1172E+00  0.8013E+01
     -6.777  0.2551E+00  0.8040E+01
     -6.669  0.4287E+00  0.8086E+01
     -6.562  0.7657E+00  0.8169E+01
     -6.454  0.8612E+00  0.8261E+01
     -6.346  0.1460E+01  0.8418E+01
     -6.239  0.2000E+01  0.8633E+01
     -6.131  0.3065E+01  0.8963E+01
     -6.024  0.3763E+01  0.9368E+01
     -5.916  0.4099E+01  0.9808E+01
     -5.809  0.4035E+01  0.1024E+02
     -5.701  0.3829E+01  0.1065E+02
     -5.594  0.4068E+01  0.1109E+02
     -5.486  0.4224E+01  0.1155E+02
     -5.379  0.4514E+01  0.1203E+02
     -5.271  0.4563E+01  0.1252E+02
     -5.163  0.4482E+01  0.1300E+02
     -5.056  0.3847E+01  0.1342E+02
     -4.948  0.3237E+01  0.1377E+02
     -4.841  0.2918E+01  0.1408E+02
     -4.733  0.2381E+01  0.1434E+02
     -4.626  0.2896E+01  0.1465E+02
     -4.518  0.3359E+01  0.1501E+02
     -4.411  0.3508E+01  0.1539E+02
     -4.303  0.3286E+01  0.1574E+02
     -4.195  0.2944E+01  0.1606E+02
     -4.088  0.2900E+01  0.1637E+02
     -3.980  0.2965E+01  0.1669E+02
     -3.873  0.2831E+01  0.1699E+02
     -3.765  0.3136E+01  0.1733E+02
     -3.658  0.2840E+01  0.1763E+02
     -3.550  0.2704E+01  0.1792E+02
     -3.443  0.3043E+01  0.1825E+02
     -3.335  0.2608E+01  0.1853E+02
     -3.228  0.2905E+01  0.1884E+02
     -3.120  0.2675E+01  0.1913E+02
     -3.012  0.2779E+01  0.1943E+02
     -2.905  0.2992E+01  0.1975E+02
     -2.797  0.2957E+01  0.2007E+02
     -2.690  0.2411E+01  0.2033E+02
     -2.582  0.2685E+01  0.2062E+02
     -2.475  0.3032E+01  0.2095E+02
     -2.367  0.2964E+01  0.2126E+02
     -2.260  0.3210E+01  0.2161E+02
     -2.152  0.4040E+01  0.2204E+02
     -2.044  0.3656E+01  0.2244E+02
     -1.937  0.3336E+01  0.2280E+02
     -1.829  0.5315E+01  0.2337E+02
     -1.722  0.5677E+01  0.2398E+02
     -1.614  0.5542E+01  0.2457E+02
     -1.507  0.6184E+01  0.2524E+02
     -1.399  0.6061E+01  0.2589E+02
     -1.292  0.5487E+01  0.2648E+02
     -1.184  0.4705E+01  0.2699E+02
     -1.077  0.6456E+01  0.2768E+02
     -0.969  0.3706E+01  0.2808E+02
     -0.861  0.2261E+01  0.2832E+02
     -0.754  0.2689E+01  0.2861E+02
     -0.646  0.2884E+01  0.2892E+02
     -0.539  0.4680E+01  0.2943E+02
     -0.431  0.6896E+01  0.3017E+02
     -0.324  0.5644E+01  0.3077E+02
     -0.216  0.6770E+01  0.3150E+02
     -0.109  0.6361E+01  0.3219E+02
     -0.001  0.6761E+01  0.3291E+02
      0.107  0.6624E+01  0.3363E+02
      0.214  0.6390E+01  0.3431E+02
      0.322  0.8749E+01  0.3526E+02
      0.429  0.7809E+01  0.3609E+02
      0.537  0.8722E+01  0.3703E+02
      0.644  0.5032E+01  0.3757E+02
      0.752  0.2832E+01  0.3788E+02
      0.859  0.3381E+01  0.3824E+02
      0.967  0.3583E+01  0.3863E+02
      1.074  0.3505E+01  0.3900E+02
      1.182  0.2782E+01  0.3930E+02
      1.290  0.3447E+01  0.3967E+02
      1.397  0.4505E+01  0.4016E+02
      1.505  0.3726E+01  0.4056E+02
      1.612  0.3769E+01  0.4097E+02
      1.720  0.4544E+01  0.4145E+02
      1.827  0.3050E+01  0.4178E+02
      1.935  0.2494E+01  0.4205E+02
      2.042  0.2619E+01  0.4233E+02
      2.150  0.2101E+01  0.4256E+02
      2.258  0.2651E+01  0.4284E+02
      2.365  0.2509E+01  0.4311E+02
      2.473  0.1865E+01  0.4331E+02
      2.580  0.7760E+00  0.4340E+02
      2.688  0.3805E+00  0.4344E+02
      2.795  0.5652E+00  0.4350E+02
      2.903  0.4172E+00  0.4354E+02
      3.010  0.3080E+00  0.4358E+02
      3.118  0.7964E+00  0.4366E+02
      3.225  0.9968E+00  0.4377E+02
      3.333  0.4856E+00  0.4382E+02
      3.441  0.8817E-02  0.4382E+02
      3.548  0.1497E+00  0.4384E+02
      3.656  0.4009E+00  0.4388E+02
      3.763  0.3148E+00  0.4392E+02
      3.871  0.3847E+00  0.4396E+02
      3.978  0.3825E+00  0.4400E+02
      4.086  0.1948E-01  0.4400E+02
      4.193  0.1569E-03  0.4400E+02
      4.301  0.5642E-01  0.4401E+02
      4.408  0.1980E+00  0.4403E+02
      4.516  0.4102E+00  0.4407E+02
      4.624  0.5040E+00  0.4413E+02
      4.731  0.6627E+00  0.4420E+02
      4.839  0.8996E+00  0.4429E+02
      4.946  0.8560E+00  0.4439E+02
      5.054  0.8617E+00  0.4448E+02
      5.161  0.1291E+01  0.4462E+02
      5.269  0.1127E+01  0.4474E+02
      5.376  0.1684E+01  0.4492E+02
      5.484  0.2243E+01  0.4516E+02
      5.592  0.2477E+01  0.4543E+02
      5.699  0.2775E+01  0.4573E+02
      5.807  0.3463E+01  0.4610E+02
      5.914  0.3189E+01  0.4644E+02
      6.022  0.4388E+01  0.4691E+02
      6.129  0.4662E+01  0.4741E+02
      6.237  0.4020E+01  0.4785E+02
      6.344  0.4643E+01  0.4835E+02
      6.452  0.3975E+01  0.4877E+02
      6.559  0.4113E+01  0.4922E+02
      6.667  0.4390E+01  0.4969E+02
      6.775  0.3210E+01  0.5003E+02
      6.882  0.4050E+01  0.5047E+02
      6.990  0.4613E+01  0.5096E+02
      7.097  0.4507E+01  0.5145E+02
      7.205  0.4344E+01  0.5192E+02
      7.312  0.5630E+01  0.5252E+02
      7.420  0.4818E+01  0.5304E+02
      7.527  0.4414E+01  0.5352E+02
      7.635  0.4124E+01  0.5396E+02
      7.743  0.3530E+01  0.5434E+02
      7.850  0.3155E+01  0.5468E+02
      7.958  0.2973E+01  0.5500E+02
      8.065  0.3009E+01  0.5532E+02
      8.173  0.4172E+01  0.5577E+02
      8.280  0.3836E+01  0.5618E+02
      8.388  0.3610E+01  0.5657E+02
      8.495  0.3975E+01  0.5700E+02
      8.603  0.4157E+01  0.5745E+02
      8.710  0.4403E+01  0.5792E+02
      8.818  0.4139E+01  0.5836E+02
      8.926  0.5143E+01  0.5892E+02
      9.033  0.5136E+01  0.5947E+02
      9.141  0.5291E+01  0.6004E+02
      9.248  0.5263E+01  0.6060E+02
      9.356  0.4896E+01  0.6113E+02
      9.463  0.4729E+01  0.6164E+02
      9.571  0.4327E+01  0.6211E+02
      9.678  0.5115E+01  0.6266E+02
      9.786  0.5014E+01  0.6319E+02
      9.894  0.5322E+01  0.6377E+02
     10.001  0.4454E+01  0.6425E+02
     10.109  0.3577E+01  0.6463E+02
     10.216  0.5145E+01  0.6518E+02
     10.324  0.4709E+01  0.6569E+02
     10.431  0.4056E+01  0.6613E+02
     10.539  0.5533E+01  0.6672E+02
     10.646  0.5766E+01  0.6734E+02
     10.754  0.4041E+01  0.6778E+02
     10.861  0.3848E+01  0.6819E+02
     10.969  0.3178E+01  0.6853E+02
     11.077  0.4654E+01  0.6903E+02
     11.184  0.5575E+01  0.6963E+02
     11.292  0.6053E+01  0.7028E+02
     11.399  0.5969E+01  0.7093E+02
     11.507  0.5402E+01  0.7151E+02
     11.614  0.4157E+01  0.7195E+02
     11.722  0.4466E+01  0.7243E+02
     11.829  0.4871E+01  0.7296E+02
     11.937  0.4788E+01  0.7347E+02
     12.045  0.6062E+01  0.7412E+02
     12.152  0.5904E+01  0.7476E+02
     12.260  0.5861E+01  0.7539E+02
     12.367  0.5701E+01  0.7600E+02
     12.475  0.5064E+01  0.7655E+02
     12.582  0.5620E+01  0.7715E+02
     12.690  0.6032E+01  0.7780E+02
     12.797  0.6117E+01  0.7846E+02
     12.905  0.5806E+01  0.7908E+02
     13.012  0.5826E+01  0.7971E+02
     13.120  0.5557E+01  0.8031E+02
     13.228  0.6346E+01  0.8099E+02
     13.335  0.6200E+01  0.8166E+02
     13.443  0.5297E+01  0.8223E+02
     13.550  0.6152E+01  0.8289E+02
     13.658  0.5207E+01  0.8345E+02
     13.765  0.4792E+01  0.8396E+02
     13.873  0.6044E+01  0.8461E+02
     13.980  0.5524E+01  0.8521E+02
     14.088  0.5315E+01  0.8578E+02
     14.196  0.5471E+01  0.8637E+02
     14.303  0.4706E+01  0.8687E+02
     14.411  0.4821E+01  0.8739E+02
     14.518  0.5099E+01  0.8794E+02
     14.626  0.4991E+01  0.8848E+02
     14.733  0.5263E+01  0.8904E+02
     14.841  0.5122E+01  0.8959E+02
     14.948  0.4089E+01  0.9003E+02
     15.056  0.5168E+01  0.9059E+02
     15.163  0.6239E+01  0.9126E+02
     15.271  0.5566E+01  0.9186E+02
     15.379  0.5597E+01  0.9246E+02
     15.486  0.6067E+01  0.9311E+02
     15.594  0.5687E+01  0.9373E+02
     15.701  0.5871E+01  0.9436E+02
     15.809  0.4547E+01  0.9485E+02
     15.916  0.2420E+01  0.9511E+02
     16.024  0.2693E+01  0.9540E+02
     16.131  0.1887E+01  0.9560E+02
     16.239  0.1161E+01  0.9572E+02
     16.347  0.8840E+00  0.9582E+02
     16.454  0.6982E+00  0.9589E+02
     16.562  0.8095E+00  0.9598E+02
     16.669  0.1749E+00  0.9600E+02
     16.777  0.1650E-02  0.9600E+02
     16.884  0.1901E-07  0.9600E+02
     16.992  0.3277E-16  0.9600E+02
     17.099  0.0000E+00  0.9600E+02
     17.207  0.0000E+00  0.9600E+02
     17.314  0.0000E+00  0.9600E+02
     17.422  0.0000E+00  0.9600E+02
     17.530  0.0000E+00  0.9600E+02
     17.637  0.0000E+00  0.9600E+02
     17.745  0.0000E+00  0.9600E+02
     17.852  0.0000E+00  0.9600E+02
     17.960  0.0000E+00  0.9600E+02
     18.067  0.0000E+00  0.9600E+02
