 vasp.6.4.3 19Mar24 (build May 31 2024 16:31:43) complex                        
  
 executed on             LinuxIFC date 2024.11.11  16:05:09
 running   24 mpi-ranks, with    1 threads/rank, on    1 nodes
 distrk:  each k-point on   24 cores,    1 groups
 distr:  one band on NCORE=   1 cores,   24 groups


--------------------------------------------------------------------------------------------------------


 INCAR:
   SYSTEM = Convergence
   ISTART = 0
   ICHARG = 2
   PREC = Accurate
   ENCUT = 600
   LCHARG = .FALSE.
   LWAVE = .FALSE.
   ALGO = Normal
   NELM = 100
   EDIFF = 1E-6
   EDIFFG = -1E-3
   SIGMA = 0.05
   ISMEAR = 0
   ISPIN = 1
   NSW = 0
   IBRION = -1
   POTIM = .5
   ISIF = 2
   GGA = PE

 POTCAR:    PAW_PBE B 06Sep2000                   
 POTCAR:    PAW_PBE B 06Sep2000                   
   SHA256 =  a32ced30f5ae56fd4d10b4325ff17eb3e4e38ee0f4288bc219fb012fddfa6e97 B/POTCAR              
   COPYR  = (c) Copyright 06Sep2000 Georg Kresse                                                    
   COPYR  = This file is part of the software VASP. Any use, copying, and all other rights are regul
   COPYR  = If you do not have a valid VASP license, you may not use, copy or distribute this file. 
   VRHFIN =B: s2p1                                                                                  
   LEXCH  = PE                                                                                      
   EATOM  =    71.1703 eV,    5.2309 Ry                                                             
                                                                                                    
   TITEL  = PAW_PBE B 06Sep2000                                                                     
   LULTRA =        F    use ultrasoft PP ?                                                          
   IUNSCR =        1    unscreen: 0-lin 1-nonlin 2-no                                               
   RPACOR =    1.200    partial core radius                                                         
   POMASS =   10.811; ZVAL   =    3.000    mass and valenz                                          
   RCORE  =    1.700    outmost cutoff radius                                                       
   RWIGS  =    1.710; RWIGS  =    0.905    wigner-seitz radius (au A)                               
   ENMAX  =  318.614; ENMIN  =  238.960 eV                                                          
   ICORE  =        2    local potential                                                             
   LCOR   =        T    correct aug charges                                                         
   LPAW   =        T    paw PP                                                                      
   EAUG   =  535.514                                                                                
   DEXC   =    0.000                                                                                
   RMAX   =    1.732    core radius for proj-oper                                                   
   RAUG   =    1.300    factor for augmentation sphere                                              
   RDEP   =    1.757    radius for radial grids                                                     
   RDEPT  =    1.436    core radius for aug-charge                                                  
                                                                                                    
   Atomic configuration                                                                             
    4 entries                                                                                       
     n  l   j            E        occ.                                                              
     1  0  0.50      -180.5896   2.0000                                                             
     2  0  0.50        -9.4431   2.0000                                                             
     2  1  0.50        -3.6068   1.0000                                                             
     3  2  1.50        -4.0817   0.0000                                                             
   Description                                                                                      
     l       E           TYP  RCUT    TYP  RCUT                                                     
     0     -9.4430752     23  1.500                                                                 
     0      0.8675899     23  1.500                                                                 
     1     -3.6067955     23  1.700                                                                 
     1      6.1086146     23  1.700                                                                 
     2     -4.0817478      7  1.700                                                                 
  local pseudopotential read in
  partial core-charges read in
  partial kinetic energy density read in
  atomic valenz-charges read in
  non local Contribution for L=           0  read in
    real space projection operators read in
  non local Contribution for L=           0  read in
    real space projection operators read in
  non local Contribution for L=           1  read in
    real space projection operators read in
  non local Contribution for L=           1  read in
    real space projection operators read in
    PAW grid and wavefunctions read in
 
   number of l-projection  operators is LMAX  =           4
   number of lm-projection operators is LMMAX =           8
 
  PAW_PBE B 06Sep2000                   :
 energy of atom  1       EATOM=  -71.1703
 kinetic energy error for atom=    0.0007 (will be added to EATOM!!)
 
 
 POSCAR: o-B14
  positions in direct lattice
  No initial velocities read in


 exchange-correlation table for PE
   RHO(1)=    0.500       N(1)  =     2000
   RHO(2)=  100.500       N(2)  =     4000
 


--------------------------------------------------------------------------------------------------------


 ion  position               nearest neighbor table
   1  0.521  0.500  0.638-  14 1.64   5 1.68  13 1.70   2 1.73   9 1.85  11 1.85
   2  0.479  0.500  0.362-  13 1.64   6 1.68  14 1.70   1 1.73  10 1.85  12 1.85
   3  0.979  0.500  0.638-  14 1.64   7 1.68  13 1.70   4 1.73   9 1.85  11 1.85
   4  0.021  0.500  0.362-  13 1.64   8 1.68  14 1.70   3 1.73  10 1.85  12 1.85
   5  0.601  0.500  0.900-   1 1.68   6 1.69   7 1.70   9 1.79  11 1.79
   6  0.399  0.500  0.100-   2 1.68   5 1.69   8 1.70  10 1.79  12 1.79
   7  0.899  0.500  0.900-   3 1.68   8 1.69   5 1.70   9 1.79  11 1.79
   8  0.101  0.500  0.100-   4 1.68   7 1.69   6 1.70  10 1.79  12 1.79
   9  0.750  0.792  0.730-  11 1.68   7 1.79   5 1.79   3 1.85   1 1.85  14 1.96
  10  0.250  0.208  0.270-  12 1.68   8 1.79   6 1.79   4 1.85   2 1.85  13 1.96
  11  0.750  0.208  0.730-   9 1.68   7 1.79   5 1.79   3 1.85   1 1.85  14 1.96
  12  0.250  0.792  0.270-  10 1.68   8 1.79   6 1.79   4 1.85   2 1.85  13 1.96
  13  0.250  0.500  0.524-   2 1.64   4 1.64   3 1.70   1 1.70  10 1.96  12 1.96
  14  0.750  0.500  0.476-   1 1.64   3 1.64   2 1.70   4 1.70   9 1.96  11 1.96
 
  LATTYP: Found a simple orthorhombic cell.
 ALAT       =     4.0406137800
 B/A-ratio  =     1.4073964278
 C/A-ratio  =     1.5326959658
  
  Lattice vectors:
  
 A1 = (   0.0000000000,  -4.0406137800,   0.0000000000)
 A2 = (   5.6867454000,   0.0000000000,   0.0000000000)
 A3 = (   0.0000000000,   0.0000000000,   6.1930324400)


Analysis of symmetry for initial positions (statically):
=====================================================================
 Subroutine PRICEL returns:
 Original cell was already a primitive cell.
 

 Routine SETGRP: Setting up the symmetry group for a 
 simple orthorhombic supercell.


 Subroutine GETGRP returns: Found  8 space group operations
 (whereof  4 operations were pure point group operations)
 out of a pool of  8 trial point group operations.


The static configuration has the point symmetry C_2h.
 The point group associated with its full space group is D_2h.


Analysis of symmetry for dynamics (positions and initial velocities):
=====================================================================
 Subroutine PRICEL returns:
 Original cell was already a primitive cell.
 

 Routine SETGRP: Setting up the symmetry group for a 
 simple orthorhombic supercell.


 Subroutine GETGRP returns: Found  8 space group operations
 (whereof  4 operations were pure point group operations)
 out of a pool of  8 trial point group operations.


The dynamic configuration has the point symmetry C_2h.
 The point group associated with its full space group is D_2h.


 Subroutine INISYM returns: Found  8 space group operations
 (whereof  4 operations are pure point group operations),
 and found     1 'primitive' translations


----------------------------------------------------------------------------------------

                                     Primitive cell                                     

  volume of cell :     142.3031

  direct lattice vectors                    reciprocal lattice vectors
     5.686745400  0.000000000  0.000000000     0.175847507  0.000000000  0.000000000
     0.000000000  4.040613780  0.000000000     0.000000000  0.247487153  0.000000000
     0.000000000  0.000000000  6.193032440     0.000000000  0.000000000  0.161471785

  length of vectors
     5.686745400  4.040613780  6.193032440     0.175847507  0.247487153  0.161471785

  position of ions in fractional coordinates (direct lattice)
     0.521230000  0.500000000  0.637960000
     0.478770000  0.500000000  0.362040000
     0.978770000  0.500000000  0.637960000
     0.021230000  0.500000000  0.362040000
     0.600900000  0.500000000  0.899910000
     0.399100000  0.500000000  0.100090000
     0.899100000  0.500000000  0.899910000
     0.100900000  0.500000000  0.100090000
     0.750000000  0.791710000  0.729730000
     0.250000000  0.208290000  0.270270000
     0.750000000  0.208290000  0.729730000
     0.250000000  0.791710000  0.270270000
     0.250000000  0.500000000  0.523670000
     0.750000000  0.500000000  0.476330000

  ion indices of the primitive-cell ions
   primitive index   ion index
                 1           1
                 2           2
                 3           3
                 4           4
                 5           5
                 6           6
                 7           7
                 8           8
                 9           9
                10          10
                11          11
                12          12
                13          13
                14          14

----------------------------------------------------------------------------------------

 
 
 KPOINTS: k-points                                

Automatic generation of k-mesh.
 Grid dimensions read from file:
 generate k-points for:   10   14    9

 Generating k-lattice:

  Cartesian coordinates                     Fractional coordinates (reciprocal lattice)
     0.017584751  0.000000000  0.000000000     0.100000000  0.000000000  0.000000000
     0.000000000  0.017677654  0.000000000     0.000000000  0.071428571  0.000000000
     0.000000000  0.000000000  0.017941309     0.000000000  0.000000000  0.111111111

  Length of vectors
     0.017584751  0.017677654  0.017941309

  Shift w.r.t. Gamma in fractional coordinates (k-lattice)
     0.500000000  0.500000000  0.000000000

 
 Subroutine IBZKPT returns following result:
 ===========================================
 
 Found    175 irreducible k-points:
 
 Following reciprocal coordinates:
            Coordinates               Weight
  0.050000  0.035714  0.000000      4.000000
  0.150000  0.035714  0.000000      4.000000
  0.250000  0.035714  0.000000      4.000000
  0.350000  0.035714  0.000000      4.000000
  0.450000  0.035714  0.000000      4.000000
  0.050000  0.107143  0.000000      4.000000
  0.150000  0.107143  0.000000      4.000000
  0.250000  0.107143  0.000000      4.000000
  0.350000  0.107143  0.000000      4.000000
  0.450000  0.107143  0.000000      4.000000
  0.050000  0.178571  0.000000      4.000000
  0.150000  0.178571  0.000000      4.000000
  0.250000  0.178571  0.000000      4.000000
  0.350000  0.178571  0.000000      4.000000
  0.450000  0.178571  0.000000      4.000000
  0.050000  0.250000  0.000000      4.000000
  0.150000  0.250000  0.000000      4.000000
  0.250000  0.250000  0.000000      4.000000
  0.350000  0.250000  0.000000      4.000000
  0.450000  0.250000  0.000000      4.000000
  0.050000  0.321429  0.000000      4.000000
  0.150000  0.321429  0.000000      4.000000
  0.250000  0.321429  0.000000      4.000000
  0.350000  0.321429  0.000000      4.000000
  0.450000  0.321429  0.000000      4.000000
  0.050000  0.392857  0.000000      4.000000
  0.150000  0.392857  0.000000      4.000000
  0.250000  0.392857  0.000000      4.000000
  0.350000  0.392857  0.000000      4.000000
  0.450000  0.392857  0.000000      4.000000
  0.050000  0.464286  0.000000      4.000000
  0.150000  0.464286  0.000000      4.000000
  0.250000  0.464286  0.000000      4.000000
  0.350000  0.464286  0.000000      4.000000
  0.450000  0.464286  0.000000      4.000000
  0.050000  0.035714  0.111111      8.000000
  0.150000  0.035714  0.111111      8.000000
  0.250000  0.035714  0.111111      8.000000
  0.350000  0.035714  0.111111      8.000000
  0.450000  0.035714  0.111111      8.000000
  0.050000  0.107143  0.111111      8.000000
  0.150000  0.107143  0.111111      8.000000
  0.250000  0.107143  0.111111      8.000000
  0.350000  0.107143  0.111111      8.000000
  0.450000  0.107143  0.111111      8.000000
  0.050000  0.178571  0.111111      8.000000
  0.150000  0.178571  0.111111      8.000000
  0.250000  0.178571  0.111111      8.000000
  0.350000  0.178571  0.111111      8.000000
  0.450000  0.178571  0.111111      8.000000
  0.050000  0.250000  0.111111      8.000000
  0.150000  0.250000  0.111111      8.000000
  0.250000  0.250000  0.111111      8.000000
  0.350000  0.250000  0.111111      8.000000
  0.450000  0.250000  0.111111      8.000000
  0.050000  0.321429  0.111111      8.000000
  0.150000  0.321429  0.111111      8.000000
  0.250000  0.321429  0.111111      8.000000
  0.350000  0.321429  0.111111      8.000000
  0.450000  0.321429  0.111111      8.000000
  0.050000  0.392857  0.111111      8.000000
  0.150000  0.392857  0.111111      8.000000
  0.250000  0.392857  0.111111      8.000000
  0.350000  0.392857  0.111111      8.000000
  0.450000  0.392857  0.111111      8.000000
  0.050000  0.464286  0.111111      8.000000
  0.150000  0.464286  0.111111      8.000000
  0.250000  0.464286  0.111111      8.000000
  0.350000  0.464286  0.111111      8.000000
  0.450000  0.464286  0.111111      8.000000
  0.050000  0.035714  0.222222      8.000000
  0.150000  0.035714  0.222222      8.000000
  0.250000  0.035714  0.222222      8.000000
  0.350000  0.035714  0.222222      8.000000
  0.450000  0.035714  0.222222      8.000000
  0.050000  0.107143  0.222222      8.000000
  0.150000  0.107143  0.222222      8.000000
  0.250000  0.107143  0.222222      8.000000
  0.350000  0.107143  0.222222      8.000000
  0.450000  0.107143  0.222222      8.000000
  0.050000  0.178571  0.222222      8.000000
  0.150000  0.178571  0.222222      8.000000
  0.250000  0.178571  0.222222      8.000000
  0.350000  0.178571  0.222222      8.000000
  0.450000  0.178571  0.222222      8.000000
  0.050000  0.250000  0.222222      8.000000
  0.150000  0.250000  0.222222      8.000000
  0.250000  0.250000  0.222222      8.000000
  0.350000  0.250000  0.222222      8.000000
  0.450000  0.250000  0.222222      8.000000
  0.050000  0.321429  0.222222      8.000000
  0.150000  0.321429  0.222222      8.000000
  0.250000  0.321429  0.222222      8.000000
  0.350000  0.321429  0.222222      8.000000
  0.450000  0.321429  0.222222      8.000000
  0.050000  0.392857  0.222222      8.000000
  0.150000  0.392857  0.222222      8.000000
  0.250000  0.392857  0.222222      8.000000
  0.350000  0.392857  0.222222      8.000000
  0.450000  0.392857  0.222222      8.000000
  0.050000  0.464286  0.222222      8.000000
  0.150000  0.464286  0.222222      8.000000
  0.250000  0.464286  0.222222      8.000000
  0.350000  0.464286  0.222222      8.000000
  0.450000  0.464286  0.222222      8.000000
  0.050000  0.035714  0.333333      8.000000
  0.150000  0.035714  0.333333      8.000000
  0.250000  0.035714  0.333333      8.000000
  0.350000  0.035714  0.333333      8.000000
  0.450000  0.035714  0.333333      8.000000
  0.050000  0.107143  0.333333      8.000000
  0.150000  0.107143  0.333333      8.000000
  0.250000  0.107143  0.333333      8.000000
  0.350000  0.107143  0.333333      8.000000
  0.450000  0.107143  0.333333      8.000000
  0.050000  0.178571  0.333333      8.000000
  0.150000  0.178571  0.333333      8.000000
  0.250000  0.178571  0.333333      8.000000
  0.350000  0.178571  0.333333      8.000000
  0.450000  0.178571  0.333333      8.000000
  0.050000  0.250000  0.333333      8.000000
  0.150000  0.250000  0.333333      8.000000
  0.250000  0.250000  0.333333      8.000000
  0.350000  0.250000  0.333333      8.000000
  0.450000  0.250000  0.333333      8.000000
  0.050000  0.321429  0.333333      8.000000
  0.150000  0.321429  0.333333      8.000000
  0.250000  0.321429  0.333333      8.000000
  0.350000  0.321429  0.333333      8.000000
  0.450000  0.321429  0.333333      8.000000
  0.050000  0.392857  0.333333      8.000000
  0.150000  0.392857  0.333333      8.000000
  0.250000  0.392857  0.333333      8.000000
  0.350000  0.392857  0.333333      8.000000
  0.450000  0.392857  0.333333      8.000000
  0.050000  0.464286  0.333333      8.000000
  0.150000  0.464286  0.333333      8.000000
  0.250000  0.464286  0.333333      8.000000
  0.350000  0.464286  0.333333      8.000000
  0.450000  0.464286  0.333333      8.000000
  0.050000  0.035714  0.444444      8.000000
  0.150000  0.035714  0.444444      8.000000
  0.250000  0.035714  0.444444      8.000000
  0.350000  0.035714  0.444444      8.000000
  0.450000  0.035714  0.444444      8.000000
  0.050000  0.107143  0.444444      8.000000
  0.150000  0.107143  0.444444      8.000000
  0.250000  0.107143  0.444444      8.000000
  0.350000  0.107143  0.444444      8.000000
  0.450000  0.107143  0.444444      8.000000
  0.050000  0.178571  0.444444      8.000000
  0.150000  0.178571  0.444444      8.000000
  0.250000  0.178571  0.444444      8.000000
  0.350000  0.178571  0.444444      8.000000
  0.450000  0.178571  0.444444      8.000000
  0.050000  0.250000  0.444444      8.000000
  0.150000  0.250000  0.444444      8.000000
  0.250000  0.250000  0.444444      8.000000
  0.350000  0.250000  0.444444      8.000000
  0.450000  0.250000  0.444444      8.000000
  0.050000  0.321429  0.444444      8.000000
  0.150000  0.321429  0.444444      8.000000
  0.250000  0.321429  0.444444      8.000000
  0.350000  0.321429  0.444444      8.000000
  0.450000  0.321429  0.444444      8.000000
  0.050000  0.392857  0.444444      8.000000
  0.150000  0.392857  0.444444      8.000000
  0.250000  0.392857  0.444444      8.000000
  0.350000  0.392857  0.444444      8.000000
  0.450000  0.392857  0.444444      8.000000
  0.050000  0.464286  0.444444      8.000000
  0.150000  0.464286  0.444444      8.000000
  0.250000  0.464286  0.444444      8.000000
  0.350000  0.464286  0.444444      8.000000
  0.450000  0.464286  0.444444      8.000000
 
 Following cartesian coordinates:
            Coordinates               Weight
  0.008777  0.008823  0.000000      4.000000
  0.026330  0.008823  0.000000      4.000000
  0.043883  0.008823  0.000000      4.000000
  0.061436  0.008823  0.000000      4.000000
  0.078989  0.008823  0.000000      4.000000
  0.008777  0.026469  0.000000      4.000000
  0.026330  0.026469  0.000000      4.000000
  0.043883  0.026469  0.000000      4.000000
  0.061436  0.026469  0.000000      4.000000
  0.078989  0.026469  0.000000      4.000000
  0.008777  0.044115  0.000000      4.000000
  0.026330  0.044115  0.000000      4.000000
  0.043883  0.044115  0.000000      4.000000
  0.061436  0.044115  0.000000      4.000000
  0.078989  0.044115  0.000000      4.000000
  0.008777  0.061760  0.000000      4.000000
  0.026330  0.061760  0.000000      4.000000
  0.043883  0.061760  0.000000      4.000000
  0.061436  0.061760  0.000000      4.000000
  0.078989  0.061760  0.000000      4.000000
  0.008777  0.079406  0.000000      4.000000
  0.026330  0.079406  0.000000      4.000000
  0.043883  0.079406  0.000000      4.000000
  0.061436  0.079406  0.000000      4.000000
  0.078989  0.079406  0.000000      4.000000
  0.008777  0.097052  0.000000      4.000000
  0.026330  0.097052  0.000000      4.000000
  0.043883  0.097052  0.000000      4.000000
  0.061436  0.097052  0.000000      4.000000
  0.078989  0.097052  0.000000      4.000000
  0.008777  0.114698  0.000000      4.000000
  0.026330  0.114698  0.000000      4.000000
  0.043883  0.114698  0.000000      4.000000
  0.061436  0.114698  0.000000      4.000000
  0.078989  0.114698  0.000000      4.000000
  0.008777  0.008823  0.017909      8.000000
  0.026330  0.008823  0.017909      8.000000
  0.043883  0.008823  0.017909      8.000000
  0.061436  0.008823  0.017909      8.000000
  0.078989  0.008823  0.017909      8.000000
  0.008777  0.026469  0.017909      8.000000
  0.026330  0.026469  0.017909      8.000000
  0.043883  0.026469  0.017909      8.000000
  0.061436  0.026469  0.017909      8.000000
  0.078989  0.026469  0.017909      8.000000
  0.008777  0.044115  0.017909      8.000000
  0.026330  0.044115  0.017909      8.000000
  0.043883  0.044115  0.017909      8.000000
  0.061436  0.044115  0.017909      8.000000
  0.078989  0.044115  0.017909      8.000000
  0.008777  0.061760  0.017909      8.000000
  0.026330  0.061760  0.017909      8.000000
  0.043883  0.061760  0.017909      8.000000
  0.061436  0.061760  0.017909      8.000000
  0.078989  0.061760  0.017909      8.000000
  0.008777  0.079406  0.017909      8.000000
  0.026330  0.079406  0.017909      8.000000
  0.043883  0.079406  0.017909      8.000000
  0.061436  0.079406  0.017909      8.000000
  0.078989  0.079406  0.017909      8.000000
  0.008777  0.097052  0.017909      8.000000
  0.026330  0.097052  0.017909      8.000000
  0.043883  0.097052  0.017909      8.000000
  0.061436  0.097052  0.017909      8.000000
  0.078989  0.097052  0.017909      8.000000
  0.008777  0.114698  0.017909      8.000000
  0.026330  0.114698  0.017909      8.000000
  0.043883  0.114698  0.017909      8.000000
  0.061436  0.114698  0.017909      8.000000
  0.078989  0.114698  0.017909      8.000000
  0.008777  0.008823  0.035818      8.000000
  0.026330  0.008823  0.035818      8.000000
  0.043883  0.008823  0.035818      8.000000
  0.061436  0.008823  0.035818      8.000000
  0.078989  0.008823  0.035818      8.000000
  0.008777  0.026469  0.035818      8.000000
  0.026330  0.026469  0.035818      8.000000
  0.043883  0.026469  0.035818      8.000000
  0.061436  0.026469  0.035818      8.000000
  0.078989  0.026469  0.035818      8.000000
  0.008777  0.044115  0.035818      8.000000
  0.026330  0.044115  0.035818      8.000000
  0.043883  0.044115  0.035818      8.000000
  0.061436  0.044115  0.035818      8.000000
  0.078989  0.044115  0.035818      8.000000
  0.008777  0.061760  0.035818      8.000000
  0.026330  0.061760  0.035818      8.000000
  0.043883  0.061760  0.035818      8.000000
  0.061436  0.061760  0.035818      8.000000
  0.078989  0.061760  0.035818      8.000000
  0.008777  0.079406  0.035818      8.000000
  0.026330  0.079406  0.035818      8.000000
  0.043883  0.079406  0.035818      8.000000
  0.061436  0.079406  0.035818      8.000000
  0.078989  0.079406  0.035818      8.000000
  0.008777  0.097052  0.035818      8.000000
  0.026330  0.097052  0.035818      8.000000
  0.043883  0.097052  0.035818      8.000000
  0.061436  0.097052  0.035818      8.000000
  0.078989  0.097052  0.035818      8.000000
  0.008777  0.114698  0.035818      8.000000
  0.026330  0.114698  0.035818      8.000000
  0.043883  0.114698  0.035818      8.000000
  0.061436  0.114698  0.035818      8.000000
  0.078989  0.114698  0.035818      8.000000
  0.008777  0.008823  0.053727      8.000000
  0.026330  0.008823  0.053727      8.000000
  0.043883  0.008823  0.053727      8.000000
  0.061436  0.008823  0.053727      8.000000
  0.078989  0.008823  0.053727      8.000000
  0.008777  0.026469  0.053727      8.000000
  0.026330  0.026469  0.053727      8.000000
  0.043883  0.026469  0.053727      8.000000
  0.061436  0.026469  0.053727      8.000000
  0.078989  0.026469  0.053727      8.000000
  0.008777  0.044115  0.053727      8.000000
  0.026330  0.044115  0.053727      8.000000
  0.043883  0.044115  0.053727      8.000000
  0.061436  0.044115  0.053727      8.000000
  0.078989  0.044115  0.053727      8.000000
  0.008777  0.061760  0.053727      8.000000
  0.026330  0.061760  0.053727      8.000000
  0.043883  0.061760  0.053727      8.000000
  0.061436  0.061760  0.053727      8.000000
  0.078989  0.061760  0.053727      8.000000
  0.008777  0.079406  0.053727      8.000000
  0.026330  0.079406  0.053727      8.000000
  0.043883  0.079406  0.053727      8.000000
  0.061436  0.079406  0.053727      8.000000
  0.078989  0.079406  0.053727      8.000000
  0.008777  0.097052  0.053727      8.000000
  0.026330  0.097052  0.053727      8.000000
  0.043883  0.097052  0.053727      8.000000
  0.061436  0.097052  0.053727      8.000000
  0.078989  0.097052  0.053727      8.000000
  0.008777  0.114698  0.053727      8.000000
  0.026330  0.114698  0.053727      8.000000
  0.043883  0.114698  0.053727      8.000000
  0.061436  0.114698  0.053727      8.000000
  0.078989  0.114698  0.053727      8.000000
  0.008777  0.008823  0.071636      8.000000
  0.026330  0.008823  0.071636      8.000000
  0.043883  0.008823  0.071636      8.000000
  0.061436  0.008823  0.071636      8.000000
  0.078989  0.008823  0.071636      8.000000
  0.008777  0.026469  0.071636      8.000000
  0.026330  0.026469  0.071636      8.000000
  0.043883  0.026469  0.071636      8.000000
  0.061436  0.026469  0.071636      8.000000
  0.078989  0.026469  0.071636      8.000000
  0.008777  0.044115  0.071636      8.000000
  0.026330  0.044115  0.071636      8.000000
  0.043883  0.044115  0.071636      8.000000
  0.061436  0.044115  0.071636      8.000000
  0.078989  0.044115  0.071636      8.000000
  0.008777  0.061760  0.071636      8.000000
  0.026330  0.061760  0.071636      8.000000
  0.043883  0.061760  0.071636      8.000000
  0.061436  0.061760  0.071636      8.000000
  0.078989  0.061760  0.071636      8.000000
  0.008777  0.079406  0.071636      8.000000
  0.026330  0.079406  0.071636      8.000000
  0.043883  0.079406  0.071636      8.000000
  0.061436  0.079406  0.071636      8.000000
  0.078989  0.079406  0.071636      8.000000
  0.008777  0.097052  0.071636      8.000000
  0.026330  0.097052  0.071636      8.000000
  0.043883  0.097052  0.071636      8.000000
  0.061436  0.097052  0.071636      8.000000
  0.078989  0.097052  0.071636      8.000000
  0.008777  0.114698  0.071636      8.000000
  0.026330  0.114698  0.071636      8.000000
  0.043883  0.114698  0.071636      8.000000
  0.061436  0.114698  0.071636      8.000000
  0.078989  0.114698  0.071636      8.000000
 


--------------------------------------------------------------------------------------------------------




 Dimension of arrays:
   k-points           NKPTS =    175   k-points in BZ     NKDIM =    175   number of bands    NBANDS=     48
   number of dos      NEDOS =    301   number of ions     NIONS =     14
   non local maximal  LDIM  =      4   non local SUM 2l+1 LMDIM =      8
   total plane-waves  NPLWV =  76800
   max r-space proj   IRMAX =      1   max aug-charges    IRDMAX=   8615
   dimension x,y,z NGX =    48 NGY =   32 NGZ =   50
   dimension x,y,z NGXF=    96 NGYF=   64 NGZF=  100
   support grid    NGXF=    96 NGYF=   64 NGZF=  100
   ions per type =              14
   NGX,Y,Z   is equivalent  to a cutoff of  14.03, 13.17, 13.42 a.u.
   NGXF,Y,Z  is equivalent  to a cutoff of  28.06, 26.33, 26.84 a.u.

 SYSTEM =  Convergence                             
 POSCAR =  o-B14

 Startparameter for this run:
   NWRITE =      2    write-flag & timer
   PREC   = accura    normal or accurate (medium, high low for compatibility)
   ISTART =      0    job   : 0-new  1-cont  2-samecut
   ICHARG =      2    charge: 1-file 2-atom 10-const
   ISPIN  =      1    spin polarized calculation?
   LNONCOLLINEAR =      F non collinear calculations
   LSORBIT =      F    spin-orbit coupling
   INIWAV =      1    electr: 0-lowe 1-rand  2-diag
   LASPH  =      F    aspherical Exc in radial PAW
 Electronic Relaxation 1
   ENCUT  =  600.0 eV  44.10 Ry    6.64 a.u.  11.36  8.07 12.37*2*pi/ulx,y,z
   ENINI  =  600.0     initial cutoff
   ENAUG  =  535.5 eV  augmentation charge cutoff
   NELM   =    100;   NELMIN=  2; NELMDL= -5     # of ELM steps 
   EDIFF  = 0.1E-05   stopping-criterion for ELM
   LREAL  =      F    real-space projection
   NLSPLINE    = F    spline interpolate recip. space projectors
   LCOMPAT=      F    compatible to vasp.4.4
   GGA_COMPAT  = T    GGA compatible to vasp.4.4-vasp.4.6
   LMAXPAW     = -100 max onsite density
   LMAXMIX     =    2 max onsite mixed and CHGCAR
   VOSKOWN=      0    Vosko Wilk Nusair interpolation
   ROPT   =    0.00000
 Ionic relaxation
   EDIFFG = -.1E-02   stopping-criterion for IOM
   NSW    =      0    number of steps for IOM
   NBLOCK =      1;   KBLOCK =      1    inner block; outer block 
   IBRION =     -1    ionic relax: 0-MD 1-quasi-New 2-CG
   NFREE  =      0    steps in history (QN), initial steepest desc. (CG)
   ISIF   =      2    stress and relaxation
   IWAVPR =     10    prediction:  0-non 1-charg 2-wave 3-comb
   ISYM   =      2    0-nonsym 1-usesym 2-fastsym
   LCORR  =      T    Harris-Foulkes like correction to forces

   POTIM  = 0.5000    time-step for ionic-motion
   TEIN   =    0.0    initial temperature
   TEBEG  =    0.0;   TEEND  =   0.0 temperature during run
   SMASS  =  -3.00    Nose mass-parameter (am)
   estimated Nose-frequenzy (Omega)   =  0.10E-29 period in steps = 0.13E+47 mass=  -0.739E-27a.u.
   SCALEE = 1.0000    scale energy and forces
   NPACO  =    256;   APACO  = 10.0  distance and # of slots for P.C.
   PSTRESS=    0.0 pullay stress

  Mass of Ions in am
   POMASS =  10.81
  Ionic Valenz
   ZVAL   =   3.00
  Atomic Wigner-Seitz radii
   RWIGS  =  -1.00
  virtual crystal weights 
   VCA    =   1.00
   NELECT =      42.0000    total number of electrons
   NUPDOWN=      -1.0000    fix difference up-down

 DOS related values:
   EMIN   =  10.00;   EMAX   =-10.00  energy-range for DOS
   EFERMI =   0.00;   METHOD = LEGACY      
   ISMEAR =     0;   SIGMA  =   0.05  broadening in eV -4-tet -1-fermi 0-gaus

 Electronic relaxation 2 (details)
   IALGO  =     38    algorithm
   LDIAG  =      T    sub-space diagonalisation (order eigenvalues)
   LSUBROT=      F    optimize rotation matrix (better conditioning)
   TURBO    =      0    0=normal 1=particle mesh
   IRESTART =      0    0=no restart 2=restart with 2 vectors
   NREBOOT  =      0    no. of reboots
   NMIN     =      0    reboot dimension
   EREF     =   0.00    reference energy to select bands
   IMIX   =      4    mixing-type and parameters
     AMIX     =   0.40;   BMIX     =  1.00
     AMIX_MAG =   1.60;   BMIX_MAG =  1.00
     AMIN     =   0.10
     WC   =   100.;   INIMIX=   1;  MIXPRE=   1;  MAXMIX= -45

 Intra band minimization:
   WEIMIN = 0.0000     energy-eigenvalue tresh-hold
   EBREAK =  0.52E-08  absolut break condition
   DEPER  =   0.30     relativ break condition  

   TIME   =   0.40     timestep for ELM

  volume/ion in A,a.u.               =      10.16        68.59
  Fermi-wavevector in a.u.,A,eV,Ry     =   1.089983  2.059769 16.164581  1.188063
  Thomas-Fermi vector in A             =   2.226198
 
 Write flags
   LWAVE        =      F    write WAVECAR
   LDOWNSAMPLE  =      F    k-point downsampling of WAVECAR
   LCHARG       =      F    write CHGCAR
   LVTOT        =      F    write LOCPOT, total local potential
   LVHAR        =      F    write LOCPOT, Hartree potential only
   WRT_POTENTIAL= false  ! write potential to hdf5 file
   LELF         =      F    write electronic localiz. function (ELF)
   LORBIT       =      0    0 simple, 1 ext, 2 COOP (PROOUT), +10 PAW based schemes


 Dipole corrections
   LMONO      =      F    monopole corrections only (constant potential shift)
   LDIPOL     =      F    correct potential (dipole corrections)
   IDIPOL     =      0    1-x, 2-y, 3-z, 4-all directions 
   EPSILON    =  1.0000000 bulk dielectric constant
   LVACPOTAV  =      F  vacuum potentials using an averaging scheme for the charge density
   VACPOTFLAT =  0.1000000 required flatness to determine vacuum potential
 Exchange correlation treatment:
   GGA     = PE    functional components
   XC_C    = 1    coefficients multiplying the functional components
   LIBXC   =     F    Libxc                    
   VOSKOWN =     0    Vosko Wilk Nusair interpolation
   LHFCALC =     F    Hartree Fock is set to
   LHFONE  =     F    Hartree Fock one center treatment
   AEXX    =    0.0000 exact exchange contribution

 Parameters of functionals:
   PE:
     No parameter
 
 Van der Waals corrections
   IVDW    =     0    specifies the selected vdW correction

 Linear response parameters
   LEPSILON=     F    determine dielectric tensor
   LRPA    =     F    only Hartree local field effects (RPA)
   LNABLA  =     F    use nabla operator in PAW spheres
   LVEL    =     F    velocity operator in full k-point grid
   CSHIFT  =0.1000    complex shift for real part using Kramers Kronig
   OMEGAMAX=  -1.0    maximum frequency
   DEG_THRESHOLD= 0.2000000E-02 threshold for treating states as degnerate
   RTIME   =   -0.100 relaxation time in fs
  (WPLASMAI=    0.000 imaginary part of plasma frequency in eV, 0.658/RTIME)
   DFIELD  = 0.0000000 0.0000000 0.0000000 field for delta impulse in time
 
  Optional k-point grid parameters
   LKPOINTS_OPT  =     F    use optional k-point grid
   KPOINTS_OPT_MODE=     1    mode for optional k-point grid
 
 Orbital magnetization related:
   ORBITALMAG=     F  switch on orbital magnetization
   LCHIMAG   =     F  perturbation theory with respect to B field
   DQ        =  0.001000  dq finite difference perturbation B field
   LLRAUG    =     F  two centre corrections for induced B field
   LBONE     =     F  B-component reconstruction in AE one-centre
   LVGVCALC  =     T  calculate vGv susceptibility
   LVGVAPPL  =     F  apply vGv susceptibility instead of pGv for G=0

 Random number generation:
   RANDOM_GENERATOR = DEFAULT
   PCG_SEED         = not used


--------------------------------------------------------------------------------------------------------


 Static calculation
 charge density and potential will be updated during run
 non-spin polarized calculation
 Variant of blocked Davidson
 Davidson routine will perform the subspace rotation
 perform sub-space diagonalisation
    after iterative eigenvector-optimisation
 modified Broyden-mixing scheme, WC =      100.0
 initial mixing is a Kerker type mixing with AMIX =  0.4000 and BMIX =      1.0000
 Hartree-type preconditioning will be used
 using additional bands           27
 reciprocal scheme for non local part
 use partial core corrections
 calculate Harris-corrections to forces 
   (improved forces if not selfconsistent)
 use gradient corrections 
 use of overlap-Matrix (Vanderbilt PP)
 Gauss-broadening in eV      SIGMA  =   0.05


--------------------------------------------------------------------------------------------------------


  energy-cutoff  :      600.00
  volume of cell :      142.30
      direct lattice vectors                 reciprocal lattice vectors
     5.686745400  0.000000000  0.000000000     0.175847507  0.000000000  0.000000000
     0.000000000  4.040613780  0.000000000     0.000000000  0.247487153  0.000000000
     0.000000000  0.000000000  6.193032440     0.000000000  0.000000000  0.161471785

  length of vectors
     5.686745400  4.040613780  6.193032440     0.175847507  0.247487153  0.161471785


 
 k-points in units of 2pi/SCALE and weight: k-points                                
   0.00877655  0.00882292  0.00000000       0.003
   0.02632965  0.00882292  0.00000000       0.003
   0.04388275  0.00882292  0.00000000       0.003
   0.06143584  0.00882292  0.00000000       0.003
   0.07898894  0.00882292  0.00000000       0.003
   0.00877655  0.02646875  0.00000000       0.003
   0.02632965  0.02646875  0.00000000       0.003
   0.04388275  0.02646875  0.00000000       0.003
   0.06143584  0.02646875  0.00000000       0.003
   0.07898894  0.02646875  0.00000000       0.003
   0.00877655  0.04411458  0.00000000       0.003
   0.02632965  0.04411458  0.00000000       0.003
   0.04388275  0.04411458  0.00000000       0.003
   0.06143584  0.04411458  0.00000000       0.003
   0.07898894  0.04411458  0.00000000       0.003
   0.00877655  0.06176042  0.00000000       0.003
   0.02632965  0.06176042  0.00000000       0.003
   0.04388275  0.06176042  0.00000000       0.003
   0.06143584  0.06176042  0.00000000       0.003
   0.07898894  0.06176042  0.00000000       0.003
   0.00877655  0.07940625  0.00000000       0.003
   0.02632965  0.07940625  0.00000000       0.003
   0.04388275  0.07940625  0.00000000       0.003
   0.06143584  0.07940625  0.00000000       0.003
   0.07898894  0.07940625  0.00000000       0.003
   0.00877655  0.09705209  0.00000000       0.003
   0.02632965  0.09705209  0.00000000       0.003
   0.04388275  0.09705209  0.00000000       0.003
   0.06143584  0.09705209  0.00000000       0.003
   0.07898894  0.09705209  0.00000000       0.003
   0.00877655  0.11469792  0.00000000       0.003
   0.02632965  0.11469792  0.00000000       0.003
   0.04388275  0.11469792  0.00000000       0.003
   0.06143584  0.11469792  0.00000000       0.003
   0.07898894  0.11469792  0.00000000       0.003
   0.00877655  0.00882292  0.01790902       0.006
   0.02632965  0.00882292  0.01790902       0.006
   0.04388275  0.00882292  0.01790902       0.006
   0.06143584  0.00882292  0.01790902       0.006
   0.07898894  0.00882292  0.01790902       0.006
   0.00877655  0.02646875  0.01790902       0.006
   0.02632965  0.02646875  0.01790902       0.006
   0.04388275  0.02646875  0.01790902       0.006
   0.06143584  0.02646875  0.01790902       0.006
   0.07898894  0.02646875  0.01790902       0.006
   0.00877655  0.04411458  0.01790902       0.006
   0.02632965  0.04411458  0.01790902       0.006
   0.04388275  0.04411458  0.01790902       0.006
   0.06143584  0.04411458  0.01790902       0.006
   0.07898894  0.04411458  0.01790902       0.006
   0.00877655  0.06176042  0.01790902       0.006
   0.02632965  0.06176042  0.01790902       0.006
   0.04388275  0.06176042  0.01790902       0.006
   0.06143584  0.06176042  0.01790902       0.006
   0.07898894  0.06176042  0.01790902       0.006
   0.00877655  0.07940625  0.01790902       0.006
   0.02632965  0.07940625  0.01790902       0.006
   0.04388275  0.07940625  0.01790902       0.006
   0.06143584  0.07940625  0.01790902       0.006
   0.07898894  0.07940625  0.01790902       0.006
   0.00877655  0.09705209  0.01790902       0.006
   0.02632965  0.09705209  0.01790902       0.006
   0.04388275  0.09705209  0.01790902       0.006
   0.06143584  0.09705209  0.01790902       0.006
   0.07898894  0.09705209  0.01790902       0.006
   0.00877655  0.11469792  0.01790902       0.006
   0.02632965  0.11469792  0.01790902       0.006
   0.04388275  0.11469792  0.01790902       0.006
   0.06143584  0.11469792  0.01790902       0.006
   0.07898894  0.11469792  0.01790902       0.006
   0.00877655  0.00882292  0.03581803       0.006
   0.02632965  0.00882292  0.03581803       0.006
   0.04388275  0.00882292  0.03581803       0.006
   0.06143584  0.00882292  0.03581803       0.006
   0.07898894  0.00882292  0.03581803       0.006
   0.00877655  0.02646875  0.03581803       0.006
   0.02632965  0.02646875  0.03581803       0.006
   0.04388275  0.02646875  0.03581803       0.006
   0.06143584  0.02646875  0.03581803       0.006
   0.07898894  0.02646875  0.03581803       0.006
   0.00877655  0.04411458  0.03581803       0.006
   0.02632965  0.04411458  0.03581803       0.006
   0.04388275  0.04411458  0.03581803       0.006
   0.06143584  0.04411458  0.03581803       0.006
   0.07898894  0.04411458  0.03581803       0.006
   0.00877655  0.06176042  0.03581803       0.006
   0.02632965  0.06176042  0.03581803       0.006
   0.04388275  0.06176042  0.03581803       0.006
   0.06143584  0.06176042  0.03581803       0.006
   0.07898894  0.06176042  0.03581803       0.006
   0.00877655  0.07940625  0.03581803       0.006
   0.02632965  0.07940625  0.03581803       0.006
   0.04388275  0.07940625  0.03581803       0.006
   0.06143584  0.07940625  0.03581803       0.006
   0.07898894  0.07940625  0.03581803       0.006
   0.00877655  0.09705209  0.03581803       0.006
   0.02632965  0.09705209  0.03581803       0.006
   0.04388275  0.09705209  0.03581803       0.006
   0.06143584  0.09705209  0.03581803       0.006
   0.07898894  0.09705209  0.03581803       0.006
   0.00877655  0.11469792  0.03581803       0.006
   0.02632965  0.11469792  0.03581803       0.006
   0.04388275  0.11469792  0.03581803       0.006
   0.06143584  0.11469792  0.03581803       0.006
   0.07898894  0.11469792  0.03581803       0.006
   0.00877655  0.00882292  0.05372705       0.006
   0.02632965  0.00882292  0.05372705       0.006
   0.04388275  0.00882292  0.05372705       0.006
   0.06143584  0.00882292  0.05372705       0.006
   0.07898894  0.00882292  0.05372705       0.006
   0.00877655  0.02646875  0.05372705       0.006
   0.02632965  0.02646875  0.05372705       0.006
   0.04388275  0.02646875  0.05372705       0.006
   0.06143584  0.02646875  0.05372705       0.006
   0.07898894  0.02646875  0.05372705       0.006
   0.00877655  0.04411458  0.05372705       0.006
   0.02632965  0.04411458  0.05372705       0.006
   0.04388275  0.04411458  0.05372705       0.006
   0.06143584  0.04411458  0.05372705       0.006
   0.07898894  0.04411458  0.05372705       0.006
   0.00877655  0.06176042  0.05372705       0.006
   0.02632965  0.06176042  0.05372705       0.006
   0.04388275  0.06176042  0.05372705       0.006
   0.06143584  0.06176042  0.05372705       0.006
   0.07898894  0.06176042  0.05372705       0.006
   0.00877655  0.07940625  0.05372705       0.006
   0.02632965  0.07940625  0.05372705       0.006
   0.04388275  0.07940625  0.05372705       0.006
   0.06143584  0.07940625  0.05372705       0.006
   0.07898894  0.07940625  0.05372705       0.006
   0.00877655  0.09705209  0.05372705       0.006
   0.02632965  0.09705209  0.05372705       0.006
   0.04388275  0.09705209  0.05372705       0.006
   0.06143584  0.09705209  0.05372705       0.006
   0.07898894  0.09705209  0.05372705       0.006
   0.00877655  0.11469792  0.05372705       0.006
   0.02632965  0.11469792  0.05372705       0.006
   0.04388275  0.11469792  0.05372705       0.006
   0.06143584  0.11469792  0.05372705       0.006
   0.07898894  0.11469792  0.05372705       0.006
   0.00877655  0.00882292  0.07163606       0.006
   0.02632965  0.00882292  0.07163606       0.006
   0.04388275  0.00882292  0.07163606       0.006
   0.06143584  0.00882292  0.07163606       0.006
   0.07898894  0.00882292  0.07163606       0.006
   0.00877655  0.02646875  0.07163606       0.006
   0.02632965  0.02646875  0.07163606       0.006
   0.04388275  0.02646875  0.07163606       0.006
   0.06143584  0.02646875  0.07163606       0.006
   0.07898894  0.02646875  0.07163606       0.006
   0.00877655  0.04411458  0.07163606       0.006
   0.02632965  0.04411458  0.07163606       0.006
   0.04388275  0.04411458  0.07163606       0.006
   0.06143584  0.04411458  0.07163606       0.006
   0.07898894  0.04411458  0.07163606       0.006
   0.00877655  0.06176042  0.07163606       0.006
   0.02632965  0.06176042  0.07163606       0.006
   0.04388275  0.06176042  0.07163606       0.006
   0.06143584  0.06176042  0.07163606       0.006
   0.07898894  0.06176042  0.07163606       0.006
   0.00877655  0.07940625  0.07163606       0.006
   0.02632965  0.07940625  0.07163606       0.006
   0.04388275  0.07940625  0.07163606       0.006
   0.06143584  0.07940625  0.07163606       0.006
   0.07898894  0.07940625  0.07163606       0.006
   0.00877655  0.09705209  0.07163606       0.006
   0.02632965  0.09705209  0.07163606       0.006
   0.04388275  0.09705209  0.07163606       0.006
   0.06143584  0.09705209  0.07163606       0.006
   0.07898894  0.09705209  0.07163606       0.006
   0.00877655  0.11469792  0.07163606       0.006
   0.02632965  0.11469792  0.07163606       0.006
   0.04388275  0.11469792  0.07163606       0.006
   0.06143584  0.11469792  0.07163606       0.006
   0.07898894  0.11469792  0.07163606       0.006
 
 k-points in reciprocal lattice and weights: k-points                                
   0.05000000  0.03571429  0.00000000       0.003
   0.15000000  0.03571429  0.00000000       0.003
   0.25000000  0.03571429  0.00000000       0.003
   0.35000000  0.03571429  0.00000000       0.003
   0.45000000  0.03571429  0.00000000       0.003
   0.05000000  0.10714286  0.00000000       0.003
   0.15000000  0.10714286  0.00000000       0.003
   0.25000000  0.10714286  0.00000000       0.003
   0.35000000  0.10714286  0.00000000       0.003
   0.45000000  0.10714286  0.00000000       0.003
   0.05000000  0.17857143  0.00000000       0.003
   0.15000000  0.17857143  0.00000000       0.003
   0.25000000  0.17857143  0.00000000       0.003
   0.35000000  0.17857143  0.00000000       0.003
   0.45000000  0.17857143  0.00000000       0.003
   0.05000000  0.25000000  0.00000000       0.003
   0.15000000  0.25000000  0.00000000       0.003
   0.25000000  0.25000000  0.00000000       0.003
   0.35000000  0.25000000  0.00000000       0.003
   0.45000000  0.25000000  0.00000000       0.003
   0.05000000  0.32142857  0.00000000       0.003
   0.15000000  0.32142857  0.00000000       0.003
   0.25000000  0.32142857  0.00000000       0.003
   0.35000000  0.32142857  0.00000000       0.003
   0.45000000  0.32142857  0.00000000       0.003
   0.05000000  0.39285714  0.00000000       0.003
   0.15000000  0.39285714  0.00000000       0.003
   0.25000000  0.39285714  0.00000000       0.003
   0.35000000  0.39285714  0.00000000       0.003
   0.45000000  0.39285714  0.00000000       0.003
   0.05000000  0.46428571  0.00000000       0.003
   0.15000000  0.46428571  0.00000000       0.003
   0.25000000  0.46428571  0.00000000       0.003
   0.35000000  0.46428571  0.00000000       0.003
   0.45000000  0.46428571  0.00000000       0.003
   0.05000000  0.03571429  0.11111111       0.006
   0.15000000  0.03571429  0.11111111       0.006
   0.25000000  0.03571429  0.11111111       0.006
   0.35000000  0.03571429  0.11111111       0.006
   0.45000000  0.03571429  0.11111111       0.006
   0.05000000  0.10714286  0.11111111       0.006
   0.15000000  0.10714286  0.11111111       0.006
   0.25000000  0.10714286  0.11111111       0.006
   0.35000000  0.10714286  0.11111111       0.006
   0.45000000  0.10714286  0.11111111       0.006
   0.05000000  0.17857143  0.11111111       0.006
   0.15000000  0.17857143  0.11111111       0.006
   0.25000000  0.17857143  0.11111111       0.006
   0.35000000  0.17857143  0.11111111       0.006
   0.45000000  0.17857143  0.11111111       0.006
   0.05000000  0.25000000  0.11111111       0.006
   0.15000000  0.25000000  0.11111111       0.006
   0.25000000  0.25000000  0.11111111       0.006
   0.35000000  0.25000000  0.11111111       0.006
   0.45000000  0.25000000  0.11111111       0.006
   0.05000000  0.32142857  0.11111111       0.006
   0.15000000  0.32142857  0.11111111       0.006
   0.25000000  0.32142857  0.11111111       0.006
   0.35000000  0.32142857  0.11111111       0.006
   0.45000000  0.32142857  0.11111111       0.006
   0.05000000  0.39285714  0.11111111       0.006
   0.15000000  0.39285714  0.11111111       0.006
   0.25000000  0.39285714  0.11111111       0.006
   0.35000000  0.39285714  0.11111111       0.006
   0.45000000  0.39285714  0.11111111       0.006
   0.05000000  0.46428571  0.11111111       0.006
   0.15000000  0.46428571  0.11111111       0.006
   0.25000000  0.46428571  0.11111111       0.006
   0.35000000  0.46428571  0.11111111       0.006
   0.45000000  0.46428571  0.11111111       0.006
   0.05000000  0.03571429  0.22222222       0.006
   0.15000000  0.03571429  0.22222222       0.006
   0.25000000  0.03571429  0.22222222       0.006
   0.35000000  0.03571429  0.22222222       0.006
   0.45000000  0.03571429  0.22222222       0.006
   0.05000000  0.10714286  0.22222222       0.006
   0.15000000  0.10714286  0.22222222       0.006
   0.25000000  0.10714286  0.22222222       0.006
   0.35000000  0.10714286  0.22222222       0.006
   0.45000000  0.10714286  0.22222222       0.006
   0.05000000  0.17857143  0.22222222       0.006
   0.15000000  0.17857143  0.22222222       0.006
   0.25000000  0.17857143  0.22222222       0.006
   0.35000000  0.17857143  0.22222222       0.006
   0.45000000  0.17857143  0.22222222       0.006
   0.05000000  0.25000000  0.22222222       0.006
   0.15000000  0.25000000  0.22222222       0.006
   0.25000000  0.25000000  0.22222222       0.006
   0.35000000  0.25000000  0.22222222       0.006
   0.45000000  0.25000000  0.22222222       0.006
   0.05000000  0.32142857  0.22222222       0.006
   0.15000000  0.32142857  0.22222222       0.006
   0.25000000  0.32142857  0.22222222       0.006
   0.35000000  0.32142857  0.22222222       0.006
   0.45000000  0.32142857  0.22222222       0.006
   0.05000000  0.39285714  0.22222222       0.006
   0.15000000  0.39285714  0.22222222       0.006
   0.25000000  0.39285714  0.22222222       0.006
   0.35000000  0.39285714  0.22222222       0.006
   0.45000000  0.39285714  0.22222222       0.006
   0.05000000  0.46428571  0.22222222       0.006
   0.15000000  0.46428571  0.22222222       0.006
   0.25000000  0.46428571  0.22222222       0.006
   0.35000000  0.46428571  0.22222222       0.006
   0.45000000  0.46428571  0.22222222       0.006
   0.05000000  0.03571429  0.33333333       0.006
   0.15000000  0.03571429  0.33333333       0.006
   0.25000000  0.03571429  0.33333333       0.006
   0.35000000  0.03571429  0.33333333       0.006
   0.45000000  0.03571429  0.33333333       0.006
   0.05000000  0.10714286  0.33333333       0.006
   0.15000000  0.10714286  0.33333333       0.006
   0.25000000  0.10714286  0.33333333       0.006
   0.35000000  0.10714286  0.33333333       0.006
   0.45000000  0.10714286  0.33333333       0.006
   0.05000000  0.17857143  0.33333333       0.006
   0.15000000  0.17857143  0.33333333       0.006
   0.25000000  0.17857143  0.33333333       0.006
   0.35000000  0.17857143  0.33333333       0.006
   0.45000000  0.17857143  0.33333333       0.006
   0.05000000  0.25000000  0.33333333       0.006
   0.15000000  0.25000000  0.33333333       0.006
   0.25000000  0.25000000  0.33333333       0.006
   0.35000000  0.25000000  0.33333333       0.006
   0.45000000  0.25000000  0.33333333       0.006
   0.05000000  0.32142857  0.33333333       0.006
   0.15000000  0.32142857  0.33333333       0.006
   0.25000000  0.32142857  0.33333333       0.006
   0.35000000  0.32142857  0.33333333       0.006
   0.45000000  0.32142857  0.33333333       0.006
   0.05000000  0.39285714  0.33333333       0.006
   0.15000000  0.39285714  0.33333333       0.006
   0.25000000  0.39285714  0.33333333       0.006
   0.35000000  0.39285714  0.33333333       0.006
   0.45000000  0.39285714  0.33333333       0.006
   0.05000000  0.46428571  0.33333333       0.006
   0.15000000  0.46428571  0.33333333       0.006
   0.25000000  0.46428571  0.33333333       0.006
   0.35000000  0.46428571  0.33333333       0.006
   0.45000000  0.46428571  0.33333333       0.006
   0.05000000  0.03571429  0.44444444       0.006
   0.15000000  0.03571429  0.44444444       0.006
   0.25000000  0.03571429  0.44444444       0.006
   0.35000000  0.03571429  0.44444444       0.006
   0.45000000  0.03571429  0.44444444       0.006
   0.05000000  0.10714286  0.44444444       0.006
   0.15000000  0.10714286  0.44444444       0.006
   0.25000000  0.10714286  0.44444444       0.006
   0.35000000  0.10714286  0.44444444       0.006
   0.45000000  0.10714286  0.44444444       0.006
   0.05000000  0.17857143  0.44444444       0.006
   0.15000000  0.17857143  0.44444444       0.006
   0.25000000  0.17857143  0.44444444       0.006
   0.35000000  0.17857143  0.44444444       0.006
   0.45000000  0.17857143  0.44444444       0.006
   0.05000000  0.25000000  0.44444444       0.006
   0.15000000  0.25000000  0.44444444       0.006
   0.25000000  0.25000000  0.44444444       0.006
   0.35000000  0.25000000  0.44444444       0.006
   0.45000000  0.25000000  0.44444444       0.006
   0.05000000  0.32142857  0.44444444       0.006
   0.15000000  0.32142857  0.44444444       0.006
   0.25000000  0.32142857  0.44444444       0.006
   0.35000000  0.32142857  0.44444444       0.006
   0.45000000  0.32142857  0.44444444       0.006
   0.05000000  0.39285714  0.44444444       0.006
   0.15000000  0.39285714  0.44444444       0.006
   0.25000000  0.39285714  0.44444444       0.006
   0.35000000  0.39285714  0.44444444       0.006
   0.45000000  0.39285714  0.44444444       0.006
   0.05000000  0.46428571  0.44444444       0.006
   0.15000000  0.46428571  0.44444444       0.006
   0.25000000  0.46428571  0.44444444       0.006
   0.35000000  0.46428571  0.44444444       0.006
   0.45000000  0.46428571  0.44444444       0.006
 
 position of ions in fractional coordinates (direct lattice) 
   0.52123000  0.50000000  0.63796000
   0.47877000  0.50000000  0.36204000
   0.97877000  0.50000000  0.63796000
   0.02123000  0.50000000  0.36204000
   0.60090000  0.50000000  0.89991000
   0.39910000  0.50000000  0.10009000
   0.89910000  0.50000000  0.89991000
   0.10090000  0.50000000  0.10009000
   0.75000000  0.79171000  0.72973000
   0.25000000  0.20829000  0.27027000
   0.75000000  0.20829000  0.72973000
   0.25000000  0.79171000  0.27027000
   0.25000000  0.50000000  0.52367000
   0.75000000  0.50000000  0.47633000
 
 position of ions in cartesian coordinates  (Angst):
   2.96410230  2.02030689  3.95090698
   2.72264310  2.02030689  2.24212546
   5.56601580  2.02030689  3.95090698
   0.12072960  2.02030689  2.24212546
   3.41716531  2.02030689  5.57317182
   2.26958009  2.02030689  0.61986062
   5.11295279  2.02030689  5.57317182
   0.57379261  2.02030689  0.61986062
   4.26505905  3.19899434  4.51924156
   1.42168635  0.84161944  1.67379088
   4.26505905  0.84161944  4.51924156
   1.42168635  3.19899434  1.67379088
   1.42168635  2.02030689  3.24310530
   4.26505905  2.02030689  2.94992714
 


--------------------------------------------------------------------------------------------------------


 k-point     1 :   0.0500 0.0357 0.0000  plane waves:    4749
 k-point     2 :   0.1500 0.0357 0.0000  plane waves:    4741
 k-point     3 :   0.2500 0.0357 0.0000  plane waves:    4729
 k-point     4 :   0.3500 0.0357 0.0000  plane waves:    4737
 k-point     5 :   0.4500 0.0357 0.0000  plane waves:    4724
 k-point     6 :   0.0500 0.1071 0.0000  plane waves:    4739
 k-point     7 :   0.1500 0.1071 0.0000  plane waves:    4743
 k-point     8 :   0.2500 0.1071 0.0000  plane waves:    4748
 k-point     9 :   0.3500 0.1071 0.0000  plane waves:    4734
 k-point    10 :   0.4500 0.1071 0.0000  plane waves:    4745
 k-point    11 :   0.0500 0.1786 0.0000  plane waves:    4741
 k-point    12 :   0.1500 0.1786 0.0000  plane waves:    4746
 k-point    13 :   0.2500 0.1786 0.0000  plane waves:    4753
 k-point    14 :   0.3500 0.1786 0.0000  plane waves:    4751
 k-point    15 :   0.4500 0.1786 0.0000  plane waves:    4744
 k-point    16 :   0.0500 0.2500 0.0000  plane waves:    4750
 k-point    17 :   0.1500 0.2500 0.0000  plane waves:    4761
 k-point    18 :   0.2500 0.2500 0.0000  plane waves:    4744
 k-point    19 :   0.3500 0.2500 0.0000  plane waves:    4745
 k-point    20 :   0.4500 0.2500 0.0000  plane waves:    4758
 k-point    21 :   0.0500 0.3214 0.0000  plane waves:    4770
 k-point    22 :   0.1500 0.3214 0.0000  plane waves:    4765
 k-point    23 :   0.2500 0.3214 0.0000  plane waves:    4757
 k-point    24 :   0.3500 0.3214 0.0000  plane waves:    4755
 k-point    25 :   0.4500 0.3214 0.0000  plane waves:    4746
 k-point    26 :   0.0500 0.3929 0.0000  plane waves:    4766
 k-point    27 :   0.1500 0.3929 0.0000  plane waves:    4754
 k-point    28 :   0.2500 0.3929 0.0000  plane waves:    4751
 k-point    29 :   0.3500 0.3929 0.0000  plane waves:    4760
 k-point    30 :   0.4500 0.3929 0.0000  plane waves:    4776
 k-point    31 :   0.0500 0.4643 0.0000  plane waves:    4770
 k-point    32 :   0.1500 0.4643 0.0000  plane waves:    4769
 k-point    33 :   0.2500 0.4643 0.0000  plane waves:    4761
 k-point    34 :   0.3500 0.4643 0.0000  plane waves:    4767
 k-point    35 :   0.4500 0.4643 0.0000  plane waves:    4775
 k-point    36 :   0.0500 0.0357 0.1111  plane waves:    4745
 k-point    37 :   0.1500 0.0357 0.1111  plane waves:    4746
 k-point    38 :   0.2500 0.0357 0.1111  plane waves:    4744
 k-point    39 :   0.3500 0.0357 0.1111  plane waves:    4737
 k-point    40 :   0.4500 0.0357 0.1111  plane waves:    4739
 k-point    41 :   0.0500 0.1071 0.1111  plane waves:    4733
 k-point    42 :   0.1500 0.1071 0.1111  plane waves:    4747
 k-point    43 :   0.2500 0.1071 0.1111  plane waves:    4745
 k-point    44 :   0.3500 0.1071 0.1111  plane waves:    4744
 k-point    45 :   0.4500 0.1071 0.1111  plane waves:    4742
 k-point    46 :   0.0500 0.1786 0.1111  plane waves:    4734
 k-point    47 :   0.1500 0.1786 0.1111  plane waves:    4748
 k-point    48 :   0.2500 0.1786 0.1111  plane waves:    4756
 k-point    49 :   0.3500 0.1786 0.1111  plane waves:    4746
 k-point    50 :   0.4500 0.1786 0.1111  plane waves:    4753
 k-point    51 :   0.0500 0.2500 0.1111  plane waves:    4757
 k-point    52 :   0.1500 0.2500 0.1111  plane waves:    4757
 k-point    53 :   0.2500 0.2500 0.1111  plane waves:    4751
 k-point    54 :   0.3500 0.2500 0.1111  plane waves:    4753
 k-point    55 :   0.4500 0.2500 0.1111  plane waves:    4753
 k-point    56 :   0.0500 0.3214 0.1111  plane waves:    4764
 k-point    57 :   0.1500 0.3214 0.1111  plane waves:    4750
 k-point    58 :   0.2500 0.3214 0.1111  plane waves:    4755
 k-point    59 :   0.3500 0.3214 0.1111  plane waves:    4758
 k-point    60 :   0.4500 0.3214 0.1111  plane waves:    4744
 k-point    61 :   0.0500 0.3929 0.1111  plane waves:    4769
 k-point    62 :   0.1500 0.3929 0.1111  plane waves:    4765
 k-point    63 :   0.2500 0.3929 0.1111  plane waves:    4761
 k-point    64 :   0.3500 0.3929 0.1111  plane waves:    4754
 k-point    65 :   0.4500 0.3929 0.1111  plane waves:    4748
 k-point    66 :   0.0500 0.4643 0.1111  plane waves:    4774
 k-point    67 :   0.1500 0.4643 0.1111  plane waves:    4764
 k-point    68 :   0.2500 0.4643 0.1111  plane waves:    4766
 k-point    69 :   0.3500 0.4643 0.1111  plane waves:    4758
 k-point    70 :   0.4500 0.4643 0.1111  plane waves:    4757
 k-point    71 :   0.0500 0.0357 0.2222  plane waves:    4728
 k-point    72 :   0.1500 0.0357 0.2222  plane waves:    4727
 k-point    73 :   0.2500 0.0357 0.2222  plane waves:    4744
 k-point    74 :   0.3500 0.0357 0.2222  plane waves:    4750
 k-point    75 :   0.4500 0.0357 0.2222  plane waves:    4740
 k-point    76 :   0.0500 0.1071 0.2222  plane waves:    4739
 k-point    77 :   0.1500 0.1071 0.2222  plane waves:    4744
 k-point    78 :   0.2500 0.1071 0.2222  plane waves:    4745
 k-point    79 :   0.3500 0.1071 0.2222  plane waves:    4753
 k-point    80 :   0.4500 0.1071 0.2222  plane waves:    4739
 k-point    81 :   0.0500 0.1786 0.2222  plane waves:    4747
 k-point    82 :   0.1500 0.1786 0.2222  plane waves:    4749
 k-point    83 :   0.2500 0.1786 0.2222  plane waves:    4748
 k-point    84 :   0.3500 0.1786 0.2222  plane waves:    4750
 k-point    85 :   0.4500 0.1786 0.2222  plane waves:    4752
 k-point    86 :   0.0500 0.2500 0.2222  plane waves:    4756
 k-point    87 :   0.1500 0.2500 0.2222  plane waves:    4757
 k-point    88 :   0.2500 0.2500 0.2222  plane waves:    4755
 k-point    89 :   0.3500 0.2500 0.2222  plane waves:    4753
 k-point    90 :   0.4500 0.2500 0.2222  plane waves:    4751
 k-point    91 :   0.0500 0.3214 0.2222  plane waves:    4760
 k-point    92 :   0.1500 0.3214 0.2222  plane waves:    4754
 k-point    93 :   0.2500 0.3214 0.2222  plane waves:    4764
 k-point    94 :   0.3500 0.3214 0.2222  plane waves:    4744
 k-point    95 :   0.4500 0.3214 0.2222  plane waves:    4747
 k-point    96 :   0.0500 0.3929 0.2222  plane waves:    4764
 k-point    97 :   0.1500 0.3929 0.2222  plane waves:    4759
 k-point    98 :   0.2500 0.3929 0.2222  plane waves:    4754
 k-point    99 :   0.3500 0.3929 0.2222  plane waves:    4748
 k-point   100 :   0.4500 0.3929 0.2222  plane waves:    4740
 k-point   101 :   0.0500 0.4643 0.2222  plane waves:    4774
 k-point   102 :   0.1500 0.4643 0.2222  plane waves:    4754
 k-point   103 :   0.2500 0.4643 0.2222  plane waves:    4756
 k-point   104 :   0.3500 0.4643 0.2222  plane waves:    4748
 k-point   105 :   0.4500 0.4643 0.2222  plane waves:    4749
 k-point   106 :   0.0500 0.0357 0.3333  plane waves:    4716
 k-point   107 :   0.1500 0.0357 0.3333  plane waves:    4733
 k-point   108 :   0.2500 0.0357 0.3333  plane waves:    4740
 k-point   109 :   0.3500 0.0357 0.3333  plane waves:    4734
 k-point   110 :   0.4500 0.0357 0.3333  plane waves:    4747
 k-point   111 :   0.0500 0.1071 0.3333  plane waves:    4740
 k-point   112 :   0.1500 0.1071 0.3333  plane waves:    4736
 k-point   113 :   0.2500 0.1071 0.3333  plane waves:    4746
 k-point   114 :   0.3500 0.1071 0.3333  plane waves:    4746
 k-point   115 :   0.4500 0.1071 0.3333  plane waves:    4739
 k-point   116 :   0.0500 0.1786 0.3333  plane waves:    4749
 k-point   117 :   0.1500 0.1786 0.3333  plane waves:    4743
 k-point   118 :   0.2500 0.1786 0.3333  plane waves:    4736
 k-point   119 :   0.3500 0.1786 0.3333  plane waves:    4747
 k-point   120 :   0.4500 0.1786 0.3333  plane waves:    4745
 k-point   121 :   0.0500 0.2500 0.3333  plane waves:    4754
 k-point   122 :   0.1500 0.2500 0.3333  plane waves:    4752
 k-point   123 :   0.2500 0.2500 0.3333  plane waves:    4747
 k-point   124 :   0.3500 0.2500 0.3333  plane waves:    4743
 k-point   125 :   0.4500 0.2500 0.3333  plane waves:    4742
 k-point   126 :   0.0500 0.3214 0.3333  plane waves:    4762
 k-point   127 :   0.1500 0.3214 0.3333  plane waves:    4752
 k-point   128 :   0.2500 0.3214 0.3333  plane waves:    4751
 k-point   129 :   0.3500 0.3214 0.3333  plane waves:    4741
 k-point   130 :   0.4500 0.3214 0.3333  plane waves:    4746
 k-point   131 :   0.0500 0.3929 0.3333  plane waves:    4765
 k-point   132 :   0.1500 0.3929 0.3333  plane waves:    4758
 k-point   133 :   0.2500 0.3929 0.3333  plane waves:    4747
 k-point   134 :   0.3500 0.3929 0.3333  plane waves:    4750
 k-point   135 :   0.4500 0.3929 0.3333  plane waves:    4747
 k-point   136 :   0.0500 0.4643 0.3333  plane waves:    4772
 k-point   137 :   0.1500 0.4643 0.3333  plane waves:    4756
 k-point   138 :   0.2500 0.4643 0.3333  plane waves:    4749
 k-point   139 :   0.3500 0.4643 0.3333  plane waves:    4743
 k-point   140 :   0.4500 0.4643 0.3333  plane waves:    4742
 k-point   141 :   0.0500 0.0357 0.4444  plane waves:    4731
 k-point   142 :   0.1500 0.0357 0.4444  plane waves:    4735
 k-point   143 :   0.2500 0.0357 0.4444  plane waves:    4743
 k-point   144 :   0.3500 0.0357 0.4444  plane waves:    4732
 k-point   145 :   0.4500 0.0357 0.4444  plane waves:    4745
 k-point   146 :   0.0500 0.1071 0.4444  plane waves:    4735
 k-point   147 :   0.1500 0.1071 0.4444  plane waves:    4737
 k-point   148 :   0.2500 0.1071 0.4444  plane waves:    4733
 k-point   149 :   0.3500 0.1071 0.4444  plane waves:    4736
 k-point   150 :   0.4500 0.1071 0.4444  plane waves:    4735
 k-point   151 :   0.0500 0.1786 0.4444  plane waves:    4756
 k-point   152 :   0.1500 0.1786 0.4444  plane waves:    4740
 k-point   153 :   0.2500 0.1786 0.4444  plane waves:    4740
 k-point   154 :   0.3500 0.1786 0.4444  plane waves:    4739
 k-point   155 :   0.4500 0.1786 0.4444  plane waves:    4751
 k-point   156 :   0.0500 0.2500 0.4444  plane waves:    4754
 k-point   157 :   0.1500 0.2500 0.4444  plane waves:    4743
 k-point   158 :   0.2500 0.2500 0.4444  plane waves:    4742
 k-point   159 :   0.3500 0.2500 0.4444  plane waves:    4737
 k-point   160 :   0.4500 0.2500 0.4444  plane waves:    4752
 k-point   161 :   0.0500 0.3214 0.4444  plane waves:    4765
 k-point   162 :   0.1500 0.3214 0.4444  plane waves:    4764
 k-point   163 :   0.2500 0.3214 0.4444  plane waves:    4751
 k-point   164 :   0.3500 0.3214 0.4444  plane waves:    4741
 k-point   165 :   0.4500 0.3214 0.4444  plane waves:    4749
 k-point   166 :   0.0500 0.3929 0.4444  plane waves:    4772
 k-point   167 :   0.1500 0.3929 0.4444  plane waves:    4761
 k-point   168 :   0.2500 0.3929 0.4444  plane waves:    4759
 k-point   169 :   0.3500 0.3929 0.4444  plane waves:    4745
 k-point   170 :   0.4500 0.3929 0.4444  plane waves:    4738
 k-point   171 :   0.0500 0.4643 0.4444  plane waves:    4761
 k-point   172 :   0.1500 0.4643 0.4444  plane waves:    4768
 k-point   173 :   0.2500 0.4643 0.4444  plane waves:    4759
 k-point   174 :   0.3500 0.4643 0.4444  plane waves:    4742
 k-point   175 :   0.4500 0.4643 0.4444  plane waves:    4734

 maximum and minimum number of plane-waves per node :      4776     4716

 maximum number of plane-waves:      4776
 maximum index in each direction: 
   IXMAX=   11   IYMAX=    8   IZMAX=   12
   IXMIN=  -11   IYMIN=   -8   IZMIN=  -12


 serial   3D FFT for wavefunctions
 parallel 3D FFT for charge:
    minimum data exchange during FFTs selected (reduces bandwidth)


 total amount of memory used by VASP MPI-rank0   117562. kBytes
=======================================================================

   base      :      30000. kBytes
   nonl-proj :      54561. kBytes
   fftplans  :       1200. kBytes
   grid      :       4341. kBytes
   one-center:         43. kBytes
   wavefun   :      27417. kBytes
 
     INWAV:  cpu time      0.0001: real time      0.0002
 Broyden mixing: mesh for mixing (old mesh)
   NGX = 23   NGY = 17   NGZ = 25
  (NGX  = 96   NGY  = 64   NGZ  =100)
  gives a total of   9775 points

 initial charge density was supplied:
 charge density of overlapping atoms calculated
 number of electron      42.0000000 magnetization 
 keeping initial charge density in first step


--------------------------------------------------------------------------------------------------------


 Maximum index for augmentation-charges          471 (set IRDMAX)


--------------------------------------------------------------------------------------------------------


 First call to EWALD:  gamma=   0.339
 Maximum number of real-space cells 3x 3x 2
 Maximum number of reciprocal cells 3x 2x 3

    FEWALD:  cpu time      0.0011: real time      0.0011


--------------------------------------- Ionic step        1  -------------------------------------------




--------------------------------------- Iteration      1(   1)  ---------------------------------------


    POTLOK:  cpu time      0.0144: real time      0.0151
    SETDIJ:  cpu time      0.0017: real time      0.0017
     EDDAV:  cpu time      4.6832: real time      4.7170
       DOS:  cpu time      0.0017: real time      0.0018
    --------------------------------------------
      LOOP:  cpu time      4.7011: real time      4.7356

 eigenvalue-minimisations  : 16800
 total energy-change (2. order) : 0.8024656E+02  (-0.2007677E+04)
 number of electron      42.0000000 magnetization 
 augmentation part       42.0000000 magnetization 

 Free energy of the ion-electron system (eV)
  ---------------------------------------------------
  alpha Z        PSCENC =        94.75433285
  Ewald energy   TEWEN  =      -797.20154369
  -Hartree energ DENC   =      -270.79678493
  -exchange      EXHF   =         0.00000000
  -V(xc)+E(xc)   XCENC  =        97.63792075
  PAW double counting   =       608.99811708     -597.02363782
  entropy T*S    EENTRO =        -0.00215480
  eigenvalues    EBANDS =       -52.49410162
  atomic energy  EATOM  =       996.37441054
  Solvation  Ediel_sol  =         0.00000000
  ---------------------------------------------------
  free energy    TOTEN  =        80.24655837 eV

  energy without entropy =       80.24871317  energy(sigma->0) =       80.24763577


--------------------------------------------------------------------------------------------------------




--------------------------------------- Iteration      1(   2)  ---------------------------------------


     EDDAV:  cpu time      6.1836: real time      6.2215
       DOS:  cpu time      0.0012: real time      0.0012
    --------------------------------------------
      LOOP:  cpu time      6.1848: real time      6.2228

 eigenvalue-minimisations  : 23136
 total energy-change (2. order) :-0.1720770E+03  (-0.1612200E+03)
 number of electron      42.0000000 magnetization 
 augmentation part       42.0000000 magnetization 

 Free energy of the ion-electron system (eV)
  ---------------------------------------------------
  alpha Z        PSCENC =        94.75433285
  Ewald energy   TEWEN  =      -797.20154369
  -Hartree energ DENC   =      -270.79678493
  -exchange      EXHF   =         0.00000000
  -V(xc)+E(xc)   XCENC  =        97.63792075
  PAW double counting   =       608.99811708     -597.02363782
  entropy T*S    EENTRO =        -0.00337356
  eigenvalues    EBANDS =      -224.56984708
  atomic energy  EATOM  =       996.37441054
  Solvation  Ediel_sol  =         0.00000000
  ---------------------------------------------------
  free energy    TOTEN  =       -91.83040586 eV

  energy without entropy =      -91.82703230  energy(sigma->0) =      -91.82871908


--------------------------------------------------------------------------------------------------------




--------------------------------------- Iteration      1(   3)  ---------------------------------------


     EDDAV:  cpu time      6.6497: real time      6.6892
       DOS:  cpu time      0.0012: real time      0.0012
    --------------------------------------------
      LOOP:  cpu time      6.6508: real time      6.6904

 eigenvalue-minimisations  : 24816
 total energy-change (2. order) :-0.5876012E+01  (-0.5841940E+01)
 number of electron      42.0000000 magnetization 
 augmentation part       42.0000000 magnetization 

 Free energy of the ion-electron system (eV)
  ---------------------------------------------------
  alpha Z        PSCENC =        94.75433285
  Ewald energy   TEWEN  =      -797.20154369
  -Hartree energ DENC   =      -270.79678493
  -exchange      EXHF   =         0.00000000
  -V(xc)+E(xc)   XCENC  =        97.63792075
  PAW double counting   =       608.99811708     -597.02363782
  entropy T*S    EENTRO =        -0.00364283
  eigenvalues    EBANDS =      -230.44559026
  atomic energy  EATOM  =       996.37441054
  Solvation  Ediel_sol  =         0.00000000
  ---------------------------------------------------
  free energy    TOTEN  =       -97.70641831 eV

  energy without entropy =      -97.70277548  energy(sigma->0) =      -97.70459690


--------------------------------------------------------------------------------------------------------




--------------------------------------- Iteration      1(   4)  ---------------------------------------


     EDDAV:  cpu time      5.4617: real time      5.4948
       DOS:  cpu time      0.0012: real time      0.0012
    --------------------------------------------
      LOOP:  cpu time      5.4628: real time      5.4960

 eigenvalue-minimisations  : 20304
 total energy-change (2. order) :-0.3432591E-01  (-0.3432411E-01)
 number of electron      42.0000000 magnetization 
 augmentation part       42.0000000 magnetization 

 Free energy of the ion-electron system (eV)
  ---------------------------------------------------
  alpha Z        PSCENC =        94.75433285
  Ewald energy   TEWEN  =      -797.20154369
  -Hartree energ DENC   =      -270.79678493
  -exchange      EXHF   =         0.00000000
  -V(xc)+E(xc)   XCENC  =        97.63792075
  PAW double counting   =       608.99811708     -597.02363782
  entropy T*S    EENTRO =        -0.00364604
  eigenvalues    EBANDS =      -230.47991297
  atomic energy  EATOM  =       996.37441054
  Solvation  Ediel_sol  =         0.00000000
  ---------------------------------------------------
  free energy    TOTEN  =       -97.74074422 eV

  energy without entropy =      -97.73709819  energy(sigma->0) =      -97.73892121


--------------------------------------------------------------------------------------------------------




--------------------------------------- Iteration      1(   5)  ---------------------------------------


     EDDAV:  cpu time      6.6158: real time      6.6594
       DOS:  cpu time      0.0020: real time      0.0029
    CHARGE:  cpu time      0.0923: real time      0.1025
    MIXING:  cpu time      0.0013: real time      0.0016
    --------------------------------------------
      LOOP:  cpu time      6.7114: real time      6.7664

 eigenvalue-minimisations  : 24720
 total energy-change (2. order) :-0.3791561E-03  (-0.3791479E-03)
 number of electron      41.9999999 magnetization 
 augmentation part       -0.1243962 magnetization 

 Broyden mixing:
  rms(total) = 0.12415E+01    rms(broyden)= 0.12415E+01
  rms(prec ) = 0.22848E+01
  weight for this iteration     100.00

 Free energy of the ion-electron system (eV)
  ---------------------------------------------------
  alpha Z        PSCENC =        94.75433285
  Ewald energy   TEWEN  =      -797.20154369
  -Hartree energ DENC   =      -270.79678493
  -exchange      EXHF   =         0.00000000
  -V(xc)+E(xc)   XCENC  =        97.63792075
  PAW double counting   =       608.99811708     -597.02363782
  entropy T*S    EENTRO =        -0.00364613
  eigenvalues    EBANDS =      -230.48029204
  atomic energy  EATOM  =       996.37441054
  Solvation  Ediel_sol  =         0.00000000
  ---------------------------------------------------
  free energy    TOTEN  =       -97.74112338 eV

  energy without entropy =      -97.73747726  energy(sigma->0) =      -97.73930032


--------------------------------------------------------------------------------------------------------




--------------------------------------- Iteration      1(   6)  ---------------------------------------


    POTLOK:  cpu time      0.0110: real time      0.0125
    SETDIJ:  cpu time      0.0012: real time      0.0013
     EDDAV:  cpu time      6.5277: real time      6.5689
       DOS:  cpu time      0.0020: real time      0.0021
    CHARGE:  cpu time      0.0887: real time      0.0901
    MIXING:  cpu time      0.0010: real time      0.0010
    --------------------------------------------
      LOOP:  cpu time      6.6316: real time      6.6759

 eigenvalue-minimisations  : 24264
 total energy-change (2. order) : 0.5496070E+01  (-0.4004109E+00)
 number of electron      41.9999999 magnetization 
 augmentation part       -0.1504690 magnetization 

 Broyden mixing:
  rms(total) = 0.68442E+00    rms(broyden)= 0.68442E+00
  rms(prec ) = 0.11741E+01
  weight for this iteration     100.00

 eigenvalues of (default mixing * dielectric matrix)
  average eigenvalue GAMMA=   2.0764
  2.0764

 Free energy of the ion-electron system (eV)
  ---------------------------------------------------
  alpha Z        PSCENC =        94.75433285
  Ewald energy   TEWEN  =      -797.20154369
  -Hartree energ DENC   =      -305.91512359
  -exchange      EXHF   =         0.00000000
  -V(xc)+E(xc)   XCENC  =        99.28548161
  PAW double counting   =      1515.22877986    -1503.88387741
  entropy T*S    EENTRO =        -0.00341069
  eigenvalues    EBANDS =      -190.88410287
  atomic energy  EATOM  =       996.37441054
  Solvation  Ediel_sol  =         0.00000000
  ---------------------------------------------------
  free energy    TOTEN  =       -92.24505338 eV

  energy without entropy =      -92.24164269  energy(sigma->0) =      -92.24334804


--------------------------------------------------------------------------------------------------------




--------------------------------------- Iteration      1(   7)  ---------------------------------------


    POTLOK:  cpu time      0.0115: real time      0.0124
    SETDIJ:  cpu time      0.0012: real time      0.0012
     EDDAV:  cpu time      6.7583: real time      6.8028
       DOS:  cpu time      0.0012: real time      0.0012
    CHARGE:  cpu time      0.0864: real time      0.0868
    MIXING:  cpu time      0.0010: real time      0.0010
    --------------------------------------------
      LOOP:  cpu time      6.8596: real time      6.9054

 eigenvalue-minimisations  : 25152
 total energy-change (2. order) : 0.1672733E+01  (-0.3261033E+00)
 number of electron      41.9999999 magnetization 
 augmentation part       -0.1701232 magnetization 

 Broyden mixing:
  rms(total) = 0.17234E+00    rms(broyden)= 0.17234E+00
  rms(prec ) = 0.25109E+00
  weight for this iteration     100.00

 eigenvalues of (default mixing * dielectric matrix)
  average eigenvalue GAMMA=   1.8947
  1.5457  2.2437

 Free energy of the ion-electron system (eV)
  ---------------------------------------------------
  alpha Z        PSCENC =        94.75433285
  Ewald energy   TEWEN  =      -797.20154369
  -Hartree energ DENC   =      -342.75510874
  -exchange      EXHF   =         0.00000000
  -V(xc)+E(xc)   XCENC  =       101.24231318
  PAW double counting   =      3108.61924528    -3097.83664964
  entropy T*S    EENTRO =        -0.00312063
  eigenvalues    EBANDS =      -153.76619962
  atomic energy  EATOM  =       996.37441054
  Solvation  Ediel_sol  =         0.00000000
  ---------------------------------------------------
  free energy    TOTEN  =       -90.57232047 eV

  energy without entropy =      -90.56919984  energy(sigma->0) =      -90.57076015


--------------------------------------------------------------------------------------------------------




--------------------------------------- Iteration      1(   8)  ---------------------------------------


    POTLOK:  cpu time      0.0109: real time      0.0117
    SETDIJ:  cpu time      0.0011: real time      0.0012
     EDDAV:  cpu time      5.0731: real time      5.1046
       DOS:  cpu time      0.0011: real time      0.0011
    CHARGE:  cpu time      0.0872: real time      0.0877
    MIXING:  cpu time      0.0008: real time      0.0008
    --------------------------------------------
      LOOP:  cpu time      5.1743: real time      5.2070

 eigenvalue-minimisations  : 18552
 total energy-change (2. order) :-0.1229431E-01  (-0.2379085E-01)
 number of electron      41.9999999 magnetization 
 augmentation part       -0.1759171 magnetization 

 Broyden mixing:
  rms(total) = 0.70731E-01    rms(broyden)= 0.70731E-01
  rms(prec ) = 0.10573E+00
  weight for this iteration     100.00

 eigenvalues of (default mixing * dielectric matrix)
  average eigenvalue GAMMA=   1.7883
[...]
     43      13.9291      0.00000
     44      14.3413      0.00000
     45      14.7867      0.00000
     46      14.8451      0.00000
     47      15.1220      0.00000
     48      15.4762      0.00000

 k-point   170 :       0.4500    0.3929    0.4444
  band No.  band energies     occupation 
      1     -12.0526      2.00000
      2     -11.9135      2.00000
      3      -8.5652      2.00000
      4      -8.4529      2.00000
      5      -5.7674      2.00000
      6      -5.6609      2.00000
      7      -4.9095      2.00000
      8      -4.5951      2.00000
      9      -4.4236      2.00000
     10      -3.9860      2.00000
     11      -2.1065      2.00000
     12      -2.0031      2.00000
     13      -1.9925      2.00000
     14      -1.7492      2.00000
     15      -0.2115      2.00000
     16       0.0003      2.00000
     17       0.5385      2.00000
     18       0.5722      2.00000
     19       0.6606      2.00000
     20       0.8828      2.00000
     21       1.3839      2.00000
     22       1.4923      2.00000
     23       5.9621      0.00000
     24       6.1319      0.00000
     25       6.9778      0.00000
     26       7.4533      0.00000
     27       7.5706      0.00000
     28       7.6721      0.00000
     29       9.1252      0.00000
     30       9.2603      0.00000
     31       9.9333      0.00000
     32      10.1650      0.00000
     33      10.3546      0.00000
     34      10.5453      0.00000
     35      11.2647      0.00000
     36      11.5616      0.00000
     37      11.9274      0.00000
     38      11.9365      0.00000
     39      13.1691      0.00000
     40      13.2929      0.00000
     41      13.4528      0.00000
     42      13.8184      0.00000
     43      14.0943      0.00000
     44      14.2801      0.00000
     45      14.5595      0.00000
     46      14.6984      0.00000
     47      14.9807      0.00000
     48      15.3679      0.00000

 k-point   171 :       0.0500    0.4643    0.4444
  band No.  band energies     occupation 
      1     -12.3720      2.00000
      2     -11.5103      2.00000
      3      -8.4219      2.00000
      4      -7.8708      2.00000
      5      -6.5738      2.00000
      6      -6.2360      2.00000
      7      -5.5985      2.00000
      8      -5.3495      2.00000
      9      -3.2332      2.00000
     10      -2.7450      2.00000
     11      -2.0100      2.00000
     12      -1.5789      2.00000
     13      -1.4854      2.00000
     14      -1.3584      2.00000
     15      -1.2905      2.00000
     16      -0.8553      2.00000
     17      -0.6643      2.00000
     18      -0.4226      2.00000
     19       0.4742      2.00000
     20       1.7743      1.99994
     21       2.1776      0.00000
     22       3.9330      0.00000
     23       4.6588      0.00000
     24       5.8104      0.00000
     25       6.5057      0.00000
     26       7.3160      0.00000
     27       7.3721      0.00000
     28       7.9404      0.00000
     29       9.1585      0.00000
     30       9.5060      0.00000
     31       9.5111      0.00000
     32      10.1883      0.00000
     33      11.1545      0.00000
     34      11.4293      0.00000
     35      11.6660      0.00000
     36      11.8101      0.00000
     37      11.9300      0.00000
     38      12.0832      0.00000
     39      12.3696      0.00000
     40      12.6685      0.00000
     41      12.8323      0.00000
     42      12.9583      0.00000
     43      13.3542      0.00000
     44      13.4602      0.00000
     45      14.2137      0.00000
     46      15.4189      0.00000
     47      15.4914      0.00000
     48      15.6759      0.00000

 k-point   172 :       0.1500    0.4643    0.4444
  band No.  band energies     occupation 
      1     -12.3336      2.00000
      2     -11.5530      2.00000
      3      -8.4950      2.00000
      4      -7.9550      2.00000
      5      -6.3246      2.00000
      6      -6.1973      2.00000
      7      -5.6153      2.00000
      8      -5.2583      2.00000
      9      -3.4408      2.00000
     10      -2.6673      2.00000
     11      -2.2693      2.00000
     12      -1.7471      2.00000
     13      -1.5270      2.00000
     14      -1.4835      2.00000
     15      -1.2137      2.00000
     16      -0.6947      2.00000
     17      -0.4323      2.00000
     18      -0.1403      2.00000
     19       0.4635      2.00000
     20       1.7438      2.00000
     21       2.1302      0.00000
     22       3.2716      0.00000
     23       4.8208      0.00000
     24       6.3390      0.00000
     25       6.4096      0.00000
     26       7.1005      0.00000
     27       7.6772      0.00000
     28       8.2124      0.00000
     29       8.9373      0.00000
     30       9.2559      0.00000
     31       9.5332      0.00000
     32      10.5012      0.00000
     33      10.8134      0.00000
     34      11.4252      0.00000
     35      11.4702      0.00000
     36      11.6014      0.00000
     37      11.8901      0.00000
     38      12.0905      0.00000
     39      12.5676      0.00000
     40      12.6978      0.00000
     41      12.9030      0.00000
     42      13.1544      0.00000
     43      13.5965      0.00000
     44      13.6830      0.00000
     45      14.5161      0.00000
     46      14.9482      0.00000
     47      15.5044      0.00000
     48      15.6400      0.00000

 k-point   173 :       0.2500    0.4643    0.4444
  band No.  band energies     occupation 
      1     -12.2591      2.00000
      2     -11.6359      2.00000
      3      -8.5683      2.00000
      4      -8.1013      2.00000
      5      -6.1245      2.00000
      6      -5.9018      2.00000
      7      -5.6525      2.00000
      8      -5.0891      2.00000
      9      -3.7531      2.00000
     10      -2.7946      2.00000
     11      -2.4825      2.00000
     12      -1.9864      2.00000
     13      -1.7455      2.00000
     14      -1.3135      2.00000
     15      -1.1251      2.00000
     16      -0.4628      2.00000
     17      -0.1126      2.00000
     18       0.1682      2.00000
     19       0.4981      2.00000
     20       1.6920      2.00000
     21       2.0358      0.00067
     22       2.4448      0.00000
     23       5.1352      0.00000
     24       6.2756      0.00000
     25       6.8401      0.00000
     26       6.9170      0.00000
     27       8.0021      0.00000
     28       8.5737      0.00000
     29       8.7080      0.00000
     30       8.9887      0.00000
     31       9.7071      0.00000
     32      10.1430      0.00000
     33      10.8398      0.00000
     34      11.1230      0.00000
     35      11.4103      0.00000
     36      11.5445      0.00000
     37      11.7292      0.00000
     38      12.3430      0.00000
     39      12.5530      0.00000
     40      12.7892      0.00000
     41      13.3050      0.00000
     42      13.5063      0.00000
     43      13.8564      0.00000
     44      14.1600      0.00000
     45      14.1724      0.00000
     46      14.9532      0.00000
     47      15.3648      0.00000
     48      15.5497      0.00000

 k-point   174 :       0.3500    0.4643    0.4444
  band No.  band energies     occupation 
      1     -12.1536      2.00000
      2     -11.7513      2.00000
      3      -8.5880      2.00000
      4      -8.2706      2.00000
      5      -6.0260      2.00000
      6      -5.7188      2.00000
      7      -5.3838      2.00000
      8      -4.8486      2.00000
      9      -4.0957      2.00000
     10      -3.3628      2.00000
     11      -2.2870      2.00000
     12      -2.1387      2.00000
     13      -1.9727      2.00000
     14      -1.4638      2.00000
     15      -0.7166      2.00000
     16      -0.1753      2.00000
     17       0.1859      2.00000
     18       0.4059      2.00000
     19       0.5447      2.00000
     20       1.6190      2.00000
     21       1.6477      2.00000
     22       1.9036      1.26440
     23       5.5491      0.00000
     24       6.1888      0.00000
     25       6.7103      0.00000
     26       7.2767      0.00000
     27       7.8447      0.00000
     28       8.2725      0.00000
     29       9.0452      0.00000
     30       9.2120      0.00000
     31       9.7777      0.00000
     32      10.0158      0.00000
     33      10.6512      0.00000
     34      11.0828      0.00000
     35      11.2845      0.00000
     36      11.5620      0.00000
     37      11.6357      0.00000
     38      12.0127      0.00000
     39      12.9081      0.00000
     40      13.2379      0.00000
     41      13.4407      0.00000
     42      13.8261      0.00000
     43      13.9627      0.00000
     44      14.2321      0.00000
     45      14.5620      0.00000
     46      15.0372      0.00000
     47      15.1756      0.00000
     48      15.4771      0.00000

 k-point   175 :       0.4500    0.4643    0.4444
  band No.  band energies     occupation 
      1     -12.0255      2.00000
      2     -11.8864      2.00000
      3      -8.5381      2.00000
      4      -8.4258      2.00000
      5      -5.9153      2.00000
      6      -5.8079      2.00000
      7      -4.8743      2.00000
      8      -4.5486      2.00000
      9      -4.3979      2.00000
     10      -3.9573      2.00000
     11      -2.1908      2.00000
     12      -2.1286      2.00000
     13      -2.0292      2.00000
     14      -1.7450      2.00000
     15      -0.1951      2.00000
     16       0.0213      2.00000
     17       0.4090      2.00000
     18       0.4971      2.00000
     19       0.5768      2.00000
     20       0.9016      2.00000
     21       1.6619      2.00000
     22       1.7616      1.99999
     23       5.8995      0.00000
     24       6.0867      0.00000
     25       6.9115      0.00000
     26       7.4676      0.00000
     27       7.5191      0.00000
     28       7.6391      0.00000
     29       9.4502      0.00000
     30       9.6382      0.00000
     31       9.8485      0.00000
     32      10.0264      0.00000
     33      10.5308      0.00000
     34      10.8853      0.00000
     35      11.2865      0.00000
     36      11.5730      0.00000
     37      11.6014      0.00000
     38      11.6803      0.00000
     39      13.1558      0.00000
     40      13.2641      0.00000
     41      13.8166      0.00000
     42      14.1349      0.00000
     43      14.2720      0.00000
     44      14.3807      0.00000
     45      14.6725      0.00000
     46      14.8112      0.00000
     47      14.9547      0.00000
     48      15.1375      0.00000


--------------------------------------------------------------------------------------------------------


 soft charge-density along one line, spin component           1
         0         1         2         3         4         5         6         7         8         9
 total charge-density along one line
 
 pseudopotential strength for first ion, spin component:           1
  6.443   9.811   0.000  -0.009   0.005   0.000  -0.014   0.008
  9.811  14.933   0.000  -0.014   0.008   0.000  -0.021   0.011
  0.000   0.000  -2.173  -0.000   0.000  -3.692  -0.000   0.000
 -0.009  -0.014  -0.000  -2.177  -0.001  -0.000  -3.702  -0.002
  0.005   0.008   0.000  -0.001  -2.176   0.000  -0.002  -3.700
  0.000   0.000  -3.692  -0.000   0.000  -6.075  -0.000   0.000
 -0.014  -0.021  -0.000  -3.702  -0.002  -0.000  -6.097  -0.004
  0.008   0.011   0.000  -0.002  -3.700   0.000  -0.004  -6.093
 total augmentation occupancy for first ion, spin component:           1
  3.662  -0.985   0.000  -0.248   0.420   0.000   0.125  -0.178
 -0.985   0.289   0.000   0.162  -0.198  -0.000  -0.057   0.074
  0.000   0.000   2.301   0.000   0.000  -0.552   0.000   0.000
 -0.248   0.162   0.000   3.815   0.329   0.000  -1.068  -0.121
  0.420  -0.198   0.000   0.329   3.641  -0.000  -0.121  -0.994
  0.000   0.000  -0.552   0.000   0.000   0.137   0.000   0.000
  0.125  -0.057   0.000  -1.068  -0.121   0.000   0.309   0.043
 -0.178   0.074   0.000  -0.121  -0.994   0.000   0.043   0.281


------------------------ aborting loop because EDIFF is reached ----------------------------------------


    CHARGE:  cpu time      0.0849: real time      0.0854
    FORLOC:  cpu time      0.0013: real time      0.0013
    FORNL :  cpu time      0.8172: real time      0.8255
    STRESS:  cpu time      3.7967: real time      3.8118
    FORCOR:  cpu time      0.0113: real time      0.0113
    FORHAR:  cpu time      0.0034: real time      0.0034
    MIXING:  cpu time      0.0007: real time      0.0007
    OFIELD:  cpu time      0.0000: real time      0.0000

  FORCE on cell =-STRESS in cart. coord.  units (eV):
  Direction    XX          YY          ZZ          XY          YZ          ZX
  --------------------------------------------------------------------------------------
  Alpha Z    94.75433    94.75433    94.75433
  Ewald     -90.21704  -559.28305  -147.70402     0.00000    -0.00000    -0.00000
  Hartree   187.00693     5.90863   156.15577    -0.00000    -0.00000    -0.00000
  E(xc)    -135.10342  -136.07276  -135.06494    -0.00000     0.00000     0.00000
  Local    -494.09088   126.52566  -406.03232    -0.00000     0.00000    -0.00000
  n-local    -9.26582   -11.28957    -9.63907    -0.01254    -0.00688     0.07837
  augment     1.32579     1.37286     1.35460    -0.00000     0.00000    -0.00000
  Kinetic   447.79600   478.64700   446.38760     0.27955     0.07063    -1.18765
  Fock        0.00000     0.00000     0.00000     0.00000     0.00000     0.00000
  -------------------------------------------------------------------------------------
  Total       2.20590     0.56309     0.21196     0.00000     0.00000     0.00000
  in kB      24.83606     6.33981     2.38639     0.00000     0.00000     0.00000
  external pressure =       11.19 kB  Pullay stress =        0.00 kB


 VOLUME and BASIS-vectors are now :
 -----------------------------------------------------------------------------
  energy-cutoff  :      600.00
  volume of cell :      142.30
      direct lattice vectors                 reciprocal lattice vectors
     5.686745400  0.000000000  0.000000000     0.175847507  0.000000000  0.000000000
     0.000000000  4.040613780  0.000000000     0.000000000  0.247487153  0.000000000
     0.000000000  0.000000000  6.193032440     0.000000000  0.000000000  0.161471785

  length of vectors
     5.686745400  4.040613780  6.193032440     0.175847507  0.247487153  0.161471785


 FORCES acting on ions
    electron-ion (+dipol)            ewald-force                    non-local-force                 convergence-correction
 -----------------------------------------------------------------------------------------------
   0.498E+02 -.271E-12 -.251E+02   -.517E+02 0.403E-14 0.285E+02   0.181E+01 0.760E-19 -.332E+01   -.429E-04 0.855E-16 0.475E-04
   -.498E+02 -.276E-12 0.251E+02   0.517E+02 -.155E-14 -.285E+02   -.181E+01 -.138E-18 0.332E+01   0.429E-04 0.122E-15 -.475E-04
   -.498E+02 0.918E-12 -.251E+02   0.517E+02 0.113E-14 0.285E+02   -.181E+01 0.124E-18 -.332E+01   0.429E-04 0.224E-15 0.475E-04
   0.498E+02 0.838E-13 0.251E+02   -.517E+02 -.157E-14 -.285E+02   0.181E+01 0.274E-18 0.332E+01   -.429E-04 -.276E-15 -.475E-04
   0.314E+02 -.298E-12 -.529E+02   -.342E+02 0.332E-14 0.573E+02   0.193E+01 0.405E-20 -.410E+01   -.811E-04 -.514E-15 -.100E-03
   -.314E+02 -.368E-12 0.529E+02   0.342E+02 0.349E-14 -.573E+02   -.193E+01 -.436E-21 0.410E+01   0.811E-04 0.277E-15 0.100E-03
   -.314E+02 0.752E-12 -.529E+02   0.342E+02 0.376E-14 0.573E+02   -.193E+01 -.133E-19 -.410E+01   0.811E-04 -.140E-14 -.100E-03
   0.314E+02 0.453E-15 0.529E+02   -.342E+02 0.348E-14 -.573E+02   0.193E+01 0.108E-19 0.410E+01   -.811E-04 0.114E-14 0.100E-03
   0.293E-13 -.560E+02 -.156E+02   0.203E-13 0.615E+02 0.166E+02   -.161E-19 -.542E+01 -.114E+01   0.211E-13 0.434E-04 0.415E-05
   0.137E-13 0.560E+02 0.156E+02   0.122E-13 -.615E+02 -.166E+02   0.113E-18 0.542E+01 0.114E+01   -.219E-13 -.434E-04 -.415E-05
   0.297E-13 0.560E+02 -.156E+02   0.131E-13 -.615E+02 0.166E+02   0.538E-18 0.542E+01 -.114E+01   0.217E-13 -.434E-04 0.415E-05
   0.131E-13 -.560E+02 0.156E+02   0.161E-13 0.615E+02 -.166E+02   -.243E-18 -.542E+01 0.114E+01   -.223E-13 0.434E-04 -.415E-05
   0.222E-14 0.351E-12 -.625E+02   -.223E-13 -.175E-14 0.651E+02   -.762E-19 -.123E-18 -.254E+01   -.173E-13 0.251E-15 0.215E-04
   0.888E-14 -.131E-12 0.625E+02   -.306E-13 0.313E-14 -.651E+02   0.995E-19 -.148E-18 0.254E+01   0.168E-13 0.102E-15 -.215E-04
 -----------------------------------------------------------------------------------------------
   -.171E-11 0.918E-12 0.284E-11   0.159E-13 0.156E-13 -.142E-13   -.222E-15 -.272E-18 0.444E-15   0.287E-15 0.111E-15 -.659E-13
 
 
 POSITION                                       TOTAL-FORCE (eV/Angst)
 -----------------------------------------------------------------------------------
      2.96410      2.02031      3.95091        -0.033641     -0.000000      0.062366
      2.72264      2.02031      2.24213         0.033641      0.000000     -0.062366
      5.56602      2.02031      3.95091         0.033641     -0.000000      0.062366
      0.12073      2.02031      2.24213        -0.033641      0.000000     -0.062366
      3.41717      2.02031      5.57317        -0.854431     -0.000000      0.307215
      2.26958      2.02031      0.61986         0.854431      0.000000     -0.307215
      5.11295      2.02031      5.57317         0.854431      0.000000      0.307215
      0.57379      2.02031      0.61986        -0.854431      0.000000     -0.307215
      4.26506      3.19899      4.51924        -0.000000      0.064130     -0.083776
      1.42169      0.84162      1.67379        -0.000000     -0.064130      0.083776
      4.26506      0.84162      4.51924        -0.000000     -0.064130     -0.083776
      1.42169      3.19899      1.67379        -0.000000      0.064130      0.083776
      1.42169      2.02031      3.24311        -0.000000     -0.000000      0.103669
      4.26506      2.02031      2.94993        -0.000000      0.000000     -0.103669
 -----------------------------------------------------------------------------------
    total drift:                               -0.000000      0.000000      0.000000


--------------------------------------------------------------------------------------------------------



  FREE ENERGIE OF THE ION-ELECTRON SYSTEM (eV)
  ---------------------------------------------------
  free  energy   TOTEN  =       -90.60400517 eV

  energy  without entropy=      -90.60079397  energy(sigma->0) =      -90.60239957
 


--------------------------------------------------------------------------------------------------------


    POTLOK:  cpu time      0.0131: real time      0.0132


--------------------------------------------------------------------------------------------------------


     LOOP+:  cpu time     88.4736: real time     89.0521
    4ORBIT:  cpu time      0.0000: real time      0.0000

 total amount of memory used by VASP MPI-rank0   117562. kBytes
=======================================================================

   base      :      30000. kBytes
   nonl-proj :      54561. kBytes
   fftplans  :       1200. kBytes
   grid      :       4341. kBytes
   one-center:         43. kBytes
   wavefun   :      27417. kBytes
 
  
  
 General timing and accounting informations for this job:
 ========================================================
  
                  Total CPU time used (sec):       91.853
                            User time (sec):       90.715
                          System time (sec):        1.138
                         Elapsed time (sec):       93.068
  
                   Maximum memory used (kb):      453936.
                   Average memory used (kb):          N/A
  
                          Minor page faults:       357336
                          Major page faults:         1570
                 Voluntary context switches:         4180
