<?xml version="1.0" encoding="ISO-8859-1"?>
<modeling>
 <generator>
  <i name="program" type="string">vasp </i>
  <i name="version" type="string">6.4.3  </i>
  <i name="subversion" type="string">19Mar24 (build May 31 2024 16:31:43) complex                          parallel </i>
  <i name="platform" type="string">LinuxIFC </i>
  <i name="date" type="string">2024 11 11 </i>
  <i name="time" type="string">16:05:09 </i>
 </generator>
 <incar>
  <i type="string" name="SYSTEM">Convergence</i>
  <i type="int" name="ISTART">     0</i>
  <i type="string" name="PREC">Accurate</i>
  <i type="string" name="ALGO">Normal</i>
  <i type="int" name="ISPIN">     1</i>
  <i type="int" name="ICHARG">     2</i>
  <i type="int" name="NELM">   100</i>
  <i type="int" name="IBRION">    -1</i>
  <i name="EDIFF">      0.00000100</i>
  <i name="EDIFFG">     -0.00100000</i>
  <i type="int" name="NSW">     0</i>
  <i type="int" name="ISIF">     2</i>
  <i name="ENCUT">    600.00000000</i>
  <i name="POTIM">      0.50000000</i>
  <i type="int" name="ISMEAR">     0</i>
  <i name="SIGMA">      0.05000000</i>
  <i type="logical" name="LWAVE"> F  </i>
  <i type="logical" name="LCHARG"> F  </i>
  <i type="string" name="GGA">PE</i>
 </incar>
 <primitive_cell>
  <structure name="primitive_cell" >
   <crystal>
    <varray name="basis" >
     <v>       5.68674540       0.00000000       0.00000000 </v>
     <v>       0.00000000       4.04061378       0.00000000 </v>
     <v>       0.00000000       0.00000000       6.19303244 </v>
    </varray>
    <i name="volume">    142.30313914 </i>
    <varray name="rec_basis" >
     <v>       0.17584751       0.00000000       0.00000000 </v>
     <v>       0.00000000       0.24748715       0.00000000 </v>
     <v>       0.00000000       0.00000000       0.16147178 </v>
    </varray>
   </crystal>
   <varray name="positions" >
    <v>       0.52123000       0.50000000       0.63796000 </v>
    <v>       0.47877000       0.50000000       0.36204000 </v>
    <v>       0.97877000       0.50000000       0.63796000 </v>
    <v>       0.02123000       0.50000000       0.36204000 </v>
    <v>       0.60090000       0.50000000       0.89991000 </v>
    <v>       0.39910000       0.50000000       0.10009000 </v>
    <v>       0.89910000       0.50000000       0.89991000 </v>
    <v>       0.10090000       0.50000000       0.10009000 </v>
    <v>       0.75000000       0.79171000       0.72973000 </v>
    <v>       0.25000000       0.20829000       0.27027000 </v>
    <v>       0.75000000       0.20829000       0.72973000 </v>
    <v>       0.25000000       0.79171000       0.27027000 </v>
    <v>       0.25000000       0.50000000       0.52367000 </v>
    <v>       0.75000000       0.50000000       0.47633000 </v>
   </varray>
  </structure>
  <varray name="primitive_index" >
   <v type="int" >        1 </v>
   <v type="int" >        2 </v>
   <v type="int" >        3 </v>
   <v type="int" >        4 </v>
   <v type="int" >        5 </v>
   <v type="int" >        6 </v>
   <v type="int" >        7 </v>
   <v type="int" >        8 </v>
   <v type="int" >        9 </v>
   <v type="int" >       10 </v>
   <v type="int" >       11 </v>
   <v type="int" >       12 </v>
   <v type="int" >       13 </v>
   <v type="int" >       14 </v>
  </varray>
 </primitive_cell>
 <kpoints>
  <generation param="Monkhorst-Pack">
   <v type="int" name="divisions">      10       14        9 </v>
   <v name="usershift">      0.00000000       0.00000000       0.00000000 </v>
   <v name="genvec1">      0.10000000       0.00000000       0.00000000 </v>
   <v name="genvec2">      0.00000000       0.07142857       0.00000000 </v>
   <v name="genvec3">      0.00000000       0.00000000       0.11111111 </v>
   <v name="shift">      0.50000000       0.50000000       0.00000000 </v>
  </generation>
  <varray name="kpointlist" >
   <v>       0.05000000       0.03571429       0.00000000 </v>
   <v>       0.15000000       0.03571429       0.00000000 </v>
   <v>       0.25000000       0.03571429       0.00000000 </v>
   <v>       0.35000000       0.03571429       0.00000000 </v>
   <v>       0.45000000       0.03571429       0.00000000 </v>
   <v>       0.05000000       0.10714286       0.00000000 </v>
   <v>       0.15000000       0.10714286       0.00000000 </v>
   <v>       0.25000000       0.10714286       0.00000000 </v>
   <v>       0.35000000       0.10714286       0.00000000 </v>
   <v>       0.45000000       0.10714286       0.00000000 </v>
   <v>       0.05000000       0.17857143       0.00000000 </v>
   <v>       0.15000000       0.17857143       0.00000000 </v>
   <v>       0.25000000       0.17857143       0.00000000 </v>
   <v>       0.35000000       0.17857143       0.00000000 </v>
   <v>       0.45000000       0.17857143       0.00000000 </v>
   <v>       0.05000000       0.25000000       0.00000000 </v>
   <v>       0.15000000       0.25000000       0.00000000 </v>
   <v>       0.25000000       0.25000000       0.00000000 </v>
   <v>       0.35000000       0.25000000       0.00000000 </v>
   <v>       0.45000000       0.25000000       0.00000000 </v>
   <v>       0.05000000       0.32142857       0.00000000 </v>
   <v>       0.15000000       0.32142857       0.00000000 </v>
   <v>       0.25000000       0.32142857       0.00000000 </v>
   <v>       0.35000000       0.32142857       0.00000000 </v>
   <v>       0.45000000       0.32142857       0.00000000 </v>
   <v>       0.05000000       0.39285714       0.00000000 </v>
   <v>       0.15000000       0.39285714       0.00000000 </v>
   <v>       0.25000000       0.39285714       0.00000000 </v>
   <v>       0.35000000       0.39285714       0.00000000 </v>
   <v>       0.45000000       0.39285714       0.00000000 </v>
   <v>       0.05000000       0.46428571       0.00000000 </v>
   <v>       0.15000000       0.46428571       0.00000000 </v>
   <v>       0.25000000       0.46428571       0.00000000 </v>
   <v>       0.35000000       0.46428571       0.00000000 </v>
   <v>       0.45000000       0.46428571       0.00000000 </v>
   <v>       0.05000000       0.03571429       0.11111111 </v>
   <v>       0.15000000       0.03571429       0.11111111 </v>
   <v>       0.25000000       0.03571429       0.11111111 </v>
   <v>       0.35000000       0.03571429       0.11111111 </v>
   <v>       0.45000000       0.03571429       0.11111111 </v>
   <v>       0.05000000       0.10714286       0.11111111 </v>
   <v>       0.15000000       0.10714286       0.11111111 </v>
   <v>       0.25000000       0.10714286       0.11111111 </v>
   <v>       0.35000000       0.10714286       0.11111111 </v>
   <v>       0.45000000       0.10714286       0.11111111 </v>
   <v>       0.05000000       0.17857143       0.11111111 </v>
   <v>       0.15000000       0.17857143       0.11111111 </v>
   <v>       0.25000000       0.17857143       0.11111111 </v>
   <v>       0.35000000       0.17857143       0.11111111 </v>
   <v>       0.45000000       0.17857143       0.11111111 </v>
   <v>       0.05000000       0.25000000       0.11111111 </v>
   <v>       0.15000000       0.25000000       0.11111111 </v>
   <v>       0.25000000       0.25000000       0.11111111 </v>
   <v>       0.35000000       0.25000000       0.11111111 </v>
   <v>       0.45000000       0.25000000       0.11111111 </v>
   <v>       0.05000000       0.32142857       0.11111111 </v>
   <v>       0.15000000       0.32142857       0.11111111 </v>
   <v>       0.25000000       0.32142857       0.11111111 </v>
   <v>       0.35000000       0.32142857       0.11111111 </v>
   <v>       0.45000000       0.32142857       0.11111111 </v>
   <v>       0.05000000       0.39285714       0.11111111 </v>
   <v>       0.15000000       0.39285714       0.11111111 </v>
   <v>       0.25000000       0.39285714       0.11111111 </v>
   <v>       0.35000000       0.39285714       0.11111111 </v>
   <v>       0.45000000       0.39285714       0.11111111 </v>
   <v>       0.05000000       0.46428571       0.11111111 </v>
   <v>       0.15000000       0.46428571       0.11111111 </v>
   <v>       0.25000000       0.46428571       0.11111111 </v>
   <v>       0.35000000       0.46428571       0.11111111 </v>
   <v>       0.45000000       0.46428571       0.11111111 </v>
   <v>       0.05000000       0.03571429       0.22222222 </v>
   <v>       0.15000000       0.03571429       0.22222222 </v>
   <v>       0.25000000       0.03571429       0.22222222 </v>
   <v>       0.35000000       0.03571429       0.22222222 </v>
   <v>       0.45000000       0.03571429       0.22222222 </v>
   <v>       0.05000000       0.10714286       0.22222222 </v>
   <v>       0.15000000       0.10714286       0.22222222 </v>
   <v>       0.25000000       0.10714286       0.22222222 </v>
   <v>       0.35000000       0.10714286       0.22222222 </v>
   <v>       0.45000000       0.10714286       0.22222222 </v>
   <v>       0.05000000       0.17857143       0.22222222 </v>
   <v>       0.15000000       0.17857143       0.22222222 </v>
   <v>       0.25000000       0.17857143       0.22222222 </v>
   <v>       0.35000000       0.17857143       0.22222222 </v>
   <v>       0.45000000       0.17857143       0.22222222 </v>
   <v>       0.05000000       0.25000000       0.22222222 </v>
   <v>       0.15000000       0.25000000       0.22222222 </v>
   <v>       0.25000000       0.25000000       0.22222222 </v>
   <v>       0.35000000       0.25000000       0.22222222 </v>
   <v>       0.45000000       0.25000000       0.22222222 </v>
   <v>       0.05000000       0.32142857       0.22222222 </v>
   <v>       0.15000000       0.32142857       0.22222222 </v>
   <v>       0.25000000       0.32142857       0.22222222 </v>
   <v>       0.35000000       0.32142857       0.22222222 </v>
   <v>       0.45000000       0.32142857       0.22222222 </v>
   <v>       0.05000000       0.39285714       0.22222222 </v>
   <v>       0.15000000       0.39285714       0.22222222 </v>
   <v>       0.25000000       0.39285714       0.22222222 </v>
   <v>       0.35000000       0.39285714       0.22222222 </v>
   <v>       0.45000000       0.39285714       0.22222222 </v>
   <v>       0.05000000       0.46428571       0.22222222 </v>
   <v>       0.15000000       0.46428571       0.22222222 </v>
   <v>       0.25000000       0.46428571       0.22222222 </v>
   <v>       0.35000000       0.46428571       0.22222222 </v>
   <v>       0.45000000       0.46428571       0.22222222 </v>
   <v>       0.05000000       0.03571429       0.33333333 </v>
   <v>       0.15000000       0.03571429       0.33333333 </v>
   <v>       0.25000000       0.03571429       0.33333333 </v>
   <v>       0.35000000       0.03571429       0.33333333 </v>
   <v>       0.45000000       0.03571429       0.33333333 </v>
   <v>       0.05000000       0.10714286       0.33333333 </v>
   <v>       0.15000000       0.10714286       0.33333333 </v>
   <v>       0.25000000       0.10714286       0.33333333 </v>
   <v>       0.35000000       0.10714286       0.33333333 </v>
   <v>       0.45000000       0.10714286       0.33333333 </v>
   <v>       0.05000000       0.17857143       0.33333333 </v>
   <v>       0.15000000       0.17857143       0.33333333 </v>
   <v>       0.25000000       0.17857143       0.33333333 </v>
   <v>       0.35000000       0.17857143       0.33333333 </v>
   <v>       0.45000000       0.17857143       0.33333333 </v>
   <v>       0.05000000       0.25000000       0.33333333 </v>
   <v>       0.15000000       0.25000000       0.33333333 </v>
   <v>       0.25000000       0.25000000       0.33333333 </v>
   <v>       0.35000000       0.25000000       0.33333333 </v>
   <v>       0.45000000       0.25000000       0.33333333 </v>
   <v>       0.05000000       0.32142857       0.33333333 </v>
   <v>       0.15000000       0.32142857       0.33333333 </v>
   <v>       0.25000000       0.32142857       0.33333333 </v>
   <v>       0.35000000       0.32142857       0.33333333 </v>
   <v>       0.45000000       0.32142857       0.33333333 </v>
   <v>       0.05000000       0.39285714       0.33333333 </v>
   <v>       0.15000000       0.39285714       0.33333333 </v>
   <v>       0.25000000       0.39285714       0.33333333 </v>
   <v>       0.35000000       0.39285714       0.33333333 </v>
   <v>       0.45000000       0.39285714       0.33333333 </v>
   <v>       0.05000000       0.46428571       0.33333333 </v>
   <v>       0.15000000       0.46428571       0.33333333 </v>
   <v>       0.25000000       0.46428571       0.33333333 </v>
   <v>       0.35000000       0.46428571       0.33333333 </v>
   <v>       0.45000000       0.46428571       0.33333333 </v>
   <v>       0.05000000       0.03571429       0.44444444 </v>
   <v>       0.15000000       0.03571429       0.44444444 </v>
   <v>       0.25000000       0.03571429       0.44444444 </v>
   <v>       0.35000000       0.03571429       0.44444444 </v>
   <v>       0.45000000       0.03571429       0.44444444 </v>
   <v>       0.05000000       0.10714286       0.44444444 </v>
   <v>       0.15000000       0.10714286       0.44444444 </v>
   <v>       0.25000000       0.10714286       0.44444444 </v>
   <v>       0.35000000       0.10714286       0.44444444 </v>
   <v>       0.45000000       0.10714286       0.44444444 </v>
   <v>       0.05000000       0.17857143       0.44444444 </v>
   <v>       0.15000000       0.17857143       0.44444444 </v>
   <v>       0.25000000       0.17857143       0.44444444 </v>
   <v>       0.35000000       0.17857143       0.44444444 </v>
   <v>       0.45000000       0.17857143       0.44444444 </v>
   <v>       0.05000000       0.25000000       0.44444444 </v>
   <v>       0.15000000       0.25000000       0.44444444 </v>
   <v>       0.25000000       0.25000000       0.44444444 </v>
   <v>       0.35000000       0.25000000       0.44444444 </v>
   <v>       0.45000000       0.25000000       0.44444444 </v>
   <v>       0.05000000       0.32142857       0.44444444 </v>
   <v>       0.15000000       0.32142857       0.44444444 </v>
   <v>       0.25000000       0.32142857       0.44444444 </v>
   <v>       0.35000000       0.32142857       0.44444444 </v>
   <v>       0.45000000       0.32142857       0.44444444 </v>
   <v>       0.05000000       0.39285714       0.44444444 </v>
   <v>       0.15000000       0.39285714       0.44444444 </v>
   <v>       0.25000000       0.39285714       0.44444444 </v>
   <v>       0.35000000       0.39285714       0.44444444 </v>
   <v>       0.45000000       0.39285714       0.44444444 </v>
   <v>       0.05000000       0.46428571       0.44444444 </v>
   <v>       0.15000000       0.46428571       0.44444444 </v>
   <v>       0.25000000       0.46428571       0.44444444 </v>
   <v>       0.35000000       0.46428571       0.44444444 </v>
   <v>       0.45000000       0.46428571       0.44444444 </v>
  </varray>
  <varray name="weights" >
   <v>       0.00317460 </v>
   <v>       0.00317460 </v>
   <v>       0.00317460 </v>
   <v>       0.00317460 </v>
   <v>       0.00317460 </v>
   <v>       0.00317460 </v>
   <v>       0.00317460 </v>
   <v>       0.00317460 </v>
   <v>       0.00317460 </v>
   <v>       0.00317460 </v>
   <v>       0.00317460 </v>
   <v>       0.00317460 </v>
   <v>       0.00317460 </v>
   <v>       0.00317460 </v>
   <v>       0.00317460 </v>
   <v>       0.00317460 </v>
   <v>       0.00317460 </v>
   <v>       0.00317460 </v>
   <v>       0.00317460 </v>
   <v>       0.00317460 </v>
   <v>       0.00317460 </v>
   <v>       0.00317460 </v>
   <v>       0.00317460 </v>
   <v>       0.00317460 </v>
   <v>       0.00317460 </v>
   <v>       0.00317460 </v>
   <v>       0.00317460 </v>
   <v>       0.00317460 </v>
   <v>       0.00317460 </v>
   <v>       0.00317460 </v>
   <v>       0.00317460 </v>
   <v>       0.00317460 </v>
   <v>       0.00317460 </v>
   <v>       0.00317460 </v>
   <v>       0.00317460 </v>
   <v>       0.00634921 </v>
   <v>       0.00634921 </v>
   <v>       0.00634921 </v>
   <v>       0.00634921 </v>
   <v>       0.00634921 </v>
   <v>       0.00634921 </v>
   <v>       0.00634921 </v>
   <v>       0.00634921 </v>
   <v>       0.00634921 </v>
   <v>       0.00634921 </v>
   <v>       0.00634921 </v>
   <v>       0.00634921 </v>
   <v>       0.00634921 </v>
   <v>       0.00634921 </v>
   <v>       0.00634921 </v>
   <v>       0.00634921 </v>
   <v>       0.00634921 </v>
   <v>       0.00634921 </v>
   <v>       0.00634921 </v>
   <v>       0.00634921 </v>
   <v>       0.00634921 </v>
   <v>       0.00634921 </v>
   <v>       0.00634921 </v>
   <v>       0.00634921 </v>
   <v>       0.00634921 </v>
   <v>       0.00634921 </v>
   <v>       0.00634921 </v>
   <v>       0.00634921 </v>
   <v>       0.00634921 </v>
   <v>       0.00634921 </v>
   <v>       0.00634921 </v>
   <v>       0.00634921 </v>
   <v>       0.00634921 </v>
   <v>       0.00634921 </v>
   <v>       0.00634921 </v>
   <v>       0.00634921 </v>
   <v>       0.00634921 </v>
   <v>       0.00634921 </v>
   <v>       0.00634921 </v>
   <v>       0.00634921 </v>
   <v>       0.00634921 </v>
   <v>       0.00634921 </v>
   <v>       0.00634921 </v>
   <v>       0.00634921 </v>
   <v>       0.00634921 </v>
   <v>       0.00634921 </v>
   <v>       0.00634921 </v>
   <v>       0.00634921 </v>
   <v>       0.00634921 </v>
   <v>       0.00634921 </v>
   <v>       0.00634921 </v>
   <v>       0.00634921 </v>
   <v>       0.00634921 </v>
   <v>       0.00634921 </v>
   <v>       0.00634921 </v>
   <v>       0.00634921 </v>
   <v>       0.00634921 </v>
   <v>       0.00634921 </v>
   <v>       0.00634921 </v>
   <v>       0.00634921 </v>
   <v>       0.00634921 </v>
   <v>       0.00634921 </v>
   <v>       0.00634921 </v>
   <v>       0.00634921 </v>
   <v>       0.00634921 </v>
   <v>       0.00634921 </v>
   <v>       0.00634921 </v>
   <v>       0.00634921 </v>
   <v>       0.00634921 </v>
   <v>       0.00634921 </v>
   <v>       0.00634921 </v>
   <v>       0.00634921 </v>
   <v>       0.00634921 </v>
   <v>       0.00634921 </v>
   <v>       0.00634921 </v>
   <v>       0.00634921 </v>
   <v>       0.00634921 </v>
   <v>       0.00634921 </v>
   <v>       0.00634921 </v>
   <v>       0.00634921 </v>
   <v>       0.00634921 </v>
   <v>       0.00634921 </v>
   <v>       0.00634921 </v>
   <v>       0.00634921 </v>
   <v>       0.00634921 </v>
   <v>       0.00634921 </v>
   <v>       0.00634921 </v>
   <v>       0.00634921 </v>
   <v>       0.00634921 </v>
   <v>       0.00634921 </v>
   <v>       0.00634921 </v>
   <v>       0.00634921 </v>
   <v>       0.00634921 </v>
   <v>       0.00634921 </v>
   <v>       0.00634921 </v>
   <v>       0.00634921 </v>
   <v>       0.00634921 </v>
   <v>       0.00634921 </v>
   <v>       0.00634921 </v>
   <v>       0.00634921 </v>
   <v>       0.00634921 </v>
   <v>       0.00634921 </v>
   <v>       0.00634921 </v>
   <v>       0.00634921 </v>
   <v>       0.00634921 </v>
   <v>       0.00634921 </v>
   <v>       0.00634921 </v>
   <v>       0.00634921 </v>
   <v>       0.00634921 </v>
   <v>       0.00634921 </v>
   <v>       0.00634921 </v>
   <v>       0.00634921 </v>
   <v>       0.00634921 </v>
   <v>       0.00634921 </v>
   <v>       0.00634921 </v>
   <v>       0.00634921 </v>
   <v>       0.00634921 </v>
   <v>       0.00634921 </v>
   <v>       0.00634921 </v>
   <v>       0.00634921 </v>
   <v>       0.00634921 </v>
   <v>       0.00634921 </v>
   <v>       0.00634921 </v>
   <v>       0.00634921 </v>
   <v>       0.00634921 </v>
   <v>       0.00634921 </v>
   <v>       0.00634921 </v>
   <v>       0.00634921 </v>
   <v>       0.00634921 </v>
   <v>       0.00634921 </v>
   <v>       0.00634921 </v>
   <v>       0.00634921 </v>
   <v>       0.00634921 </v>
   <v>       0.00634921 </v>
   <v>       0.00634921 </v>
   <v>       0.00634921 </v>
   <v>       0.00634921 </v>
   <v>       0.00634921 </v>
   <v>       0.00634921 </v>
   <v>       0.00634921 </v>
  </varray>
 </kpoints>
 <parameters>
  <separator name="general" >
   <i type="string" name="SYSTEM">Convergence</i>
   <i type="logical" name="LCOMPAT"> F  </i>
  </separator>
  <separator name="electronic" >
   <i type="string" name="PREC">accura</i>
   <i name="ENMAX">    600.00000000</i>
   <i name="ENAUG">    535.51400000</i>
   <i name="EDIFF">      0.00000100</i>
   <i type="int" name="IALGO">    38</i>
   <i type="int" name="IWAVPR">    10</i>
   <i type="int" name="NBANDS">    48</i>
   <i type="int" name="NBANDSLOW">    -1</i>
   <i type="int" name="NBANDSHIGH">    -1</i>
   <i name="NELECT">     42.00000000</i>
   <i type="int" name="TURBO">     0</i>
   <i type="int" name="IRESTART">     0</i>
   <i type="int" name="NREBOOT">     0</i>
   <i type="int" name="NMIN">     0</i>
   <i name="EREF">      0.00000000</i>
   <separator name="electronic smearing" >
    <i type="int" name="ISMEAR">     0</i>
    <i name="SIGMA">      0.05000000</i>
    <i name="KSPACING">      0.50000000</i>
    <i type="logical" name="KGAMMA"> T  </i>
    <i type="logical" name="KBLOWUP"> T  </i>
   </separator>
   <separator name="electronic projectors" >
    <i type="logical" name="LREAL"> F  </i>
    <v name="ROPT">      0.00000000</v>
    <i type="int" name="LMAXPAW">  -100</i>
    <i type="int" name="LMAXMIX">     2</i>
    <i type="logical" name="NLSPLINE"> F  </i>
   </separator>
   <separator name="electronic startup" >
    <i type="int" name="ISTART">     0</i>
    <i type="int" name="ICHARG">     2</i>
    <i type="int" name="INIWAV">     1</i>
   </separator>
   <separator name="electronic spin" >
    <i type="int" name="ISPIN">     1</i>
    <i type="logical" name="LNONCOLLINEAR"> F  </i>
    <v name="MAGMOM">      1.00000000      1.00000000      1.00000000      1.00000000      1.00000000      1.00000000      1.00000000      1.00000000      1.00000000      1.00000000      1.00000000      1.00000000      1.00000000      1.00000000</v>
    <i name="NUPDOWN">     -1.00000000</i>
    <i type="logical" name="LSORBIT"> F  </i>
    <v name="SAXIS">      0.00000000      0.00000000      1.00000000</v>
    <i type="logical" name="LSPIRAL"> F  </i>
    <v name="QSPIRAL">      0.00000000      0.00000000      0.00000000</v>
    <i type="logical" name="LZEROZ"> F  </i>
   </separator>
   <separator name="electronic exchange-correlation" >
    <i type="logical" name="LASPH"> F  </i>
   </separator>
   <separator name="electronic convergence" >
    <i type="int" name="NELM">   100</i>
    <i type="int" name="NELMDL">    -5</i>
    <i type="int" name="NELMIN">     2</i>
    <i name="ENINI">    600.00000000</i>
    <separator name="electronic convergence detail" >
     <i type="logical" name="LDIAG"> T  </i>
     <i type="logical" name="LSUBROT"> F  </i>
     <i name="WEIMIN">      0.00000000</i>
     <i name="EBREAK">      0.00000001</i>
     <i name="DEPER">      0.30000000</i>
     <i type="int" name="NRMM">     4</i>
     <i name="TIME">      0.40000000</i>
    </separator>
   </separator>
   <separator name="electronic mixer" >
    <i name="AMIX">      0.40000000</i>
    <i name="BMIX">      1.00000000</i>
    <i name="AMIN">      0.10000000</i>
    <i name="AMIX_MAG">      1.60000000</i>
    <i name="BMIX_MAG">      1.00000000</i>
    <separator name="electronic mixer details" >
     <i type="int" name="IMIX">     4</i>
     <i type="logical" name="MIXFIRST"> F  </i>
     <i type="int" name="MAXMIX">   -45</i>
     <i name="WC">    100.00000000</i>
     <i type="int" name="INIMIX">     1</i>
     <i type="int" name="MIXPRE">     1</i>
     <i type="int" name="MREMOVE">     5</i>
    </separator>
   </separator>
   <separator name="electronic dipolcorrection" >
    <i type="logical" name="LDIPOL"> F  </i>
    <i type="logical" name="LMONO"> F  </i>
    <i type="int" name="IDIPOL">     0</i>
    <i name="EPSILON">      1.00000000</i>
    <v name="DIPOL">   -100.00000000   -100.00000000   -100.00000000</v>
    <i name="EFIELD">      0.00000000</i>
    <i type="logical" name="LVACPOTAV"> F  </i>
   </separator>
  </separator>
  <separator name="grids" >
   <i type="int" name="NGX">    48</i>
   <i type="int" name="NGY">    32</i>
   <i type="int" name="NGZ">    50</i>
   <i type="int" name="NGXF">    96</i>
   <i type="int" name="NGYF">    64</i>
   <i type="int" name="NGZF">   100</i>
   <i type="logical" name="ADDGRID"> F  </i>
  </separator>
  <separator name="ionic" >
   <i type="int" name="NSW">     0</i>
   <i type="int" name="IBRION">    -1</i>
   <i type="int" name="MDALGO">     0</i>
   <i type="int" name="ISIF">     2</i>
   <i name="PSTRESS">      0.00000000</i>
   <i name="EDIFFG">     -0.00100000</i>
   <i type="int" name="NFREE">     0</i>
   <i name="POTIM">      0.50000000</i>
   <i name="SMASS">     -3.00000000</i>
   <i name="SCALEE">      1.00000000</i>
  </separator>
  <separator name="ionic md" >
   <i name="TEBEG">      0.00010000</i>
   <i name="TEEND">      0.00010000</i>
   <i type="int" name="NBLOCK">     1</i>
   <i type="int" name="KBLOCK">     1</i>
   <i type="int" name="NPACO">   256</i>
   <i name="APACO">     10.00000000</i>
  </separator>
  <separator name="symmetry" >
   <i type="int" name="ISYM">     2</i>
   <i name="SYMPREC">      0.00001000</i>
  </separator>
  <separator name="dos" >
   <i type="int" name="LORBIT">     0</i>
   <v name="RWIGS">     -1.00000000</v>
   <i type="int" name="NEDOS">   301</i>
   <i name="EMIN">     10.00000000</i>
   <i name="EMAX">    -10.00000000</i>
   <i name="EFERMI">      0.00000000</i>
  </separator>
  <separator name="writing" >
   <i type="int" name="NWRITE">     2</i>
   <i type="logical" name="LWAVE"> F  </i>
   <i type="logical" name="LDOWNSAMPLE"> F  </i>
   <i type="logical" name="LCHARG"> F  </i>
   <i type="logical" name="LPARD"> F  </i>
   <i type="logical" name="LVTOT"> F  </i>
   <i type="logical" name="LVHAR"> F  </i>
   <i type="logical" name="LELF"> F  </i>
   <i type="logical" name="LOPTICS"> F  </i>
   <v name="STM">      0.00000000      0.00000000      0.00000000      0.00000000      0.00000000      0.00000000      0.00000000</v>
  </separator>
  <separator name="performance" >
   <i type="int" name="NPAR">    24</i>
   <i type="int" name="NSIM">     4</i>
   <i type="int" name="NBLK">    -1</i>
   <i type="logical" name="LPLANE"> T  </i>
   <i type="logical" name="LSCALAPACK"> T  </i>
   <i type="logical" name="LSCAAWARE"> F  </i>
   <i type="logical" name="LSCALU"> F  </i>
   <i type="logical" name="LASYNC"> F  </i>
   <i type="logical" name="LORBITALREAL"> F  </i>
  </separator>
  <separator name="miscellaneous" >
   <i type="int" name="IDIOT">     3</i>
   <i type="int" name="PHON_NSTRUCT">    -1</i>
   <i type="logical" name="LMUSIC"> F  </i>
   <v name="POMASS">     10.81100000</v>
   <v name="DARWINR">      0.00000000</v>
   <v name="DARWINV">      1.00000000</v>
   <i type="logical" name="LCORR"> T  </i>
  </separator>
  <i type="logical" name="GGA_COMPAT"> T  </i>
  <i type="logical" name="LBERRY"> F  </i>
  <i type="int" name="ICORELEVEL">     0</i>
  <i type="logical" name="LDAU"> F  </i>
  <i type="int" name="I_CONSTRAINED_M">     0</i>
  <separator name="electronic exchange-correlation" >
   <i type="string" name="GGA    ">PE</i>
   <i type="string" name="XC_C">1</i>
   <i type="int" name="VOSKOWN">     0</i>
   <i type="logical" name="LHFCALC"> F  </i>
   <i type="string" name="PRECFOCK"></i>
   <i type="logical" name="LSYMGRAD"> F  </i>
   <i type="logical" name="LHFONE"> F  </i>
   <i type="logical" name="LRHFCALC"> F  </i>
   <i type="logical" name="LTHOMAS"> F  </i>
   <i type="logical" name="LMODELHF"> F  </i>
   <i type="logical" name="LFOCKACE"> F  </i>
   <i name="ENCUT4O">     -1.00000000</i>
   <i type="int" name="EXXOEP">     0</i>
   <i type="int" name="FOURORBIT">     0</i>
   <i name="AEXX">      0.00000000</i>
   <i name="HFALPHA">      0.00000000</i>
   <i name="MCALPHA">      0.00000000</i>
   <i name="ALDAX">      1.00000000</i>
   <i name="AGGAX">      1.00000000</i>
   <i name="AMGGAX">      1.00000000</i>
   <i name="ALDAC">      1.00000000</i>
   <i name="AGGAC">      1.00000000</i>
   <i name="AMGGAC">      1.00000000</i>
   <i type="int" name="NKREDX">     1</i>
   <i type="int" name="NKREDY">     1</i>
   <i type="int" name="NKREDZ">     1</i>
   <i type="logical" name="SHIFTRED"> F  </i>
   <i type="logical" name="ODDONLY"> F  </i>
   <i type="logical" name="EVENONLY"> F  </i>
   <i type="int" name="LMAXFOCK">     0</i>
   <i type="int" name="NMAXFOCKAE">     0</i>
   <i type="logical" name="LFOCKAEDFT"> F  </i>
   <i name="HFSCREEN">      0.00000000</i>
   <i name="HFSCREENC">      0.00000000</i>
   <i type="int" name="NBANDSGWLOW">     0</i>
  </separator>
  <separator name="vdW DFT" >
   <i type="logical" name="LUSE_VDW"> F  </i>
   <i type="int" name="IVDW_NL">    -1</i>
   <i type="logical" name="LSPIN_VDW"> F  </i>
   <i name="ZAB_VDW">     -0.84910000</i>
   <i name="GAMMA_VDW">      1.39626340</i>
   <i name="ALPHA_VDW">      0.00000000</i>
   <i name="PARAM1">      0.12340000</i>
   <i name="PARAM2">      1.00000000</i>
   <i name="BPARAM">      6.30000000</i>
   <i name="CPARAM">      0.00930000</i>
  </separator>
  <separator name="model GW" >
   <i type="int" name="MODEL_GW">     0</i>
   <i name="MODEL_EPS0">      6.09870596</i>
   <i name="MODEL_ALPHA">      1.00000000</i>
  </separator>
  <separator name="linear response parameters" >
   <i type="logical" name="LEPSILON"> F  </i>
   <i type="logical" name="LRPA"> F  </i>
   <i type="logical" name="LNABLA"> F  </i>
   <i type="logical" name="LVEL"> F  </i>
   <i name="CSHIFT">      0.10000000</i>
   <i name="OMEGAMAX">     -1.00000000</i>
   <i name="DEG_THRESHOLD">      0.00200000</i>
   <i name="RTIME">     -0.10000000</i>
   <i name="WPLASMAI">      0.00000000</i>
   <v name="DFIELD">      0.00000000      0.00000000      0.00000000</v>
   <v name="WPLASMA">      0.00000000      0.00000000      0.00000000      0.00000000      0.00000000      0.00000000      0.00000000      0.00000000      0.00000000</v>
  </separator>
  <separator name="orbital magnetization" >
   <i type="logical" name="NUCIND"> F  </i>
   <v name="MAGPOS">      0.00000000      0.00000000      0.00000000</v>
   <i type="logical" name="LNICSALL"> T  </i>
   <i type="logical" name="ORBITALMAG"> F  </i>
   <i type="logical" name="LMAGBLOCH"> F  </i>
   <i type="logical" name="LCHIMAG"> F  </i>
   <i type="logical" name="LGAUGE"> T  </i>
   <i type="int" name="MAGATOM">     0</i>
   <v name="MAGDIPOL">      0.00000000      0.00000000      0.00000000</v>
   <v name="AVECCONST">      0.00000000      0.00000000      0.00000000</v>
  </separator>
  <separator name="response functions" >
   <i type="logical" name="LALL_IN_ONE"> F  </i>
   <i type="int" name="IALL_IN_ONE">    -1</i>
   <i type="int" name="NBANDS_WAVE">    -1</i>
   <i type="logical" name="LFINITE_TEMPERATURE"> F  </i>
   <i type="logical" name="LADDER"> F  </i>
   <i type="logical" name="LRPAFORCE"> F  </i>
   <i type="logical" name="LFXC"> F  </i>
   <i type="logical" name="LHARTREE"> T  </i>
   <i type="int" name="IBSE">     0</i>
   <v type="int" name="KPOINT">    -1     0     0     0</v>
   <i type="logical" name="LTCTC"> F  </i>
   <i type="logical" name="LTCTE"> F  </i>
   <i type="logical" name="LTETE"> F  </i>
   <i type="logical" name="LTRIPLET"> F  </i>
   <i type="logical" name="LFXCEPS"> F  </i>
   <i type="logical" name="LFXHEG"> F  </i>
   <i type="int" name="NATURALO">     2</i>
   <i type="logical" name="LHOLEGF"> F  </i>
   <i type="logical" name="L2ORDER"> F  </i>
   <i type="logical" name="LDMP1"> F  </i>
   <i type="logical" name="LMP2LT"> F  </i>
   <i type="logical" name="LSMP2LT"> F  </i>
   <i type="logical" name="LGWLF"> F  </i>
   <i name="ENCUTGW">     -1.60000002</i>
   <i name="ENCUTGWSOFT">     -1.60000002</i>
   <i name="ENCUTLF">     -1.00000000</i>
   <i type="logical" name="ESF_SPLINES"> F  </i>
   <i name="ESF_CONV">      0.01000000</i>
   <i type="int" name="ESF_NINTER">    15</i>
   <i type="int" name="LMAXMP2">    -1</i>
   <i name="SCISSOR">      0.00000000</i>
   <i type="int" name="NOMEGA">     0</i>
   <i type="int" name="NOMEGAR">     0</i>
   <i type="int" name="NBANDSGW">    -1</i>
   <i type="int" name="NBANDSO">    -1</i>
   <i type="int" name="NBANDSV">    -1</i>
   <i type="int" name="NELMGW">     1</i>
   <i type="int" name="NELMHF">     1</i>
   <i type="int" name="DIM">     3</i>
   <i type="int" name="IESPILON">     4</i>
   <i type="int" name="ANTIRES">     0</i>
   <i name="OMEGAMAX">    -30.00000000</i>
   <i name="OMEGAMIN">    -30.00000000</i>
   <i name="OMEGATL">   -200.00000000</i>
   <i type="int" name="OMEGAGRID">     0</i>
   <i name="CSHIFT">     -0.10000000</i>
   <i type="logical" name="LSELFENERGY"> F  </i>
   <i type="logical" name="LSPECTRAL"> F  </i>
   <i type="logical" name="LSPECTRALGW"> F  </i>
   <i type="logical" name="LSINGLES"> F  </i>
   <i type="logical" name="LFERMIGW"> F  </i>
   <i type="logical" name="ODDONLYGW"> F  </i>
   <i type="logical" name="EVENONLYGW"> F  </i>
   <i type="int" name="NKREDLFX">     1</i>
   <i type="int" name="NKREDLFY">     1</i>
   <i type="int" name="NKREDLFZ">     1</i>
   <i type="int" name="MAXMEM">  2800</i>
   <i type="int" name="TELESCOPE">     0</i>
   <i type="int" name="NTAUPAR">    -1</i>
   <i type="int" name="NOMEGAPAR">    -1</i>
   <i name="DAMP_NEWTON">      0.80000001</i>
   <i name="LAMBDA">      1.00000000</i>
  </separator>
  <separator name="External order field" >
   <i name="OFIELD_KAPPA">      0.00000000</i>
   <v name="OFIELD_K">      0.00000000      0.00000000      0.00000000</v>
   <i name="OFIELD_Q6_NEAR">      0.00000000</i>
   <i name="OFIELD_Q6_FAR">      0.00000000</i>
   <i name="OFIELD_A">      0.00000000</i>
  </separator>
  <separator name="optional k-points parameters" >
   <i type="int" name="KPOINTS_OPT_MODE">     1</i>
   <i type="logical" name="LKPOINTS_OPT"> F  </i>
  </separator>
 </parameters>
 <atominfo>
  <atoms>      14 </atoms>
  <types>       1 </types>
  <array name="atoms" >
   <dimension dim="1">ion</dimension>
   <field type="string">element</field>
   <field type="int">atomtype</field>
   <set>
    <rc><c>B </c><c>   1</c></rc>
    <rc><c>B </c><c>   1</c></rc>
    <rc><c>B </c><c>   1</c></rc>
    <rc><c>B </c><c>   1</c></rc>
    <rc><c>B </c><c>   1</c></rc>
    <rc><c>B </c><c>   1</c></rc>
    <rc><c>B </c><c>   1</c></rc>
    <rc><c>B </c><c>   1</c></rc>
    <rc><c>B </c><c>   1</c></rc>
    <rc><c>B </c><c>   1</c></rc>
    <rc><c>B </c><c>   1</c></rc>
    <rc><c>B </c><c>   1</c></rc>
    <rc><c>B </c><c>   1</c></rc>
    <rc><c>B </c><c>   1</c></rc>
   </set>
  </array>
  <array name="atomtypes" >
   <dimension dim="1">type</dimension>
   <field type="int">atomspertype</field>
   <field type="string">element</field>
   <field>mass</field>
   <field>valence</field>
   <field type="string">pseudopotential</field>
   <set>
    <rc><c>  14</c><c>B </c><c>     10.81100000</c><c>      3.00000000</c><c>  PAW_PBE B 06Sep2000                   </c></rc>
   </set>
  </array>
 </atominfo>
 <structure name="initialpos" >
  <crystal>
   <varray name="basis" >
    <v>       5.68674540       0.00000000       0.00000000 </v>
    <v>       0.00000000       4.04061378       0.00000000 </v>
    <v>       0.00000000       0.00000000       6.19303244 </v>
   </varray>
   <i name="volume">    142.30313914 </i>
   <varray name="rec_basis" >
    <v>       0.17584751       0.00000000       0.00000000 </v>
    <v>       0.00000000       0.24748715       0.00000000 </v>
    <v>       0.00000000       0.00000000       0.16147178 </v>
   </varray>
  </crystal>
  <varray name="positions" >
   <v>       0.52123000       0.50000000       0.63796000 </v>
   <v>       0.47877000       0.50000000       0.36204000 </v>
   <v>       0.97877000       0.50000000       0.63796000 </v>
   <v>       0.02123000       0.50000000       0.36204000 </v>
   <v>       0.60090000       0.50000000       0.89991000 </v>
   <v>       0.39910000       0.50000000       0.10009000 </v>
   <v>       0.89910000       0.50000000       0.89991000 </v>
   <v>       0.10090000       0.50000000       0.10009000 </v>
   <v>       0.75000000       0.79171000       0.72973000 </v>
   <v>       0.25000000       0.20829000       0.27027000 </v>
   <v>       0.75000000       0.20829000       0.72973000 </v>
   <v>       0.25000000       0.79171000       0.27027000 </v>
   <v>       0.25000000       0.50000000       0.52367000 </v>
   <v>       0.75000000       0.50000000       0.47633000 </v>
  </varray>
 </structure>
 <calculation>
  <scstep>
   <time name="dav">    4.68    4.72</time>
   <time name="total">    4.70    4.74</time>
   <energy>
    <i name="alphaZ">     94.75433285 </i>
    <i name="ewald">   -797.20154369 </i>
    <i name="hartreedc">   -270.79678493 </i>
    <i name="XCdc">     97.63792075 </i>
    <i name="pawpsdc">    608.99811708 </i>
    <i name="pawaedc">   -597.02363782 </i>
    <i name="eentropy">     -0.00215480 </i>
    <i name="bandstr">    -52.49410162 </i>
    <i name="atom">    996.37441054 </i>
    <i name="e_fr_energy">     80.24655837 </i>
    <i name="e_wo_entrp">     80.24871317 </i>
    <i name="e_0_energy">     80.24763577 </i>
   </energy>
  </scstep>
  <scstep>
   <time name="dav">    6.18    6.22</time>
   <time name="total">    6.18    6.22</time>
   <energy>
    <i name="e_fr_energy">    -91.83040586 </i>
    <i name="e_wo_entrp">    -91.82703230 </i>
    <i name="e_0_energy">    -91.82871908 </i>
   </energy>
  </scstep>
  <scstep>
   <time name="dav">    6.65    6.69</time>
   <time name="total">    6.65    6.69</time>
   <energy>
    <i name="e_fr_energy">    -97.70641831 </i>
    <i name="e_wo_entrp">    -97.70277548 </i>
    <i name="e_0_energy">    -97.70459690 </i>
   </energy>
  </scstep>
  <scstep>
   <time name="dav">    5.46    5.49</time>
   <time name="total">    5.46    5.50</time>
   <energy>
    <i name="e_fr_energy">    -97.74074422 </i>
    <i name="e_wo_entrp">    -97.73709819 </i>
    <i name="e_0_energy">    -97.73892121 </i>
   </energy>
  </scstep>
  <scstep>
   <time name="dav">    6.62    6.66</time>
   <time name="total">    6.71    6.77</time>
   <energy>
    <i name="e_fr_energy">    -97.74112338 </i>
    <i name="e_wo_entrp">    -97.73747726 </i>
    <i name="e_0_energy">    -97.73930032 </i>
   </energy>
  </scstep>
  <scstep>
   <time name="dav">    6.53    6.57</time>
   <time name="total">    6.63    6.68</time>
   <energy>
    <i name="e_fr_energy">    -92.24505338 </i>
    <i name="e_wo_entrp">    -92.24164269 </i>
    <i name="e_0_energy">    -92.24334804 </i>
   </energy>
  </scstep>
  <scstep>
   <time name="dav">    6.76    6.80</time>
   <time name="total">    6.86    6.91</time>
   <energy>
    <i name="e_fr_energy">    -90.57232047 </i>
    <i name="e_wo_entrp">    -90.56919984 </i>
    <i name="e_0_energy">    -90.57076015 </i>
   </energy>
  </scstep>
  <scstep>
   <time name="dav">    5.07    5.10</time>
   <time name="total">    5.17    5.21</time>
   <energy>
    <i name="e_fr_energy">    -90.58461478 </i>
    <i name="e_wo_entrp">    -90.58144098 </i>
    <i name="e_0_energy">    -90.58302788 </i>
   </energy>
  </scstep>
  <scstep>
   <time name="dav">    6.32    6.36</time>
   <time name="total">    6.42    6.46</time>
   <energy>
    <i name="e_fr_energy">    -90.59875690 </i>
    <i name="e_wo_entrp">    -90.59549454 </i>
    <i name="e_0_energy">    -90.59712572 </i>
   </energy>
  </scstep>
  <scstep>
   <time name="dav">    5.20    5.23</time>
   <time name="total">    5.29    5.33</time>
   <energy>
    <i name="e_fr_energy">    -90.60281782 </i>
    <i name="e_wo_entrp">    -90.59960229 </i>
    <i name="e_0_energy">    -90.60121005 </i>
   </energy>
  </scstep>
  <scstep>
   <time name="dav">    5.86    5.90</time>
   <time name="total">    5.96    6.00</time>
   <energy>
    <i name="e_fr_energy">    -90.60388240 </i>
    <i name="e_wo_entrp">    -90.60067799 </i>
    <i name="e_0_energy">    -90.60228019 </i>
   </energy>
  </scstep>
  <scstep>
   <time name="dav">    5.60    5.63</time>
   <time name="total">    5.69    5.73</time>
   <energy>
    <i name="e_fr_energy">    -90.60399961 </i>
    <i name="e_wo_entrp">    -90.60078889 </i>
    <i name="e_0_energy">    -90.60239425 </i>
   </energy>
  </scstep>
  <scstep>
   <time name="dav">    6.31    6.35</time>
   <time name="total">    6.40    6.45</time>
   <energy>
    <i name="e_fr_energy">    -90.60400447 </i>
    <i name="e_wo_entrp">    -90.60079337 </i>
    <i name="e_0_energy">    -90.60239892 </i>
   </energy>
  </scstep>
  <scstep>
   <time name="dav">    5.57    5.60</time>
   <time name="total">    5.58    5.62</time>
   <energy>
    <i name="alphaZ">     94.75433285 </i>
    <i name="ewald">   -797.20154369 </i>
    <i name="hartreedc">   -349.07137126 </i>
    <i name="XCdc">    101.75582919 </i>
    <i name="pawpsdc">   3775.43602321 </i>
    <i name="pawaedc">  -3764.63921951 </i>
    <i name="eentropy">     -0.00321120 </i>
    <i name="bandstr">   -148.00925530 </i>
    <i name="atom">    996.37441054 </i>
    <i name="e_fr_energy">    -90.60400517 </i>
    <i name="e_wo_entrp">    -90.60079397 </i>
    <i name="e_0_energy">    -90.60239957 </i>
   </energy>
  </scstep>
  <structure>
   <crystal>
    <varray name="basis" >
     <v>       5.68674540       0.00000000       0.00000000 </v>
     <v>       0.00000000       4.04061378       0.00000000 </v>
     <v>       0.00000000       0.00000000       6.19303244 </v>
    </varray>
    <i name="volume">    142.30313914 </i>
    <varray name="rec_basis" >
     <v>       0.17584751       0.00000000       0.00000000 </v>
     <v>       0.00000000       0.24748715       0.00000000 </v>
     <v>       0.00000000       0.00000000       0.16147178 </v>
    </varray>
   </crystal>
   <varray name="positions" >
    <v>       0.52123000       0.50000000       0.63796000 </v>
    <v>       0.47877000       0.50000000       0.36204000 </v>
    <v>       0.97877000       0.50000000       0.63796000 </v>
    <v>       0.02123000       0.50000000       0.36204000 </v>
    <v>       0.60090000       0.50000000       0.89991000 </v>
    <v>       0.39910000       0.50000000       0.10009000 </v>
    <v>       0.89910000       0.50000000       0.89991000 </v>
    <v>       0.10090000       0.50000000       0.10009000 </v>
    <v>       0.75000000       0.79171000       0.72973000 </v>
    <v>       0.25000000       0.20829000       0.27027000 </v>
    <v>       0.75000000       0.20829000       0.72973000 </v>
    <v>       0.25000000       0.79171000       0.27027000 </v>
    <v>       0.25000000       0.50000000       0.52367000 </v>
    <v>       0.75000000       0.50000000       0.47633000 </v>
   </varray>
  </structure>
  <varray name="forces" >
   <v>      -0.03364140      -0.00000000       0.06236645 </v>
   <v>       0.03364140       0.00000000      -0.06236645 </v>
   <v>       0.03364140      -0.00000000       0.06236645 </v>
   <v>      -0.03364140       0.00000000      -0.06236645 </v>
   <v>      -0.85443114      -0.00000000       0.30721471 </v>
   <v>       0.85443114       0.00000000      -0.30721471 </v>
   <v>       0.85443114       0.00000000       0.30721471 </v>
   <v>      -0.85443114       0.00000000      -0.30721471 </v>
   <v>      -0.00000000       0.06413021      -0.08377583 </v>
   <v>      -0.00000000      -0.06413021       0.08377583 </v>
   <v>      -0.00000000      -0.06413021      -0.08377583 </v>
   <v>      -0.00000000       0.06413021       0.08377583 </v>
   <v>      -0.00000000      -0.00000000       0.10366851 </v>
   <v>      -0.00000000       0.00000000      -0.10366851 </v>
  </varray>
  <varray name="stress" >
   <v>      24.83606252       0.00000000       0.00000000 </v>
   <v>       0.00000000       6.33980796       0.00000000 </v>
   <v>       0.00000000       0.00000000       2.38638925 </v>
  </varray>
  <energy>
   <i name="e_fr_energy">    -90.60400517 </i>
   <i name="e_wo_entrp">    -90.60079397 </i>
   <i name="e_0_energy">    -90.60239957 </i>
  </energy>
  <time name="totalsc">   88.47   89.05</time>
  <eigenvalues>
   <array>
    <dimension dim="1">band</dimension>
    <dimension dim="2">kpoint</dimension>
    <dimension dim="3">spin</dimension>
    <field>eigene</field>
    <field>occ</field>
    <set>
     <set comment="spin 1">
      <set comment="kpoint 1">
       <r>  -12.7310    1.0000 </r>
       <r>  -11.5885    1.0000 </r>
       <r>   -8.6501    1.0000 </r>
       <r>   -8.4126    1.0000 </r>
       <r>   -6.0484    1.0000 </r>
       <r>   -5.1141    1.0000 </r>
       <r>   -4.6482    1.0000 </r>
       <r>   -4.2652    1.0000 </r>
       <r>   -4.0185    1.0000 </r>
       <r>   -3.5272    1.0000 </r>
       <r>   -2.5695    1.0000 </r>
       <r>   -2.2998    1.0000 </r>
       <r>   -1.8074    1.0000 </r>
       <r>   -1.0723    1.0000 </r>
       <r>   -0.0482    1.0000 </r>
       <r>   -0.0184    1.0000 </r>
       <r>    0.1849    1.0000 </r>
       <r>    0.2084    1.0000 </r>
       <r>    0.5944    1.0000 </r>
       <r>    2.0485    0.0001 </r>
       <r>    2.1124    0.0000 </r>
       <r>    2.2518    0.0000 </r>
       <r>    5.5002    0.0000 </r>
       <r>    5.7920    0.0000 </r>
       <r>    5.8843    0.0000 </r>
       <r>    6.0020    0.0000 </r>
       <r>    6.8628    0.0000 </r>
       <r>    7.5967    0.0000 </r>
       <r>    7.9290    0.0000 </r>
       <r>    8.5978    0.0000 </r>
       <r>    8.8754    0.0000 </r>
       <r>    9.0147    0.0000 </r>
       <r>    9.1351    0.0000 </r>
       <r>   10.1759    0.0000 </r>
       <r>   11.2327    0.0000 </r>
       <r>   11.4043    0.0000 </r>
       <r>   11.7376    0.0000 </r>
       <r>   11.8488    0.0000 </r>
       <r>   12.0006    0.0000 </r>
       <r>   12.4585    0.0000 </r>
       <r>   12.9430    0.0000 </r>
       <r>   13.5287    0.0000 </r>
       <r>   13.5558    0.0000 </r>
       <r>   15.4759    0.0000 </r>
       <r>   15.6576    0.0000 </r>
       <r>   16.1539    0.0000 </r>
       <r>   16.4152    0.0000 </r>
       <r>   16.4418    0.0000 </r>
      </set>
      <set comment="kpoint 2">
       <r>  -12.6872    1.0000 </r>
       <r>  -11.6622    1.0000 </r>
       <r>   -8.6291    1.0000 </r>
       <r>   -8.4011    1.0000 </r>
       <r>   -5.9799    1.0000 </r>
       <r>   -5.4577    1.0000 </r>
       <r>   -4.7724    1.0000 </r>
       <r>   -3.9964    1.0000 </r>
       <r>   -3.7780    1.0000 </r>
       <r>   -3.1877    1.0000 </r>
       <r>   -2.6402    1.0000 </r>
       <r>   -2.2793    1.0000 </r>
       <r>   -1.8874    1.0000 </r>
       <r>   -1.3798    1.0000 </r>
       <r>   -0.0075    1.0000 </r>
       <r>    0.0087    1.0000 </r>
       <r>    0.1197    1.0000 </r>
       <r>    0.2271    1.0000 </r>
       <r>    0.4994    1.0000 </r>
       <r>    1.9620    0.0946 </r>
       <r>    2.0342    0.0004 </r>
       <r>    2.1300    0.0000 </r>
       <r>    5.5883    0.0000 </r>
       <r>    5.8041    0.0000 </r>
       <r>    5.9079    0.0000 </r>
       <r>    6.3498    0.0000 </r>
       <r>    6.7766    0.0000 </r>
       <r>    7.2333    0.0000 </r>
       <r>    8.1431    0.0000 </r>
       <r>    8.7341    0.0000 </r>
       <r>    9.1383    0.0000 </r>
       <r>    9.2027    0.0000 </r>
       <r>    9.2687    0.0000 </r>
       <r>   10.2958    0.0000 </r>
       <r>   11.0098    0.0000 </r>
       <r>   11.2000    0.0000 </r>
       <r>   11.3066    0.0000 </r>
       <r>   11.7648    0.0000 </r>
       <r>   12.2183    0.0000 </r>
       <r>   12.5501    0.0000 </r>
       <r>   13.1982    0.0000 </r>
       <r>   13.2030    0.0000 </r>
       <r>   14.0911    0.0000 </r>
       <r>   14.9609    0.0000 </r>
       <r>   15.8331    0.0000 </r>
       <r>   15.9076    0.0000 </r>
       <r>   16.3151    0.0000 </r>
       <r>   16.6007    0.0000 </r>
      </set>
      <set comment="kpoint 3">
       <r>  -12.6015    1.0000 </r>
       <r>  -11.7951    1.0000 </r>
       <r>   -8.5857    1.0000 </r>
       <r>   -8.3864    1.0000 </r>
       <r>   -5.9585    1.0000 </r>
       <r>   -5.7855    1.0000 </r>
       <r>   -4.7271    1.0000 </r>
       <r>   -3.8676    1.0000 </r>
       <r>   -3.2662    1.0000 </r>
       <r>   -2.8106    1.0000 </r>
       <r>   -2.6930    1.0000 </r>
       <r>   -2.2382    1.0000 </r>
       <r>   -1.9997    1.0000 </r>
       <r>   -1.8850    1.0000 </r>
       <r>   -0.1882    1.0000 </r>
       <r>    0.0388    1.0000 </r>
       <r>    0.1713    1.0000 </r>
       <r>    0.1801    1.0000 </r>
       <r>    0.4691    1.0000 </r>
       <r>    1.8144    0.9979 </r>
       <r>    1.8987    0.6831 </r>
       <r>    1.9009    0.6605 </r>
       <r>    5.7086    0.0000 </r>
       <r>    5.7609    0.0000 </r>
       <r>    6.2173    0.0000 </r>
       <r>    6.6495    0.0000 </r>
       <r>    6.8104    0.0000 </r>
       <r>    6.9780    0.0000 </r>
       <r>    8.2966    0.0000 </r>
       <r>    8.8818    0.0000 </r>
       <r>    9.0722    0.0000 </r>
       <r>    9.6462    0.0000 </r>
       <r>    9.7115    0.0000 </r>
       <r>   10.3452    0.0000 </r>
       <r>   10.5548    0.0000 </r>
       <r>   10.6961    0.0000 </r>
       <r>   11.4301    0.0000 </r>
       <r>   11.9050    0.0000 </r>
       <r>   12.4537    0.0000 </r>
       <r>   12.6427    0.0000 </r>
       <r>   12.8549    0.0000 </r>
       <r>   12.9971    0.0000 </r>
       <r>   14.7189    0.0000 </r>
       <r>   15.0044    0.0000 </r>
       <r>   15.2991    0.0000 </r>
       <r>   16.0692    0.0000 </r>
       <r>   16.0858    0.0000 </r>
       <r>   16.3835    0.0000 </r>
      </set>
      <set comment="kpoint 4">
       <r>  -12.4778    1.0000 </r>
       <r>  -11.9645    1.0000 </r>
       <r>   -8.5239    1.0000 </r>
       <r>   -8.3833    1.0000 </r>
       <r>   -6.0405    1.0000 </r>
       <r>   -6.0190    1.0000 </r>
       <r>   -4.3987    1.0000 </r>
       <r>   -3.6975    1.0000 </r>
       <r>   -3.0060    1.0000 </r>
       <r>   -2.8799    1.0000 </r>
       <r>   -2.4245    1.0000 </r>
       <r>   -2.2301    1.0000 </r>
       <r>   -2.1183    1.0000 </r>
       <r>   -2.1026    1.0000 </r>
       <r>   -0.4873    1.0000 </r>
       <r>   -0.2152    1.0000 </r>
       <r>    0.1960    1.0000 </r>
       <r>    0.2721    1.0000 </r>
       <r>    0.6428    1.0000 </r>
       <r>    1.5625    1.0000 </r>
       <r>    1.6903    1.0000 </r>
       <r>    1.7519    1.0000 </r>
       <r>    5.7448    0.0000 </r>
       <r>    5.7945    0.0000 </r>
       <r>    6.5469    0.0000 </r>
       <r>    6.7173    0.0000 </r>
       <r>    6.7436    0.0000 </r>
       <r>    7.4640    0.0000 </r>
       <r>    8.4228    0.0000 </r>
       <r>    8.7464    0.0000 </r>
       <r>    8.8754    0.0000 </r>
       <r>    9.5960    0.0000 </r>
       <r>   10.1261    0.0000 </r>
       <r>   10.1813    0.0000 </r>
       <r>   10.4680    0.0000 </r>
       <r>   11.2283    0.0000 </r>
       <r>   11.4650    0.0000 </r>
       <r>   12.0218    0.0000 </r>
       <r>   12.2718    0.0000 </r>
       <r>   12.3510    0.0000 </r>
       <r>   12.5843    0.0000 </r>
       <r>   13.3225    0.0000 </r>
       <r>   14.7827    0.0000 </r>
       <r>   15.0549    0.0000 </r>
       <r>   15.3548    0.0000 </r>
       <r>   15.4544    0.0000 </r>
       <r>   15.6580    0.0000 </r>
       <r>   16.4626    0.0000 </r>
      </set>
      <set comment="kpoint 5">
       <r>  -12.3229    1.0000 </r>
       <r>  -12.1469    1.0000 </r>
       <r>   -8.4575    1.0000 </r>
       <r>   -8.4062    1.0000 </r>
       <r>   -6.1323    1.0000 </r>
       <r>   -6.1271    1.0000 </r>
       <r>   -3.8819    1.0000 </r>
       <r>   -3.4868    1.0000 </r>
       <r>   -3.2812    1.0000 </r>
       <r>   -3.2469    1.0000 </r>
       <r>   -2.3441    1.0000 </r>
       <r>   -2.2127    1.0000 </r>
       <r>   -1.9350    1.0000 </r>
       <r>   -1.8851    1.0000 </r>
       <r>   -0.7077    1.0000 </r>
       <r>   -0.5730    1.0000 </r>
       <r>    0.2798    1.0000 </r>
       <r>    0.3138    1.0000 </r>
       <r>    0.9044    1.0000 </r>
       <r>    1.2227    1.0000 </r>
       <r>    1.6095    1.0000 </r>
       <r>    1.6374    1.0000 </r>
       <r>    5.7716    0.0000 </r>
       <r>    5.8074    0.0000 </r>
       <r>    6.5242    0.0000 </r>
       <r>    6.5877    0.0000 </r>
       <r>    7.4160    0.0000 </r>
       <r>    8.1283    0.0000 </r>
       <r>    8.1476    0.0000 </r>
       <r>    8.5422    0.0000 </r>
       <r>    8.6829    0.0000 </r>
       <r>    8.8474    0.0000 </r>
       <r>   10.5642    0.0000 </r>
       <r>   10.5837    0.0000 </r>
       <r>   10.8323    0.0000 </r>
       <r>   11.2915    0.0000 </r>
       <r>   11.4767    0.0000 </r>
       <r>   11.6788    0.0000 </r>
       <r>   12.0141    0.0000 </r>
       <r>   12.5538    0.0000 </r>
       <r>   12.7805    0.0000 </r>
       <r>   13.3200    0.0000 </r>
       <r>   14.6590    0.0000 </r>
       <r>   14.8168    0.0000 </r>
       <r>   14.9430    0.0000 </r>
       <r>   15.0011    0.0000 </r>
       <r>   16.1934    0.0000 </r>
       <r>   16.5366    0.0000 </r>
      </set>
      <set comment="kpoint 6">
       <r>  -12.7069    1.0000 </r>
       <r>  -11.5669    1.0000 </r>
       <r>   -8.6311    1.0000 </r>
       <r>   -8.3893    1.0000 </r>
       <r>   -6.0214    1.0000 </r>
       <r>   -5.0803    1.0000 </r>
       <r>   -4.6259    1.0000 </r>
       <r>   -4.5626    1.0000 </r>
       <r>   -4.1630    1.0000 </r>
       <r>   -3.5041    1.0000 </r>
       <r>   -3.2644    1.0000 </r>
       <r>   -1.7690    1.0000 </r>
       <r>   -1.0676    1.0000 </r>
       <r>   -1.0070    1.0000 </r>
       <r>   -0.2830    1.0000 </r>
       <r>   -0.2550    1.0000 </r>
       <r>    0.1984    1.0000 </r>
       <r>    0.2787    1.0000 </r>
       <r>    0.6732    1.0000 </r>
       <r>    1.7793    0.9999 </r>
       <r>    1.8602    0.9415 </r>
       <r>    2.3043    0.0000 </r>
       <r>    5.6164    0.0000 </r>
       <r>    5.7521    0.0000 </r>
       <r>    5.7829    0.0000 </r>
       <r>    6.0557    0.0000 </r>
       <r>    7.1509    0.0000 </r>
       <r>    7.8830    0.0000 </r>
       <r>    8.1346    0.0000 </r>
       <r>    8.2411    0.0000 </r>
       <r>    8.8788    0.0000 </r>
       <r>    9.1749    0.0000 </r>
       <r>    9.2242    0.0000 </r>
       <r>   10.6321    0.0000 </r>
       <r>   11.3343    0.0000 </r>
       <r>   11.4509    0.0000 </r>
       <r>   11.6708    0.0000 </r>
       <r>   11.9521    0.0000 </r>
       <r>   12.1109    0.0000 </r>
       <r>   12.7413    0.0000 </r>
       <r>   12.9418    0.0000 </r>
       <r>   13.2621    0.0000 </r>
       <r>   13.2711    0.0000 </r>
       <r>   15.4187    0.0000 </r>
       <r>   15.4725    0.0000 </r>
       <r>   15.9424    0.0000 </r>
       <r>   15.9641    0.0000 </r>
       <r>   16.3097    0.0000 </r>
      </set>
      <set comment="kpoint 7">
       <r>  -12.6632    1.0000 </r>
       <r>  -11.6405    1.0000 </r>
       <r>   -8.6100    1.0000 </r>
       <r>   -8.3781    1.0000 </r>
       <r>   -5.9510    1.0000 </r>
       <r>   -5.4275    1.0000 </r>
       <r>   -4.7522    1.0000 </r>
       <r>   -4.4778    1.0000 </r>
       <r>   -3.7375    1.0000 </r>
       <r>   -3.3460    1.0000 </r>
       <r>   -3.1491    1.0000 </r>
       <r>   -1.7471    1.0000 </r>
       <r>   -1.3743    1.0000 </r>
       <r>   -1.1283    1.0000 </r>
       <r>   -0.2436    1.0000 </r>
       <r>   -0.1712    1.0000 </r>
       <r>    0.1666    1.0000 </r>
       <r>    0.2484    1.0000 </r>
       <r>    0.5706    1.0000 </r>
       <r>    1.6985    1.0000 </r>
       <r>    1.7834    0.9999 </r>
       <r>    2.1729    0.0000 </r>
       <r>    5.6919    0.0000 </r>
       <r>    5.8499    0.0000 </r>
       <r>    5.9834    0.0000 </r>
       <r>    6.1556    0.0000 </r>
       <r>    7.0668    0.0000 </r>
       <r>    7.5570    0.0000 </r>
       <r>    8.2805    0.0000 </r>
       <r>    8.4156    0.0000 </r>
       <r>    9.2101    0.0000 </r>
       <r>    9.2307    0.0000 </r>
       <r>    9.4834    0.0000 </r>
       <r>   10.5622    0.0000 </r>
       <r>   10.9396    0.0000 </r>
       <r>   11.1520    0.0000 </r>
       <r>   11.5061    0.0000 </r>
       <r>   11.9378    0.0000 </r>
       <r>   12.3313    0.0000 </r>
       <r>   12.8015    0.0000 </r>
       <r>   12.9379    0.0000 </r>
       <r>   13.2273    0.0000 </r>
       <r>   13.8060    0.0000 </r>
       <r>   15.0467    0.0000 </r>
       <r>   15.4846    0.0000 </r>
       <r>   15.8294    0.0000 </r>
       <r>   15.8849    0.0000 </r>
       <r>   16.4898    0.0000 </r>
      </set>
      <set comment="kpoint 8">
       <r>  -12.5776    1.0000 </r>
       <r>  -11.7731    1.0000 </r>
       <r>   -8.5664    1.0000 </r>
       <r>   -8.3642    1.0000 </r>
       <r>   -5.9269    1.0000 </r>
       <r>   -5.7550    1.0000 </r>
       <r>   -4.7103    1.0000 </r>
       <r>   -4.3682    1.0000 </r>
       <r>   -3.4690    1.0000 </r>
       <r>   -3.2101    1.0000 </r>
       <r>   -2.6810    1.0000 </r>
       <r>   -1.8805    1.0000 </r>
       <r>   -1.7024    1.0000 </r>
       <r>   -1.2935    1.0000 </r>
       <r>   -0.1951    1.0000 </r>
       <r>   -0.1909    1.0000 </r>
       <r>    0.0766    1.0000 </r>
       <r>    0.2357    1.0000 </r>
       <r>    0.4939    1.0000 </r>
       <r>    1.5629    1.0000 </r>
       <r>    1.6528    1.0000 </r>
       <r>    1.9235    0.4116 </r>
       <r>    5.9027    0.0000 </r>
       <r>    5.9770    0.0000 </r>
       <r>    6.0539    0.0000 </r>
       <r>    6.6068    0.0000 </r>
       <r>    6.9451    0.0000 </r>
       <r>    7.3280    0.0000 </r>
       <r>    8.4861    0.0000 </r>
       <r>    8.5507    0.0000 </r>
       <r>    9.1750    0.0000 </r>
       <r>    9.6832    0.0000 </r>
       <r>    9.9384    0.0000 </r>
       <r>   10.1876    0.0000 </r>
       <r>   10.4200    0.0000 </r>
       <r>   10.8953    0.0000 </r>
       <r>   11.5751    0.0000 </r>
       <r>   12.1714    0.0000 </r>
       <r>   12.3817    0.0000 </r>
       <r>   12.6165    0.0000 </r>
       <r>   13.0367    0.0000 </r>
       <r>   13.0870    0.0000 </r>
       <r>   14.3844    0.0000 </r>
       <r>   15.1753    0.0000 </r>
       <r>   15.2431    0.0000 </r>
       <r>   15.7311    0.0000 </r>
       <r>   15.7900    0.0000 </r>
       <r>   16.5095    0.0000 </r>
      </set>
      <set comment="kpoint 9">
       <r>  -12.4542    1.0000 </r>
       <r>  -11.9421    1.0000 </r>
       <r>   -8.5043    1.0000 </r>
       <r>   -8.3620    1.0000 </r>
       <r>   -6.0077    1.0000 </r>
       <r>   -5.9875    1.0000 </r>
       <r>   -4.3841    1.0000 </r>
       <r>   -4.2199    1.0000 </r>
       <r>   -3.6421    1.0000 </r>
       <r>   -2.8285    1.0000 </r>
       <r>   -2.3422    1.0000 </r>
       <r>   -2.1964    1.0000 </r>
       <r>   -1.6375    1.0000 </r>
       <r>   -1.4582    1.0000 </r>
       <r>   -0.4480    1.0000 </r>
       <r>   -0.2808    1.0000 </r>
       <r>    0.1096    1.0000 </r>
       <r>    0.1382    1.0000 </r>
       <r>    0.6537    1.0000 </r>
       <r>    1.4231    1.0000 </r>
       <r>    1.5067    1.0000 </r>
       <r>    1.5979    1.0000 </r>
       <r>    5.9215    0.0000 </r>
       <r>    6.0512    0.0000 </r>
       <r>    6.5600    0.0000 </r>
       <r>    6.8541    0.0000 </r>
       <r>    6.9262    0.0000 </r>
       <r>    7.4206    0.0000 </r>
       <r>    8.4720    0.0000 </r>
       <r>    8.6599    0.0000 </r>
       <r>    9.0064    0.0000 </r>
       <r>    9.4298    0.0000 </r>
       <r>   10.1389    0.0000 </r>
       <r>   10.1684    0.0000 </r>
       <r>   10.5056    0.0000 </r>
       <r>   11.3065    0.0000 </r>
       <r>   11.4286    0.0000 </r>
       <r>   11.9118    0.0000 </r>
       <r>   12.3748    0.0000 </r>
       <r>   12.6092    0.0000 </r>
       <r>   12.7857    0.0000 </r>
       <r>   13.5269    0.0000 </r>
       <r>   14.8449    0.0000 </r>
       <r>   14.8504    0.0000 </r>
       <r>   15.2393    0.0000 </r>
       <r>   15.3873    0.0000 </r>
       <r>   15.7398    0.0000 </r>
       <r>   16.4746    0.0000 </r>
      </set>
      <set comment="kpoint 10">
       <r>  -12.2997    1.0000 </r>
       <r>  -12.1241    1.0000 </r>
       <r>   -8.4377    1.0000 </r>
       <r>   -8.3858    1.0000 </r>
       <r>   -6.1000    1.0000 </r>
       <r>   -6.0943    1.0000 </r>
       <r>   -4.0394    1.0000 </r>
       <r>   -3.8749    1.0000 </r>
       <r>   -3.8332    1.0000 </r>
       <r>   -3.2682    1.0000 </r>
       <r>   -2.0894    1.0000 </r>
       <r>   -1.8933    1.0000 </r>
       <r>   -1.5695    1.0000 </r>
       <r>   -1.5694    1.0000 </r>
       <r>   -0.6690    1.0000 </r>
       <r>   -0.5696    1.0000 </r>
       <r>    0.1412    1.0000 </r>
       <r>    0.1726    1.0000 </r>
       <r>    0.9138    1.0000 </r>
       <r>    1.2290    1.0000 </r>
       <r>    1.3691    1.0000 </r>
       <r>    1.3935    1.0000 </r>
       <r>    5.9715    0.0000 </r>
       <r>    6.0357    0.0000 </r>
       <r>    6.8418    0.0000 </r>
       <r>    6.8919    0.0000 </r>
       <r>    7.2307    0.0000 </r>
       <r>    7.9472    0.0000 </r>
       <r>    7.9951    0.0000 </r>
       <r>    8.6815    0.0000 </r>
       <r>    8.7540    0.0000 </r>
       <r>    8.8683    0.0000 </r>
       <r>   10.3875    0.0000 </r>
       <r>   10.6346    0.0000 </r>
       <r>   10.8696    0.0000 </r>
       <r>   10.9805    0.0000 </r>
       <r>   11.6237    0.0000 </r>
       <r>   11.7387    0.0000 </r>
       <r>   12.0950    0.0000 </r>
       <r>   12.7255    0.0000 </r>
       <r>   13.0915    0.0000 </r>
       <r>   13.5535    0.0000 </r>
       <r>   14.6262    0.0000 </r>
       <r>   14.8100    0.0000 </r>
       <r>   14.9048    0.0000 </r>
       <r>   15.1217    0.0000 </r>
       <r>   16.2162    0.0000 </r>
       <r>   16.5101    0.0000 </r>
      </set>
      <set comment="kpoint 11">
       <r>  -12.6623    1.0000 </r>
       <r>  -11.5271    1.0000 </r>
       <r>   -8.5964    1.0000 </r>
       <r>   -8.3462    1.0000 </r>
       <r>   -5.9715    1.0000 </r>
       <r>   -5.1201    1.0000 </r>
       <r>   -4.9885    1.0000 </r>
       <r>   -4.5838    1.0000 </r>
       <r>   -4.1473    1.0000 </r>
       <r>   -3.8879    1.0000 </r>
       <r>   -3.4505    1.0000 </r>
       <r>   -1.1813    1.0000 </r>
       <r>   -1.0582    1.0000 </r>
       <r>   -0.6295    1.0000 </r>
       <r>   -0.5207    1.0000 </r>
       <r>   -0.1464    1.0000 </r>
       <r>    0.2197    1.0000 </r>
       <r>    0.3323    1.0000 </r>
       <r>    0.7522    1.0000 </r>
       <r>    1.3943    1.0000 </r>
       <r>    1.4589    1.0000 </r>
       <r>    2.3429    0.0000 </r>
       <r>    5.3240    0.0000 </r>
       <r>    5.4917    0.0000 </r>
       <r>    6.1704    0.0000 </r>
       <r>    6.2462    0.0000 </r>
       <r>    7.5904    0.0000 </r>
       <r>    7.6790    0.0000 </r>
       <r>    8.3683    0.0000 </r>
       <r>    8.7897    0.0000 </r>
       <r>    8.9453    0.0000 </r>
       <r>    9.3205    0.0000 </r>
       <r>    9.4403    0.0000 </r>
       <r>   10.9442    0.0000 </r>
       <r>   11.3832    0.0000 </r>
       <r>   11.6404    0.0000 </r>
       <r>   11.7564    0.0000 </r>
       <r>   12.1541    0.0000 </r>
       <r>   12.3275    0.0000 </r>
       <r>   12.8136    0.0000 </r>
       <r>   12.8282    0.0000 </r>
       <r>   13.0850    0.0000 </r>
       <r>   13.2861    0.0000 </r>
       <r>   14.7684    0.0000 </r>
       <r>   15.2456    0.0000 </r>
       <r>   15.4347    0.0000 </r>
       <r>   15.5044    0.0000 </r>
       <r>   16.0527    0.0000 </r>
      </set>
      <set comment="kpoint 12">
       <r>  -12.6188    1.0000 </r>
       <r>  -11.6004    1.0000 </r>
       <r>   -8.5750    1.0000 </r>
       <r>   -8.3358    1.0000 </r>
       <r>   -5.8977    1.0000 </r>
       <r>   -5.3799    1.0000 </r>
       <r>   -5.0191    1.0000 </r>
       <r>   -4.7141    1.0000 </r>
       <r>   -3.9547    1.0000 </r>
       <r>   -3.6948    1.0000 </r>
       <r>   -3.1096    1.0000 </r>
       <r>   -1.3662    1.0000 </r>
       <r>   -1.1544    1.0000 </r>
       <r>   -0.7356    1.0000 </r>
       <r>   -0.4825    1.0000 </r>
       <r>   -0.0661    1.0000 </r>
       <r>    0.2023    1.0000 </r>
       <r>    0.2737    1.0000 </r>
       <r>    0.6399    1.0000 </r>
       <r>    1.3149    1.0000 </r>
       <r>    1.3890    1.0000 </r>
       <r>    2.2064    0.0000 </r>
       <r>    5.4040    0.0000 </r>
       <r>    5.8401    0.0000 </r>
       <r>    6.1921    0.0000 </r>
       <r>    6.2839    0.0000 </r>
       <r>    7.5092    0.0000 </r>
       <r>    7.8356    0.0000 </r>
       <r>    8.1005    0.0000 </r>
       <r>    8.8794    0.0000 </r>
       <r>    9.3302    0.0000 </r>
       <r>    9.3510    0.0000 </r>
       <r>    9.7259    0.0000 </r>
       <r>   10.5794    0.0000 </r>
       <r>   10.8442    0.0000 </r>
       <r>   11.3428    0.0000 </r>
       <r>   11.7746    0.0000 </r>
       <r>   12.2647    0.0000 </r>
       <r>   12.4977    0.0000 </r>
       <r>   12.5638    0.0000 </r>
       <r>   13.2364    0.0000 </r>
       <r>   13.3368    0.0000 </r>
       <r>   13.5132    0.0000 </r>
       <r>   14.7759    0.0000 </r>
       <r>   14.9052    0.0000 </r>
       <r>   15.3827    0.0000 </r>
       <r>   15.5679    0.0000 </r>
       <r>   16.0713    0.0000 </r>
      </set>
      <set comment="kpoint 13">
       <r>  -12.5336    1.0000 </r>
       <r>  -11.7324    1.0000 </r>
       <r>   -8.5310    1.0000 </r>
       <r>   -8.3232    1.0000 </r>
       <r>   -5.8681    1.0000 </r>
       <r>   -5.7000    1.0000 </r>
       <r>   -4.9272    1.0000 </r>
       <r>   -4.6789    1.0000 </r>
       <r>   -4.0796    1.0000 </r>
       <r>   -3.1589    1.0000 </r>
       <r>   -2.6367    1.0000 </r>
       <r>   -1.8640    1.0000 </r>
       <r>   -1.1134    1.0000 </r>
       <r>   -0.8738    1.0000 </r>
       <r>   -0.4291    1.0000 </r>
       <r>   -0.0532    1.0000 </r>
       <r>    0.0394    1.0000 </r>
       <r>    0.2864    1.0000 </r>
       <r>    0.5243    1.0000 </r>
       <r>    1.1828    1.0000 </r>
       <r>    1.2703    1.0000 </r>
       <r>    1.9486    0.1749 </r>
       <r>    5.7264    0.0000 </r>
       <r>    6.1471    0.0000 </r>
       <r>    6.3191    0.0000 </r>
       <r>    6.4130    0.0000 </r>
       <r>    7.4058    0.0000 </r>
       <r>    7.9098    0.0000 </r>
       <r>    8.0692    0.0000 </r>
       <r>    9.0076    0.0000 </r>
       <r>    9.3190    0.0000 </r>
       <r>    9.7866    0.0000 </r>
       <r>    9.9120    0.0000 </r>
       <r>   10.2076    0.0000 </r>
       <r>   10.3179    0.0000 </r>
       <r>   11.1338    0.0000 </r>
       <r>   11.6481    0.0000 </r>
       <r>   12.1715    0.0000 </r>
       <r>   12.5778    0.0000 </r>
       <r>   12.8636    0.0000 </r>
       <r>   13.1214    0.0000 </r>
       <r>   13.5145    0.0000 </r>
       <r>   14.0363    0.0000 </r>
       <r>   14.6814    0.0000 </r>
       <r>   14.9556    0.0000 </r>
       <r>   15.3980    0.0000 </r>
       <r>   15.5897    0.0000 </r>
       <r>   16.2816    0.0000 </r>
      </set>
      <set comment="kpoint 14">
       <r>  -12.4107    1.0000 </r>
       <r>  -11.9007    1.0000 </r>
       <r>   -8.4685    1.0000 </r>
       <r>   -8.3228    1.0000 </r>
       <r>   -5.9466    1.0000 </r>
       <r>   -5.9294    1.0000 </r>
       <r>   -4.7904    1.0000 </r>
       <r>   -4.3571    1.0000 </r>
       <r>   -4.2458    1.0000 </r>
       <r>   -2.7890    1.0000 </r>
       <r>   -2.3005    1.0000 </r>
       <r>   -2.1551    1.0000 </r>
       <r>   -1.0563    1.0000 </r>
       <r>   -1.0102    1.0000 </r>
       <r>   -0.4322    1.0000 </r>
       <r>   -0.3408    1.0000 </r>
       <r>    0.0837    1.0000 </r>
       <r>    0.0896    1.0000 </r>
       <r>    0.6714    1.0000 </r>
       <r>    1.0528    1.0000 </r>
       <r>    1.1370    1.0000 </r>
       <r>    1.6124    1.0000 </r>
       <r>    6.1573    0.0000 </r>
       <r>    6.2645    0.0000 </r>
       <r>    6.4454    0.0000 </r>
       <r>    6.8494    0.0000 </r>
       <r>    7.3482    0.0000 </r>
       <r>    7.8301    0.0000 </r>
       <r>    8.1217    0.0000 </r>
       <r>    9.1074    0.0000 </r>
       <r>    9.1623    0.0000 </r>
       <r>    9.2395    0.0000 </r>
       <r>    9.9560    0.0000 </r>
       <r>   10.2555    0.0000 </r>
       <r>   10.7641    0.0000 </r>
       <r>   11.1440    0.0000 </r>
       <r>   11.4061    0.0000 </r>
       <r>   12.0180    0.0000 </r>
       <r>   12.4379    0.0000 </r>
       <r>   13.0518    0.0000 </r>
       <r>   13.1027    0.0000 </r>
       <r>   13.8618    0.0000 </r>
       <r>   14.4651    0.0000 </r>
       <r>   14.4773    0.0000 </r>
       <r>   15.1130    0.0000 </r>
       <r>   15.2049    0.0000 </r>
       <r>   15.7016    0.0000 </r>
       <r>   16.4570    0.0000 </r>
      </set>
      <set comment="kpoint 15">
       <r>  -12.2569    1.0000 </r>
       <r>  -12.0820    1.0000 </r>
       <r>   -8.4012    1.0000 </r>
       <r>   -8.3482    1.0000 </r>
       <r>   -6.0399    1.0000 </r>
       <r>   -6.0331    1.0000 </r>
       <r>   -4.6212    1.0000 </r>
       <r>   -4.4339    1.0000 </r>
       <r>   -3.8430    1.0000 </r>
       <r>   -3.2454    1.0000 </r>
       <r>   -2.0190    1.0000 </r>
       <r>   -1.8521    1.0000 </r>
       <r>   -1.0800    1.0000 </r>
       <r>   -1.0161    1.0000 </r>
       <r>   -0.6017    1.0000 </r>
       <r>   -0.5928    1.0000 </r>
       <r>    0.0334    1.0000 </r>
       <r>    0.0770    1.0000 </r>
       <r>    0.9296    1.0000 </r>
       <r>    0.9906    1.0000 </r>
       <r>    1.0319    1.0000 </r>
       <r>    1.2577    1.0000 </r>
       <r>    6.2487    0.0000 </r>
       <r>    6.3657    0.0000 </r>
       <r>    6.9205    0.0000 </r>
       <r>    7.2650    0.0000 </r>
       <r>    7.3249    0.0000 </r>
       <r>    7.6680    0.0000 </r>
       <r>    7.9781    0.0000 </r>
       <r>    8.4931    0.0000 </r>
       <r>    9.1641    0.0000 </r>
       <r>    9.1970    0.0000 </r>
       <r>   10.0787    0.0000 </r>
       <r>   10.5499    0.0000 </r>
       <r>   10.7758    0.0000 </r>
       <r>   11.0407    0.0000 </r>
       <r>   11.8045    0.0000 </r>
       <r>   11.8291    0.0000 </r>
       <r>   12.2184    0.0000 </r>
       <r>   12.9874    0.0000 </r>
       <r>   13.4846    0.0000 </r>
       <r>   13.8349    0.0000 </r>
       <r>   14.3082    0.0000 </r>
       <r>   14.4632    0.0000 </r>
       <r>   15.0697    0.0000 </r>
       <r>   15.2109    0.0000 </r>
       <r>   16.0764    0.0000 </r>
       <r>   16.3819    0.0000 </r>
      </set>
      <set comment="kpoint 16">
       <r>  -12.6045    1.0000 </r>
       <r>  -11.4757    1.0000 </r>
       <r>   -8.5520    1.0000 </r>
       <r>   -8.2906    1.0000 </r>
       <r>   -5.9066    1.0000 </r>
       <r>   -5.6022    1.0000 </r>
       <r>   -4.9175    1.0000 </r>
       <r>   -4.5270    1.0000 </r>
       <r>   -4.4093    1.0000 </r>
       <r>   -4.1078    1.0000 </r>
       <r>   -3.3880    1.0000 </r>
       <r>   -1.2037    1.0000 </r>
       <r>   -1.0440    1.0000 </r>
       <r>   -0.9867    1.0000 </r>
       <r>   -0.1674    1.0000 </r>
       <r>    0.2482    1.0000 </r>
       <r>    0.3763    1.0000 </r>
       <r>    0.6257    1.0000 </r>
       <r>    0.8164    1.0000 </r>
       <r>    1.0076    1.0000 </r>
       <r>    1.0220    1.0000 </r>
       <r>    2.3775    0.0000 </r>
       <r>    4.9774    0.0000 </r>
       <r>    5.1960    0.0000 </r>
       <r>    6.4079    0.0000 </r>
       <r>    6.6369    0.0000 </r>
       <r>    7.3182    0.0000 </r>
       <r>    8.0269    0.0000 </r>
       <r>    8.7688    0.0000 </r>
       <r>    9.1135    0.0000 </r>
       <r>    9.5412    0.0000 </r>
       <r>    9.6382    0.0000 </r>
       <r>    9.7216    0.0000 </r>
       <r>   10.8058    0.0000 </r>
       <r>   11.3369    0.0000 </r>
       <r>   12.0300    0.0000 </r>
       <r>   12.0757    0.0000 </r>
       <r>   12.3660    0.0000 </r>
       <r>   12.4884    0.0000 </r>
       <r>   12.5102    0.0000 </r>
       <r>   12.6324    0.0000 </r>
       <r>   13.0711    0.0000 </r>
       <r>   13.8831    0.0000 </r>
       <r>   13.9499    0.0000 </r>
       <r>   14.5022    0.0000 </r>
       <r>   15.1774    0.0000 </r>
       <r>   15.4754    0.0000 </r>
       <r>   15.9585    0.0000 </r>
      </set>
      <set comment="kpoint 17">
       <r>  -12.5613    1.0000 </r>
       <r>  -11.5486    1.0000 </r>
       <r>   -8.5303    1.0000 </r>
       <r>   -8.2811    1.0000 </r>
       <r>   -5.8281    1.0000 </r>
       <r>   -5.5675    1.0000 </r>
       <r>   -5.2566    1.0000 </r>
       <r>   -4.6637    1.0000 </r>
       <r>   -4.4755    1.0000 </r>
       <r>   -3.6403    1.0000 </r>
       <r>   -3.0475    1.0000 </r>
       <r>   -1.3606    1.0000 </r>
       <r>   -1.1451    1.0000 </r>
       <r>   -1.0012    1.0000 </r>
       <r>   -0.1691    1.0000 </r>
       <r>    0.2356    1.0000 </r>
       <r>    0.3056    1.0000 </r>
       <r>    0.6045    1.0000 </r>
       <r>    0.6950    1.0000 </r>
       <r>    0.9426    1.0000 </r>
       <r>    0.9808    1.0000 </r>
       <r>    2.2390    0.0000 </r>
       <r>    5.0734    0.0000 </r>
       <r>    5.5298    0.0000 </r>
       <r>    6.3542    0.0000 </r>
       <r>    6.7672    0.0000 </r>
       <r>    7.4543    0.0000 </r>
       <r>    7.9836    0.0000 </r>
       <r>    8.6937    0.0000 </r>
       <r>    9.2369    0.0000 </r>
       <r>    9.5000    0.0000 </r>
       <r>    9.8500    0.0000 </r>
       <r>    9.9698    0.0000 </r>
       <r>   10.3968    0.0000 </r>
       <r>   10.7709    0.0000 </r>
       <r>   11.7729    0.0000 </r>
       <r>   11.9462    0.0000 </r>
       <r>   12.3090    0.0000 </r>
       <r>   12.5493    0.0000 </r>
       <r>   12.7052    0.0000 </r>
       <r>   13.0335    0.0000 </r>
       <r>   13.4671    0.0000 </r>
       <r>   13.8745    0.0000 </r>
       <r>   14.0010    0.0000 </r>
       <r>   14.3340    0.0000 </r>
       <r>   15.1684    0.0000 </r>
       <r>   15.5044    0.0000 </r>
       <r>   15.8182    0.0000 </r>
      </set>
      <set comment="kpoint 18">
       <r>  -12.4766    1.0000 </r>
       <r>  -11.6799    1.0000 </r>
       <r>   -8.4857    1.0000 </r>
       <r>   -8.2704    1.0000 </r>
       <r>   -5.7910    1.0000 </r>
       <r>   -5.6490    1.0000 </r>
       <r>   -5.4080    1.0000 </r>
       <r>   -4.6387    1.0000 </r>
       <r>   -4.5991    1.0000 </r>
       <r>   -3.0989    1.0000 </r>
       <r>   -2.5760    1.0000 </r>
       <r>   -1.8449    1.0000 </r>
       <r>   -1.0841    1.0000 </r>
       <r>   -1.0192    1.0000 </r>
       <r>   -0.1880    1.0000 </r>
       <r>   -0.0197    1.0000 </r>
       <r>    0.3446    1.0000 </r>
       <r>    0.5346    1.0000 </r>
       <r>    0.5519    1.0000 </r>
       <r>    0.8552    1.0000 </r>
       <r>    0.9142    1.0000 </r>
       <r>    1.9775    0.0400 </r>
       <r>    5.4003    0.0000 </r>
       <r>    6.0073    0.0000 </r>
       <r>    6.3272    0.0000 </r>
       <r>    6.8791    0.0000 </r>
       <r>    7.6230    0.0000 </r>
       <r>    8.0012    0.0000 </r>
       <r>    8.6147    0.0000 </r>
       <r>    9.4291    0.0000 </r>
       <r>    9.4591    0.0000 </r>
       <r>    9.6497    0.0000 </r>
       <r>   10.1065    0.0000 </r>
       <r>   10.1836    0.0000 </r>
       <r>   10.6283    0.0000 </r>
       <r>   11.4559    0.0000 </r>
       <r>   11.4613    0.0000 </r>
       <r>   12.3012    0.0000 </r>
       <r>   12.8169    0.0000 </r>
       <r>   13.0212    0.0000 </r>
       <r>   13.2519    0.0000 </r>
       <r>   13.5999    0.0000 </r>
       <r>   13.8502    0.0000 </r>
       <r>   14.0932    0.0000 </r>
       <r>   14.4699    0.0000 </r>
       <r>   15.2598    0.0000 </r>
       <r>   15.4343    0.0000 </r>
       <r>   16.0759    0.0000 </r>
      </set>
      <set comment="kpoint 19">
       <r>  -12.3544    1.0000 </r>
       <r>  -11.8473    1.0000 </r>
       <r>   -8.4226    1.0000 </r>
       <r>   -8.2723    1.0000 </r>
       <r>   -5.8663    1.0000 </r>
       <r>   -5.8565    1.0000 </r>
       <r>   -5.2952    1.0000 </r>
       <r>   -4.7651    1.0000 </r>
       <r>   -4.3210    1.0000 </r>
       <r>   -2.7437    1.0000 </r>
       <r>   -2.2576    1.0000 </r>
       <r>   -2.0993    1.0000 </r>
       <r>   -1.0259    1.0000 </r>
       <r>   -0.9983    1.0000 </r>
       <r>   -0.3451    1.0000 </r>
       <r>   -0.3028    1.0000 </r>
       <r>    0.1799    1.0000 </r>
       <r>    0.4017    1.0000 </r>
       <r>    0.6916    1.0000 </r>
       <r>    0.8005    1.0000 </r>
       <r>    0.8485    1.0000 </r>
       <r>    1.6373    1.0000 </r>
       <r>    5.9301    0.0000 </r>
       <r>    6.3583    0.0000 </r>
       <r>    6.5906    0.0000 </r>
       <r>    6.8320    0.0000 </r>
       <r>    7.6210    0.0000 </r>
       <r>    8.0555    0.0000 </r>
       <r>    8.5665    0.0000 </r>
       <r>    8.9698    0.0000 </r>
       <r>    9.3300    0.0000 </r>
       <r>    9.6470    0.0000 </r>
       <r>    9.9762    0.0000 </r>
       <r>   10.4114    0.0000 </r>
       <r>   10.8577    0.0000 </r>
       <r>   11.1563    0.0000 </r>
       <r>   11.5222    0.0000 </r>
       <r>   12.2351    0.0000 </r>
       <r>   12.5038    0.0000 </r>
       <r>   13.2304    0.0000 </r>
       <r>   13.3477    0.0000 </r>
       <r>   13.7465    0.0000 </r>
       <r>   13.9830    0.0000 </r>
       <r>   14.2295    0.0000 </r>
       <r>   14.8362    0.0000 </r>
       <r>   15.0720    0.0000 </r>
       <r>   15.5198    0.0000 </r>
       <r>   16.4179    0.0000 </r>
      </set>
      <set comment="kpoint 20">
       <r>  -12.2014    1.0000 </r>
       <r>  -12.0276    1.0000 </r>
       <r>   -8.3544    1.0000 </r>
       <r>   -8.2998    1.0000 </r>
       <r>   -5.9620    1.0000 </r>
       <r>   -5.9531    1.0000 </r>
       <r>   -5.1328    1.0000 </r>
       <r>   -4.9497    1.0000 </r>
       <r>   -3.8106    1.0000 </r>
       <r>   -3.2150    1.0000 </r>
       <r>   -1.9615    1.0000 </r>
       <r>   -1.8062    1.0000 </r>
       <r>   -0.9598    1.0000 </r>
       <r>   -0.9010    1.0000 </r>
       <r>   -0.6444    1.0000 </r>
       <r>   -0.6012    1.0000 </r>
       <r>    0.1531    1.0000 </r>
       <r>    0.2529    1.0000 </r>
       <r>    0.7851    1.0000 </r>
       <r>    0.8004    1.0000 </r>
       <r>    0.9556    1.0000 </r>
       <r>    1.2796    1.0000 </r>
       <r>    6.4914    0.0000 </r>
       <r>    6.5951    0.0000 </r>
       <r>    6.6703    0.0000 </r>
       <r>    7.1832    0.0000 </r>
       <r>    7.2512    0.0000 </r>
       <r>    7.7425    0.0000 </r>
       <r>    8.5542    0.0000 </r>
       <r>    8.6189    0.0000 </r>
       <r>    9.5244    0.0000 </r>
       <r>    9.7022    0.0000 </r>
       <r>    9.9143    0.0000 </r>
       <r>   10.2061    0.0000 </r>
       <r>   10.9244    0.0000 </r>
       <r>   11.2945    0.0000 </r>
       <r>   11.9478    0.0000 </r>
       <r>   12.0174    0.0000 </r>
       <r>   12.3419    0.0000 </r>
       <r>   13.2297    0.0000 </r>
       <r>   13.5150    0.0000 </r>
       <r>   13.7060    0.0000 </r>
       <r>   13.9118    0.0000 </r>
       <r>   14.0261    0.0000 </r>
       <r>   15.1770    0.0000 </r>
       <r>   15.1953    0.0000 </r>
       <r>   15.7507    0.0000 </r>
       <r>   16.0540    0.0000 </r>
      </set>
      <set comment="kpoint 21">
       <r>  -12.5441    1.0000 </r>
[...]
       <r>   -2.2870    1.0000 </r>
       <r>   -2.1387    1.0000 </r>
       <r>   -1.9727    1.0000 </r>
       <r>   -1.4638    1.0000 </r>
       <r>   -0.7166    1.0000 </r>
       <r>   -0.1753    1.0000 </r>
       <r>    0.1859    1.0000 </r>
       <r>    0.4059    1.0000 </r>
       <r>    0.5447    1.0000 </r>
       <r>    1.6190    1.0000 </r>
       <r>    1.6477    1.0000 </r>
       <r>    1.9036    0.6322 </r>
       <r>    5.5491    0.0000 </r>
       <r>    6.1888    0.0000 </r>
       <r>    6.7103    0.0000 </r>
       <r>    7.2767    0.0000 </r>
       <r>    7.8447    0.0000 </r>
       <r>    8.2725    0.0000 </r>
       <r>    9.0452    0.0000 </r>
       <r>    9.2120    0.0000 </r>
       <r>    9.7777    0.0000 </r>
       <r>   10.0158    0.0000 </r>
       <r>   10.6512    0.0000 </r>
       <r>   11.0828    0.0000 </r>
       <r>   11.2845    0.0000 </r>
       <r>   11.5620    0.0000 </r>
       <r>   11.6357    0.0000 </r>
       <r>   12.0127    0.0000 </r>
       <r>   12.9081    0.0000 </r>
       <r>   13.2379    0.0000 </r>
       <r>   13.4407    0.0000 </r>
       <r>   13.8261    0.0000 </r>
       <r>   13.9627    0.0000 </r>
       <r>   14.2321    0.0000 </r>
       <r>   14.5620    0.0000 </r>
       <r>   15.0372    0.0000 </r>
       <r>   15.1756    0.0000 </r>
       <r>   15.4771    0.0000 </r>
      </set>
      <set comment="kpoint 175">
       <r>  -12.0255    1.0000 </r>
       <r>  -11.8864    1.0000 </r>
       <r>   -8.5381    1.0000 </r>
       <r>   -8.4258    1.0000 </r>
       <r>   -5.9153    1.0000 </r>
       <r>   -5.8079    1.0000 </r>
       <r>   -4.8743    1.0000 </r>
       <r>   -4.5486    1.0000 </r>
       <r>   -4.3979    1.0000 </r>
       <r>   -3.9573    1.0000 </r>
       <r>   -2.1908    1.0000 </r>
       <r>   -2.1286    1.0000 </r>
       <r>   -2.0292    1.0000 </r>
       <r>   -1.7450    1.0000 </r>
       <r>   -0.1951    1.0000 </r>
       <r>    0.0213    1.0000 </r>
       <r>    0.4090    1.0000 </r>
       <r>    0.4971    1.0000 </r>
       <r>    0.5768    1.0000 </r>
       <r>    0.9016    1.0000 </r>
       <r>    1.6619    1.0000 </r>
       <r>    1.7616    1.0000 </r>
       <r>    5.8995    0.0000 </r>
       <r>    6.0867    0.0000 </r>
       <r>    6.9115    0.0000 </r>
       <r>    7.4676    0.0000 </r>
       <r>    7.5191    0.0000 </r>
       <r>    7.6391    0.0000 </r>
       <r>    9.4502    0.0000 </r>
       <r>    9.6382    0.0000 </r>
       <r>    9.8485    0.0000 </r>
       <r>   10.0264    0.0000 </r>
       <r>   10.5308    0.0000 </r>
       <r>   10.8853    0.0000 </r>
       <r>   11.2865    0.0000 </r>
       <r>   11.5730    0.0000 </r>
       <r>   11.6014    0.0000 </r>
       <r>   11.6803    0.0000 </r>
       <r>   13.1558    0.0000 </r>
       <r>   13.2641    0.0000 </r>
       <r>   13.8166    0.0000 </r>
       <r>   14.1349    0.0000 </r>
       <r>   14.2720    0.0000 </r>
       <r>   14.3807    0.0000 </r>
       <r>   14.6725    0.0000 </r>
       <r>   14.8112    0.0000 </r>
       <r>   14.9547    0.0000 </r>
       <r>   15.1375    0.0000 </r>
      </set>
     </set>
    </set>
   </array>
  </eigenvalues>
  <separator name="orbital magnetization" >
   <v name="MAGDIPOLOUT">      0.00000000      0.00000000      0.00000000</v>
  </separator>
  <dos>
   <i name="efermi">      1.91558011 </i>
   <total>
    <array>
     <dimension dim="1">gridpoints</dimension>
     <dimension dim="2">spin</dimension>
     <field>energy</field>
     <field>total</field>
     <field>integrated</field>
     <set>
      <set comment="spin 1">
       <r>   -14.1976     0.0000     0.0000 </r>
       <r>   -14.0900     0.0000     0.0000 </r>
       <r>   -13.9825     0.0000     0.0000 </r>
       <r>   -13.8749     0.0000     0.0000 </r>
       <r>   -13.7674     0.0000     0.0000 </r>
       <r>   -13.6598     0.0000     0.0000 </r>
       <r>   -13.5523     0.0000     0.0000 </r>
       <r>   -13.4447     0.0000     0.0000 </r>
       <r>   -13.3372     0.0000     0.0000 </r>
       <r>   -13.2297     0.0000     0.0000 </r>
       <r>   -13.1221     0.0000     0.0000 </r>
       <r>   -13.0146     0.0000     0.0000 </r>
       <r>   -12.9070     0.0000     0.0000 </r>
       <r>   -12.7995     0.0037     0.0004 </r>
       <r>   -12.6919     0.5064     0.0549 </r>
       <r>   -12.5844     2.3842     0.3113 </r>
       <r>   -12.4768     3.5513     0.6932 </r>
       <r>   -12.3693     4.3615     1.1623 </r>
       <r>   -12.2617     3.5388     1.5429 </r>
       <r>   -12.1542     2.7325     1.8368 </r>
       <r>   -12.0466     2.7451     2.1320 </r>
       <r>   -11.9391     2.5132     2.4023 </r>
       <r>   -11.8315     2.7705     2.7003 </r>
       <r>   -11.7240     3.4473     3.0710 </r>
       <r>   -11.6164     3.5330     3.4510 </r>
       <r>   -11.5089     3.0820     3.7825 </r>
       <r>   -11.4013     1.6261     3.9574 </r>
       <r>   -11.2938     0.3909     3.9994 </r>
       <r>   -11.1862     0.0056     4.0000 </r>
       <r>   -11.0787     0.0000     4.0000 </r>
       <r>   -10.9711     0.0000     4.0000 </r>
       <r>   -10.8636     0.0000     4.0000 </r>
       <r>   -10.7560     0.0000     4.0000 </r>
       <r>   -10.6485     0.0000     4.0000 </r>
       <r>   -10.5409     0.0000     4.0000 </r>
       <r>   -10.4334     0.0000     4.0000 </r>
       <r>   -10.3258     0.0000     4.0000 </r>
       <r>   -10.2183     0.0000     4.0000 </r>
       <r>   -10.1107     0.0000     4.0000 </r>
       <r>   -10.0032     0.0000     4.0000 </r>
       <r>    -9.8956     0.0000     4.0000 </r>
       <r>    -9.7881     0.0000     4.0000 </r>
       <r>    -9.6805     0.0000     4.0000 </r>
       <r>    -9.5730     0.0000     4.0000 </r>
       <r>    -9.4654     0.0000     4.0000 </r>
       <r>    -9.3579     0.0000     4.0000 </r>
       <r>    -9.2503     0.0000     4.0000 </r>
       <r>    -9.1428     0.0000     4.0000 </r>
       <r>    -9.0352     0.0000     4.0000 </r>
       <r>    -8.9277     0.0006     4.0001 </r>
       <r>    -8.8201     0.2686     4.0289 </r>
       <r>    -8.7126     2.0628     4.2508 </r>
       <r>    -8.6050     5.2699     4.8176 </r>
       <r>    -8.4975     6.9518     5.5652 </r>
       <r>    -8.3899     6.3163     6.2446 </r>
       <r>    -8.2824     5.3205     6.8168 </r>
       <r>    -8.1748     4.8191     7.3351 </r>
       <r>    -8.0673     3.8846     7.7528 </r>
       <r>    -7.9597     1.6700     7.9325 </r>
       <r>    -7.8522     0.5767     7.9945 </r>
       <r>    -7.7446     0.0513     8.0000 </r>
       <r>    -7.6371     0.0000     8.0000 </r>
       <r>    -7.5295     0.0000     8.0000 </r>
       <r>    -7.4220     0.0000     8.0000 </r>
       <r>    -7.3144     0.0000     8.0000 </r>
       <r>    -7.2069     0.0000     8.0000 </r>
       <r>    -7.0993     0.0000     8.0000 </r>
       <r>    -6.9918     0.0005     8.0000 </r>
       <r>    -6.8842     0.1172     8.0127 </r>
       <r>    -6.7767     0.2551     8.0401 </r>
       <r>    -6.6691     0.4287     8.0862 </r>
       <r>    -6.5616     0.7657     8.1686 </r>
       <r>    -6.4540     0.8612     8.2612 </r>
       <r>    -6.3465     1.4601     8.4182 </r>
       <r>    -6.2389     2.0004     8.6333 </r>
       <r>    -6.1314     3.0646     8.9629 </r>
       <r>    -6.0238     3.7632     9.3677 </r>
       <r>    -5.9163     4.0988     9.8085 </r>
       <r>    -5.8087     4.0352    10.2425 </r>
       <r>    -5.7012     3.8286    10.6542 </r>
       <r>    -5.5936     4.0684    11.0918 </r>
       <r>    -5.4861     4.2240    11.5461 </r>
       <r>    -5.3785     4.5137    12.0315 </r>
       <r>    -5.2710     4.5630    12.5223 </r>
       <r>    -5.1634     4.4820    13.0043 </r>
       <r>    -5.0559     3.8469    13.4180 </r>
       <r>    -4.9483     3.2369    13.7662 </r>
       <r>    -4.8408     2.9180    14.0800 </r>
       <r>    -4.7332     2.3806    14.3360 </r>
       <r>    -4.6257     2.8959    14.6475 </r>
       <r>    -4.5181     3.3593    15.0088 </r>
       <r>    -4.4106     3.5083    15.3861 </r>
       <r>    -4.3030     3.2857    15.7395 </r>
       <r>    -4.1955     2.9436    16.0561 </r>
       <r>    -4.0879     2.9004    16.3680 </r>
       <r>    -3.9804     2.9645    16.6868 </r>
       <r>    -3.8728     2.8309    16.9913 </r>
       <r>    -3.7653     3.1360    17.3286 </r>
       <r>    -3.6577     2.8400    17.6340 </r>
       <r>    -3.5502     2.7043    17.9249 </r>
       <r>    -3.4426     3.0426    18.2521 </r>
       <r>    -3.3351     2.6076    18.5325 </r>
       <r>    -3.2275     2.9053    18.8450 </r>
       <r>    -3.1200     2.6754    19.1327 </r>
       <r>    -3.0124     2.7793    19.4316 </r>
       <r>    -2.9049     2.9923    19.7535 </r>
       <r>    -2.7973     2.9568    20.0715 </r>
       <r>    -2.6898     2.4107    20.3307 </r>
       <r>    -2.5822     2.6851    20.6195 </r>
       <r>    -2.4747     3.0315    20.9456 </r>
       <r>    -2.3671     2.9635    21.2643 </r>
       <r>    -2.2596     3.2105    21.6096 </r>
       <r>    -2.1520     4.0400    22.0441 </r>
       <r>    -2.0445     3.6556    22.4372 </r>
       <r>    -1.9369     3.3362    22.7960 </r>
       <r>    -1.8294     5.3152    23.3677 </r>
       <r>    -1.7218     5.6770    23.9782 </r>
       <r>    -1.6143     5.5421    24.5743 </r>
       <r>    -1.5067     6.1837    25.2394 </r>
       <r>    -1.3992     6.0611    25.8912 </r>
       <r>    -1.2916     5.4872    26.4814 </r>
       <r>    -1.1841     4.7046    26.9874 </r>
       <r>    -1.0765     6.4563    27.6817 </r>
       <r>    -0.9690     3.7065    28.0804 </r>
       <r>    -0.8614     2.2612    28.3235 </r>
       <r>    -0.7539     2.6892    28.6128 </r>
       <r>    -0.6463     2.8838    28.9229 </r>
       <r>    -0.5388     4.6795    29.4262 </r>
       <r>    -0.4312     6.8962    30.1679 </r>
       <r>    -0.3237     5.6435    30.7749 </r>
       <r>    -0.2161     6.7704    31.5030 </r>
       <r>    -0.1086     6.3611    32.1872 </r>
       <r>    -0.0010     6.7609    32.9143 </r>
       <r>     0.1065     6.6243    33.6267 </r>
       <r>     0.2141     6.3902    34.3140 </r>
       <r>     0.3216     8.7495    35.2550 </r>
       <r>     0.4292     7.8089    36.0949 </r>
       <r>     0.5367     8.7217    37.0329 </r>
       <r>     0.6443     5.0324    37.5741 </r>
       <r>     0.7518     2.8320    37.8787 </r>
       <r>     0.8594     3.3813    38.2423 </r>
       <r>     0.9669     3.5831    38.6277 </r>
       <r>     1.0745     3.5045    39.0046 </r>
       <r>     1.1820     2.7819    39.3038 </r>
       <r>     1.2896     3.4468    39.6745 </r>
       <r>     1.3971     4.5046    40.1590 </r>
       <r>     1.5047     3.7263    40.5597 </r>
       <r>     1.6122     3.7689    40.9651 </r>
       <r>     1.7198     4.5442    41.4538 </r>
       <r>     1.8273     3.0495    41.7818 </r>
       <r>     1.9349     2.4938    42.0500 </r>
       <r>     2.0424     2.6188    42.3316 </r>
       <r>     2.1500     2.1011    42.5576 </r>
       <r>     2.2575     2.6506    42.8427 </r>
       <r>     2.3651     2.5088    43.1125 </r>
       <r>     2.4726     1.8653    43.3131 </r>
       <r>     2.5802     0.7760    43.3966 </r>
       <r>     2.6877     0.3805    43.4375 </r>
       <r>     2.7953     0.5652    43.4983 </r>
       <r>     2.9028     0.4172    43.5432 </r>
       <r>     3.0104     0.3080    43.5763 </r>
       <r>     3.1179     0.7964    43.6619 </r>
       <r>     3.2254     0.9968    43.7691 </r>
       <r>     3.3330     0.4856    43.8214 </r>
       <r>     3.4405     0.0088    43.8223 </r>
       <r>     3.5481     0.1497    43.8384 </r>
       <r>     3.6556     0.4009    43.8815 </r>
       <r>     3.7632     0.3148    43.9154 </r>
       <r>     3.8707     0.3847    43.9568 </r>
       <r>     3.9783     0.3825    43.9979 </r>
       <r>     4.0858     0.0195    44.0000 </r>
       <r>     4.1934     0.0002    44.0000 </r>
       <r>     4.3009     0.0564    44.0061 </r>
       <r>     4.4085     0.1980    44.0274 </r>
       <r>     4.5160     0.4102    44.0715 </r>
       <r>     4.6236     0.5040    44.1257 </r>
       <r>     4.7311     0.6627    44.1970 </r>
       <r>     4.8387     0.8996    44.2937 </r>
       <r>     4.9462     0.8560    44.3858 </r>
       <r>     5.0538     0.8617    44.4785 </r>
       <r>     5.1613     1.2908    44.6173 </r>
       <r>     5.2689     1.1273    44.7385 </r>
       <r>     5.3764     1.6841    44.9197 </r>
       <r>     5.4840     2.2428    45.1609 </r>
       <r>     5.5915     2.4768    45.4272 </r>
       <r>     5.6991     2.7745    45.7256 </r>
       <r>     5.8066     3.4627    46.0980 </r>
       <r>     5.9142     3.1888    46.4410 </r>
       <r>     6.0217     4.3884    46.9130 </r>
       <r>     6.1293     4.6620    47.4144 </r>
       <r>     6.2368     4.0197    47.8467 </r>
       <r>     6.3444     4.6430    48.3460 </r>
       <r>     6.4519     3.9747    48.7735 </r>
       <r>     6.5595     4.1133    49.2159 </r>
       <r>     6.6670     4.3898    49.6880 </r>
       <r>     6.7746     3.2096    50.0332 </r>
       <r>     6.8821     4.0504    50.4688 </r>
       <r>     6.9897     4.6134    50.9650 </r>
       <r>     7.0972     4.5067    51.4497 </r>
       <r>     7.2048     4.3443    51.9169 </r>
       <r>     7.3123     5.6300    52.5224 </r>
       <r>     7.4199     4.8183    53.0406 </r>
       <r>     7.5274     4.4141    53.5154 </r>
       <r>     7.6350     4.1236    53.9589 </r>
       <r>     7.7425     3.5303    54.3385 </r>
       <r>     7.8501     3.1549    54.6778 </r>
       <r>     7.9576     2.9728    54.9976 </r>
       <r>     8.0652     3.0087    55.3211 </r>
       <r>     8.1727     4.1718    55.7698 </r>
       <r>     8.2803     3.8360    56.1824 </r>
       <r>     8.3878     3.6102    56.5707 </r>
       <r>     8.4954     3.9754    56.9982 </r>
       <r>     8.6029     4.1573    57.4453 </r>
       <r>     8.7105     4.4034    57.9189 </r>
       <r>     8.8180     4.1395    58.3641 </r>
       <r>     8.9256     5.1430    58.9172 </r>
       <r>     9.0331     5.1358    59.4696 </r>
       <r>     9.1407     5.2908    60.0386 </r>
       <r>     9.2482     5.2630    60.6047 </r>
       <r>     9.3558     4.8960    61.1312 </r>
       <r>     9.4633     4.7294    61.6399 </r>
       <r>     9.5709     4.3274    62.1053 </r>
       <r>     9.6784     5.1151    62.6554 </r>
       <r>     9.7860     5.0135    63.1946 </r>
       <r>     9.8935     5.3215    63.7669 </r>
       <r>    10.0011     4.4537    64.2459 </r>
       <r>    10.1086     3.5769    64.6306 </r>
       <r>    10.2162     5.1454    65.1840 </r>
       <r>    10.3237     4.7093    65.6905 </r>
       <r>    10.4313     4.0557    66.1267 </r>
       <r>    10.5388     5.5332    66.7218 </r>
       <r>    10.6464     5.7661    67.3419 </r>
       <r>    10.7539     4.0407    67.7765 </r>
       <r>    10.8615     3.8483    68.1904 </r>
       <r>    10.9690     3.1785    68.5322 </r>
       <r>    11.0766     4.6539    69.0327 </r>
       <r>    11.1841     5.5746    69.6323 </r>
       <r>    11.2917     6.0526    70.2832 </r>
       <r>    11.3992     5.9694    70.9252 </r>
       <r>    11.5068     5.4022    71.5063 </r>
       <r>    11.6143     4.1573    71.9534 </r>
       <r>    11.7219     4.4661    72.4337 </r>
       <r>    11.8294     4.8711    72.9576 </r>
       <r>    11.9370     4.7875    73.4725 </r>
       <r>    12.0445     6.0617    74.1244 </r>
       <r>    12.1521     5.9045    74.7594 </r>
       <r>    12.2596     5.8610    75.3898 </r>
       <r>    12.3672     5.7006    76.0029 </r>
       <r>    12.4747     5.0640    76.5475 </r>
       <r>    12.5823     5.6196    77.1519 </r>
       <r>    12.6898     6.0320    77.8006 </r>
       <r>    12.7974     6.1171    78.4585 </r>
       <r>    12.9049     5.8057    79.0829 </r>
       <r>    13.0125     5.8258    79.7095 </r>
       <r>    13.1200     5.5571    80.3072 </r>
       <r>    13.2276     6.3464    80.9897 </r>
       <r>    13.3351     6.2000    81.6565 </r>
       <r>    13.4427     5.2967    82.2262 </r>
       <r>    13.5502     6.1522    82.8879 </r>
       <r>    13.6578     5.2070    83.4479 </r>
       <r>    13.7653     4.7921    83.9633 </r>
       <r>    13.8729     6.0437    84.6133 </r>
       <r>    13.9804     5.5243    85.2074 </r>
       <r>    14.0880     5.3155    85.7791 </r>
       <r>    14.1955     5.4707    86.3674 </r>
       <r>    14.3031     4.7058    86.8736 </r>
       <r>    14.4106     4.8209    87.3920 </r>
       <r>    14.5182     5.0994    87.9405 </r>
       <r>    14.6257     4.9913    88.4773 </r>
       <r>    14.7333     5.2627    89.0433 </r>
       <r>    14.8408     5.1218    89.5942 </r>
       <r>    14.9484     4.0888    90.0339 </r>
       <r>    15.0559     5.1681    90.5897 </r>
       <r>    15.1635     6.2392    91.2608 </r>
       <r>    15.2710     5.5660    91.8594 </r>
       <r>    15.3786     5.5974    92.4614 </r>
       <r>    15.4861     6.0673    93.1139 </r>
       <r>    15.5937     5.6870    93.7256 </r>
       <r>    15.7012     5.8713    94.3570 </r>
       <r>    15.8088     4.5466    94.8460 </r>
       <r>    15.9163     2.4204    95.1063 </r>
       <r>    16.0239     2.6928    95.3959 </r>
       <r>    16.1314     1.8872    95.5989 </r>
       <r>    16.2390     1.1614    95.7238 </r>
       <r>    16.3465     0.8840    95.8189 </r>
       <r>    16.4541     0.6982    95.8939 </r>
       <r>    16.5616     0.8095    95.9810 </r>
       <r>    16.6692     0.1749    95.9998 </r>
       <r>    16.7767     0.0016    96.0000 </r>
       <r>    16.8843     0.0000    96.0000 </r>
       <r>    16.9918     0.0000    96.0000 </r>
       <r>    17.0994     0.0000    96.0000 </r>
       <r>    17.2069     0.0000    96.0000 </r>
       <r>    17.3145     0.0000    96.0000 </r>
       <r>    17.4220     0.0000    96.0000 </r>
       <r>    17.5296     0.0000    96.0000 </r>
       <r>    17.6371     0.0000    96.0000 </r>
       <r>    17.7447     0.0000    96.0000 </r>
       <r>    17.8522     0.0000    96.0000 </r>
       <r>    17.9598     0.0000    96.0000 </r>
       <r>    18.0673     0.0000    96.0000 </r>
      </set>
     </set>
    </array>
   </total>
  </dos>
 </calculation>
 <structure name="finalpos" >
  <crystal>
   <varray name="basis" >
    <v>       5.68674540       0.00000000       0.00000000 </v>
    <v>       0.00000000       4.04061378       0.00000000 </v>
    <v>       0.00000000       0.00000000       6.19303244 </v>
   </varray>
   <i name="volume">    142.30313914 </i>
   <varray name="rec_basis" >
    <v>       0.17584751       0.00000000       0.00000000 </v>
    <v>       0.00000000       0.24748715       0.00000000 </v>
    <v>       0.00000000       0.00000000       0.16147178 </v>
   </varray>
  </crystal>
  <varray name="positions" >
   <v>       0.52123000       0.50000000       0.63796000 </v>
   <v>       0.47877000       0.50000000       0.36204000 </v>
   <v>       0.97877000       0.50000000       0.63796000 </v>
   <v>       0.02123000       0.50000000       0.36204000 </v>
   <v>       0.60090000       0.50000000       0.89991000 </v>
   <v>       0.39910000       0.50000000       0.10009000 </v>
   <v>       0.89910000       0.50000000       0.89991000 </v>
   <v>       0.10090000       0.50000000       0.10009000 </v>
   <v>       0.75000000       0.79171000       0.72973000 </v>
   <v>       0.25000000       0.20829000       0.27027000 </v>
   <v>       0.75000000       0.20829000       0.72973000 </v>
   <v>       0.25000000       0.79171000       0.27027000 </v>
   <v>       0.25000000       0.50000000       0.52367000 </v>
   <v>       0.75000000       0.50000000       0.47633000 </v>
  </varray>
 </structure>
</modeling>
