  14  14   0   0
  0.1028719E+02  0.5709533E-09  0.4056805E-09  0.6217849E-09  0.5000000E-15
  1.000000000000000E-004
  CAR 
 Convergence                             
     17.86257509    -14.17345884  301      1.84585075      1.00000000
    -14.173  0.0000E+00  0.0000E+00
    -14.067  0.0000E+00  0.0000E+00
    -13.960  0.0000E+00  0.0000E+00
    -13.853  0.0000E+00  0.0000E+00
    -13.746  0.0000E+00  0.0000E+00
    -13.640  0.0000E+00  0.0000E+00
    -13.533  0.0000E+00  0.0000E+00
    -13.426  0.0000E+00  0.0000E+00
    -13.319  0.0000E+00  0.0000E+00
    -13.212  0.0000E+00  0.0000E+00
    -13.106  0.0000E+00  0.0000E+00
    -12.999  0.5611E-16  0.5992E-17
    -12.892  0.3302E-07  0.3526E-08
    -12.785  0.3920E-02  0.4186E-03
    -12.678  0.5111E+00  0.5500E-01
    -12.572  0.2398E+01  0.3111E+00
    -12.465  0.3580E+01  0.6933E+00
    -12.358  0.4383E+01  0.1161E+01
    -12.251  0.3539E+01  0.1539E+01
    -12.145  0.2739E+01  0.1832E+01
    -12.038  0.2758E+01  0.2126E+01
    -11.931  0.2495E+01  0.2393E+01
    -11.824  0.2773E+01  0.2689E+01
    -11.717  0.3402E+01  0.3052E+01
    -11.611  0.3538E+01  0.3430E+01
    -11.504  0.3153E+01  0.3767E+01
    -11.397  0.1717E+01  0.3950E+01
    -11.290  0.4587E+00  0.3999E+01
    -11.183  0.9663E-02  0.4000E+01
    -11.077  0.3438E-06  0.4000E+01
    -10.970  0.3010E-14  0.4000E+01
    -10.863  0.0000E+00  0.4000E+01
    -10.756  0.0000E+00  0.4000E+01
    -10.649  0.0000E+00  0.4000E+01
    -10.543  0.0000E+00  0.4000E+01
    -10.436  0.0000E+00  0.4000E+01
    -10.329  0.0000E+00  0.4000E+01
    -10.222  0.0000E+00  0.4000E+01
    -10.116  0.0000E+00  0.4000E+01
    -10.009  0.0000E+00  0.4000E+01
     -9.902  0.0000E+00  0.4000E+01
     -9.795  0.0000E+00  0.4000E+01
     -9.688  0.0000E+00  0.4000E+01
     -9.582  0.0000E+00  0.4000E+01
     -9.475  0.0000E+00  0.4000E+01
     -9.368  0.0000E+00  0.4000E+01
     -9.261  0.0000E+00  0.4000E+01
     -9.154  0.0000E+00  0.4000E+01
     -9.048  0.1204E-08  0.4000E+01
     -8.941  0.6881E-03  0.4000E+01
     -8.834  0.2856E+00  0.4031E+01
     -8.727  0.2125E+01  0.4258E+01
     -8.621  0.5408E+01  0.4835E+01
     -8.514  0.7032E+01  0.5586E+01
     -8.407  0.6273E+01  0.6256E+01
     -8.300  0.5333E+01  0.6825E+01
     -8.193  0.4855E+01  0.7344E+01
     -8.087  0.3856E+01  0.7756E+01
     -7.980  0.1660E+01  0.7933E+01
     -7.873  0.5766E+00  0.7994E+01
     -7.766  0.5241E-01  0.8000E+01
     -7.659  0.2546E-04  0.8000E+01
     -7.553  0.3217E-11  0.8000E+01
     -7.446  0.0000E+00  0.8000E+01
     -7.339  0.0000E+00  0.8000E+01
     -7.232  0.0000E+00  0.8000E+01
     -7.126  0.3812E-09  0.8000E+01
     -7.019  0.3387E-03  0.8000E+01
     -6.912  0.1079E+00  0.8012E+01
     -6.805  0.2608E+00  0.8039E+01
     -6.698  0.4231E+00  0.8085E+01
     -6.592  0.7666E+00  0.8166E+01
     -6.485  0.8419E+00  0.8256E+01
     -6.378  0.1424E+01  0.8408E+01
     -6.271  0.1917E+01  0.8613E+01
     -6.164  0.3047E+01  0.8939E+01
     -6.058  0.3812E+01  0.9346E+01
     -5.951  0.4129E+01  0.9787E+01
     -5.844  0.4059E+01  0.1022E+02
     -5.737  0.3904E+01  0.1064E+02
     -5.631  0.4079E+01  0.1107E+02
     -5.524  0.4213E+01  0.1152E+02
     -5.417  0.4584E+01  0.1201E+02
     -5.310  0.4642E+01  0.1251E+02
     -5.203  0.4504E+01  0.1299E+02
     -5.097  0.3895E+01  0.1340E+02
     -4.990  0.3219E+01  0.1375E+02
     -4.883  0.2990E+01  0.1407E+02
     -4.776  0.2287E+01  0.1431E+02
     -4.669  0.2900E+01  0.1462E+02
     -4.563  0.3374E+01  0.1498E+02
     -4.456  0.3429E+01  0.1535E+02
     -4.349  0.3385E+01  0.1571E+02
     -4.242  0.2972E+01  0.1603E+02
     -4.136  0.2915E+01  0.1634E+02
     -4.029  0.2920E+01  0.1665E+02
     -3.922  0.2903E+01  0.1696E+02
     -3.815  0.3095E+01  0.1729E+02
     -3.708  0.2915E+01  0.1760E+02
     -3.602  0.2712E+01  0.1789E+02
     -3.495  0.3086E+01  0.1822E+02
     -3.388  0.2678E+01  0.1851E+02
     -3.281  0.2807E+01  0.1881E+02
     -3.174  0.2832E+01  0.1911E+02
     -3.068  0.2688E+01  0.1940E+02
     -2.961  0.3112E+01  0.1973E+02
     -2.854  0.2994E+01  0.2005E+02
     -2.747  0.2460E+01  0.2031E+02
     -2.640  0.2620E+01  0.2059E+02
     -2.534  0.3002E+01  0.2091E+02
     -2.427  0.3022E+01  0.2123E+02
     -2.320  0.3172E+01  0.2157E+02
     -2.213  0.4001E+01  0.2200E+02
     -2.107  0.3651E+01  0.2239E+02
     -2.000  0.3151E+01  0.2273E+02
     -1.893  0.4895E+01  0.2325E+02
     -1.786  0.5509E+01  0.2384E+02
     -1.679  0.5678E+01  0.2444E+02
     -1.573  0.6153E+01  0.2510E+02
     -1.466  0.6180E+01  0.2576E+02
     -1.359  0.5647E+01  0.2636E+02
     -1.252  0.4702E+01  0.2687E+02
     -1.145  0.6459E+01  0.2756E+02
     -1.039  0.4334E+01  0.2802E+02
     -0.932  0.2307E+01  0.2826E+02
     -0.825  0.2713E+01  0.2855E+02
     -0.718  0.2892E+01  0.2886E+02
     -0.612  0.4363E+01  0.2933E+02
     -0.505  0.6766E+01  0.3005E+02
     -0.398  0.5707E+01  0.3066E+02
     -0.291  0.6574E+01  0.3136E+02
     -0.184  0.6414E+01  0.3205E+02
     -0.078  0.6724E+01  0.3277E+02
      0.029  0.6888E+01  0.3350E+02
      0.136  0.6195E+01  0.3416E+02
      0.243  0.8859E+01  0.3511E+02
      0.350  0.8188E+01  0.3598E+02
      0.456  0.8664E+01  0.3691E+02
      0.563  0.5520E+01  0.3750E+02
      0.670  0.3081E+01  0.3783E+02
      0.777  0.3178E+01  0.3817E+02
      0.883  0.3595E+01  0.3855E+02
      0.990  0.3594E+01  0.3893E+02
      1.097  0.2828E+01  0.3924E+02
      1.204  0.3343E+01  0.3959E+02
      1.311  0.4445E+01  0.4007E+02
      1.417  0.3862E+01  0.4048E+02
      1.524  0.3682E+01  0.4087E+02
      1.631  0.4597E+01  0.4136E+02
      1.738  0.3452E+01  0.4173E+02
      1.845  0.2474E+01  0.4200E+02
      1.951  0.2691E+01  0.4228E+02
      2.058  0.2107E+01  0.4251E+02
      2.165  0.2640E+01  0.4279E+02
      2.272  0.2642E+01  0.4307E+02
      2.378  0.2012E+01  0.4329E+02
      2.485  0.9518E+00  0.4339E+02
      2.592  0.3831E+00  0.4343E+02
      2.699  0.5772E+00  0.4349E+02
      2.806  0.4222E+00  0.4354E+02
      2.912  0.3070E+00  0.4357E+02
      3.019  0.7123E+00  0.4365E+02
      3.126  0.1033E+01  0.4376E+02
      3.233  0.5964E+00  0.4382E+02
      3.340  0.2051E-01  0.4382E+02
      3.446  0.1107E+00  0.4383E+02
      3.553  0.3891E+00  0.4388E+02
      3.660  0.3485E+00  0.4391E+02
      3.767  0.3571E+00  0.4395E+02
      3.874  0.4222E+00  0.4400E+02
      3.980  0.3676E-01  0.4400E+02
      4.087  0.7652E-05  0.4400E+02
      4.194  0.1213E-01  0.4400E+02
      4.301  0.1550E+00  0.4402E+02
      4.407  0.3633E+00  0.4406E+02
      4.514  0.4361E+00  0.4410E+02
      4.621  0.6128E+00  0.4417E+02
      4.728  0.8524E+00  0.4426E+02
      4.835  0.8417E+00  0.4435E+02
      4.941  0.8768E+00  0.4444E+02
      5.048  0.1226E+01  0.4457E+02
      5.155  0.1204E+01  0.4470E+02
      5.262  0.1558E+01  0.4487E+02
      5.369  0.2098E+01  0.4509E+02
      5.475  0.2518E+01  0.4536E+02
      5.582  0.2800E+01  0.4566E+02
      5.689  0.3247E+01  0.4601E+02
      5.796  0.3310E+01  0.4636E+02
      5.902  0.4169E+01  0.4681E+02
      6.009  0.4840E+01  0.4732E+02
      6.116  0.4133E+01  0.4776E+02
      6.223  0.4583E+01  0.4825E+02
      6.330  0.4362E+01  0.4872E+02
      6.436  0.3931E+01  0.4914E+02
      6.543  0.4545E+01  0.4962E+02
      6.650  0.3291E+01  0.4998E+02
      6.757  0.3935E+01  0.5040E+02
      6.864  0.4596E+01  0.5089E+02
      6.970  0.4618E+01  0.5138E+02
      7.077  0.4340E+01  0.5184E+02
      7.184  0.5558E+01  0.5244E+02
      7.291  0.5048E+01  0.5298E+02
      7.397  0.4505E+01  0.5346E+02
      7.504  0.4257E+01  0.5391E+02
      7.611  0.3615E+01  0.5430E+02
      7.718  0.3095E+01  0.5463E+02
      7.825  0.3042E+01  0.5495E+02
      7.931  0.2970E+01  0.5527E+02
      8.038  0.4145E+01  0.5571E+02
      8.145  0.3954E+01  0.5614E+02
      8.252  0.3781E+01  0.5654E+02
      8.359  0.4033E+01  0.5697E+02
      8.465  0.4273E+01  0.5743E+02
      8.572  0.4518E+01  0.5791E+02
      8.679  0.4342E+01  0.5837E+02
      8.786  0.5398E+01  0.5895E+02
      8.892  0.4723E+01  0.5945E+02
      8.999  0.5266E+01  0.6002E+02
      9.106  0.5228E+01  0.6057E+02
      9.213  0.5038E+01  0.6111E+02
      9.320  0.4652E+01  0.6161E+02
      9.426  0.4431E+01  0.6208E+02
      9.533  0.5078E+01  0.6262E+02
      9.640  0.5048E+01  0.6316E+02
      9.747  0.5272E+01  0.6373E+02
      9.854  0.4506E+01  0.6421E+02
      9.960  0.3727E+01  0.6461E+02
     10.067  0.5196E+01  0.6516E+02
     10.174  0.4729E+01  0.6567E+02
     10.281  0.4190E+01  0.6611E+02
     10.388  0.5288E+01  0.6668E+02
     10.494  0.5843E+01  0.6730E+02
     10.601  0.4097E+01  0.6774E+02
     10.708  0.3934E+01  0.6816E+02
     10.815  0.3306E+01  0.6851E+02
     10.921  0.4715E+01  0.6902E+02
     11.028  0.5359E+01  0.6959E+02
     11.135  0.6357E+01  0.7027E+02
     11.242  0.6009E+01  0.7091E+02
     11.349  0.5134E+01  0.7146E+02
     11.455  0.4495E+01  0.7194E+02
     11.562  0.4478E+01  0.7241E+02
     11.669  0.5015E+01  0.7295E+02
     11.776  0.4844E+01  0.7347E+02
     11.883  0.5958E+01  0.7410E+02
     11.989  0.6058E+01  0.7475E+02
     12.096  0.6089E+01  0.7540E+02
     12.203  0.5506E+01  0.7599E+02
     12.310  0.5009E+01  0.7652E+02
     12.416  0.5733E+01  0.7714E+02
     12.523  0.5962E+01  0.7777E+02
     12.630  0.5893E+01  0.7840E+02
     12.737  0.5990E+01  0.7904E+02
     12.844  0.5908E+01  0.7967E+02
     12.950  0.5641E+01  0.8028E+02
     13.057  0.6346E+01  0.8095E+02
     13.164  0.6353E+01  0.8163E+02
     13.271  0.5505E+01  0.8222E+02
     13.378  0.6116E+01  0.8287E+02
     13.484  0.5482E+01  0.8346E+02
     13.591  0.4867E+01  0.8398E+02
     13.698  0.6215E+01  0.8464E+02
     13.805  0.5514E+01  0.8523E+02
     13.911  0.5388E+01  0.8581E+02
     14.018  0.5478E+01  0.8639E+02
     14.125  0.4675E+01  0.8689E+02
     14.232  0.4996E+01  0.8742E+02
     14.339  0.4929E+01  0.8795E+02
     14.445  0.4930E+01  0.8848E+02
     14.552  0.5273E+01  0.8904E+02
     14.659  0.5222E+01  0.8960E+02
     14.766  0.4109E+01  0.9004E+02
     14.873  0.4974E+01  0.9057E+02
     14.979  0.6114E+01  0.9122E+02
     15.086  0.5745E+01  0.9183E+02
     15.193  0.5750E+01  0.9245E+02
     15.300  0.5980E+01  0.9309E+02
     15.406  0.5794E+01  0.9370E+02
     15.513  0.6050E+01  0.9435E+02
     15.620  0.4646E+01  0.9485E+02
     15.727  0.2545E+01  0.9512E+02
     15.834  0.2708E+01  0.9541E+02
     15.940  0.1833E+01  0.9560E+02
     16.047  0.1124E+01  0.9572E+02
     16.154  0.8981E+00  0.9582E+02
     16.261  0.6985E+00  0.9589E+02
     16.368  0.8190E+00  0.9598E+02
     16.474  0.1775E+00  0.9600E+02
     16.581  0.1726E-02  0.9600E+02
     16.688  0.2296E-07  0.9600E+02
     16.795  0.5281E-16  0.9600E+02
     16.901  0.0000E+00  0.9600E+02
     17.008  0.0000E+00  0.9600E+02
     17.115  0.0000E+00  0.9600E+02
     17.222  0.0000E+00  0.9600E+02
     17.329  0.0000E+00  0.9600E+02
     17.435  0.0000E+00  0.9600E+02
     17.542  0.0000E+00  0.9600E+02
     17.649  0.0000E+00  0.9600E+02
     17.756  0.0000E+00  0.9600E+02
     17.863  0.0000E+00  0.9600E+02
