   14   14    1    1
  0.1028719E+02  0.5709533E-09  0.4056805E-09  0.6217849E-09  0.5000000E-15
  1.000000000000000E-004
  CAR 
 Convergence                             
     42    175     48
 
  0.5000000E-01  0.3571429E-01  0.0000000E+00  0.3174603E-02
      1        -12.717275   1.000000
      2        -11.576105   1.000000
      3         -8.667349   1.000000
      4         -8.431544   1.000000
      5         -6.082061   1.000000
      6         -5.149077   1.000000
      7         -4.686764   1.000000
      8         -4.286522   1.000000
      9         -4.050271   1.000000
     10         -3.563702   1.000000
     11         -2.622585   1.000000
     12         -2.354242   1.000000
     13         -1.864904   1.000000
     14         -1.124255   1.000000
     15         -0.095691   1.000000
     16         -0.065139   1.000000
     17          0.121834   1.000000
     18          0.141161   1.000000
     19          0.531272   1.000000
     20          1.983036   0.000052
     21          2.045130   0.000000
     22          2.175218   0.000000
     23          5.406526   0.000000
     24          5.696763   0.000000
     25          5.782425   0.000000
     26          5.907348   0.000000
     27          6.755724   0.000000
     28          7.489890   0.000000
     29          7.815510   0.000000
     30          8.459452   0.000000
     31          8.713324   0.000000
     32          8.870456   0.000000
     33          8.950905   0.000000
     34         10.059204   0.000000
     35         11.124431   0.000000
     36         11.249344   0.000000
     37         11.575778   0.000000
     38         11.700014   0.000000
     39         11.868361   0.000000
     40         12.335797   0.000000
     41         12.777500   0.000000
     42         13.358937   0.000000
     43         13.386400   0.000000
     44         15.265820   0.000000
     45         15.463740   0.000000
     46         15.947556   0.000000
     47         16.232120   0.000000
     48         16.251081   0.000000
 
  0.1500000E+00  0.3571429E-01  0.0000000E+00  0.3174603E-02
      1        -12.673601   1.000000
      2        -11.649955   1.000000
      3         -8.646083   1.000000
      4         -8.420044   1.000000
      5         -6.014261   1.000000
      6         -5.487107   1.000000
      7         -4.807306   1.000000
      8         -4.025375   1.000000
      9         -3.808758   1.000000
     10         -3.228462   1.000000
     11         -2.692245   1.000000
     12         -2.334570   1.000000
     13         -1.941970   1.000000
     14         -1.430471   1.000000
     15         -0.055807   1.000000
     16         -0.051194   1.000000
     17          0.063454   1.000000
     18          0.163327   1.000000
     19          0.436016   1.000000
     20          1.897157   0.073366
     21          1.967540   0.000289
     22          2.054803   0.000000
     23          5.496170   0.000000
     24          5.700957   0.000000
     25          5.815099   0.000000
     26          6.250231   0.000000
     27          6.671053   0.000000
     28          7.130107   0.000000
     29          8.020390   0.000000
     30          8.595960   0.000000
     31          8.962414   0.000000
     32          9.044835   0.000000
     33          9.125604   0.000000
     34         10.163369   0.000000
     35         10.859593   0.000000
     36         11.045590   0.000000
     37         11.196380   0.000000
     38         11.618556   0.000000
     39         12.085031   0.000000
     40         12.422585   0.000000
     41         13.026954   0.000000
     42         13.035997   0.000000
     43         13.913302   0.000000
     44         14.757933   0.000000
     45         15.648048   0.000000
     46         15.733433   0.000000
     47         16.117810   0.000000
     48         16.406392   0.000000
 
  0.2500000E+00  0.3571429E-01  0.0000000E+00  0.3174603E-02
      1        -12.588118   1.000000
      2        -11.782974   1.000000
      3         -8.602339   1.000000
      4         -8.405277   1.000000
      5         -5.992362   1.000000
      6         -5.812258   1.000000
      7         -4.760700   1.000000
      8         -3.899555   1.000000
      9         -3.298751   1.000000
     10         -2.859132   1.000000
     11         -2.739033   1.000000
     12         -2.295009   1.000000
     13         -2.050654   1.000000
     14         -1.933667   1.000000
     15         -0.256365   1.000000
     16         -0.015893   1.000000
     17          0.110901   1.000000
     18          0.129661   1.000000
     19          0.405954   1.000000
     20          1.749385   0.996819
     21          1.827184   0.701242
     22          1.835380   0.616444
     23          5.617635   0.000000
     24          5.657261   0.000000
     25          6.123758   0.000000
     26          6.546281   0.000000
     27          6.706251   0.000000
     28          6.876314   0.000000
     29          8.168206   0.000000
     30          8.745116   0.000000
     31          8.912878   0.000000
     32          9.489568   0.000000
     33          9.571135   0.000000
     34         10.202320   0.000000
     35         10.402089   0.000000
     36         10.540272   0.000000
     37         11.312806   0.000000
     38         11.762918   0.000000
     39         12.319332   0.000000
     40         12.472273   0.000000
     41         12.717681   0.000000
     42         12.822628   0.000000
     43         14.536300   0.000000
     44         14.812945   0.000000
     45         15.136559   0.000000
     46         15.877443   0.000000
     47         15.899871   0.000000
     48         16.178038   0.000000
 
  0.3500000E+00  0.3571429E-01  0.0000000E+00  0.3174603E-02
      1        -12.464793   1.000000
      2        -11.952316   1.000000
      3         -8.540556   1.000000
      4         -8.401887   1.000000
      5         -6.071626   1.000000
      6         -6.044825   1.000000
      7         -4.434352   1.000000
      8         -3.731973   1.000000
      9         -3.051666   1.000000
     10         -2.916359   1.000000
     11         -2.467107   1.000000
     12         -2.279454   1.000000
     13         -2.178365   1.000000
     14         -2.149527   1.000000
     15         -0.555481   1.000000
     16         -0.280859   1.000000
     17          0.144956   1.000000
     18          0.219714   1.000000
     19          0.578386   1.000000
     20          1.491841   1.000000
     21          1.628333   1.000000
     22          1.687889   0.999996
     23          5.643035   0.000000
     24          5.702323   0.000000
     25          6.446460   0.000000
     26          6.619566   0.000000
     27          6.644936   0.000000
     28          7.351417   0.000000
     29          8.290497   0.000000
     30          8.619106   0.000000
     31          8.729245   0.000000
     32          9.461059   0.000000
     33          9.971131   0.000000
     34         10.042488   0.000000
     35         10.314239   0.000000
     36         11.052497   0.000000
     37         11.331361   0.000000
     38         11.853789   0.000000
     39         12.119040   0.000000
     40         12.187401   0.000000
     41         12.444827   0.000000
     42         13.178145   0.000000
     43         14.628996   0.000000
     44         14.882075   0.000000
     45         15.152566   0.000000
     46         15.277464   0.000000
     47         15.470316   0.000000
     48         16.273254   0.000000
 
  0.4500000E+00  0.3571429E-01  0.0000000E+00  0.3174603E-02
      1        -12.310255   1.000000
      2        -12.134588   1.000000
      3         -8.474716   1.000000
      4         -8.424144   1.000000
      5         -6.158772   1.000000
      6         -6.155397   1.000000
      7         -3.920634   1.000000
      8         -3.524396   1.000000
      9         -3.322853   1.000000
     10         -3.288495   1.000000
     11         -2.382508   1.000000
     12         -2.257445   1.000000
     13         -1.992958   1.000000
     14         -1.936055   1.000000
     15         -0.776119   1.000000
     16         -0.639713   1.000000
     17          0.227577   1.000000
     18          0.260737   1.000000
     19          0.838153   1.000000
     20          1.154317   1.000000
     21          1.548008   1.000000
     22          1.574902   1.000000
     23          5.672501   0.000000
     24          5.711786   0.000000
     25          6.426497   0.000000
     26          6.490977   0.000000
     27          7.310131   0.000000
     28          8.008295   0.000000
     29          8.032615   0.000000
     30          8.406252   0.000000
     31          8.542464   0.000000
     32          8.719835   0.000000
     33         10.425441   0.000000
     34         10.437862   0.000000
     35         10.675035   0.000000
     36         11.131544   0.000000
     37         11.315318   0.000000
     38         11.504209   0.000000
     39         11.835652   0.000000
     40         12.396062   0.000000
     41         12.639357   0.000000
     42         13.171152   0.000000
     43         14.507956   0.000000
     44         14.636511   0.000000
     45         14.779894   0.000000
     46         14.840123   0.000000
     47         15.991010   0.000000
     48         16.337055   0.000000
 
  0.5000000E-01  0.1071429E+00  0.0000000E+00  0.3174603E-02
      1        -12.693399   1.000000
      2        -11.554560   1.000000
      3         -8.648769   1.000000
      4         -8.408619   1.000000
      5         -6.055569   1.000000
      6         -5.115457   1.000000
      7         -4.664929   1.000000
      8         -4.585694   1.000000
      9         -4.193541   1.000000
     10         -3.541133   1.000000
     11         -3.313901   1.000000
     12         -1.823308   1.000000
     13         -1.119725   1.000000
     14         -1.067965   1.000000
     15         -0.328181   1.000000
     16         -0.300209   1.000000
     17          0.135353   1.000000
     18          0.211383   1.000000
     19          0.609122   1.000000
     20          1.716942   0.999867
     21          1.795867   0.921285
     22          2.227133   0.000000
     23          5.527542   0.000000
     24          5.654248   0.000000
     25          5.691576   0.000000
     26          5.947891   0.000000
     27          7.039241   0.000000
     28          7.774661   0.000000
     29          8.007097   0.000000
     30          8.123327   0.000000
     31          8.718514   0.000000
     32          9.003981   0.000000
     33          9.063779   0.000000
     34         10.506528   0.000000
     35         11.182484   0.000000
     36         11.335751   0.000000
     37         11.510457   0.000000
     38         11.802175   0.000000
     39         11.979433   0.000000
     40         12.612974   0.000000
     41         12.779298   0.000000
     42         13.099632   0.000000
     43         13.102557   0.000000
     44         15.223047   0.000000
     45         15.268272   0.000000
     46         15.752063   0.000000
     47         15.755340   0.000000
     48         16.111225   0.000000
 
  0.1500000E+00  0.1071429E+00  0.0000000E+00  0.3174603E-02
      1        -12.649820   1.000000
      2        -11.628276   1.000000
      3         -8.627351   1.000000
      4         -8.397484   1.000000
      5         -5.986006   1.000000
      6         -5.457115   1.000000
      7         -4.787477   1.000000
      8         -4.505253   1.000000
      9         -3.770771   1.000000
     10         -3.393661   1.000000
     11         -3.190908   1.000000
     12         -1.801831   1.000000
     13         -1.425092   1.000000
     14         -1.184716   1.000000
     15         -0.289757   1.000000
     16         -0.223366   1.000000
     17          0.102306   1.000000
     18          0.184896   1.000000
     19          0.506237   1.000000
     20          1.636828   1.000000
     21          1.719729   0.999820
     22          2.097050   0.000000
     23          5.603789   0.000000
     24          5.753836   0.000000
     25          5.876655   0.000000
     26          6.058428   0.000000
     27          6.956549   0.000000
     28          7.450485   0.000000
     29          8.152954   0.000000
     30          8.289246   0.000000
     31          9.033044   0.000000
     32          9.075669   0.000000
     33          9.334184   0.000000
     34         10.425368   0.000000
     35         10.792400   0.000000
     36         10.999009   0.000000
     37         11.389569   0.000000
     38         11.791302   0.000000
     39         12.198191   0.000000
     40         12.661007   0.000000
     41         12.780632   0.000000
     42         13.059839   0.000000
     43         13.633626   0.000000
     44         14.842221   0.000000
     45         15.292403   0.000000
     46         15.653005   0.000000
     47         15.686686   0.000000
     48         16.291175   0.000000
 
  0.2500000E+00  0.1071429E+00  0.0000000E+00  0.3174603E-02
      1        -12.564524   1.000000
      2        -11.761039   1.000000
      3         -8.583389   1.000000
      4         -8.383411   1.000000
      5         -5.961359   1.000000
      6         -5.782040   1.000000
      7         -4.744219   1.000000
      8         -4.397866   1.000000
      9         -3.514537   1.000000
     10         -3.246621   1.000000
     11         -2.726439   1.000000
     12         -1.929044   1.000000
     13         -1.757972   1.000000
     14         -1.345515   1.000000
     15         -0.258245   1.000000
     16         -0.244318   1.000000
     17          0.024047   1.000000
     18          0.171980   1.000000
     19          0.430225   1.000000
     20          1.502481   1.000000
     21          1.590217   1.000000
     22          1.850110   0.452053
     23          5.798563   0.000000
     24          5.882170   0.000000
     25          5.961026   0.000000
     26          6.504377   0.000000
     27          6.837008   0.000000
     28          7.223891   0.000000
     29          8.359851   0.000000
     30          8.419967   0.000000
     31          9.010044   0.000000
     32          9.528268   0.000000
     33          9.795158   0.000000
     34         10.047812   0.000000
     35         10.271814   0.000000
     36         10.735404   0.000000
     37         11.451398   0.000000
     38         12.026742   0.000000
     39         12.218697   0.000000
     40         12.480378   0.000000
     41         12.862250   0.000000
     42         12.945242   0.000000
     43         14.208828   0.000000
     44         14.977213   0.000000
     45         15.062741   0.000000
     46         15.540839   0.000000
     47         15.609510   0.000000
     48         16.311805   0.000000
 
  0.3500000E+00  0.1071429E+00  0.0000000E+00  0.3174603E-02
      1        -12.441456   1.000000
      2        -11.930044   1.000000
      3         -8.521351   1.000000
      4         -8.380902   1.000000
      5         -6.039431   1.000000
      6         -6.013786   1.000000
      7         -4.420009   1.000000
      8         -4.252023   1.000000
      9         -3.684405   1.000000
     10         -2.869140   1.000000
     11         -2.386314   1.000000
     12         -2.244849   1.000000
     13         -1.694370   1.000000
     14         -1.506932   1.000000
     15         -0.517839   1.000000
     16         -0.340877   1.000000
     17          0.054780   1.000000
     18          0.086259   1.000000
     19          0.588926   1.000000
     20          1.363187   1.000000
     21          1.445597   1.000000
     22          1.527896   1.000000
     23          5.815872   0.000000
     24          5.954969   0.000000
     25          6.465095   0.000000
     26          6.749041   0.000000
     27          6.822863   0.000000
     28          7.312748   0.000000
     29          8.351703   0.000000
     30          8.526297   0.000000
     31          8.857758   0.000000
     32          9.298391   0.000000
     33          9.991092   0.000000
     34         10.013756   0.000000
     35         10.363451   0.000000
     36         11.128468   0.000000
     37         11.284883   0.000000
     38         11.755945   0.000000
     39         12.193488   0.000000
     40         12.468272   0.000000
     41         12.643170   0.000000
     42         13.378189   0.000000
     43         14.668985   0.000000
     44         14.678981   0.000000
     45         15.050382   0.000000
     46         15.210334   0.000000
     47         15.544830   0.000000
     48         16.287637   0.000000
 
  0.4500000E+00  0.1071429E+00  0.0000000E+00  0.3174603E-02
      1        -12.287246   1.000000
      2        -12.111939   1.000000
      3         -8.455162   1.000000
      4         -8.403998   1.000000
      5         -6.126947   1.000000
      6         -6.123138   1.000000
      7         -4.074538   1.000000
      8         -3.913041   1.000000
      9         -3.872733   1.000000
     10         -3.310205   1.000000
     11         -2.130645   1.000000
     12         -1.939423   1.000000
     13         -1.626283   1.000000
     14         -1.620019   1.000000
     15         -0.738410   1.000000
     16         -0.635511   1.000000
     17          0.089322   1.000000
     18          0.120277   1.000000
     19          0.847463   1.000000
     20          1.160814   1.000000
     21          1.310187   1.000000
     22          1.333960   1.000000
     23          5.868275   0.000000
     24          5.935847   0.000000
     25          6.739606   0.000000
     26          6.790478   0.000000
     27          7.129000   0.000000
     28          7.836656   0.000000
     29          7.878557   0.000000
     30          8.556332   0.000000
     31          8.617271   0.000000
     32          8.728419   0.000000
     33         10.238398   0.000000
     34         10.488056   0.000000
     35         10.727244   0.000000
     36         10.823597   0.000000
     37         11.462717   0.000000
     38         11.562657   0.000000
     39         11.912805   0.000000
     40         12.562165   0.000000
     41         12.944947   0.000000
     42         13.400019   0.000000
     43         14.454534   0.000000
     44         14.640183   0.000000
     45         14.740098   0.000000
     46         14.958036   0.000000
     47         16.017255   0.000000
     48         16.312210   0.000000
 
  0.5000000E-01  0.1785714E+00  0.0000000E+00  0.3174603E-02
      1        -12.649294   1.000000
      2        -11.514828   1.000000
      3         -8.614758   1.000000
      4         -8.366314   1.000000
      5         -6.006603   1.000000
      6         -5.141931   1.000000
      7         -5.025628   1.000000
      8         -4.623555   1.000000
      9         -4.176749   1.000000
     10         -3.934376   1.000000
     11         -3.488271   1.000000
     12         -1.232578   1.000000
     13         -1.110547   1.000000
     14         -0.669381   1.000000
     15         -0.566721   1.000000
     16         -0.211800   1.000000
     17          0.156373   1.000000
     18          0.263415   1.000000
     19          0.686898   1.000000
     20          1.336760   1.000000
     21          1.399268   1.000000
     22          2.264722   0.000000
     23          5.241904   0.000000
     24          5.404960   0.000000
     25          6.065233   0.000000
     26          6.133768   0.000000
     27          7.469920   0.000000
     28          7.558903   0.000000
     29          8.253851   0.000000
     30          8.648175   0.000000
     31          8.806595   0.000000
     32          9.143808   0.000000
     33          9.287108   0.000000
     34         10.803475   0.000000
     35         11.237547   0.000000
     36         11.487937   0.000000
     37         11.631748   0.000000
     38         12.001180   0.000000
     39         12.195130   0.000000
     40         12.662311   0.000000
     41         12.674201   0.000000
     42         12.908641   0.000000
     43         13.147360   0.000000
     44         14.561032   0.000000
     45         15.055036   0.000000
     46         15.229423   0.000000
     47         15.337994   0.000000
     48         15.849141   0.000000
 
  0.1500000E+00  0.1785714E+00  0.0000000E+00  0.3174603E-02
      1        -12.605893   1.000000
      2        -11.588282   1.000000
      3         -8.593027   1.000000
      4         -8.355875   1.000000
      5         -5.933663   1.000000
      6         -5.408499   1.000000
      7         -5.045952   1.000000
      8         -4.750142   1.000000
      9         -3.999753   1.000000
     10         -3.729286   1.000000
     11         -3.151586   1.000000
     12         -1.416776   1.000000
     13         -1.206776   1.000000
     14         -0.777835   1.000000
     15         -0.528925   1.000000
     16         -0.129905   1.000000
     17          0.134620   1.000000
     18          0.209884   1.000000
     19          0.574272   1.000000
     20          1.258044   1.000000
     21          1.329814   1.000000
     22          2.129688   0.000000
     23          5.322451   0.000000
     24          5.748132   0.000000
     25          6.079911   0.000000
     26          6.180926   0.000000
     27          7.389695   0.000000
     28          7.715407   0.000000
     29          7.986292   0.000000
     30          8.741166   0.000000
     31          9.158557   0.000000
     32          9.207229   0.000000
     33          9.569985   0.000000
     34         10.439285   0.000000
     35         10.698698   0.000000
     36         11.193315   0.000000
     37         11.649458   0.000000
     38         12.115479   0.000000
     39         12.347293   0.000000
     40         12.422895   0.000000
     41         13.070474   0.000000
     42         13.192990   0.000000
     43         13.343337   0.000000
     44         14.574595   0.000000
     45         14.719607   0.000000
     46         15.161350   0.000000
     47         15.402273   0.000000
     48         15.884053   0.000000
 
  0.2500000E+00  0.1785714E+00  0.0000000E+00  0.3174603E-02
      1        -12.520930   1.000000
      2        -11.720565   1.000000
      3         -8.548632   1.000000
      4         -8.343116   1.000000
      5         -5.903672   1.000000
      6         -5.727447   1.000000
      7         -4.954554   1.000000
      8         -4.713453   1.000000
      9         -4.122001   1.000000
     10         -3.197371   1.000000
     11         -2.682773   1.000000
     12         -1.912798   1.000000
     13         -1.166566   1.000000
     14         -0.917329   1.000000
     15         -0.476632   1.000000
     16         -0.125432   1.000000
     17         -0.017448   1.000000
     18          0.220874   1.000000
     19          0.459745   1.000000
     20          1.127211   1.000000
     21          1.211968   1.000000
     22          1.874467   0.209147
     23          5.642313   0.000000
     24          6.035024   0.000000
     25          6.221127   0.000000
     26          6.311660   0.000000
     27          7.288504   0.000000
     28          7.798670   0.000000
     29          7.949641   0.000000
     30          8.870292   0.000000
     31          9.158049   0.000000
     32          9.636979   0.000000
     33          9.777261   0.000000
     34         10.052433   0.000000
     35         10.175285   0.000000
     36         10.975020   0.000000
     37         11.510443   0.000000
     38         12.022831   0.000000
     39         12.424278   0.000000
     40         12.724332   0.000000
     41         12.949965   0.000000
     42         13.362308   0.000000
     43         13.864871   0.000000
     44         14.487066   0.000000
     45         14.768401   0.000000
     46         15.187434   0.000000
     47         15.418186   0.000000
     48         16.094960   0.000000
 
  0.3500000E+00  0.1785714E+00  0.0000000E+00  0.3174603E-02
      1        -12.398357   1.000000
      2        -11.888945   1.000000
      3         -8.486128   1.000000
      4         -8.342292   1.000000
      5         -5.979419   1.000000
      6         -5.956529   1.000000
      7         -4.819728   1.000000
      8         -4.393547   1.000000
      9         -4.284857   1.000000
     10         -2.831362   1.000000
     11         -2.346077   1.000000
     12         -2.203828   1.000000
     13         -1.110515   1.000000
     14         -1.054738   1.000000
     15         -0.484665   1.000000
     16         -0.409558   1.000000
     17          0.025959   1.000000
     18          0.027416   1.000000
     19          0.606335   1.000000
     20          0.998140   1.000000
     21          1.079821   1.000000
     22          1.541046   1.000000
     23          6.047339   0.000000
     24          6.174234   0.000000
     25          6.342274   0.000000
     26          6.744530   0.000000
     27          7.234581   0.000000
     28          7.721071   0.000000
     29          8.007746   0.000000
     30          8.969687   0.000000
     31          9.031586   0.000000
     32          9.099020   0.000000
     33          9.804633   0.000000
     34         10.102712   0.000000
     35         10.624387   0.000000
     36         10.996483   0.000000
     37         11.226984   0.000000
     38         11.868340   0.000000
     39         12.255337   0.000000
     40         12.904223   0.000000
     41         12.955208   0.000000
     42         13.702588   0.000000
     43         14.276918   0.000000
     44         14.297120   0.000000
     45         14.928582   0.000000
     46         15.023934   0.000000
     47         15.506701   0.000000
     48         16.274285   0.000000
 
  0.4500000E+00  0.1785714E+00  0.0000000E+00  0.3174603E-02
      1        -12.244757   1.000000
      2        -12.070139   1.000000
      3         -8.419266   1.000000
      4         -8.366979   1.000000
      5         -6.067877   1.000000
      6         -6.063088   1.000000
      7         -4.653349   1.000000
      8         -4.469360   1.000000
      9         -3.882600   1.000000
     10         -3.287882   1.000000
     11         -2.063676   1.000000
     12         -1.899555   1.000000
     13         -1.128527   1.000000
     14         -1.069604   1.000000
     15         -0.662905   1.000000
     16         -0.659063   1.000000
     17         -0.022895   1.000000
     18          0.020585   1.000000
     19          0.863054   1.000000
     20          0.935708   1.000000
     21          0.975866   1.000000
     22          1.189056   1.000000
     23          6.139438   0.000000
     24          6.259098   0.000000
     25          6.823166   0.000000
     26          7.156930   0.000000
     27          7.213985   0.000000
     28          7.564166   0.000000
     29          7.867075   0.000000
     30          8.374241   0.000000
     31          9.024816   0.000000
     32          9.056125   0.000000
     33          9.929709   0.000000
     34         10.402643   0.000000
     35         10.624644   0.000000
     36         10.901759   0.000000
     37         11.642204   0.000000
     38         11.652571   0.000000
     39         12.030927   0.000000
     40         12.814378   0.000000
     41         13.331017   0.000000
     42         13.674834   0.000000
     43         14.129993   0.000000
     44         14.283922   0.000000
     45         14.899290   0.000000
     46         15.037507   0.000000
     47         15.885164   0.000000
     48         16.186995   0.000000
 
  0.5000000E-01  0.2500000E+00  0.0000000E+00  0.3174603E-02
      1        -12.592155   1.000000
      2        -11.463490   1.000000
      3         -8.571309   1.000000
      4         -8.311587   1.000000
      5         -5.943063   1.000000
      6         -5.621605   1.000000
      7         -4.956206   1.000000
      8         -4.567925   1.000000
      9         -4.453227   1.000000
     10         -4.137676   1.000000
     11         -3.426810   1.000000
     12         -1.239850   1.000000
     13         -1.096278   1.000000
     14         -1.020865   1.000000
     15         -0.226861   1.000000
     16          0.184333   1.000000
     17          0.306149   1.000000
     18          0.557400   1.000000
     19          0.750081   1.000000
     20          0.953468   1.000000
     21          0.967338   1.000000
     22          2.298483   0.000000
     23          4.901794   0.000000
     24          5.113837   0.000000
     25          6.292642   0.000000
     26          6.522521   0.000000
     27          7.203221   0.000000
     28          7.894365   0.000000
     29          8.617254   0.000000
     30          8.990402   0.000000
     31          9.369720   0.000000
     32          9.506558   0.000000
     33          9.568106   0.000000
     34         10.664825   0.000000
     35         11.184284   0.000000
     36         11.886391   0.000000
     37         11.944587   0.000000
     38         12.206257   0.000000
     39         12.342066   0.000000
     40         12.370193   0.000000
     41         12.480789   0.000000
     42         12.893231   0.000000
     43         13.681188   0.000000
     44         13.794300   0.000000
     45         14.312515   0.000000
     46         15.009235   0.000000
     47         15.312103   0.000000
     48         15.738223   0.000000
 
  0.1500000E+00  0.2500000E+00  0.0000000E+00  0.3174603E-02
      1        -12.548981   1.000000
      2        -11.536609   1.000000
      3         -8.549164   1.000000
      4         -8.302097   1.000000
      5         -5.865542   1.000000
      6         -5.586815   1.000000
      7         -5.291260   1.000000
      8         -4.700764   1.000000