       N       E                     dE             d eps       ncg     rms          rms(c)
DAV:   1     0.119720467908E+03    0.11972E+03   -0.23804E+04120960   0.110E+03
DAV:   2    -0.898569079792E+02   -0.20958E+03   -0.19499E+03163248   0.192E+02
DAV:   3    -0.976003980514E+02   -0.77435E+01   -0.76848E+01179688   0.326E+01
DAV:   4    -0.976473628050E+02   -0.46965E-01   -0.46962E-01137616   0.293E+00
DAV:   5    -0.976478578497E+02   -0.49504E-03   -0.49503E-03179952   0.286E-01    0.123E+01
DAV:   6    -0.922335791246E+02    0.54143E+01   -0.39474E+00175104   0.658E+00    0.679E+00
