 running   24 mpi-ranks, with    1 threads/rank, on    1 nodes
 distrk:  each k-point on   24 cores,    1 groups
 distr:  one band on    1 cores,   24 groups
 vasp.6.4.3 19Mar24 (build May 31 2024 16:31:43) complex                        
  
 POSCAR found type information on POSCAR B 
 POSCAR found :  1 types and      14 ions
 Reading from existing POTCAR
 scaLAPACK will be used
 Reading from existing POTCAR
 LDA part: xc-table for (Slater+PW92), standard interpolation
 POSCAR, INCAR and KPOINTS ok, starting setup
 FFT: planning ... GRIDC
 FFT: planning ... GRID_SOFT
 FFT: planning ... GRID
 WAVECAR not read
 entering main loop
       N       E                     dE             d eps       ncg     rms          rms(c)
DAV:   1     0.119720467908E+03    0.11972E+03   -0.23804E+04120960   0.110E+03
DAV:   2    -0.898569079792E+02   -0.20958E+03   -0.19499E+03163248   0.192E+02
DAV:   3    -0.976003980514E+02   -0.77435E+01   -0.76848E+01179688   0.326E+01
DAV:   4    -0.976473628050E+02   -0.46965E-01   -0.46962E-01137616   0.293E+00
DAV:   5    -0.976478578497E+02   -0.49504E-03   -0.49503E-03179952   0.286E-01    0.123E+01
DAV:   6    -0.922335791246E+02    0.54143E+01   -0.39474E+00175104   0.658E+00    0.679E+00
