 running   24 mpi-ranks, with    1 threads/rank, on    1 nodes
 distrk:  each k-point on   24 cores,    1 groups
 distr:  one band on    1 cores,   24 groups
 vasp.6.4.3 19Mar24 (build May 31 2024 16:31:43) complex                        
  
 POSCAR found type information on POSCAR B 
 POSCAR found :  1 types and      14 ions
 Reading from existing POTCAR
 scaLAPACK will be used
 Reading from existing POTCAR
 LDA part: xc-table for (Slater+PW92), standard interpolation
 POSCAR, INCAR and KPOINTS ok, starting setup
 FFT: planning ... GRIDC
 FFT: planning ... GRID_SOFT
 FFT: planning ... GRID
 WAVECAR not read
 entering main loop
       N       E                     dE             d eps       ncg     rms          rms(c)
DAV:   1     0.119720467908E+03    0.11972E+03   -0.23804E+04120960   0.110E+03
DAV:   2    -0.898569079792E+02   -0.20958E+03   -0.19499E+03163248   0.192E+02
DAV:   3    -0.976003980514E+02   -0.77435E+01   -0.76848E+01179688   0.326E+01
DAV:   4    -0.976473628050E+02   -0.46965E-01   -0.46962E-01137616   0.293E+00
DAV:   5    -0.976478578497E+02   -0.49504E-03   -0.49503E-03179952   0.286E-01    0.123E+01
DAV:   6    -0.922335791246E+02    0.54143E+01   -0.39474E+00175104   0.658E+00    0.679E+00
DAV:   7    -0.905826376456E+02    0.16509E+01   -0.32087E+00180600   0.586E+00    0.172E+00
DAV:   8    -0.905937335633E+02   -0.11096E-01   -0.22986E-01132744   0.166E+00    0.751E-01
DAV:   9    -0.906084048750E+02   -0.14671E-01   -0.17579E-02170568   0.459E-01    0.206E-01
DAV:  10    -0.906127814533E+02   -0.43766E-02   -0.26239E-03133728   0.182E-01    0.665E-02
DAV:  11    -0.906139640256E+02   -0.11826E-02   -0.69153E-04159000   0.932E-02    0.337E-02
DAV:  12    -0.906140639830E+02   -0.99957E-04   -0.69302E-05151320   0.335E-02    0.657E-03
DAV:  13    -0.906140737480E+02   -0.97650E-05   -0.76368E-06166416   0.114E-02    0.205E-03
DAV:  14    -0.906140748336E+02   -0.10856E-05   -0.66607E-07153120   0.376E-03    0.713E-04
