 vasp.6.4.3 19Mar24 (build May 31 2024 16:31:43) complex                        
  
 executed on             LinuxIFC date 2024.10.29  14:13:12
 running   24 mpi-ranks, with    1 threads/rank, on    1 nodes
 distrk:  each k-point on   24 cores,    1 groups
 distr:  one band on NCORE=   1 cores,   24 groups


--------------------------------------------------------------------------------------------------------


 INCAR:
   SYSTEM = Kpoints
   ISTART = 0
   ICHARG = 2
   PREC = Accurate
   ENCUT = 450
   LCHARG = .FALSE.
   LWAVE = .FALSE.
   ALGO = Normal
   NELM = 100
   EDIFF = 1E-6
   EDIFFG = -1E-3
   SIGMA = 0.05
   ISMEAR = 0
   ISPIN = 1
   NSW = 0
   IBRION = -1
   POTIM = .5
   ISIF = 2
   GGA = PE

 POTCAR:    PAW_PBE B 06Sep2000                   
 POTCAR:    PAW_PBE B 06Sep2000                   
   SHA256 =  a32ced30f5ae56fd4d10b4325ff17eb3e4e38ee0f4288bc219fb012fddfa6e97 B/POTCAR              
   COPYR  = (c) Copyright 06Sep2000 Georg Kresse                                                    
   COPYR  = This file is part of the software VASP. Any use, copying, and all other rights are regul
   COPYR  = If you do not have a valid VASP license, you may not use, copy or distribute this file. 
   VRHFIN =B: s2p1                                                                                  
   LEXCH  = PE                                                                                      
   EATOM  =    71.1703 eV,    5.2309 Ry                                                             
                                                                                                    
   TITEL  = PAW_PBE B 06Sep2000                                                                     
   LULTRA =        F    use ultrasoft PP ?                                                          
   IUNSCR =        1    unscreen: 0-lin 1-nonlin 2-no                                               
   RPACOR =    1.200    partial core radius                                                         
   POMASS =   10.811; ZVAL   =    3.000    mass and valenz                                          
   RCORE  =    1.700    outmost cutoff radius                                                       
   RWIGS  =    1.710; RWIGS  =    0.905    wigner-seitz radius (au A)                               
   ENMAX  =  318.614; ENMIN  =  238.960 eV                                                          
   ICORE  =        2    local potential                                                             
   LCOR   =        T    correct aug charges                                                         
   LPAW   =        T    paw PP                                                                      
   EAUG   =  535.514                                                                                
   DEXC   =    0.000                                                                                
   RMAX   =    1.732    core radius for proj-oper                                                   
   RAUG   =    1.300    factor for augmentation sphere                                              
   RDEP   =    1.757    radius for radial grids                                                     
   RDEPT  =    1.436    core radius for aug-charge                                                  
                                                                                                    
   Atomic configuration                                                                             
    4 entries                                                                                       
     n  l   j            E        occ.                                                              
     1  0  0.50      -180.5896   2.0000                                                             
     2  0  0.50        -9.4431   2.0000                                                             
     2  1  0.50        -3.6068   1.0000                                                             
     3  2  1.50        -4.0817   0.0000                                                             
   Description                                                                                      
     l       E           TYP  RCUT    TYP  RCUT                                                     
     0     -9.4430752     23  1.500                                                                 
     0      0.8675899     23  1.500                                                                 
     1     -3.6067955     23  1.700                                                                 
     1      6.1086146     23  1.700                                                                 
     2     -4.0817478      7  1.700                                                                 
  local pseudopotential read in
  partial core-charges read in
  partial kinetic energy density read in
  atomic valenz-charges read in
  non local Contribution for L=           0  read in
    real space projection operators read in
  non local Contribution for L=           0  read in
    real space projection operators read in
  non local Contribution for L=           1  read in
    real space projection operators read in
  non local Contribution for L=           1  read in
    real space projection operators read in
    PAW grid and wavefunctions read in
 
   number of l-projection  operators is LMAX  =           4
   number of lm-projection operators is LMMAX =           8
 
  PAW_PBE B 06Sep2000                   :
 energy of atom  1       EATOM=  -71.1703
 kinetic energy error for atom=    0.0015 (will be added to EATOM!!)
 
 
 POSCAR: o-B14
  positions in direct lattice
  No initial velocities read in


 exchange-correlation table for PE
   RHO(1)=    0.500       N(1)  =     2000
   RHO(2)=  100.500       N(2)  =     4000
 


--------------------------------------------------------------------------------------------------------


 ion  position               nearest neighbor table
   1  0.521  0.500  0.638-  14 1.64   5 1.69  13 1.70   2 1.73   9 1.85  11 1.85
   2  0.479  0.500  0.362-  13 1.64   6 1.69  14 1.70   1 1.73  10 1.85  12 1.85
   3  0.979  0.500  0.638-  14 1.64   7 1.69  13 1.70   4 1.73   9 1.85  11 1.85
   4  0.021  0.500  0.362-  13 1.64   8 1.69  14 1.70   3 1.73  10 1.85  12 1.85
   5  0.601  0.500  0.900-   1 1.69   6 1.69   7 1.70   9 1.80  11 1.80
   6  0.399  0.500  0.100-   2 1.69   5 1.69   8 1.70  10 1.80  12 1.80
   7  0.899  0.500  0.900-   3 1.69   8 1.69   5 1.70   9 1.80  11 1.80
   8  0.101  0.500  0.100-   4 1.69   7 1.69   6 1.70  10 1.80  12 1.80
   9  0.750  0.792  0.730-  11 1.69   7 1.80   5 1.80   3 1.85   1 1.85  14 1.97
  10  0.250  0.208  0.270-  12 1.69   8 1.80   6 1.80   4 1.85   2 1.85  13 1.97
  11  0.750  0.208  0.730-   9 1.69   7 1.80   5 1.80   3 1.85   1 1.85  14 1.97
  12  0.250  0.792  0.270-  10 1.69   8 1.80   6 1.80   4 1.85   2 1.85  13 1.97
  13  0.250  0.500  0.524-   2 1.64   4 1.64   3 1.70   1 1.70  10 1.97  12 1.97
  14  0.750  0.500  0.476-   1 1.64   3 1.64   2 1.70   4 1.70   9 1.97  11 1.97
 
  LATTYP: Found a simple orthorhombic cell.
 ALAT       =     4.0479000000
 B/A-ratio  =     1.4073964278
 C/A-ratio  =     1.5326959658
  
  Lattice vectors:
  
 A1 = (   0.0000000000,  -4.0479000000,   0.0000000000)
 A2 = (   5.6970000000,   0.0000000000,   0.0000000000)
 A3 = (   0.0000000000,   0.0000000000,   6.2042000000)


Analysis of symmetry for initial positions (statically):
=====================================================================
 Subroutine PRICEL returns:
 Original cell was already a primitive cell.
 

 Routine SETGRP: Setting up the symmetry group for a 
 simple orthorhombic supercell.


 Subroutine GETGRP returns: Found  8 space group operations
 (whereof  4 operations were pure point group operations)
 out of a pool of  8 trial point group operations.


The static configuration has the point symmetry C_2h.
 The point group associated with its full space group is D_2h.


Analysis of symmetry for dynamics (positions and initial velocities):
=====================================================================
 Subroutine PRICEL returns:
 Original cell was already a primitive cell.
 

 Routine SETGRP: Setting up the symmetry group for a 
 simple orthorhombic supercell.


 Subroutine GETGRP returns: Found  8 space group operations
 (whereof  4 operations were pure point group operations)
 out of a pool of  8 trial point group operations.


The dynamic configuration has the point symmetry C_2h.
 The point group associated with its full space group is D_2h.


 Subroutine INISYM returns: Found  8 space group operations
 (whereof  4 operations are pure point group operations),
 and found     1 'primitive' translations


----------------------------------------------------------------------------------------

                                     Primitive cell                                     

  volume of cell :     143.0744

  direct lattice vectors                    reciprocal lattice vectors
     5.697000000  0.000000000  0.000000000     0.175530981  0.000000000  0.000000000
     0.000000000  4.047900000  0.000000000     0.000000000  0.247041676  0.000000000
     0.000000000  0.000000000  6.204200000     0.000000000  0.000000000  0.161181135

  length of vectors
     5.697000000  4.047900000  6.204200000     0.175530981  0.247041676  0.161181135

  position of ions in fractional coordinates (direct lattice)
     0.521230000  0.500000000  0.637960000
     0.478770000  0.500000000  0.362040000
     0.978770000  0.500000000  0.637960000
     0.021230000  0.500000000  0.362040000
     0.600900000  0.500000000  0.899910000
     0.399100000  0.500000000  0.100090000
     0.899100000  0.500000000  0.899910000
     0.100900000  0.500000000  0.100090000
     0.750000000  0.791710000  0.729730000
     0.250000000  0.208290000  0.270270000
     0.750000000  0.208290000  0.729730000
     0.250000000  0.791710000  0.270270000
     0.250000000  0.500000000  0.523670000
     0.750000000  0.500000000  0.476330000

  ion indices of the primitive-cell ions
   primitive index   ion index
                 1           1
                 2           2
                 3           3
                 4           4
                 5           5
                 6           6
                 7           7
                 8           8
                 9           9
                10          10
                11          11
                12          12
                13          13
                14          14

----------------------------------------------------------------------------------------

 
 
 KPOINTS: k-points                                

Automatic generation of k-mesh.
 Grid dimensions read from file:
 generate k-points for:    5    7    5

 Generating k-lattice:

  Cartesian coordinates                     Fractional coordinates (reciprocal lattice)
     0.035106196  0.000000000  0.000000000     0.200000000  0.000000000  0.000000000
     0.000000000  0.035291668  0.000000000     0.000000000  0.142857143  0.000000000
     0.000000000  0.000000000  0.032236227     0.000000000  0.000000000  0.200000000

  Length of vectors
     0.035106196  0.035291668  0.032236227

  Shift w.r.t. Gamma in fractional coordinates (k-lattice)
     0.000000000  0.000000000  0.000000000

 
 Subroutine IBZKPT returns following result:
 ===========================================
 
 Found     36 irreducible k-points:
 
 Following reciprocal coordinates:
            Coordinates               Weight
  0.000000  0.000000  0.000000      1.000000
  0.200000  0.000000  0.000000      2.000000
  0.400000  0.000000  0.000000      2.000000
  0.000000  0.142857  0.000000      2.000000
  0.200000  0.142857  0.000000      4.000000
  0.400000  0.142857  0.000000      4.000000
  0.000000  0.285714  0.000000      2.000000
  0.200000  0.285714  0.000000      4.000000
  0.400000  0.285714  0.000000      4.000000
  0.000000  0.428571  0.000000      2.000000
  0.200000  0.428571  0.000000      4.000000
  0.400000  0.428571  0.000000      4.000000
  0.000000  0.000000  0.200000      2.000000
  0.200000  0.000000  0.200000      4.000000
  0.400000  0.000000  0.200000      4.000000
  0.000000  0.142857  0.200000      4.000000
  0.200000  0.142857  0.200000      8.000000
  0.400000  0.142857  0.200000      8.000000
  0.000000  0.285714  0.200000      4.000000
  0.200000  0.285714  0.200000      8.000000
  0.400000  0.285714  0.200000      8.000000
  0.000000  0.428571  0.200000      4.000000
  0.200000  0.428571  0.200000      8.000000
  0.400000  0.428571  0.200000      8.000000
  0.000000  0.000000  0.400000      2.000000
  0.200000  0.000000  0.400000      4.000000
  0.400000  0.000000  0.400000      4.000000
  0.000000  0.142857  0.400000      4.000000
  0.200000  0.142857  0.400000      8.000000
  0.400000  0.142857  0.400000      8.000000
  0.000000  0.285714  0.400000      4.000000
  0.200000  0.285714  0.400000      8.000000
  0.400000  0.285714  0.400000      8.000000
  0.000000  0.428571  0.400000      4.000000
  0.200000  0.428571  0.400000      8.000000
  0.400000  0.428571  0.400000      8.000000
 
 Following cartesian coordinates:
            Coordinates               Weight
  0.000000  0.000000  0.000000      1.000000
  0.035106  0.000000  0.000000      2.000000
  0.070212  0.000000  0.000000      2.000000
  0.000000  0.035292  0.000000      2.000000
  0.035106  0.035292  0.000000      4.000000
  0.070212  0.035292  0.000000      4.000000
  0.000000  0.070583  0.000000      2.000000
  0.035106  0.070583  0.000000      4.000000
  0.070212  0.070583  0.000000      4.000000
  0.000000  0.105875  0.000000      2.000000
  0.035106  0.105875  0.000000      4.000000
  0.070212  0.105875  0.000000      4.000000
  0.000000  0.000000  0.032236      2.000000
  0.035106  0.000000  0.032236      4.000000
  0.070212  0.000000  0.032236      4.000000
  0.000000  0.035292  0.032236      4.000000
  0.035106  0.035292  0.032236      8.000000
  0.070212  0.035292  0.032236      8.000000
  0.000000  0.070583  0.032236      4.000000
  0.035106  0.070583  0.032236      8.000000
  0.070212  0.070583  0.032236      8.000000
  0.000000  0.105875  0.032236      4.000000
  0.035106  0.105875  0.032236      8.000000
  0.070212  0.105875  0.032236      8.000000
  0.000000  0.000000  0.064472      2.000000
  0.035106  0.000000  0.064472      4.000000
  0.070212  0.000000  0.064472      4.000000
  0.000000  0.035292  0.064472      4.000000
  0.035106  0.035292  0.064472      8.000000
  0.070212  0.035292  0.064472      8.000000
  0.000000  0.070583  0.064472      4.000000
  0.035106  0.070583  0.064472      8.000000
  0.070212  0.070583  0.064472      8.000000
  0.000000  0.105875  0.064472      4.000000
  0.035106  0.105875  0.064472      8.000000
  0.070212  0.105875  0.064472      8.000000
 


--------------------------------------------------------------------------------------------------------




 Dimension of arrays:
   k-points           NKPTS =     36   k-points in BZ     NKDIM =     36   number of bands    NBANDS=     48
   number of dos      NEDOS =    301   number of ions     NIONS =     14
   non local maximal  LDIM  =      4   non local SUM 2l+1 LMDIM =      8
   total plane-waves  NPLWV =  53760
   max r-space proj   IRMAX =      1   max aug-charges    IRDMAX=   6058
   dimension x,y,z NGX =    40 NGY =   28 NGZ =   48
   dimension x,y,z NGXF=    80 NGYF=   56 NGZF=   96
   support grid    NGXF=    80 NGYF=   56 NGZF=   96
   ions per type =              14
   NGX,Y,Z   is equivalent  to a cutoff of  11.67, 11.50, 12.86 a.u.
   NGXF,Y,Z  is equivalent  to a cutoff of  23.35, 23.00, 25.72 a.u.

 SYSTEM =  Kpoints                                 
 POSCAR =  o-B14                                   

 Startparameter for this run:
   NWRITE =      2    write-flag & timer
   PREC   = accura    normal or accurate (medium, high low for compatibility)
   ISTART =      0    job   : 0-new  1-cont  2-samecut
   ICHARG =      2    charge: 1-file 2-atom 10-const
   ISPIN  =      1    spin polarized calculation?
   LNONCOLLINEAR =      F non collinear calculations
   LSORBIT =      F    spin-orbit coupling
   INIWAV =      1    electr: 0-lowe 1-rand  2-diag
   LASPH  =      F    aspherical Exc in radial PAW
 Electronic Relaxation 1
   ENCUT  =  450.0 eV  33.07 Ry    5.75 a.u.   9.85  7.00 10.73*2*pi/ulx,y,z
   ENINI  =  450.0     initial cutoff
   ENAUG  =  535.5 eV  augmentation charge cutoff
   NELM   =    100;   NELMIN=  2; NELMDL= -5     # of ELM steps 
   EDIFF  = 0.1E-05   stopping-criterion for ELM
   LREAL  =      F    real-space projection
   NLSPLINE    = F    spline interpolate recip. space projectors
   LCOMPAT=      F    compatible to vasp.4.4
   GGA_COMPAT  = T    GGA compatible to vasp.4.4-vasp.4.6
   LMAXPAW     = -100 max onsite density
   LMAXMIX     =    2 max onsite mixed and CHGCAR
   VOSKOWN=      0    Vosko Wilk Nusair interpolation
   ROPT   =    0.00000
 Ionic relaxation
   EDIFFG = -.1E-02   stopping-criterion for IOM
   NSW    =      0    number of steps for IOM
   NBLOCK =      1;   KBLOCK =      1    inner block; outer block 
   IBRION =     -1    ionic relax: 0-MD 1-quasi-New 2-CG
   NFREE  =      0    steps in history (QN), initial steepest desc. (CG)
   ISIF   =      2    stress and relaxation
   IWAVPR =     10    prediction:  0-non 1-charg 2-wave 3-comb
   ISYM   =      2    0-nonsym 1-usesym 2-fastsym
   LCORR  =      T    Harris-Foulkes like correction to forces

   POTIM  = 0.5000    time-step for ionic-motion
   TEIN   =    0.0    initial temperature
   TEBEG  =    0.0;   TEEND  =   0.0 temperature during run
   SMASS  =  -3.00    Nose mass-parameter (am)
   estimated Nose-frequenzy (Omega)   =  0.10E-29 period in steps = 0.13E+47 mass=  -0.742E-27a.u.
   SCALEE = 1.0000    scale energy and forces
   NPACO  =    256;   APACO  = 10.0  distance and # of slots for P.C.
   PSTRESS=    0.0 pullay stress

  Mass of Ions in am
   POMASS =  10.81
  Ionic Valenz
   ZVAL   =   3.00
  Atomic Wigner-Seitz radii
   RWIGS  =  -1.00
  virtual crystal weights 
   VCA    =   1.00
   NELECT =      42.0000    total number of electrons
   NUPDOWN=      -1.0000    fix difference up-down

 DOS related values:
   EMIN   =  10.00;   EMAX   =-10.00  energy-range for DOS
   EFERMI =   0.00;   METHOD = LEGACY      
   ISMEAR =     0;   SIGMA  =   0.05  broadening in eV -4-tet -1-fermi 0-gaus

 Electronic relaxation 2 (details)
   IALGO  =     38    algorithm
   LDIAG  =      T    sub-space diagonalisation (order eigenvalues)
   LSUBROT=      F    optimize rotation matrix (better conditioning)
   TURBO    =      0    0=normal 1=particle mesh
   IRESTART =      0    0=no restart 2=restart with 2 vectors
   NREBOOT  =      0    no. of reboots
   NMIN     =      0    reboot dimension
   EREF     =   0.00    reference energy to select bands
   IMIX   =      4    mixing-type and parameters
     AMIX     =   0.40;   BMIX     =  1.00
     AMIX_MAG =   1.60;   BMIX_MAG =  1.00
     AMIN     =   0.10
     WC   =   100.;   INIMIX=   1;  MIXPRE=   1;  MAXMIX= -45

 Intra band minimization:
   WEIMIN = 0.0000     energy-eigenvalue tresh-hold
   EBREAK =  0.52E-08  absolut break condition
   DEPER  =   0.30     relativ break condition  

   TIME   =   0.40     timestep for ELM

  volume/ion in A,a.u.               =      10.22        68.97
  Fermi-wavevector in a.u.,A,eV,Ry     =   1.088021  2.056062 16.106441  1.183790
  Thomas-Fermi vector in A             =   2.224193
 
 Write flags
   LWAVE        =      F    write WAVECAR
   LDOWNSAMPLE  =      F    k-point downsampling of WAVECAR
   LCHARG       =      F    write CHGCAR
   LVTOT        =      F    write LOCPOT, total local potential
   LVHAR        =      F    write LOCPOT, Hartree potential only
   WRT_POTENTIAL= false  ! write potential to hdf5 file
   LELF         =      F    write electronic localiz. function (ELF)
   LORBIT       =      0    0 simple, 1 ext, 2 COOP (PROOUT), +10 PAW based schemes


 Dipole corrections
   LMONO      =      F    monopole corrections only (constant potential shift)
   LDIPOL     =      F    correct potential (dipole corrections)
   IDIPOL     =      0    1-x, 2-y, 3-z, 4-all directions 
   EPSILON    =  1.0000000 bulk dielectric constant
   LVACPOTAV  =      F  vacuum potentials using an averaging scheme for the charge density
   VACPOTFLAT =  0.1000000 required flatness to determine vacuum potential
 Exchange correlation treatment:
   GGA     = PE    functional components
   XC_C    = 1    coefficients multiplying the functional components
   LIBXC   =     F    Libxc                    
   VOSKOWN =     0    Vosko Wilk Nusair interpolation
   LHFCALC =     F    Hartree Fock is set to
   LHFONE  =     F    Hartree Fock one center treatment
   AEXX    =    0.0000 exact exchange contribution

 Parameters of functionals:
   PE:
     No parameter
 
 Van der Waals corrections
   IVDW    =     0    specifies the selected vdW correction

 Linear response parameters
   LEPSILON=     F    determine dielectric tensor
   LRPA    =     F    only Hartree local field effects (RPA)
   LNABLA  =     F    use nabla operator in PAW spheres
   LVEL    =     F    velocity operator in full k-point grid
   CSHIFT  =0.1000    complex shift for real part using Kramers Kronig
   OMEGAMAX=  -1.0    maximum frequency
   DEG_THRESHOLD= 0.2000000E-02 threshold for treating states as degnerate
   RTIME   =   -0.100 relaxation time in fs
  (WPLASMAI=    0.000 imaginary part of plasma frequency in eV, 0.658/RTIME)
   DFIELD  = 0.0000000 0.0000000 0.0000000 field for delta impulse in time
 
  Optional k-point grid parameters
   LKPOINTS_OPT  =     F    use optional k-point grid
   KPOINTS_OPT_MODE=     1    mode for optional k-point grid
 
 Orbital magnetization related:
   ORBITALMAG=     F  switch on orbital magnetization
   LCHIMAG   =     F  perturbation theory with respect to B field
   DQ        =  0.001000  dq finite difference perturbation B field
   LLRAUG    =     F  two centre corrections for induced B field
   LBONE     =     F  B-component reconstruction in AE one-centre
   LVGVCALC  =     T  calculate vGv susceptibility
   LVGVAPPL  =     F  apply vGv susceptibility instead of pGv for G=0

 Random number generation:
   RANDOM_GENERATOR = DEFAULT
   PCG_SEED         = not used


--------------------------------------------------------------------------------------------------------


 Static calculation
 charge density and potential will be updated during run
 non-spin polarized calculation
 Variant of blocked Davidson
 Davidson routine will perform the subspace rotation
 perform sub-space diagonalisation
    after iterative eigenvector-optimisation
 modified Broyden-mixing scheme, WC =      100.0
 initial mixing is a Kerker type mixing with AMIX =  0.4000 and BMIX =      1.0000
 Hartree-type preconditioning will be used
 using additional bands           27
 reciprocal scheme for non local part
 use partial core corrections
 calculate Harris-corrections to forces 
   (improved forces if not selfconsistent)
 use gradient corrections 
 use of overlap-Matrix (Vanderbilt PP)
 Gauss-broadening in eV      SIGMA  =   0.05


--------------------------------------------------------------------------------------------------------


  energy-cutoff  :      450.00
  volume of cell :      143.07
      direct lattice vectors                 reciprocal lattice vectors
     5.697000000  0.000000000  0.000000000     0.175530981  0.000000000  0.000000000
     0.000000000  4.047900000  0.000000000     0.000000000  0.247041676  0.000000000
     0.000000000  0.000000000  6.204200000     0.000000000  0.000000000  0.161181135

  length of vectors
     5.697000000  4.047900000  6.204200000     0.175530981  0.247041676  0.161181135


 
 k-points in units of 2pi/SCALE and weight: k-points                                
   0.00000000  0.00000000  0.00000000       0.006
   0.03510620  0.00000000  0.00000000       0.011
   0.07021239  0.00000000  0.00000000       0.011
   0.00000000  0.03529167  0.00000000       0.011
   0.03510620  0.03529167  0.00000000       0.023
   0.07021239  0.03529167  0.00000000       0.023
   0.00000000  0.07058334  0.00000000       0.011
   0.03510620  0.07058334  0.00000000       0.023
   0.07021239  0.07058334  0.00000000       0.023
   0.00000000  0.10587500  0.00000000       0.011
   0.03510620  0.10587500  0.00000000       0.023
   0.07021239  0.10587500  0.00000000       0.023
   0.00000000  0.00000000  0.03223623       0.011
   0.03510620  0.00000000  0.03223623       0.023
   0.07021239  0.00000000  0.03223623       0.023
   0.00000000  0.03529167  0.03223623       0.023
   0.03510620  0.03529167  0.03223623       0.046
   0.07021239  0.03529167  0.03223623       0.046
   0.00000000  0.07058334  0.03223623       0.023
   0.03510620  0.07058334  0.03223623       0.046
   0.07021239  0.07058334  0.03223623       0.046
   0.00000000  0.10587500  0.03223623       0.023
   0.03510620  0.10587500  0.03223623       0.046
   0.07021239  0.10587500  0.03223623       0.046
   0.00000000  0.00000000  0.06447245       0.011
   0.03510620  0.00000000  0.06447245       0.023
   0.07021239  0.00000000  0.06447245       0.023
   0.00000000  0.03529167  0.06447245       0.023
   0.03510620  0.03529167  0.06447245       0.046
   0.07021239  0.03529167  0.06447245       0.046
   0.00000000  0.07058334  0.06447245       0.023
   0.03510620  0.07058334  0.06447245       0.046
   0.07021239  0.07058334  0.06447245       0.046
   0.00000000  0.10587500  0.06447245       0.023
   0.03510620  0.10587500  0.06447245       0.046
   0.07021239  0.10587500  0.06447245       0.046
 
 k-points in reciprocal lattice and weights: k-points                                
   0.00000000  0.00000000  0.00000000       0.006
   0.20000000  0.00000000  0.00000000       0.011
   0.40000000  0.00000000  0.00000000       0.011
   0.00000000  0.14285714  0.00000000       0.011
   0.20000000  0.14285714  0.00000000       0.023
   0.40000000  0.14285714  0.00000000       0.023
   0.00000000  0.28571429  0.00000000       0.011
   0.20000000  0.28571429  0.00000000       0.023
   0.40000000  0.28571429  0.00000000       0.023
   0.00000000  0.42857143  0.00000000       0.011
   0.20000000  0.42857143  0.00000000       0.023
   0.40000000  0.42857143  0.00000000       0.023
   0.00000000  0.00000000  0.20000000       0.011
   0.20000000  0.00000000  0.20000000       0.023
   0.40000000  0.00000000  0.20000000       0.023
   0.00000000  0.14285714  0.20000000       0.023
   0.20000000  0.14285714  0.20000000       0.046
   0.40000000  0.14285714  0.20000000       0.046
   0.00000000  0.28571429  0.20000000       0.023
   0.20000000  0.28571429  0.20000000       0.046
   0.40000000  0.28571429  0.20000000       0.046
   0.00000000  0.42857143  0.20000000       0.023
   0.20000000  0.42857143  0.20000000       0.046
   0.40000000  0.42857143  0.20000000       0.046
   0.00000000  0.00000000  0.40000000       0.011
   0.20000000  0.00000000  0.40000000       0.023
   0.40000000  0.00000000  0.40000000       0.023
   0.00000000  0.14285714  0.40000000       0.023
   0.20000000  0.14285714  0.40000000       0.046
   0.40000000  0.14285714  0.40000000       0.046
   0.00000000  0.28571429  0.40000000       0.023
   0.20000000  0.28571429  0.40000000       0.046
   0.40000000  0.28571429  0.40000000       0.046
   0.00000000  0.42857143  0.40000000       0.023
   0.20000000  0.42857143  0.40000000       0.046
   0.40000000  0.42857143  0.40000000       0.046
 
 position of ions in fractional coordinates (direct lattice) 
   0.52123000  0.50000000  0.63796000
   0.47877000  0.50000000  0.36204000
   0.97877000  0.50000000  0.63796000
   0.02123000  0.50000000  0.36204000
   0.60090000  0.50000000  0.89991000
   0.39910000  0.50000000  0.10009000
   0.89910000  0.50000000  0.89991000
   0.10090000  0.50000000  0.10009000
   0.75000000  0.79171000  0.72973000
   0.25000000  0.20829000  0.27027000
   0.75000000  0.20829000  0.72973000
   0.25000000  0.79171000  0.27027000
   0.25000000  0.50000000  0.52367000
   0.75000000  0.50000000  0.47633000
 
 position of ions in cartesian coordinates  (Angst):
   2.96944731  2.02395000  3.95803143
   2.72755269  2.02395000  2.24616857
   5.57605269  2.02395000  3.95803143
   0.12094731  2.02395000  2.24616857
   3.42332730  2.02395000  5.58322162
   2.27367270  2.02395000  0.62097838
   5.12217270  2.02395000  5.58322162
   0.57482730  2.02395000  0.62097838
   4.27275000  3.20476291  4.52739087
   1.42425000  0.84313709  1.67680913
   4.27275000  0.84313709  4.52739087
   1.42425000  3.20476291  1.67680913
   1.42425000  2.02395000  3.24895341
   4.27275000  2.02395000  2.95524659
 


--------------------------------------------------------------------------------------------------------


 k-point     1 :   0.0000 0.0000 0.0000  plane waves:    3097
 k-point     2 :   0.2000 0.0000 0.0000  plane waves:    3092
 k-point     3 :   0.4000 0.0000 0.0000  plane waves:    3086
 k-point     4 :   0.0000 0.1429 0.0000  plane waves:    3104
 k-point     5 :   0.2000 0.1429 0.0000  plane waves:    3088
 k-point     6 :   0.4000 0.1429 0.0000  plane waves:    3103
 k-point     7 :   0.0000 0.2857 0.0000  plane waves:    3108
 k-point     8 :   0.2000 0.2857 0.0000  plane waves:    3111
 k-point     9 :   0.4000 0.2857 0.0000  plane waves:    3096
 k-point    10 :   0.0000 0.4286 0.0000  plane waves:    3116
 k-point    11 :   0.2000 0.4286 0.0000  plane waves:    3113
 k-point    12 :   0.4000 0.4286 0.0000  plane waves:    3114
 k-point    13 :   0.0000 0.0000 0.2000  plane waves:    3069
 k-point    14 :   0.2000 0.0000 0.2000  plane waves:    3075
 k-point    15 :   0.4000 0.0000 0.2000  plane waves:    3102
 k-point    16 :   0.0000 0.1429 0.2000  plane waves:    3092
 k-point    17 :   0.2000 0.1429 0.2000  plane waves:    3091
 k-point    18 :   0.4000 0.1429 0.2000  plane waves:    3104
 k-point    19 :   0.0000 0.2857 0.2000  plane waves:    3112
 k-point    20 :   0.2000 0.2857 0.2000  plane waves:    3106
 k-point    21 :   0.4000 0.2857 0.2000  plane waves:    3101
 k-point    22 :   0.0000 0.4286 0.2000  plane waves:    3113
 k-point    23 :   0.2000 0.4286 0.2000  plane waves:    3106
 k-point    24 :   0.4000 0.4286 0.2000  plane waves:    3100
 k-point    25 :   0.0000 0.0000 0.4000  plane waves:    3072
 k-point    26 :   0.2000 0.0000 0.4000  plane waves:    3083
 k-point    27 :   0.4000 0.0000 0.4000  plane waves:    3086
 k-point    28 :   0.0000 0.1429 0.4000  plane waves:    3082
 k-point    29 :   0.2000 0.1429 0.4000  plane waves:    3102
 k-point    30 :   0.4000 0.1429 0.4000  plane waves:    3100
 k-point    31 :   0.0000 0.2857 0.4000  plane waves:    3116
 k-point    32 :   0.2000 0.2857 0.4000  plane waves:    3100
 k-point    33 :   0.4000 0.2857 0.4000  plane waves:    3111
 k-point    34 :   0.0000 0.4286 0.4000  plane waves:    3115
 k-point    35 :   0.2000 0.4286 0.4000  plane waves:    3110
 k-point    36 :   0.4000 0.4286 0.4000  plane waves:    3101

 maximum and minimum number of plane-waves per node :      3116     3069

 maximum number of plane-waves:      3116
 maximum index in each direction: 
   IXMAX=    9   IYMAX=    7   IZMAX=   10
   IXMIN=  -10   IYMIN=   -7   IZMIN=  -11


 serial   3D FFT for wavefunctions
 parallel 3D FFT for charge:
    minimum data exchange during FFTs selected (reduces bandwidth)


 total amount of memory used by VASP MPI-rank0    45806. kBytes
=======================================================================

   base      :      30000. kBytes
   nonl-proj :       7887. kBytes
   fftplans  :        930. kBytes
   grid      :       3214. kBytes
   one-center:         43. kBytes
   wavefun   :       3732. kBytes
 
     INWAV:  cpu time      0.0000: real time      0.0000
 Broyden mixing: mesh for mixing (old mesh)
   NGX = 19   NGY = 15   NGZ = 21
  (NGX  = 80   NGY  = 56   NGZ  = 96)
  gives a total of   5985 points

 initial charge density was supplied:
 charge density of overlapping atoms calculated
 number of electron      42.0000000 magnetization 
 keeping initial charge density in first step


--------------------------------------------------------------------------------------------------------


 Maximum index for augmentation-charges          646 (set IRDMAX)


--------------------------------------------------------------------------------------------------------


 First call to EWALD:  gamma=   0.339
 Maximum number of real-space cells 3x 3x 2
 Maximum number of reciprocal cells 3x 2x 3

    FEWALD:  cpu time      0.0027: real time      0.0029


--------------------------------------- Ionic step        1  -------------------------------------------




--------------------------------------- Iteration      1(   1)  ---------------------------------------


    POTLOK:  cpu time      0.0192: real time      0.0217
    SETDIJ:  cpu time      0.0014: real time      0.0016
     EDDAV:  cpu time      0.9323: real time      1.0165
       DOS:  cpu time      0.0009: real time      0.0009
    --------------------------------------------
      LOOP:  cpu time      0.9539: real time      1.0407

 eigenvalue-minimisations  :  3456
 total energy-change (2. order) : 0.4680335E+02  (-0.1695985E+04)
 number of electron      42.0000000 magnetization 
 augmentation part       42.0000000 magnetization 

 Free energy of the ion-electron system (eV)
  ---------------------------------------------------
  alpha Z        PSCENC =        94.24357992
  Ewald energy   TEWEN  =      -795.76658092
  -Hartree energ DENC   =      -271.33601302
  -exchange      EXHF   =         0.00000000
  -V(xc)+E(xc)   XCENC  =        97.50108175
  PAW double counting   =       608.99811708     -597.02363782
  entropy T*S    EENTRO =        -0.00180108
  eigenvalues    EBANDS =       -86.17480074
  atomic energy  EATOM  =       996.36340036
  Solvation  Ediel_sol  =         0.00000000
  ---------------------------------------------------
  free energy    TOTEN  =        46.80334553 eV

  energy without entropy =       46.80514661  energy(sigma->0) =       46.80424607


--------------------------------------------------------------------------------------------------------




--------------------------------------- Iteration      1(   2)  ---------------------------------------


     EDDAV:  cpu time      1.2013: real time      1.2127
       DOS:  cpu time      0.0004: real time      0.0004
    --------------------------------------------
      LOOP:  cpu time      1.2017: real time      1.2132

 eigenvalue-minimisations  :  4824
 total energy-change (2. order) :-0.1401057E+03  (-0.1323429E+03)
 number of electron      42.0000000 magnetization 
 augmentation part       42.0000000 magnetization 

 Free energy of the ion-electron system (eV)
  ---------------------------------------------------
  alpha Z        PSCENC =        94.24357992
  Ewald energy   TEWEN  =      -795.76658092
  -Hartree energ DENC   =      -271.33601302
  -exchange      EXHF   =         0.00000000
  -V(xc)+E(xc)   XCENC  =        97.50108175
  PAW double counting   =       608.99811708     -597.02363782
  entropy T*S    EENTRO =        -0.00550548
  eigenvalues    EBANDS =      -226.27678952
  atomic energy  EATOM  =       996.36340036
  Solvation  Ediel_sol  =         0.00000000
  ---------------------------------------------------
  free energy    TOTEN  =       -93.30234765 eV

  energy without entropy =      -93.29684217  energy(sigma->0) =      -93.29959491


--------------------------------------------------------------------------------------------------------




--------------------------------------- Iteration      1(   3)  ---------------------------------------


     EDDAV:  cpu time      1.2404: real time      1.2517
       DOS:  cpu time      0.0005: real time      0.0005
    --------------------------------------------
      LOOP:  cpu time      1.2408: real time      1.2521

 eigenvalue-minimisations  :  4968
 total energy-change (2. order) :-0.4310302E+01  (-0.4288149E+01)
 number of electron      42.0000000 magnetization 
 augmentation part       42.0000000 magnetization 

 Free energy of the ion-electron system (eV)
  ---------------------------------------------------
  alpha Z        PSCENC =        94.24357992
  Ewald energy   TEWEN  =      -795.76658092
  -Hartree energ DENC   =      -271.33601302
  -exchange      EXHF   =         0.00000000
  -V(xc)+E(xc)   XCENC  =        97.50108175
  PAW double counting   =       608.99811708     -597.02363782
  entropy T*S    EENTRO =        -0.00500976
  eigenvalues    EBANDS =      -230.58758700
  atomic energy  EATOM  =       996.36340036
  Solvation  Ediel_sol  =         0.00000000
  ---------------------------------------------------
  free energy    TOTEN  =       -97.61264940 eV

  energy without entropy =      -97.60763965  energy(sigma->0) =      -97.61014453


--------------------------------------------------------------------------------------------------------




--------------------------------------- Iteration      1(   4)  ---------------------------------------


     EDDAV:  cpu time      1.0963: real time      1.1096
       DOS:  cpu time      0.0003: real time      0.0003
    --------------------------------------------
      LOOP:  cpu time      1.0966: real time      1.1100

 eigenvalue-minimisations  :  4464
 total energy-change (2. order) :-0.2486878E-01  (-0.2486742E-01)
 number of electron      42.0000000 magnetization 
 augmentation part       42.0000000 magnetization 

 Free energy of the ion-electron system (eV)
  ---------------------------------------------------
  alpha Z        PSCENC =        94.24357992
  Ewald energy   TEWEN  =      -795.76658092
  -Hartree energ DENC   =      -271.33601302
  -exchange      EXHF   =         0.00000000
  -V(xc)+E(xc)   XCENC  =        97.50108175
  PAW double counting   =       608.99811708     -597.02363782
  entropy T*S    EENTRO =        -0.00500962
  eigenvalues    EBANDS =      -230.61245592
  atomic energy  EATOM  =       996.36340036
  Solvation  Ediel_sol  =         0.00000000
  ---------------------------------------------------
  free energy    TOTEN  =       -97.63751819 eV

  energy without entropy =      -97.63250857  energy(sigma->0) =      -97.63501338


--------------------------------------------------------------------------------------------------------




--------------------------------------- Iteration      1(   5)  ---------------------------------------


     EDDAV:  cpu time      1.2140: real time      1.2243
       DOS:  cpu time      0.0004: real time      0.0004
    CHARGE:  cpu time      0.0207: real time      0.0212
    MIXING:  cpu time      0.0012: real time      0.0012
    --------------------------------------------
      LOOP:  cpu time      1.2363: real time      1.2471

 eigenvalue-minimisations  :  4944
 total energy-change (2. order) :-0.2881188E-03  (-0.2881124E-03)
 number of electron      42.0000002 magnetization 
 augmentation part       -0.1232205 magnetization 

 Broyden mixing:
  rms(total) = 0.12355E+01    rms(broyden)= 0.12354E+01
  rms(prec ) = 0.22730E+01
  weight for this iteration     100.00

 Free energy of the ion-electron system (eV)
  ---------------------------------------------------
  alpha Z        PSCENC =        94.24357992
  Ewald energy   TEWEN  =      -795.76658092
  -Hartree energ DENC   =      -271.33601302
  -exchange      EXHF   =         0.00000000
  -V(xc)+E(xc)   XCENC  =        97.50108175
  PAW double counting   =       608.99811708     -597.02363782
  entropy T*S    EENTRO =        -0.00500964
  eigenvalues    EBANDS =      -230.61274401
  atomic energy  EATOM  =       996.36340036
  Solvation  Ediel_sol  =         0.00000000
  ---------------------------------------------------
  free energy    TOTEN  =       -97.63780630 eV

  energy without entropy =      -97.63279666  energy(sigma->0) =      -97.63530148


--------------------------------------------------------------------------------------------------------




--------------------------------------- Iteration      1(   6)  ---------------------------------------


    POTLOK:  cpu time      0.0090: real time      0.0099
    SETDIJ:  cpu time      0.0013: real time      0.0013
     EDDAV:  cpu time      1.2153: real time      1.2237
       DOS:  cpu time      0.0004: real time      0.0004
    CHARGE:  cpu time      0.0301: real time      0.0342
    MIXING:  cpu time      0.0007: real time      0.0007
    --------------------------------------------
      LOOP:  cpu time      1.2567: real time      1.2702

 eigenvalue-minimisations  :  4968
 total energy-change (2. order) : 0.5427124E+01  (-0.3934570E+00)
 number of electron      42.0000002 magnetization 
 augmentation part       -0.1494857 magnetization 

 Broyden mixing:
  rms(total) = 0.67297E+00    rms(broyden)= 0.67297E+00
  rms(prec ) = 0.11570E+01
  weight for this iteration     100.00

 eigenvalues of (default mixing * dielectric matrix)
  average eigenvalue GAMMA=   2.0291
  2.0291

 Free energy of the ion-electron system (eV)
  ---------------------------------------------------
  alpha Z        PSCENC =        94.24357992
  Ewald energy   TEWEN  =      -795.76658092
  -Hartree energ DENC   =      -306.25510740
  -exchange      EXHF   =         0.00000000
  -V(xc)+E(xc)   XCENC  =        99.13864071
  PAW double counting   =      1501.42060439    -1490.07189583
  entropy T*S    EENTRO =        -0.00515964
  eigenvalues    EBANDS =      -191.27816354
  atomic energy  EATOM  =       996.36340036
  Solvation  Ediel_sol  =         0.00000000
  ---------------------------------------------------
  free energy    TOTEN  =       -92.21068195 eV

  energy without entropy =      -92.20552231  energy(sigma->0) =      -92.20810213


--------------------------------------------------------------------------------------------------------




--------------------------------------- Iteration      1(   7)  ---------------------------------------


    POTLOK:  cpu time      0.0088: real time      0.0101
    SETDIJ:  cpu time      0.0011: real time      0.0012
     EDDAV:  cpu time      1.2319: real time      1.2496
       DOS:  cpu time      0.0003: real time      0.0003
    CHARGE:  cpu time      0.0204: real time      0.0209
    MIXING:  cpu time      0.0007: real time      0.0007
    --------------------------------------------
      LOOP:  cpu time      1.2634: real time      1.2829

 eigenvalue-minimisations  :  5088
 total energy-change (2. order) : 0.1624461E+01  (-0.3147335E+00)
 number of electron      42.0000002 magnetization 
 augmentation part       -0.1688065 magnetization 

 Broyden mixing:
  rms(total) = 0.17558E+00    rms(broyden)= 0.17557E+00
  rms(prec ) = 0.25557E+00
  weight for this iteration     100.00

 eigenvalues of (default mixing * dielectric matrix)
  average eigenvalue GAMMA=   1.8575
  1.4398  2.2753

 Free energy of the ion-electron system (eV)
  ---------------------------------------------------
  alpha Z        PSCENC =        94.24357992
  Ewald energy   TEWEN  =      -795.76658092
  -Hartree energ DENC   =      -342.11498672
  -exchange      EXHF   =         0.00000000
  -V(xc)+E(xc)   XCENC  =       101.03592514
  PAW double counting   =      3035.33752714    -3024.53607994
  entropy T*S    EENTRO =        -0.00297746
  eigenvalues    EBANDS =      -155.14602889
  atomic energy  EATOM  =       996.36340036
  Solvation  Ediel_sol  =         0.00000000
  ---------------------------------------------------
  free energy    TOTEN  =       -90.58622137 eV

  energy without entropy =      -90.58324391  energy(sigma->0) =      -90.58473264


--------------------------------------------------------------------------------------------------------




--------------------------------------- Iteration      1(   8)  ---------------------------------------


    POTLOK:  cpu time      0.0083: real time      0.0094
    SETDIJ:  cpu time      0.0011: real time      0.0011
     EDDAV:  cpu time      0.9481: real time      0.9555
       DOS:  cpu time      0.0005: real time      0.0005
    CHARGE:  cpu time      0.0197: real time      0.0206
    MIXING:  cpu time      0.0006: real time      0.0006
    --------------------------------------------
      LOOP:  cpu time      0.9783: real time      0.9877

 eigenvalue-minimisations  :  3768
 total energy-change (2. order) :-0.8739920E-02  (-0.2287045E-01)
 number of electron      42.0000002 magnetization 
 augmentation part       -0.1749057 magnetization 

 Broyden mixing:
  rms(total) = 0.73941E-01    rms(broyden)= 0.73940E-01
  rms(prec ) = 0.11028E+00
  weight for this iteration     100.00

 eigenvalues of (default mixing * dielectric matrix)
  average eigenvalue GAMMA=   1.7517
  1.0113  1.8303  2.4134

 Free energy of the ion-electron system (eV)
  ---------------------------------------------------
  alpha Z        PSCENC =        94.24357992
  Ewald energy   TEWEN  =      -795.76658092
  -Hartree energ DENC   =      -346.14314295
  -exchange      EXHF   =         0.00000000
  -V(xc)+E(xc)   XCENC  =       101.35100136
  PAW double counting   =      3479.13366659    -3468.35973212
  entropy T*S    EENTRO =        -0.00286038
  eigenvalues    EBANDS =      -151.41429315
  atomic energy  EATOM  =       996.36340036
  Solvation  Ediel_sol  =         0.00000000
  ---------------------------------------------------
  free energy    TOTEN  =       -90.59496129 eV

  energy without entropy =      -90.59210090  energy(sigma->0) =      -90.59353109


--------------------------------------------------------------------------------------------------------




--------------------------------------- Iteration      1(   9)  ---------------------------------------


    POTLOK:  cpu time      0.0088: real time      0.0097
    SETDIJ:  cpu time      0.0012: real time      0.0012
     EDDAV:  cpu time      1.1929: real time      1.2024
       DOS:  cpu time      0.0004: real time      0.0004
    CHARGE:  cpu time      0.0188: real time      0.0196
    MIXING:  cpu time      0.0006: real time      0.0006
    --------------------------------------------
      LOOP:  cpu time      1.2227: real time      1.2339

 eigenvalue-minimisations  :  4800
 total energy-change (2. order) :-0.1438841E-01  (-0.1678818E-02)
 number of electron      42.0000002 magnetization 
 augmentation part       -0.1745896 magnetization 

 Broyden mixing:
  rms(total) = 0.20172E-01    rms(broyden)= 0.20172E-01
  rms(prec ) = 0.35841E-01
  weight for this iteration     100.00

 eigenvalues of (default mixing * dielectric matrix)
  average eigenvalue GAMMA=   1.6806
  2.4016  2.0394  1.0784  1.2031

 Free energy of the ion-electron system (eV)
  ---------------------------------------------------
  alpha Z        PSCENC =        94.24357992
  Ewald energy   TEWEN  =      -795.76658092
  -Hartree energ DENC   =      -348.07001634
  -exchange      EXHF   =         0.00000000
  -V(xc)+E(xc)   XCENC  =       101.51528512
  PAW double counting   =      3709.32046004    -3698.53362935
  entropy T*S    EENTRO =        -0.00288117
  eigenvalues    EBANDS =      -149.67896735
  atomic energy  EATOM  =       996.36340036
  Solvation  Ediel_sol  =         0.00000000
  ---------------------------------------------------
  free energy    TOTEN  =       -90.60934969 eV

  energy without entropy =      -90.60646852  energy(sigma->0) =      -90.60790911


--------------------------------------------------------------------------------------------------------




--------------------------------------- Iteration      1(  10)  ---------------------------------------


    POTLOK:  cpu time      0.0083: real time      0.0095
    SETDIJ:  cpu time      0.0011: real time      0.0011
     EDDAV:  cpu time      0.9694: real time      0.9755
       DOS:  cpu time      0.0004: real time      0.0004
    CHARGE:  cpu time      0.0180: real time      0.0183
    MIXING:  cpu time      0.0007: real time      0.0007
    --------------------------------------------
      LOOP:  cpu time      0.9979: real time      1.0055

 eigenvalue-minimisations  :  3816
 total energy-change (2. order) :-0.4246996E-02  (-0.2396921E-03)
 number of electron      42.0000002 magnetization 
 augmentation part       -0.1740468 magnetization 

 Broyden mixing:
  rms(total) = 0.64238E-02    rms(broyden)= 0.64237E-02
  rms(prec ) = 0.12986E-01
  weight for this iteration     100.00

 eigenvalues of (default mixing * dielectric matrix)
  average eigenvalue GAMMA=   1.7325
  2.5679  2.4009  1.0349  1.1237  1.5351

 Free energy of the ion-electron system (eV)
  ---------------------------------------------------
  alpha Z        PSCENC =        94.24357992
  Ewald energy   TEWEN  =      -795.76658092
  -Hartree energ DENC   =      -348.52770278
  -exchange      EXHF   =         0.00000000
  -V(xc)+E(xc)   XCENC  =       101.54661444
  PAW double counting   =      3723.20725577    -3712.40483496
  entropy T*S    EENTRO =        -0.00289386
  eigenvalues    EBANDS =      -149.27243464
  atomic energy  EATOM  =       996.36340036
  Solvation  Ediel_sol  =         0.00000000
  ---------------------------------------------------
  free energy    TOTEN  =       -90.61359669 eV

  energy without entropy =      -90.61070283  energy(sigma->0) =      -90.61214976


--------------------------------------------------------------------------------------------------------




--------------------------------------- Iteration      1(  11)  ---------------------------------------


    POTLOK:  cpu time      0.0086: real time      0.0095
    SETDIJ:  cpu time      0.0011: real time      0.0011
     EDDAV:  cpu time      1.0837: real time      1.0911
       DOS:  cpu time      0.0004: real time      0.0004
    CHARGE:  cpu time      0.0186: real time      0.0187
    MIXING:  cpu time      0.0006: real time      0.0006
    --------------------------------------------
      LOOP:  cpu time      1.1129: real time      1.1213

 eigenvalue-minimisations  :  4416
 total energy-change (2. order) :-0.1153821E-02  (-0.7153613E-04)
 number of electron      42.0000002 magnetization 
 augmentation part       -0.1739485 magnetization 

 Broyden mixing:
  rms(total) = 0.32222E-02    rms(broyden)= 0.32222E-02
  rms(prec ) = 0.44261E-02
  weight for this iteration     100.00

 eigenvalues of (default mixing * dielectric matrix)
  average eigenvalue GAMMA=   1.8462
  3.0186  2.5000  1.9619  1.5335  1.0203  1.0427

 Free energy of the ion-electron system (eV)
  ---------------------------------------------------
  alpha Z        PSCENC =        94.24357992
  Ewald energy   TEWEN  =      -795.76658092
  -Hartree energ DENC   =      -348.87759467
  -exchange      EXHF   =         0.00000000
  -V(xc)+E(xc)   XCENC  =       101.57112317
  PAW double counting   =      3726.00234082    -3715.19410263
  entropy T*S    EENTRO =        -0.00289148
  eigenvalues    EBANDS =      -148.95402508
  atomic energy  EATOM  =       996.36340036
  Solvation  Ediel_sol  =         0.00000000
  ---------------------------------------------------
  free energy    TOTEN  =       -90.61475051 eV

  energy without entropy =      -90.61185903  energy(sigma->0) =      -90.61330477


--------------------------------------------------------------------------------------------------------




--------------------------------------- Iteration      1(  12)  ---------------------------------------


    POTLOK:  cpu time      0.0084: real time      0.0093
    SETDIJ:  cpu time      0.0057: real time      0.0060
     EDDAV:  cpu time      1.0900: real time      1.0968
       DOS:  cpu time      0.0004: real time      0.0004
    CHARGE:  cpu time      0.0187: real time      0.0187
    MIXING:  cpu time      0.0007: real time      0.0006
    --------------------------------------------
      LOOP:  cpu time      1.1238: real time      1.1319

 eigenvalue-minimisations  :  4416
 total energy-change (2. order) :-0.8902054E-04  (-0.7720239E-05)
 number of electron      42.0000002 magnetization 
 augmentation part       -0.1739963 magnetization 

 Broyden mixing:
  rms(total) = 0.38914E-03    rms(broyden)= 0.38912E-03
  rms(prec ) = 0.65953E-03
  weight for this iteration     100.00

 eigenvalues of (default mixing * dielectric matrix)
  average eigenvalue GAMMA=   1.8052
  3.2333  2.5063  1.9426  0.9995  1.0720  1.5475  1.3356

 Free energy of the ion-electron system (eV)
  ---------------------------------------------------
  alpha Z        PSCENC =        94.24357992
  Ewald energy   TEWEN  =      -795.76658092
  -Hartree energ DENC   =      -348.94479886
  -exchange      EXHF   =         0.00000000
  -V(xc)+E(xc)   XCENC  =       101.57533016
  PAW double counting   =      3715.00996593    -3704.20213835
  entropy T*S    EENTRO =        -0.00288587
  eigenvalues    EBANDS =      -148.89071191
  atomic energy  EATOM  =       996.36340036
  Solvation  Ediel_sol  =         0.00000000
  ---------------------------------------------------
  free energy    TOTEN  =       -90.61483953 eV

  energy without entropy =      -90.61195366  energy(sigma->0) =      -90.61339660


--------------------------------------------------------------------------------------------------------




--------------------------------------- Iteration      1(  13)  ---------------------------------------


    POTLOK:  cpu time      0.0084: real time      0.0094
    SETDIJ:  cpu time      0.0011: real time      0.0011
     EDDAV:  cpu time      1.1177: real time      1.1256
       DOS:  cpu time      0.0003: real time      0.0003
    CHARGE:  cpu time      0.0186: real time      0.0186
    MIXING:  cpu time      0.0007: real time      0.0007
    --------------------------------------------
      LOOP:  cpu time      1.1469: real time      1.1557

 eigenvalue-minimisations  :  4632
 total energy-change (2. order) :-0.3950379E-05  (-0.3237414E-06)
 number of electron      42.0000002 magnetization 
 augmentation part       -0.1739958 magnetization 

 Broyden mixing:
  rms(total) = 0.16909E-03    rms(broyden)= 0.16909E-03
  rms(prec ) = 0.25461E-03
  weight for this iteration     100.00

 eigenvalues of (default mixing * dielectric matrix)
  average eigenvalue GAMMA=   1.8158
  3.3118  2.4972  2.1406  1.9706  1.5269  0.9805  1.0495  1.0495

 Free energy of the ion-electron system (eV)
  ---------------------------------------------------
  alpha Z        PSCENC =        94.24357992
  Ewald energy   TEWEN  =      -795.76658092
  -Hartree energ DENC   =      -348.95585415
  -exchange      EXHF   =         0.00000000
  -V(xc)+E(xc)   XCENC  =       101.57598018
  PAW double counting   =      3714.58175783    -3703.77395672
  entropy T*S    EENTRO =        -0.00288693
  eigenvalues    EBANDS =      -148.88028305
  atomic energy  EATOM  =       996.36340036
  Solvation  Ediel_sol  =         0.00000000
  ---------------------------------------------------
  free energy    TOTEN  =       -90.61484348 eV

  energy without entropy =      -90.61195655  energy(sigma->0) =      -90.61340002


--------------------------------------------------------------------------------------------------------




--------------------------------------- Iteration      1(  14)  ---------------------------------------


    POTLOK:  cpu time      0.0083: real time      0.0091
    SETDIJ:  cpu time      0.0011: real time      0.0011
     EDDAV:  cpu time      1.0751: real time      1.0821
       DOS:  cpu time      0.0004: real time      0.0004
    --------------------------------------------
      LOOP:  cpu time      1.0849: real time      1.0927

 eigenvalue-minimisations  :  4368
 total energy-change (2. order) :-0.7271412E-06  (-0.3500758E-07)
 number of electron      42.0000002 magnetization 
 augmentation part       -0.1739958 magnetization 

 Free energy of the ion-electron system (eV)
  ---------------------------------------------------
  alpha Z        PSCENC =        94.24357992
  Ewald energy   TEWEN  =      -795.76658092
  -Hartree energ DENC   =      -348.95550529
  -exchange      EXHF   =         0.00000000
  -V(xc)+E(xc)   XCENC  =       101.57592657
  PAW double counting   =      3714.50697502    -3703.69928289
  entropy T*S    EENTRO =        -0.00288725
  eigenvalues    EBANDS =      -148.88046973
  atomic energy  EATOM  =       996.36340036
  Solvation  Ediel_sol  =         0.00000000
  ---------------------------------------------------
  free energy    TOTEN  =       -90.61484421 eV

  energy without entropy =      -90.61195696  energy(sigma->0) =      -90.61340058


--------------------------------------------------------------------------------------------------------




 average (electrostatic) potential at core
  the test charge radii are     0.7672
  (the norm of the test charge is              1.0000)
       1 -29.9740       2 -29.9740       3 -29.9740       4 -29.9740       5 -28.9356
       6 -28.9356       7 -28.9356       8 -28.9356       9 -29.3700      10 -29.3700
      11 -29.3700      12 -29.3700      13 -29.9235      14 -29.9235
 
 
 
 E-fermi :   1.8989     XC(G=0):  -9.4411     alpha+bet :-10.8605

 val. band max:        1.8768998294   @ k =   0.4000   0.4286   0.2000
 cond. band min:       1.9119730413   @ k =   0.2000   0.0000   0.0000
 fundamental gap:      0.0350732119
 Fermi energy:         1.8989082382

 k-point     1 :       0.0000    0.0000    0.0000
  band No.  band energies     occupation 
      1     -12.7349      2.00000
      2     -11.5787      2.00000
      3      -8.6609      2.00000
      4      -8.4252      2.00000
      5      -6.0791      2.00000
      6      -5.0579      2.00000
      7      -4.6366      2.00000
      8      -4.3512      2.00000
      9      -3.9722      2.00000
     10      -3.5993      2.00000
     11      -2.4473      2.00000
     12      -2.2698      2.00000
     13      -2.1828      2.00000
     14      -1.0533      2.00000
     15      -0.0362      2.00000
     16       0.0003      2.00000
     17       0.1492      2.00000
     18       0.1737      2.00000
     19       0.5648      2.00000
     20       2.0786      0.00000
     21       2.1285      0.00000
     22       2.2135      0.00000
     23       5.4075      0.00000
     24       5.8000      0.00000
     25       5.8220      0.00000
     26       5.9128      0.00000
     27       6.7811      0.00000
     28       7.6646      0.00000
     29       7.7012      0.00000
     30       8.6336      0.00000
     31       8.7519      0.00000
     32       8.8518      0.00000
     33       9.0425      0.00000
     34      10.0263      0.00000
     35      11.1459      0.00000
     36      11.4023      0.00000
     37      11.7746      0.00000
     38      11.8025      0.00000
     39      11.9002      0.00000
     40      12.3569      0.00000
     41      12.8043      0.00000
     42      13.3913      0.00000
     43      13.5716      0.00000
     44      15.5554      0.00000
     45      15.5671      0.00000
     46      15.9386      0.00000
     47      16.3577      0.00000
     48      16.5910      0.00000

 k-point     2 :       0.2000    0.0000    0.0000
  band No.  band energies     occupation 
      1     -12.6478      2.00000
      2     -11.7223      2.00000
      3      -8.6186      2.00000
      4      -8.4042      2.00000
      5      -5.9744      2.00000
      6      -5.6458      2.00000
      7      -4.8002      2.00000
      8      -3.8499      2.00000
      9      -3.5585      2.00000
     10      -2.9807      2.00000
     11      -2.4413      2.00000
     12      -2.4071      2.00000
     13      -2.2932      2.00000
     14      -1.6393      2.00000
     15      -0.0840      2.00000
     16       0.0481      2.00000
     17       0.1243      2.00000
     18       0.1829      2.00000
     19       0.4168      2.00000
     20       1.9120      0.71173
     21       1.9765      0.02825
     22       1.9784      0.02460
     23       5.5669      0.00000
     24       5.7150      0.00000
     25       6.0146      0.00000
     26       6.5721      0.00000
     27       6.6218      0.00000
     28       6.9765      0.00000
     29       8.1296      0.00000
     30       8.8699      0.00000
     31       9.0064      0.00000
     32       9.3445      0.00000
     33       9.3582      0.00000
     34      10.3228      0.00000
     35      10.6559      0.00000
     36      10.8386      0.00000
     37      11.2930      0.00000
     38      11.7058      0.00000
     39      12.2811      0.00000
     40      12.5684      0.00000
     41      12.8985      0.00000
     42      13.1077      0.00000
     43      14.4100      0.00000
     44      14.7455      0.00000
     45      15.4994      0.00000
     46      15.9460      0.00000
     47      16.2513      0.00000
     48      16.5440      0.00000

 k-point     3 :       0.4000    0.0000    0.0000
  band No.  band energies     occupation 
      1     -12.4026      2.00000
      2     -12.0548      2.00000
      3      -8.4992      2.00000
      4      -8.4013      2.00000
      5      -6.1064      2.00000
      6      -6.1057      2.00000
      7      -4.1737      2.00000
      8      -3.4993      2.00000
      9      -3.0257      2.00000
     10      -2.9806      2.00000
     11      -2.5434      2.00000
     12      -2.3836      2.00000
     13      -2.1196      2.00000
     14      -2.0402      2.00000
     15      -0.6591      2.00000
     16      -0.4286      2.00000
     17       0.2383      2.00000
     18       0.3004      2.00000
     19       0.7369      2.00000
     20       1.3631      2.00000
     21       1.6431      2.00000
     22       1.6938      2.00000
     23       5.6788      0.00000
     24       5.7291      0.00000
     25       6.4318      0.00000
     26       6.5554      0.00000
     27       7.0482      0.00000
     28       7.7581      0.00000
     29       8.3900      0.00000
     30       8.4678      0.00000
     31       8.6861      0.00000
     32       9.1839      0.00000
     33      10.2978      0.00000
     34      10.3328      0.00000
     35      10.5514      0.00000
     36      11.3562      0.00000
     37      11.5237      0.00000
     38      11.6541      0.00000
     39      11.9145      0.00000
     40      12.4013      0.00000
     41      12.5223      0.00000
     42      13.3315      0.00000
     43      14.5450      0.00000
     44      14.9180      0.00000
     45      14.9989      0.00000
     46      15.1445      0.00000
     47      15.8018      0.00000
     48      16.4549      0.00000

 k-point     4 :       0.0000    0.1429    0.0000
  band No.  band energies     occupation 
      1     -12.6876      2.00000
      2     -11.5364      2.00000
      3      -8.6241      2.00000
      4      -8.3797      2.00000
      5      -6.0269      2.00000
      6      -4.9843      2.00000
      7      -4.8609      2.00000
      8      -4.5926      2.00000
      9      -4.2570      2.00000
     10      -3.6260      2.00000
     11      -3.5392      2.00000
     12      -1.4997      2.00000
     13      -1.0444      2.00000
     14      -0.6200      2.00000
     15      -0.4526      2.00000
     16      -0.4503      2.00000
     17       0.1743      2.00000
     18       0.2950      2.00000
     19       0.7009      2.00000
     20       1.5764      2.00000
     21       1.6525      2.00000
     22       2.3075      0.00000
     23       5.4977      0.00000
     24       5.5006      0.00000
     25       5.8830      0.00000
     26       6.1098      0.00000
     27       7.3194      0.00000
     28       7.8198      0.00000
     29       8.1396      0.00000
     30       8.3984      0.00000
     31       8.7473      0.00000
     32       9.1719      0.00000
     33       9.1994      0.00000
     34      10.8316      0.00000
     35      11.3128      0.00000
     36      11.5445      0.00000
     37      11.6482      0.00000
     38      12.0019      0.00000
     39      12.1227      0.00000
     40      12.7533      0.00000
     41      12.8797      0.00000
     42      12.9674      0.00000
     43      13.0646      0.00000
     44      15.0449      0.00000
     45      15.4329      0.00000
     46      15.5809      0.00000
     47      15.6257      0.00000
     48      16.0916      0.00000

 k-point     5 :       0.2000    0.1429    0.0000
  band No.  band energies     occupation 
      1     -12.6010      2.00000
      2     -11.6794      2.00000
      3      -8.5813      2.00000
      4      -8.3601      2.00000
      5      -5.9153      2.00000
      6      -5.5873      2.00000
      7      -4.7641      2.00000
      8      -4.7271      2.00000
      9      -3.7496      2.00000
     10      -3.4683      2.00000
     11      -2.9242      2.00000
     12      -1.6266      2.00000
     13      -1.4566      2.00000
     14      -0.9498      2.00000
     15      -0.3776      2.00000
     16      -0.1937      2.00000
     17       0.0682      2.00000
     18       0.2591      2.00000
     19       0.5069      2.00000
     20       1.4243      2.00000
     21       1.5099      2.00000
     22       2.0433      0.00004
     23       5.6538      0.00000
     24       6.0112      0.00000
     25       6.0729      0.00000
     26       6.1876      0.00000
     27       7.1689      0.00000
     28       7.6334      0.00000
     29       8.1028      0.00000
     30       8.6362      0.00000
     31       9.1911      0.00000
     32       9.4239      0.00000
     33       9.7506      0.00000
     34      10.3278      0.00000
     35      10.5448      0.00000
     36      10.9770      0.00000
     37      11.6088      0.00000
     38      12.1371      0.00000
     39      12.3920      0.00000
     40      12.5357      0.00000
     41      13.0822      0.00000
     42      13.1754      0.00000
     43      13.8485      0.00000
     44      14.9204      0.00000
     45      15.0185      0.00000
     46      15.4652      0.00000
     47      15.6406      0.00000
     48      16.2982      0.00000

 k-point     6 :       0.4000    0.1429    0.0000
  band No.  band energies     occupation 
      1     -12.3568      2.00000
      2     -12.0105      2.00000
      3      -8.4609      2.00000
      4      -8.3607      2.00000
      5      -6.0433      2.00000
      6      -6.0422      2.00000
      7      -4.4491      2.00000
      8      -4.1481      2.00000
      9      -4.0742      2.00000
     10      -2.9890      2.00000
     11      -2.2509      2.00000
     12      -2.0015      2.00000
     13      -1.3409      2.00000
     14      -1.2858      2.00000
     15      -0.5664      2.00000
     16      -0.4814      2.00000
     17       0.0293      2.00000
     18       0.0659      2.00000
     19       0.7557      2.00000
     20       1.1738      2.00000
     21       1.2386      2.00000
     22       1.3964      2.00000
     23       6.0203      0.00000
     24       6.1809      0.00000
     25       6.6989      0.00000
     26       7.0189      0.00000
     27       7.0255      0.00000
     28       7.6376      0.00000
     29       8.0548      0.00000
     30       8.8356      0.00000
     31       8.8719      0.00000
     32       9.0017      0.00000
     33      10.0169      0.00000
     34      10.3926      0.00000
     35      10.7526      0.00000
     36      10.9680      0.00000
     37      11.6272      0.00000
     38      11.7556      0.00000
     39      12.0077      0.00000
     40      12.8993      0.00000
     41      12.9888      0.00000
     42      13.7156      0.00000
     43      14.4807      0.00000
     44      14.6673      0.00000
     45      14.9329      0.00000
     46      15.1438      0.00000
     47      15.8723      0.00000
     48      16.4198      0.00000

 k-point     7 :       0.0000    0.2857    0.0000
  band No.  band energies     occupation 
      1     -12.5750      2.00000
      2     -11.4358      2.00000
      3      -8.5384      2.00000
      4      -8.2713      2.00000
      5      -5.9021      2.00000
      6      -5.8420      2.00000
      7      -4.8021      2.00000
      8      -4.6572      2.00000
      9      -4.4798      2.00000
     10      -4.1974      2.00000
     11      -3.4237      2.00000
     12      -1.3726      2.00000
     13      -1.1762      2.00000
     14      -1.0240      2.00000
     15       0.0805      2.00000
     16       0.2370      2.00000
     17       0.3856      2.00000
     18       0.7047      2.00000
     19       0.7937      2.00000
     20       0.8324      2.00000
     21       1.0537      2.00000
     22       2.3769      0.00000
     23       4.7802      0.00000
     24       4.9733      0.00000
     25       6.4302      0.00000
     26       6.7774      0.00000
     27       7.1215      0.00000
     28       8.1475      0.00000
     29       8.6907      0.00000
     30       9.4004      0.00000
     31       9.6250      0.00000
     32       9.7369      0.00000
     33       9.9325      0.00000
     34      10.7220      0.00000
     35      11.3587      0.00000
     36      11.9419      0.00000
     37      12.2124      0.00000
     38      12.3598      0.00000
     39      12.3802      0.00000
     40      12.4195      0.00000
     41      12.6010      0.00000
     42      12.9071      0.00000
     43      13.3762      0.00000
     44      14.2001      0.00000
     45      14.2297      0.00000
     46      14.9978      0.00000
     47      15.5186      0.00000
     48      15.9852      0.00000

 k-point     8 :       0.2000    0.2857    0.0000
  band No.  band energies     occupation 
      1     -12.4893      2.00000
      2     -11.5774      2.00000
      3      -8.4941      2.00000
      4      -8.2555      2.00000
      5      -5.7727      2.00000
      6      -5.7589      2.00000
      7      -5.4057      2.00000
      8      -4.7873      2.00000
      9      -4.6726      2.00000
     10      -3.3545      2.00000
     11      -2.8039      2.00000
     12      -1.6008      2.00000
     13      -1.2788      2.00000
     14      -1.1794      2.00000
     15       0.0047      2.00000
     16       0.1046      2.00000
     17       0.3353      2.00000
     18       0.5458      2.00000
     19       0.5790      2.00000
     20       0.8156      2.00000
     21       1.0217      2.00000
     22       2.1039      0.00000
     23       5.0215      0.00000
     24       5.5728      0.00000
     25       6.3483      0.00000
     26       7.0063      0.00000
     27       7.3697      0.00000
     28       8.1133      0.00000
     29       8.8368      0.00000
     30       9.4395      0.00000
     31       9.4728      0.00000
     32       9.8082      0.00000
     33      10.2054      0.00000
     34      10.2237      0.00000
     35      10.6317      0.00000
     36      11.6227      0.00000
     37      11.7603      0.00000
     38      12.3530      0.00000
     39      12.5779      0.00000
     40      12.7563      0.00000
     41      13.0463      0.00000
     42      13.4057      0.00000
     43      13.4271      0.00000
     44      14.1308      0.00000
     45      14.2190      0.00000
     46      15.0244      0.00000
     47      15.4689      0.00000
     48      15.8171      0.00000

 k-point     9 :       0.4000    0.2857    0.0000
  band No.  band energies     occupation 
      1     -12.2478      2.00000
      2     -11.9051      2.00000
      3      -8.3711      2.00000
      4      -8.2648      2.00000
      5      -5.8973      2.00000
      6      -5.8860      2.00000
      7      -5.4562      2.00000
      8      -5.1040      2.00000
      9      -4.0802      2.00000
     10      -2.9268      2.00000
     11      -2.1333      2.00000
     12      -1.9020      2.00000
     13      -1.1101      2.00000
     14      -1.0997      2.00000
     15      -0.5541      2.00000
     16      -0.4014      2.00000
     17       0.0987      2.00000
     18       0.2172      2.00000
     19       0.7949      2.00000
     20       0.8580      2.00000
     21       0.9422      2.00000
     22       1.4398      2.00000
     23       6.0589      0.00000
     24       6.4484      0.00000
     25       6.7221      0.00000
     26       6.8476      0.00000
     27       7.3156      0.00000
     28       7.9501      0.00000
     29       8.8399      0.00000
     30       8.8959      0.00000
     31       9.2823      0.00000
     32       9.8688      0.00000
     33      10.0042      0.00000
     34      10.2467      0.00000
     35      10.8211      0.00000
     36      11.4380      0.00000
     37      11.8226      0.00000
     38      12.1718      0.00000
     39      12.1920      0.00000
     40      13.0188      0.00000
     41      13.1802      0.00000
     42      13.4900      0.00000
     43      13.8838      0.00000
     44      13.9498      0.00000
     45      14.9148      0.00000
     46      15.0660      0.00000
     47      15.4027      0.00000
     48      15.9712      0.00000

 k-point    10 :       0.0000    0.4286    0.0000
  band No.  band energies     occupation 
      1     -12.4770      2.00000
      2     -11.3489      2.00000
      3      -8.4661      2.00000
      4      -8.1769      2.00000
      5      -6.4136      2.00000
      6      -5.7914      2.00000
      7      -5.2266      2.00000
      8      -4.6342      2.00000
      9      -4.3689      2.00000
     10      -4.1302      2.00000
     11      -3.3103      2.00000
     12      -1.8457      2.00000
     13      -1.6875      2.00000
     14      -1.0074      2.00000
     15       0.1855      2.00000
     16       0.2044      2.00000
     17       0.2575      2.00000
     18       0.4424      2.00000
     19       0.8357      2.00000
     20       1.0964      2.00000
     21       2.1925      0.00000
     22       2.4254      0.00000
     23       4.3035      0.00000
     24       4.6114      0.00000
     25       6.5776      0.00000
     26       6.9534      0.00000
     27       7.3658      0.00000
     28       8.5210      0.00000
     29       8.5620      0.00000
     30       9.8268      0.00000
     31      10.1825      0.00000
     32      10.3526      0.00000
     33      10.6979      0.00000
     34      11.0583      0.00000
     35      11.0757      0.00000
     36      11.1922      0.00000
     37      11.9344      0.00000
     38      12.3222      0.00000
     39      12.3306      0.00000
     40      12.9870      0.00000
     41      13.1780      0.00000
     42      13.5321      0.00000
     43      13.6657      0.00000
     44      14.2962      0.00000
     45      15.1171      0.00000
     46      15.3018      0.00000
     47      15.3354      0.00000
     48      15.6017      0.00000

 k-point    11 :       0.2000    0.4286    0.0000
  band No.  band energies     occupation 
      1     -12.3922      2.00000
      2     -11.4893      2.00000
      3      -8.4204      2.00000
      4      -8.1648      2.00000
      5      -6.3177      2.00000
      6      -5.6434      2.00000
      7      -5.3577      2.00000
      8      -5.2847      2.00000
      9      -4.5889      2.00000
     10      -3.2408      2.00000
     11      -2.6803      2.00000
     12      -1.7674      2.00000
     13      -1.6624      2.00000
     14      -1.5572      2.00000
     15      -0.0605      2.00000
     16       0.0103      2.00000
     17       0.1575      2.00000
     18       0.3511      2.00000
     19       0.5990      2.00000
     20       1.3150      2.00000
     21       2.1216      0.00000
     22       2.1528      0.00000
     23       4.5845      0.00000
     24       5.1737      0.00000
     25       6.5038      0.00000
     26       7.1486      0.00000
     27       7.6096      0.00000
     28       8.6217      0.00000
     29       8.9993      0.00000
     30       9.1123      0.00000
     31       9.6923      0.00000
     32      10.2465      0.00000
     33      10.4245      0.00000
     34      11.1920      0.00000
     35      11.1992      0.00000
     36      11.7151      0.00000
     37      12.0125      0.00000
     38      12.2543      0.00000
     39      12.4573      0.00000
     40      12.8780      0.00000
     41      13.1713      0.00000
     42      13.3658      0.00000
     43      13.6774      0.00000
     44      14.0602      0.00000
     45      14.6318      0.00000
     46      14.8904      0.00000
     47      15.0485      0.00000
     48      15.4377      0.00000

 k-point    12 :       0.4000    0.4286    0.0000
  band No.  band energies     occupation 
      1     -12.1531      2.00000
      2     -11.8139      2.00000
      3      -8.2947      2.00000
      4      -8.1826      2.00000
      5      -6.0540      2.00000
      6      -5.7513      2.00000
      7      -5.7339      2.00000
      8      -5.6676      2.00000
      9      -4.0204      2.00000
     10      -2.8628      2.00000
     11      -1.9997      2.00000
     12      -1.7668      2.00000
     13      -1.5836      2.00000
     14      -1.5270      2.00000
     15      -0.5331      2.00000
     16      -0.3994      2.00000
     17      -0.3065      2.00000
     18      -0.2269      2.00000
     19       0.8332      2.00000
     20       1.4794      2.00000
     21       1.6556      2.00000
     22       1.9357      0.29853
     23       5.6301      0.00000
     24       6.3009      0.00000
     25       6.7132      0.00000
     26       6.9330      0.00000
     27       7.2248      0.00000
     28       7.6879      0.00000
     29       9.0803      0.00000
     30       9.7722      0.00000
     31       9.8026      0.00000
     32       9.8487      0.00000
     33      10.5268      0.00000
     34      10.9178      0.00000
     35      11.8463      0.00000
     36      11.8985      0.00000
     37      11.9636      0.00000
     38      12.0579      0.00000
     39      12.2744      0.00000
     40      12.6514      0.00000
     41      12.9143      0.00000
     42      13.2554      0.00000
     43      13.8509      0.00000
     44      13.9398      0.00000
     45      14.4378      0.00000
     46      14.6106      0.00000
     47      15.0642      0.00000
     48      15.6751      0.00000

 k-point    13 :       0.0000    0.0000    0.2000
  band No.  band energies     occupation 
      1     -12.7018      2.00000
      2     -11.6405      2.00000
      3      -8.6431      2.00000
      4      -8.3261      2.00000
      5      -6.4185      2.00000
      6      -5.4510      2.00000
      7      -4.1374      2.00000
      8      -3.9564      2.00000
      9      -3.9076      2.00000
     10      -3.2518      2.00000
     11      -2.4171      2.00000
     12      -2.3805      2.00000
     13      -2.2911      2.00000
     14      -1.2043      2.00000
     15      -0.5255      2.00000
     16       0.0321      2.00000
     17       0.0844      2.00000
     18       0.2168      2.00000
     19       0.2350      2.00000
     20       1.8740      1.51923
     21       1.9164      0.62150
     22       2.9496      0.00000
     23       5.3677      0.00000
     24       5.3921      0.00000
     25       5.9060      0.00000
     26       6.3242      0.00000
     27       7.0110      0.00000
     28       7.3638      0.00000
     29       7.7568      0.00000
     30       8.7892      0.00000
     31       8.9716      0.00000
     32       9.2296      0.00000
     33       9.4433      0.00000
     34      10.3559      0.00000
     35      10.7074      0.00000
     36      11.0779      0.00000
     37      11.2687      0.00000
     38      11.8849      0.00000
     39      11.9497      0.00000
     40      12.5710      0.00000
     41      12.8191      0.00000
     42      13.2320      0.00000
     43      14.4172      0.00000
     44      14.8738      0.00000
     45      15.0597      0.00000
     46      15.4948      0.00000
     47      15.6194      0.00000
     48      16.4326      0.00000

[...]
     43      13.9735      0.00000
     44      14.2095      0.00000
     45      14.4900      0.00000
     46      15.1123      0.00000
     47      15.3992      0.00000
     48      15.6802      0.00000

 k-point    31 :       0.0000    0.2857    0.4000
  band No.  band energies     occupation 
      1     -12.4856      2.00000
      2     -11.5939      2.00000
      3      -8.4965      2.00000
      4      -7.9844      2.00000
      5      -6.7038      2.00000
      6      -5.6543      2.00000
      7      -5.5249      2.00000
      8      -4.9559      2.00000
      9      -3.4335      2.00000
     10      -3.0337      2.00000
     11      -2.2475      2.00000
     12      -1.5490      2.00000
     13      -1.4275      2.00000
     14      -1.0760      2.00000
     15      -0.8589      2.00000
     16      -0.7118      2.00000
     17      -0.1386      2.00000
     18       0.1496      2.00000
     19       0.4306      2.00000
     20       0.7793      2.00000
     21       1.0167      2.00000
     22       3.8884      0.00000
     23       5.0257      0.00000
     24       5.4865      0.00000
     25       6.6210      0.00000
     26       6.6751      0.00000
     27       8.0331      0.00000
     28       8.1172      0.00000
     29       9.4428      0.00000
     30       9.4574      0.00000
     31       9.5675      0.00000
     32       9.6105      0.00000
     33       9.8443      0.00000
     34       9.9714      0.00000
     35       9.9884      0.00000
     36      10.9729      0.00000
     37      11.3787      0.00000
     38      12.5948      0.00000
     39      12.6297      0.00000
     40      12.7964      0.00000
     41      13.0394      0.00000
     42      13.7124      0.00000
     43      13.7348      0.00000
     44      14.0480      0.00000
     45      14.3338      0.00000
     46      15.1406      0.00000
     47      15.2998      0.00000
     48      15.5197      0.00000

 k-point    32 :       0.2000    0.2857    0.4000
  band No.  band energies     occupation 
      1     -12.4080      2.00000
      2     -11.6813      2.00000
      3      -8.6301      2.00000
      4      -8.1236      2.00000
      5      -6.2685      2.00000
      6      -5.5765      2.00000
      7      -5.3307      2.00000
      8      -4.9973      2.00000
      9      -3.8587      2.00000
     10      -2.8491      2.00000
     11      -2.5385      2.00000
     12      -1.4991      2.00000
     13      -1.3711      2.00000
     14      -1.2559      2.00000
     15      -1.0114      2.00000
     16      -0.6346      2.00000
     17       0.1162      2.00000
     18       0.2878      2.00000
     19       0.4901      2.00000
     20       0.8786      2.00000
     21       1.0692      2.00000
     22       2.7515      0.00000
     23       5.3358      0.00000
     24       6.2528      0.00000
     25       6.4886      0.00000
     26       7.0944      0.00000
     27       7.5801      0.00000
     28       8.5801      0.00000
     29       8.6834      0.00000
     30       8.9741      0.00000
     31       9.2010      0.00000
     32       9.6660      0.00000
     33       9.9178      0.00000
     34      10.5290      0.00000
     35      10.8086      0.00000
     36      11.0294      0.00000
     37      11.3514      0.00000
     38      12.3447      0.00000
     39      12.5574      0.00000
     40      12.8368      0.00000
     41      13.1626      0.00000
     42      13.6393      0.00000
     43      13.9163      0.00000
     44      14.1459      0.00000
     45      14.5123      0.00000
     46      15.0911      0.00000
     47      15.3103      0.00000
     48      15.6132      0.00000

 k-point    33 :       0.4000    0.2857    0.4000
  band No.  band energies     occupation 
      1     -12.1953      2.00000
      2     -11.9150      2.00000
      3      -8.6660      2.00000
      4      -8.4442      2.00000
      5      -5.4152      2.00000
      6      -5.3653      2.00000
      7      -5.1319      2.00000
      8      -4.7940      2.00000
      9      -4.5104      2.00000
     10      -3.6482      2.00000
     11      -2.3032      2.00000
     12      -1.7492      2.00000
     13      -1.6012      2.00000
     14      -1.4322      2.00000
     15      -0.4670      2.00000
     16      -0.2406      2.00000
     17       0.3364      2.00000
     18       0.4567      2.00000
     19       0.5893      2.00000
     20       1.0629      2.00000
     21       1.1016      2.00000
     22       1.2071      2.00000
     23       6.0561      0.00000
     24       6.3256      0.00000
     25       7.0507      0.00000
     26       7.1300      0.00000
     27       7.5962      0.00000
     28       8.0964      0.00000
     29       8.1626      0.00000
     30       8.3465      0.00000
     31       9.4042      0.00000
     32       9.6767      0.00000
     33       9.9521      0.00000
     34      10.7697      0.00000
     35      11.1280      0.00000
     36      11.2176      0.00000
     37      12.1681      0.00000
     38      12.4576      0.00000
     39      12.6044      0.00000
     40      13.3227      0.00000
     41      13.4880      0.00000
     42      13.8146      0.00000
     43      13.8901      0.00000
     44      14.1498      0.00000
     45      14.4176      0.00000
     46      14.5331      0.00000
     47      14.9111      0.00000
     48      15.3487      0.00000

 k-point    34 :       0.0000    0.4286    0.4000
  band No.  band energies     occupation 
      1     -12.3910      2.00000
      2     -11.5003      2.00000
      3      -8.4280      2.00000
      4      -7.9044      2.00000
      5      -6.5829      2.00000
      6      -6.2235      2.00000
      7      -5.5387      2.00000
      8      -5.3692      2.00000
      9      -3.2985      2.00000
     10      -2.9545      2.00000
     11      -2.1096      2.00000
     12      -1.4989      2.00000
     13      -1.4205      2.00000
     14      -1.3623      2.00000
     15      -1.3360      2.00000
     16      -0.7127      2.00000
     17      -0.5598      2.00000
     18      -0.3876      2.00000
     19       0.4394      2.00000
     20       1.5836      2.00000
     21       2.0315      0.00018
     22       3.9262      0.00000
     23       4.6212      0.00000
     24       5.6831      0.00000
     25       6.2190      0.00000
     26       7.2256      0.00000
     27       7.6934      0.00000
     28       7.7817      0.00000
     29       9.1489      0.00000
     30       9.5992      0.00000
     31       9.6307      0.00000
     32       9.8238      0.00000
     33      11.1315      0.00000
     34      11.1446      0.00000
     35      11.4330      0.00000
     36      11.6431      0.00000
     37      11.7118      0.00000
     38      11.8299      0.00000
     39      12.0158      0.00000
     40      12.7703      0.00000
     41      12.8377      0.00000
     42      12.9898      0.00000
     43      13.3385      0.00000
     44      13.8100      0.00000
     45      14.1688      0.00000
     46      15.2523      0.00000
     47      15.4204      0.00000
     48      15.5798      0.00000

 k-point    35 :       0.2000    0.4286    0.4000
  band No.  band energies     occupation 
      1     -12.3140      2.00000
      2     -11.5887      2.00000
      3      -8.5494      2.00000
      4      -8.0409      2.00000
      5      -6.1595      2.00000
      6      -6.1378      2.00000
      7      -5.5794      2.00000
      8      -5.1860      2.00000
      9      -3.7349      2.00000
     10      -2.7622      2.00000
     11      -2.4287      2.00000
     12      -1.8650      2.00000
     13      -1.5445      2.00000
     14      -1.3687      2.00000
     15      -1.1935      2.00000
     16      -0.5587      2.00000
     17      -0.3165      2.00000
     18       0.1349      2.00000
     19       0.4513      2.00000
     20       1.5252      2.00000
     21       1.9482      0.16330
     22       2.8106      0.00000
     23       4.9436      0.00000
     24       6.0911      0.00000
     25       6.5273      0.00000
     26       7.2055      0.00000
     27       7.8013      0.00000
     28       8.2876      0.00000
     29       8.6775      0.00000
     30       9.1544      0.00000
     31       9.6794      0.00000
     32      10.1023      0.00000
     33      10.7412      0.00000
     34      11.1452      0.00000
     35      11.3641      0.00000
     36      11.4892      0.00000
     37      11.5250      0.00000
     38      12.0527      0.00000
     39      12.4816      0.00000
     40      12.6073      0.00000
     41      12.7579      0.00000
     42      13.3273      0.00000
     43      13.7463      0.00000
     44      14.0901      0.00000
     45      14.3969      0.00000
     46      14.8851      0.00000
     47      15.2982      0.00000
     48      15.6803      0.00000

 k-point    36 :       0.4000    0.4286    0.4000
  band No.  band energies     occupation 
      1     -12.1027      2.00000
      2     -11.8233      2.00000
      3      -8.5756      2.00000
      4      -8.3543      2.00000
      5      -5.9482      2.00000
      6      -5.7265      2.00000
      7      -5.2573      2.00000
      8      -4.6511      2.00000
      9      -4.4218      2.00000
     10      -3.5551      2.00000
     11      -2.2298      2.00000
     12      -2.1088      2.00000
     13      -1.9838      2.00000
     14      -1.6203      2.00000
     15      -0.4119      2.00000
     16      -0.1438      2.00000
     17       0.2450      2.00000
     18       0.5074      2.00000
     19       0.5176      2.00000
     20       1.2268      2.00000
     21       1.4821      2.00000
     22       1.7110      2.00000
     23       5.7412      0.00000
     24       6.0824      0.00000
     25       6.8019      0.00000
     26       7.2523      0.00000
     27       7.7439      0.00000
     28       7.8480      0.00000
     29       9.0753      0.00000
     30       9.2634      0.00000
     31       9.7256      0.00000
     32       9.9638      0.00000
     33      10.3961      0.00000
     34      10.8941      0.00000
     35      11.2234      0.00000
     36      11.5792      0.00000
     37      11.6456      0.00000
     38      11.9001      0.00000
     39      12.9721      0.00000
     40      13.1525      0.00000
     41      13.2492      0.00000
     42      13.6967      0.00000
     43      13.9452      0.00000
     44      14.3176      0.00000
     45      14.4487      0.00000
     46      14.8734      0.00000
     47      14.9791      0.00000
     48      15.2137      0.00000


--------------------------------------------------------------------------------------------------------


 soft charge-density along one line, spin component           1
         0         1         2         3         4         5         6         7         8         9
 total charge-density along one line
 
 pseudopotential strength for first ion, spin component:           1
  6.445   9.814   0.000  -0.009   0.005   0.000  -0.014   0.008
  9.814  14.938   0.000  -0.014   0.007   0.000  -0.021   0.011
  0.000   0.000  -2.174  -0.000   0.000  -3.695  -0.000   0.000
 -0.009  -0.014  -0.000  -2.178  -0.001  -0.000  -3.705  -0.002
  0.005   0.007   0.000  -0.001  -2.177   0.000  -0.002  -3.703
  0.000   0.000  -3.695  -0.000   0.000  -6.080  -0.000   0.000
 -0.014  -0.021  -0.000  -3.705  -0.002  -0.000  -6.102  -0.004
  0.008   0.011   0.000  -0.002  -3.703   0.000  -0.004  -6.098
 total augmentation occupancy for first ion, spin component:           1
  3.641  -0.977   0.000  -0.243   0.416   0.000   0.123  -0.176
 -0.977   0.286   0.000   0.160  -0.197   0.000  -0.056   0.073
  0.000   0.000   2.277   0.000   0.000  -0.542   0.000   0.000
 -0.243   0.160   0.000   3.769   0.325   0.000  -1.051  -0.120
  0.416  -0.197   0.000   0.325   3.598   0.000  -0.120  -0.977
 -0.000   0.000  -0.542   0.000   0.000   0.133   0.000   0.000
  0.123  -0.056   0.000  -1.051  -0.120   0.000   0.302   0.042
 -0.176   0.073   0.000  -0.120  -0.977   0.000   0.042   0.275


------------------------ aborting loop because EDIFF is reached ----------------------------------------


    CHARGE:  cpu time      0.0185: real time      0.0185
    FORLOC:  cpu time      0.0010: real time      0.0010
    FORNL :  cpu time      0.1146: real time      0.1153
    STRESS:  cpu time      0.5345: real time      0.5369
    FORCOR:  cpu time      0.0083: real time      0.0083
    FORHAR:  cpu time      0.0025: real time      0.0025
    MIXING:  cpu time      0.0007: real time      0.0007
    OFIELD:  cpu time      0.0000: real time      0.0000

  FORCE on cell =-STRESS in cart. coord.  units (eV):
  Direction    XX          YY          ZZ          XY          YZ          ZX
  --------------------------------------------------------------------------------------
  Alpha Z    94.24358    94.24358    94.24358
  Ewald     -90.05465  -558.27634  -147.43815    -0.00000    -0.00000     0.00000
  Hartree   187.03952     5.71063   156.20491    -0.00000    -0.00000    -0.00000
  E(xc)    -134.89788  -135.85843  -134.85778     0.00000    -0.00000     0.00000
  Local    -494.03841   126.67159  -406.01217     0.00000    -0.00000    -0.00000
  n-local    -8.98551   -10.71631    -9.29739     0.00119    -0.00387     0.00749
  augment     1.31446     1.36719     1.34407    -0.00000     0.00000    -0.00000
  Kinetic   446.87181   476.61010   445.25406     0.18176     0.00414    -0.75466
  Fock        0.00000     0.00000     0.00000     0.00000     0.00000     0.00000
  -------------------------------------------------------------------------------------
  Total       1.49292    -0.24799    -0.55888     0.00000     0.00000     0.00000
  in kB      16.71808    -2.77706    -6.25845     0.00000     0.00000     0.00000
  external pressure =        2.56 kB  Pullay stress =        0.00 kB


 VOLUME and BASIS-vectors are now :
 -----------------------------------------------------------------------------
  energy-cutoff  :      450.00
  volume of cell :      143.07
      direct lattice vectors                 reciprocal lattice vectors
     5.697000000  0.000000000  0.000000000     0.175530981  0.000000000  0.000000000
     0.000000000  4.047900000  0.000000000     0.000000000  0.247041676  0.000000000
     0.000000000  0.000000000  6.204200000     0.000000000  0.000000000  0.161181135

  length of vectors
     5.697000000  4.047900000  6.204200000     0.175530981  0.247041676  0.161181135


 FORCES acting on ions
    electron-ion (+dipol)            ewald-force                    non-local-force                 convergence-correction
 -----------------------------------------------------------------------------------------------
   0.497E+02 0.392E-12 -.250E+02   -.515E+02 0.211E-14 0.284E+02   0.182E+01 0.192E-19 -.334E+01   -.200E-04 0.312E-15 0.113E-03
   -.497E+02 -.237E-12 0.250E+02   0.515E+02 0.448E-16 -.284E+02   -.182E+01 0.180E-19 0.334E+01   0.200E-04 -.921E-15 -.113E-03
   -.497E+02 -.395E-12 -.250E+02   0.515E+02 0.587E-14 0.284E+02   -.182E+01 -.304E-19 -.334E+01   0.200E-04 0.927E-15 0.113E-03
   0.497E+02 -.494E-14 0.250E+02   -.515E+02 0.181E-14 -.284E+02   0.182E+01 -.343E-19 0.334E+01   -.200E-04 -.881E-15 -.113E-03
   0.313E+02 -.250E-12 -.527E+02   -.341E+02 0.342E-14 0.571E+02   0.192E+01 -.164E-18 -.412E+01   -.683E-04 0.376E-15 -.112E-04
   -.313E+02 -.308E-12 0.527E+02   0.341E+02 0.354E-14 -.571E+02   -.192E+01 0.201E-18 0.412E+01   0.683E-04 -.987E-15 0.112E-04
   -.313E+02 -.364E-12 -.527E+02   0.341E+02 0.299E-14 0.571E+02   -.192E+01 0.164E-18 -.412E+01   0.683E-04 0.736E-15 -.112E-04
   0.313E+02 0.239E-13 0.527E+02   -.341E+02 0.353E-14 -.571E+02   0.192E+01 -.198E-18 0.412E+01   -.683E-04 -.695E-15 0.112E-04
   -.188E-13 -.560E+02 -.155E+02   -.720E-14 0.613E+02 0.166E+02   -.476E-18 -.540E+01 -.112E+01   -.138E-13 -.119E-03 0.563E-04
   -.351E-13 0.560E+02 0.155E+02   0.108E-13 -.613E+02 -.166E+02   0.113E-17 0.540E+01 0.112E+01   0.370E-14 0.119E-03 -.563E-04
   -.191E-13 0.560E+02 -.155E+02   0.393E-14 -.613E+02 0.166E+02   -.103E-18 0.540E+01 -.112E+01   -.143E-13 0.119E-03 0.563E-04
   -.356E-13 -.560E+02 0.155E+02   0.643E-14 0.613E+02 -.166E+02   0.210E-18 -.540E+01 0.112E+01   0.355E-14 -.119E-03 -.563E-04
   -.172E-13 0.281E-12 -.623E+02   0.123E-13 0.532E-14 0.649E+02   -.368E-19 -.235E-20 -.252E+01   0.102E-13 0.528E-16 0.968E-05
   -.134E-13 0.668E-12 0.623E+02   0.173E-13 0.235E-14 -.649E+02   0.775E-19 -.101E-19 0.252E+01   -.924E-14 -.360E-15 -.968E-05
 -----------------------------------------------------------------------------------------------
   -.101E-11 -.333E-12 -.278E-12   0.152E-13 0.767E-14 -.284E-13   -.221E-15 -.125E-19 0.133E-14   -.276E-13 -.134E-14 0.140E-13
 
 
 POSITION                                       TOTAL-FORCE (eV/Angst)
 -----------------------------------------------------------------------------------
      2.96945      2.02395      3.95803        -0.005286     -0.000000      0.045021
      2.72755      2.02395      2.24617         0.005286     -0.000000     -0.045021
      5.57605      2.02395      3.95803         0.005286     -0.000000      0.045021
      0.12095      2.02395      2.24617        -0.005286     -0.000000     -0.045021
      3.42333      2.02395      5.58322        -0.847646     -0.000000      0.264881
      2.27367      2.02395      0.62098         0.847646     -0.000000     -0.264881
      5.12217      2.02395      5.58322         0.847646     -0.000000      0.264881
      0.57483      2.02395      0.62098        -0.847646     -0.000000     -0.264881
      4.27275      3.20476      4.52739         0.000000     -0.131330     -0.077148
      1.42425      0.84314      1.67681         0.000000      0.131330      0.077148
      4.27275      0.84314      4.52739         0.000000      0.131330     -0.077148
      1.42425      3.20476      1.67681         0.000000     -0.131330      0.077148
      1.42425      2.02395      3.24895         0.000000     -0.000000      0.090018
      4.27275      2.02395      2.95525         0.000000     -0.000000     -0.090018
 -----------------------------------------------------------------------------------
    total drift:                               -0.000000     -0.000000     -0.000000


--------------------------------------------------------------------------------------------------------



  FREE ENERGIE OF THE ION-ELECTRON SYSTEM (eV)
  ---------------------------------------------------
  free  energy   TOTEN  =       -90.61484421 eV

  energy  without entropy=      -90.61195696  energy(sigma->0) =      -90.61340058
 


--------------------------------------------------------------------------------------------------------


    POTLOK:  cpu time      0.0099: real time      0.0099


--------------------------------------------------------------------------------------------------------


     LOOP+:  cpu time     16.6142: real time     16.8479
    4ORBIT:  cpu time      0.0000: real time      0.0000

 total amount of memory used by VASP MPI-rank0    45806. kBytes
=======================================================================

   base      :      30000. kBytes
   nonl-proj :       7887. kBytes
   fftplans  :        930. kBytes
   grid      :       3214. kBytes
   one-center:         43. kBytes
   wavefun   :       3732. kBytes
 
  
  
 General timing and accounting informations for this job:
 ========================================================
  
                  Total CPU time used (sec):       18.097
                            User time (sec):       17.151
                          System time (sec):        0.946
                         Elapsed time (sec):       19.185
  
                   Maximum memory used (kb):      360544.
                   Average memory used (kb):          N/A
  
                          Minor page faults:       110244
                          Major page faults:         1578
                 Voluntary context switches:         5465
