 running   24 mpi-ranks, with    1 threads/rank, on    1 nodes
 distrk:  each k-point on   24 cores,    1 groups
 distr:  one band on    1 cores,   24 groups
 vasp.6.4.3 19Mar24 (build May 31 2024 16:31:43) complex                        
  
 POSCAR found type information on POSCAR B 
 POSCAR found :  1 types and      14 ions
 Reading from existing POTCAR
 scaLAPACK will be used
 Reading from existing POTCAR
 LDA part: xc-table for (Slater+PW92), standard interpolation
 POSCAR, INCAR and KPOINTS ok, starting setup
 FFT: planning ... GRIDC
 FFT: planning ... GRID_SOFT
 FFT: planning ... GRID
 WAVECAR not read
 entering main loop
       N       E                     dE             d eps       ncg     rms          rms(c)
DAV:   1     0.468033455320E+02    0.46803E+02   -0.16960E+04  3456   0.687E+02
DAV:   2    -0.933023476456E+02   -0.14011E+03   -0.13234E+03  4824   0.146E+02
DAV:   3    -0.976126494027E+02   -0.43103E+01   -0.42881E+01  4968   0.230E+01
DAV:   4    -0.976375181856E+02   -0.24869E-01   -0.24867E-01  4464   0.198E+00
DAV:   5    -0.976378063043E+02   -0.28812E-03   -0.28811E-03  4944   0.206E-01    0.124E+01
DAV:   6    -0.922106819531E+02    0.54271E+01   -0.39346E+00  4968   0.658E+00    0.673E+00
DAV:   7    -0.905862213657E+02    0.16245E+01   -0.31473E+00  5088   0.578E+00    0.176E+00
DAV:   8    -0.905949612857E+02   -0.87399E-02   -0.22870E-01  3768   0.163E+00    0.739E-01
DAV:   9    -0.906093496943E+02   -0.14388E-01   -0.16788E-02  4800   0.444E-01    0.202E-01
DAV:  10    -0.906135966903E+02   -0.42470E-02   -0.23969E-03  3816   0.171E-01    0.642E-02
DAV:  11    -0.906147505113E+02   -0.11538E-02   -0.71536E-04  4416   0.912E-02    0.322E-02
DAV:  12    -0.906148395318E+02   -0.89021E-04   -0.77202E-05  4416   0.333E-02    0.389E-03
DAV:  13    -0.906148434822E+02   -0.39504E-05   -0.32374E-06  4632   0.729E-03    0.169E-03
DAV:  14    -0.906148442093E+02   -0.72714E-06   -0.35008E-07  4368   0.245E-03
   1 F= -.90614844E+02 E0= -.90613401E+02  d E =-.288725E-02
