  14  14   0   0
  0.1021960E+02  0.5697000E-09  0.4047900E-09  0.6204200E-09  0.5000000E-15
  1.000000000000000E-004
  CAR 
 Kpoints                                 
     18.06534328    -14.19987022  301      1.87807066      1.00000000
    -14.200  0.0000E+00  0.0000E+00
    -14.092  0.0000E+00  0.0000E+00
    -13.985  0.0000E+00  0.0000E+00
    -13.877  0.0000E+00  0.0000E+00
    -13.770  0.0000E+00  0.0000E+00
    -13.662  0.0000E+00  0.0000E+00
    -13.555  0.0000E+00  0.0000E+00
    -13.447  0.0000E+00  0.0000E+00
    -13.339  0.0000E+00  0.0000E+00
    -13.232  0.0000E+00  0.0000E+00
    -13.124  0.0000E+00  0.0000E+00
    -13.017  0.6865E-17  0.7384E-18
    -12.909  0.8223E-08  0.8844E-09
    -12.802  0.1945E-02  0.2092E-03
    -12.694  0.4066E+00  0.4394E-01
    -12.587  0.2250E+01  0.2859E+00
    -12.479  0.3509E+01  0.6632E+00
    -12.372  0.4341E+01  0.1130E+01
    -12.264  0.3575E+01  0.1515E+01
    -12.156  0.2874E+01  0.1824E+01
    -12.049  0.2635E+01  0.2107E+01
    -11.941  0.2588E+01  0.2385E+01
    -11.834  0.2744E+01  0.2681E+01
    -11.726  0.3324E+01  0.3038E+01
    -11.619  0.3621E+01  0.3427E+01
    -11.511  0.3126E+01  0.3764E+01
    -11.404  0.1728E+01  0.3949E+01
    -11.296  0.4607E+00  0.3999E+01
    -11.188  0.9141E-02  0.4000E+01
    -11.081  0.3634E-06  0.4000E+01
    -10.973  0.3832E-14  0.4000E+01
    -10.866  0.0000E+00  0.4000E+01
    -10.758  0.0000E+00  0.4000E+01
    -10.651  0.0000E+00  0.4000E+01
    -10.543  0.0000E+00  0.4000E+01
    -10.436  0.0000E+00  0.4000E+01
    -10.328  0.0000E+00  0.4000E+01
    -10.220  0.0000E+00  0.4000E+01
    -10.113  0.0000E+00  0.4000E+01
    -10.005  0.0000E+00  0.4000E+01
     -9.898  0.0000E+00  0.4000E+01
     -9.790  0.0000E+00  0.4000E+01
     -9.683  0.0000E+00  0.4000E+01
     -9.575  0.0000E+00  0.4000E+01
     -9.468  0.0000E+00  0.4000E+01
     -9.360  0.0000E+00  0.4000E+01
     -9.253  0.0000E+00  0.4000E+01
     -9.145  0.0000E+00  0.4000E+01
     -9.037  0.1127E-08  0.4000E+01
     -8.930  0.7292E-03  0.4000E+01
     -8.822  0.3052E+00  0.4033E+01
     -8.715  0.2176E+01  0.4267E+01
     -8.607  0.5432E+01  0.4851E+01
     -8.500  0.7008E+01  0.5605E+01
     -8.392  0.6217E+01  0.6273E+01
     -8.285  0.5297E+01  0.6843E+01
     -8.177  0.4866E+01  0.7367E+01
     -8.069  0.3713E+01  0.7766E+01
     -7.962  0.1605E+01  0.7938E+01
     -7.854  0.5338E+00  0.7996E+01
     -7.747  0.3859E-01  0.8000E+01
     -7.639  0.2152E-04  0.8000E+01
     -7.532  0.5140E-11  0.8000E+01
     -7.424  0.0000E+00  0.8000E+01
     -7.317  0.0000E+00  0.8000E+01
     -7.209  0.2009E-13  0.8000E+01
     -7.102  0.6023E-06  0.8000E+01
     -6.994  0.4322E-02  0.8000E+01
     -6.886  0.1138E+00  0.8013E+01
     -6.779  0.2896E+00  0.8044E+01
     -6.671  0.4676E+00  0.8094E+01
     -6.564  0.7278E+00  0.8172E+01
     -6.456  0.9147E+00  0.8271E+01
     -6.349  0.1504E+01  0.8433E+01
     -6.241  0.2130E+01  0.8662E+01
     -6.134  0.3072E+01  0.8992E+01
     -6.026  0.3961E+01  0.9418E+01
     -5.918  0.3969E+01  0.9845E+01
     -5.811  0.4046E+01  0.1028E+02
     -5.703  0.4074E+01  0.1072E+02
     -5.596  0.4081E+01  0.1116E+02
     -5.488  0.4068E+01  0.1159E+02
     -5.381  0.4516E+01  0.1208E+02
     -5.273  0.4768E+01  0.1259E+02
     -5.166  0.4353E+01  0.1306E+02
     -5.058  0.3873E+01  0.1348E+02
     -4.951  0.3335E+01  0.1384E+02
     -4.843  0.2377E+01  0.1409E+02
     -4.735  0.2494E+01  0.1436E+02
     -4.628  0.2984E+01  0.1468E+02
     -4.520  0.3714E+01  0.1508E+02
     -4.413  0.3315E+01  0.1544E+02
     -4.305  0.3186E+01  0.1578E+02
     -4.198  0.2906E+01  0.1609E+02
     -4.090  0.2844E+01  0.1640E+02
     -3.983  0.3034E+01  0.1672E+02
     -3.875  0.3037E+01  0.1705E+02
     -3.767  0.2846E+01  0.1736E+02
     -3.660  0.3059E+01  0.1769E+02
     -3.552  0.2744E+01  0.1798E+02
     -3.445  0.2739E+01  0.1828E+02
     -3.337  0.2887E+01  0.1859E+02
     -3.230  0.2658E+01  0.1887E+02
     -3.122  0.2802E+01  0.1917E+02
     -3.015  0.2954E+01  0.1949E+02
     -2.907  0.3068E+01  0.1982E+02
     -2.799  0.2730E+01  0.2012E+02
     -2.692  0.2446E+01  0.2038E+02
     -2.584  0.2619E+01  0.2066E+02
     -2.477  0.3012E+01  0.2098E+02
     -2.369  0.3241E+01  0.2133E+02
     -2.262  0.3826E+01  0.2174E+02
     -2.154  0.3258E+01  0.2209E+02
     -2.047  0.3467E+01  0.2247E+02
     -1.939  0.4232E+01  0.2292E+02
     -1.832  0.4808E+01  0.2344E+02
     -1.724  0.5710E+01  0.2405E+02
     -1.616  0.5913E+01  0.2469E+02
     -1.509  0.6006E+01  0.2534E+02
     -1.401  0.6029E+01  0.2598E+02
     -1.294  0.5786E+01  0.2661E+02
     -1.186  0.4998E+01  0.2714E+02
     -1.079  0.5191E+01  0.2770E+02
     -0.971  0.3822E+01  0.2811E+02
     -0.864  0.2695E+01  0.2840E+02
     -0.756  0.2158E+01  0.2864E+02
     -0.648  0.3777E+01  0.2904E+02
     -0.541  0.5312E+01  0.2961E+02
     -0.433  0.5901E+01  0.3025E+02
     -0.326  0.6459E+01  0.3094E+02
     -0.218  0.6186E+01  0.3161E+02
     -0.111  0.6888E+01  0.3235E+02
     -0.003  0.6916E+01  0.3309E+02
      0.104  0.6264E+01  0.3377E+02
      0.212  0.6884E+01  0.3451E+02
      0.319  0.8679E+01  0.3544E+02
      0.427  0.8546E+01  0.3636E+02
      0.535  0.7965E+01  0.3722E+02
      0.642  0.4175E+01  0.3766E+02
      0.750  0.2860E+01  0.3797E+02
      0.857  0.3222E+01  0.3832E+02
      0.965  0.3317E+01  0.3868E+02
      1.072  0.3368E+01  0.3904E+02
      1.180  0.4034E+01  0.3947E+02
      1.287  0.3412E+01  0.3984E+02
      1.395  0.3759E+01  0.4024E+02
      1.503  0.4114E+01  0.4069E+02
      1.610  0.3878E+01  0.4110E+02
      1.718  0.3460E+01  0.4147E+02
      1.825  0.3406E+01  0.4184E+02
      1.933  0.2908E+01  0.4215E+02
      2.040  0.2448E+01  0.4242E+02
      2.148  0.2588E+01  0.4269E+02
      2.255  0.2416E+01  0.4295E+02
      2.363  0.1885E+01  0.4316E+02
      2.470  0.1126E+01  0.4328E+02
      2.578  0.9342E+00  0.4338E+02
      2.686  0.8091E+00  0.4347E+02
      2.793  0.6004E+00  0.4353E+02
      2.901  0.4479E+00  0.4358E+02
      3.008  0.5749E+00  0.4364E+02
      3.116  0.5568E+00  0.4370E+02
      3.223  0.4396E+00  0.4375E+02
      3.331  0.3557E+00  0.4379E+02
      3.438  0.3934E+00  0.4383E+02
      3.546  0.4416E+00  0.4388E+02
      3.654  0.2752E+00  0.4391E+02
      3.761  0.2792E+00  0.4394E+02
      3.869  0.3210E+00  0.4397E+02
      3.976  0.2058E+00  0.4399E+02
      4.084  0.7019E-01  0.4400E+02
      4.191  0.4125E-02  0.4400E+02
      4.299  0.9264E-01  0.4401E+02
      4.406  0.2718E+00  0.4404E+02
      4.514  0.3988E+00  0.4408E+02
      4.622  0.5814E+00  0.4414E+02
      4.729  0.7427E+00  0.4422E+02
      4.837  0.8449E+00  0.4432E+02
      4.944  0.8991E+00  0.4441E+02
      5.052  0.1014E+01  0.4452E+02
      5.159  0.1184E+01  0.4465E+02
      5.267  0.1441E+01  0.4480E+02
      5.374  0.1814E+01  0.4500E+02
      5.482  0.2258E+01  0.4524E+02
      5.589  0.2694E+01  0.4553E+02
      5.697  0.2982E+01  0.4585E+02
      5.805  0.3456E+01  0.4622E+02
      5.912  0.3798E+01  0.4663E+02
      6.020  0.4214E+01  0.4709E+02
      6.127  0.4666E+01  0.4759E+02
      6.235  0.4426E+01  0.4806E+02
      6.342  0.4137E+01  0.4851E+02
      6.450  0.4241E+01  0.4896E+02
      6.557  0.4325E+01  0.4943E+02
      6.665  0.3825E+01  0.4984E+02
      6.773  0.3500E+01  0.5022E+02
      6.880  0.4228E+01  0.5067E+02
      6.988  0.4437E+01  0.5115E+02
      7.095  0.4973E+01  0.5168E+02
      7.203  0.5073E+01  0.5223E+02
      7.310  0.4959E+01  0.5276E+02
      7.418  0.4442E+01  0.5324E+02
      7.525  0.4483E+01  0.5372E+02
      7.633  0.3952E+01  0.5415E+02
      7.740  0.3219E+01  0.5449E+02
      7.848  0.3140E+01  0.5483E+02
      7.956  0.3275E+01  0.5518E+02
      8.063  0.3336E+01  0.5554E+02
      8.171  0.3650E+01  0.5594E+02
      8.278  0.4112E+01  0.5638E+02
      8.386  0.3997E+01  0.5681E+02
      8.493  0.4030E+01  0.5724E+02
      8.601  0.4106E+01  0.5768E+02
      8.708  0.4468E+01  0.5816E+02
      8.816  0.4924E+01  0.5869E+02
      8.924  0.5241E+01  0.5926E+02
      9.031  0.4926E+01  0.5979E+02
      9.139  0.5128E+01  0.6034E+02
      9.246  0.5203E+01  0.6090E+02
      9.354  0.4733E+01  0.6141E+02
      9.461  0.4900E+01  0.6193E+02
      9.569  0.4381E+01  0.6240E+02
      9.676  0.4966E+01  0.6294E+02
      9.784  0.5174E+01  0.6350E+02
      9.891  0.5012E+01  0.6403E+02
      9.999  0.4843E+01  0.6456E+02
     10.107  0.3784E+01  0.6496E+02
     10.214  0.4294E+01  0.6542E+02
     10.322  0.4441E+01  0.6590E+02
     10.429  0.5491E+01  0.6649E+02
     10.537  0.5456E+01  0.6708E+02
     10.644  0.4754E+01  0.6759E+02
     10.752  0.4135E+01  0.6803E+02
     10.859  0.3802E+01  0.6844E+02
     10.967  0.3667E+01  0.6884E+02
     11.075  0.4976E+01  0.6937E+02
     11.182  0.5838E+01  0.7000E+02
     11.290  0.6309E+01  0.7068E+02
     11.397  0.5488E+01  0.7127E+02
     11.505  0.4613E+01  0.7177E+02
     11.612  0.4723E+01  0.7227E+02
     11.720  0.4748E+01  0.7278E+02
     11.827  0.4782E+01  0.7330E+02
     11.935  0.5603E+01  0.7390E+02
     12.043  0.6106E+01  0.7456E+02
     12.150  0.5805E+01  0.7518E+02
     12.258  0.5506E+01  0.7578E+02
     12.365  0.5142E+01  0.7633E+02
     12.473  0.5789E+01  0.7695E+02
     12.580  0.6070E+01  0.7760E+02
     12.688  0.5705E+01  0.7822E+02
     12.795  0.5915E+01  0.7885E+02
     12.903  0.5984E+01  0.7950E+02
     13.010  0.5822E+01  0.8012E+02
     13.118  0.6301E+01  0.8080E+02
     13.226  0.6008E+01  0.8145E+02
     13.333  0.5959E+01  0.8209E+02
     13.441  0.5411E+01  0.8267E+02
     13.548  0.5390E+01  0.8325E+02
     13.656  0.5325E+01  0.8382E+02
     13.763  0.5702E+01  0.8444E+02
     13.871  0.5714E+01  0.8505E+02
     13.978  0.5437E+01  0.8563E+02
     14.086  0.5261E+01  0.8620E+02
     14.194  0.5133E+01  0.8675E+02
     14.301  0.5083E+01  0.8730E+02
     14.409  0.4582E+01  0.8779E+02
     14.516  0.5111E+01  0.8834E+02
     14.624  0.5412E+01  0.8892E+02
     14.731  0.4916E+01  0.8945E+02
     14.839  0.4174E+01  0.8990E+02
     14.946  0.4811E+01  0.9042E+02
     15.054  0.5889E+01  0.9105E+02
     15.161  0.6096E+01  0.9171E+02
     15.269  0.5688E+01  0.9232E+02
     15.377  0.5896E+01  0.9295E+02
     15.484  0.5850E+01  0.9358E+02
     15.592  0.5949E+01  0.9422E+02
     15.699  0.4650E+01  0.9472E+02
     15.807  0.3298E+01  0.9508E+02
     15.914  0.2426E+01  0.9534E+02
     16.022  0.1845E+01  0.9554E+02
     16.129  0.1367E+01  0.9568E+02
     16.237  0.1011E+01  0.9579E+02
     16.345  0.9320E+00  0.9589E+02
     16.452  0.6939E+00  0.9597E+02
     16.560  0.2874E+00  0.9600E+02
     16.667  0.1688E-01  0.9600E+02
     16.775  0.5926E-04  0.9600E+02
     16.882  0.6858E-09  0.9600E+02
     16.990  0.1184E-17  0.9600E+02
     17.097  0.0000E+00  0.9600E+02
     17.205  0.0000E+00  0.9600E+02
     17.312  0.0000E+00  0.9600E+02
     17.420  0.0000E+00  0.9600E+02
     17.528  0.0000E+00  0.9600E+02
     17.635  0.0000E+00  0.9600E+02
     17.743  0.0000E+00  0.9600E+02
     17.850  0.0000E+00  0.9600E+02
     17.958  0.0000E+00  0.9600E+02
     18.065  0.0000E+00  0.9600E+02
