   14   14    1    1
  0.1021318E+02  0.5700971E-09  0.4044058E-09  0.6201871E-09  0.5000000E-15
  1.000000000000000E-004
  CAR 
 BS                                      
     42    252     48
 
  0.0000000E+00  0.0000000E+00  0.0000000E+00  0.3968254E-02
      1        -12.700132   1.000000
      2        -11.518569   1.000000
      3         -8.660224   1.000000
      4         -8.367308   1.000000
      5         -6.054695   1.000000
      6         -5.092663   1.000000
      7         -4.680620   1.000000
      8         -4.377612   1.000000
      9         -3.934919   1.000000
     10         -3.527776   1.000000
     11         -2.404777   1.000000
     12         -2.222321   1.000000
     13         -2.104512   1.000000
     14         -1.066455   1.000000
     15         -0.020396   1.000000
     16          0.013852   1.000000
     17          0.041246   1.000000
     18          0.089724   1.000000
     19          0.673147   1.000000
     20          2.119451   0.900212
     21          2.153388   0.788961
     22          2.242311   0.324645
     23          5.505198   0.000000
     24          5.726964   0.000000
     25          5.734963   0.000000
     26          5.971496   0.000000
     27          6.724521   0.000000
     28          7.698056   0.000000
     29          7.718987   0.000000
     30          8.621830   0.000000
     31          8.850169   0.000000
     32          8.854940   0.000000
     33          9.051209   0.000000
     34         10.026568   0.000000
     35         11.192009   0.000000
     36         11.406357   0.000000
     37         11.517945   0.000000
     38         11.781985   0.000000
     39         11.958530   0.000000
     40         12.294846   0.000000
     41         12.921522   0.000000
     42         13.342170   0.000000
     43         13.527650   0.000000
     44         15.523637   0.000000
     45         15.581735   0.000000
     46         15.920717   0.000000
     47         16.310151   0.000000
     48         16.538281   0.000000
 
  0.0000000E+00  0.0000000E+00  0.1428571E-01  0.3968254E-02
      1        -12.699949   1.000000
      2        -11.518929   1.000000
      3         -8.660119   1.000000
      4         -8.366748   1.000000
      5         -6.057010   1.000000
      6         -5.097547   1.000000
      7         -4.675155   1.000000
      8         -4.375100   1.000000
      9         -3.934567   1.000000
     10         -3.525854   1.000000
     11         -2.404625   1.000000
     12         -2.222438   1.000000
     13         -2.105748   1.000000
     14         -1.067406   1.000000
     15         -0.019927   1.000000
     16          0.014222   1.000000
     17          0.042871   1.000000
     18          0.086028   1.000000
     19          0.668234   1.000000
     20          2.117843   0.904140
     21          2.152539   0.792415
     22          2.248489   0.293870
     23          5.504967   0.000000
     24          5.729834   0.000000
     25          5.731691   0.000000
     26          5.971331   0.000000
     27          6.726837   0.000000
     28          7.695844   0.000000
     29          7.719376   0.000000
     30          8.623775   0.000000
     31          8.828758   0.000000
     32          8.880423   0.000000
     33          9.052133   0.000000
     34         10.028238   0.000000
     35         11.192270   0.000000
     36         11.405600   0.000000
     37         11.518877   0.000000
     38         11.773178   0.000000
     39         11.956980   0.000000
     40         12.295887   0.000000
     41         12.924797   0.000000
     42         13.338662   0.000000
     43         13.535411   0.000000
     44         15.525204   0.000000
     45         15.576844   0.000000
     46         15.912055   0.000000
     47         16.310303   0.000000
     48         16.544851   0.000000
 
  0.0000000E+00  0.0000000E+00  0.2857143E-01  0.3968254E-02
      1        -12.699399   1.000000
      2        -11.520005   1.000000
      3         -8.659807   1.000000
      4         -8.365069   1.000000
      5         -6.063902   1.000000
      6         -5.111466   1.000000
      7         -4.659495   1.000000
      8         -4.367611   1.000000
      9         -3.933516   1.000000
     10         -3.520093   1.000000
     11         -2.404176   1.000000
     12         -2.222797   1.000000
     13         -2.109448   1.000000
     14         -1.070253   1.000000
     15         -0.018526   1.000000
     16          0.015327   1.000000
     17          0.047740   1.000000
     18          0.074903   1.000000
     19          0.653780   1.000000
     20          2.113026   0.915221
     21          2.149993   0.802569
     22          2.266739   0.211795
     23          5.504269   0.000000
     24          5.722015   0.000000
     25          5.738400   0.000000
     26          5.970845   0.000000
     27          6.733666   0.000000
     28          7.689278   0.000000
     29          7.720537   0.000000
     30          8.629586   0.000000
     31          8.809194   0.000000
     32          8.912112   0.000000
     33          9.054903   0.000000
     34         10.033253   0.000000
     35         11.193016   0.000000
     36         11.403265   0.000000
     37         11.521674   0.000000
     38         11.747246   0.000000
     39         11.952441   0.000000
     40         12.299002   0.000000
     41         12.934471   0.000000
     42         13.328151   0.000000
     43         13.558213   0.000000
     44         15.529763   0.000000
     45         15.562451   0.000000
     46         15.886496   0.000000
     47         16.313106   0.000000
     48         16.506774   0.000000
 
  0.0000000E+00  0.0000000E+00  0.4285714E-01  0.3968254E-02
      1        -12.698486   1.000000
      2        -11.521790   1.000000
      3         -8.659288   1.000000
      4         -8.362281   1.000000
      5         -6.075229   1.000000
      6         -5.132657   1.000000
      7         -4.635415   1.000000
      8         -4.355286   1.000000
      9         -3.931768   1.000000
     10         -3.510509   1.000000
     11         -2.403427   1.000000
     12         -2.223395   1.000000
     13         -2.115565   1.000000
     14         -1.074974   1.000000
     15         -0.016198   1.000000
     16          0.017151   1.000000
     17          0.055790   1.000000
     18          0.056378   1.000000
     19          0.630605   1.000000
     20          2.105056   0.931404
     21          2.145753   0.818797
     22          2.296208   0.111809
     23          5.503079   0.000000
     24          5.706302   0.000000
     25          5.752613   0.000000
     26          5.970046   0.000000
     27          6.744634   0.000000
     28          7.678527   0.000000
     29          7.722437   0.000000
     30          8.639236   0.000000
     31          8.793581   0.000000
     32          8.947657   0.000000
     33          9.059511   0.000000
     34         10.041631   0.000000
     35         11.194139   0.000000
     36         11.399387   0.000000
     37         11.526312   0.000000
     38         11.705496   0.000000
     39         11.945341   0.000000
     40         12.304191   0.000000
     41         12.950155   0.000000
     42         13.310794   0.000000
     43         13.594711   0.000000
     44         15.537061   0.000000
     45         15.539369   0.000000
     46         15.845550   0.000000
     47         16.313301   0.000000
     48         16.435918   0.000000
 
  0.0000000E+00  0.0000000E+00  0.5714286E-01  0.3968254E-02
      1        -12.697213   1.000000
      2        -11.524274   1.000000
      3         -8.658568   1.000000
      4         -8.358392   1.000000
      5         -6.090758   1.000000
      6         -5.159116   1.000000
      7         -4.604934   1.000000
      8         -4.338341   1.000000
      9         -3.929327   1.000000
     10         -3.497142   1.000000
     11         -2.402377   1.000000
     12         -2.224231   1.000000
     13         -2.124020   1.000000
     14         -1.081527   1.000000
     15         -0.012951   1.000000
     16          0.019669   1.000000
     17          0.030501   1.000000
     18          0.066953   1.000000
     19          0.599883   1.000000
     20          2.094028   0.949736
     21          2.139834   0.840009
     22          2.335699   0.037912
     23          5.501401   0.000000
     24          5.685122   0.000000
     25          5.772393   0.000000
     26          5.968961   0.000000
     27          6.759213   0.000000
     28          7.663890   0.000000
     29          7.725041   0.000000
     30          8.652685   0.000000
     31          8.781781   0.000000
     32          8.986824   0.000000
     33          9.065938   0.000000
     34         10.053382   0.000000
     35         11.195459   0.000000
     36         11.393999   0.000000
     37         11.532778   0.000000
     38         11.649786   0.000000
     39         11.936350   0.000000
     40         12.311435   0.000000
     41         12.971280   0.000000
     42         13.286872   0.000000
     43         13.643025   0.000000
     44         15.508749   0.000000
     45         15.546650   0.000000
     46         15.791399   0.000000
     47         16.315956   0.000000
     48         16.355383   0.000000
 
  0.0000000E+00  0.0000000E+00  0.7142857E-01  0.3968254E-02
      1        -12.695583   1.000000
      2        -11.527433   1.000000
      3         -8.657647   1.000000
      4         -8.353412   1.000000
      5         -6.110173   1.000000
      6         -5.189122   1.000000
      7         -4.569765   1.000000
      8         -4.317048   1.000000
      9         -3.926203   1.000000
     10         -3.480017   1.000000
     11         -2.401019   1.000000
     12         -2.225295   1.000000
     13         -2.134711   1.000000
     14         -1.089884   1.000000
     15         -0.008789   1.000000
     16         -0.002617   1.000000
     17          0.022844   1.000000
     18          0.081148   1.000000
     19          0.562975   1.000000
     20          2.080064   0.967099
     21          2.132251   0.864712
     22          2.383858   0.007015
     23          5.499225   0.000000
     24          5.659150   0.000000
     25          5.797614   0.000000
     26          5.967623   0.000000
     27          6.776771   0.000000
     28          7.645773   0.000000
     29          7.728294   0.000000
     30          8.669836   0.000000
     31          8.773583   0.000000
     32          9.029380   0.000000
     33          9.074172   0.000000
     34         10.068541   0.000000
     35         11.196733   0.000000
     36         11.387153   0.000000
     37         11.541063   0.000000
     38         11.582154   0.000000
     39         11.926286   0.000000
     40         12.320725   0.000000
     41         12.997151   0.000000
     42         13.256732   0.000000
     43         13.701087   0.000000
     44         15.471906   0.000000
     45         15.557955   0.000000
     46         15.726327   0.000000
     47         16.289357   0.000000
     48         16.320090   0.000000
 
  0.0000000E+00  0.0000000E+00  0.8571429E-01  0.3968254E-02
      1        -12.693613   1.000000
      2        -11.531251   1.000000
      3         -8.656538   1.000000
      4         -8.347363   1.000000
      5         -6.133149   1.000000
      6         -5.221384   1.000000
      7         -4.531239   1.000000
      8         -4.291739   1.000000
      9         -3.922416   1.000000
     10         -3.459215   1.000000
     11         -2.399362   1.000000
     12         -2.226593   1.000000
     13         -2.147525   1.000000
     14         -1.099976   1.000000
     15         -0.042781   1.000000
     16         -0.003728   1.000000
     17          0.026628   1.000000
     18          0.098237   1.000000
     19          0.521157   1.000000
     20          2.063316   0.981082
     21          2.122986   0.891170
     22          2.439227   0.000599
     23          5.496552   0.000000
     24          5.629107   0.000000
     25          5.828124   0.000000
     26          5.966069   0.000000
     27          6.796645   0.000000
     28          7.624575   0.000000
     29          7.732126   0.000000
     30          8.690608   0.000000
     31          8.768688   0.000000
     32          9.075019   0.000000
     33          9.084169   0.000000
     34         10.087141   0.000000
     35         11.197660   0.000000
     36         11.378882   0.000000
     37         11.504634   0.000000
     38         11.551121   0.000000
     39         11.916046   0.000000
     40         12.332045   0.000000
     41         13.026992   0.000000
     42         13.220780   0.000000
     43         13.766845   0.000000
     44         15.430135   0.000000
     45         15.570246   0.000000
     46         15.652170   0.000000
     47         16.192820   0.000000
     48         16.323900   0.000000
 
  0.0000000E+00  0.0000000E+00  0.1000000E+00  0.3968254E-02
      1        -12.691310   1.000000
      2        -11.535700   1.000000
      3         -8.655250   1.000000
      4         -8.340264   1.000000
      5         -6.159299   1.000000
      6         -5.254987   1.000000
      7         -4.490289   1.000000
      8         -4.262739   1.000000
      9         -3.917973   1.000000
     10         -3.434805   1.000000
     11         -2.397396   1.000000
     12         -2.228115   1.000000
     13         -2.162314   1.000000
     14         -1.111731   1.000000
     15         -0.089682   1.000000
     16          0.002220   1.000000
     17          0.030972   1.000000
     18          0.118087   1.000000
     19          0.475536   1.000000
     20          2.043960   0.990622
     21          2.112066   0.917310
     22          2.500469   0.000020
     23          5.493363   0.000000
     24          5.595729   0.000000
     25          5.863754   0.000000
     26          5.964343   0.000000
     27          6.818196   0.000000
     28          7.600766   0.000000
     29          7.736444   0.000000
     30          8.714892   0.000000
     31          8.766783   0.000000
     32          9.095900   0.000000
     33          9.123464   0.000000
     34         10.109207   0.000000
     35         11.197895   0.000000
     36         11.369261   0.000000
     37         11.418964   0.000000
     38         11.562899   0.000000
     39         11.906559   0.000000
     40         12.345392   0.000000
     41         13.060028   0.000000
     42         13.179468   0.000000
     43         13.838442   0.000000
     44         15.384631   0.000000
     45         15.570896   0.000000
     46         15.582696   0.000000
     47         16.107675   0.000000
     48         16.330906   0.000000
 
  0.0000000E+00  0.0000000E+00  0.1142857E+00  0.3968254E-02
      1        -12.688684   1.000000
      2        -11.540746   1.000000
      3         -8.653784   1.000000
      4         -8.332144   1.000000
      5         -6.188235   1.000000
      6         -5.289271   1.000000
      7         -4.447590   1.000000
      8         -4.230396   1.000000
      9         -3.912889   1.000000
     10         -3.406881   1.000000
     11         -2.395117   1.000000
     12         -2.229853   1.000000
     13         -2.178916   1.000000
     14         -1.125065   1.000000
     15         -0.142908   1.000000
     16          0.009040   1.000000
     17          0.035823   1.000000
     18          0.140545   1.000000
     19          0.427007   1.000000
     20          2.022194   0.996072
     21          2.099514   0.941175
     22          2.566381   0.000000
     23          5.489648   0.000000
     24          5.559690   0.000000
     25          5.904321   0.000000
     26          5.962494   0.000000
     27          6.840847   0.000000
     28          7.574801   0.000000
     29          7.741181   0.000000
     30          8.742562   0.000000
     31          8.767529   0.000000
     32          9.109315   0.000000
     33          9.174446   0.000000
     34         10.134764   0.000000
     35         11.197078   0.000000
     36         11.326667   0.000000
     37         11.358365   0.000000
     38         11.576328   0.000000
     39         11.898701   0.000000
     40         12.360768   0.000000
     41         13.095485   0.000000
     42         13.133230   0.000000
     43         13.914319   0.000000
     44         15.336448   0.000000
     45         15.483885   0.000000
     46         15.594409   0.000000
     47         16.019949   0.000000
     48         16.335510   0.000000
 
  0.0000000E+00  0.0000000E+00  0.1285714E+00  0.3968254E-02
      1        -12.685750   1.000000
      2        -11.546353   1.000000
      3         -8.652152   1.000000
      4         -8.323025   1.000000
      5         -6.219572   1.000000
      6         -5.323773   1.000000
      7         -4.403636   1.000000
      8         -4.195028   1.000000
      9         -3.907180   1.000000
     10         -3.375555   1.000000
     11         -2.392520   1.000000
     12         -2.231791   1.000000
     13         -2.197161   1.000000
     14         -1.139889   1.000000
     15         -0.201923   1.000000
     16          0.016724   1.000000
     17          0.041126   1.000000
     18          0.165457   1.000000
     19          0.376188   1.000000
     20          1.998229   0.998637
     21          2.085351   0.961219
     22          2.635903   0.000000
     23          5.485396   0.000000
     24          5.521609   0.000000
     25          5.949624   0.000000
     26          5.960584   0.000000
     27          6.864100   0.000000
     28          7.547123   0.000000
     29          7.746241   0.000000
     30          8.770585   0.000000
     31          8.773491   0.000000
     32          9.124350   0.000000
     33          9.227701   0.000000
     34         10.163829   0.000000
     35         11.194862   0.000000
     36         11.228993   0.000000
     37         11.346287   0.000000
     38         11.591320   0.000000
     39         11.893277   0.000000
     40         12.378186   0.000000
     41         13.082543   0.000000
     42         13.132648   0.000000
     43         13.993156   0.000000
     44         15.286486   0.000000
     45         15.392297   0.000000
     46         15.604457   0.000000
     47         15.930638   0.000000
     48         16.340906   0.000000
 
  0.0000000E+00  0.0000000E+00  0.1428571E+00  0.3968254E-02
      1        -12.682525   1.000000
      2        -11.552485   1.000000
      3         -8.650370   1.000000
      4         -8.312950   1.000000
      5         -6.252939   1.000000
      6         -5.358162   1.000000
      7         -4.358797   1.000000
      8         -4.156938   1.000000
      9         -3.900876   1.000000
     10         -3.340961   1.000000
     11         -2.389597   1.000000
     12         -2.233930   1.000000
     13         -2.216875   1.000000
     14         -1.156105   1.000000
     15         -0.266111   1.000000
     16          0.025223   1.000000
     17          0.046814   1.000000
     18          0.192653   1.000000
     19          0.323478   1.000000
     20          1.972283   0.999616
     21          2.069602   0.976580
     22          2.708119   0.000000
     23          5.480588   0.000000
     24          5.482041   0.000000
     25          5.958637   0.000000
     26          5.999453   0.000000
     27          6.887526   0.000000
     28          7.518145   0.000000
     29          7.751500   0.000000
     30          8.775607   0.000000
     31          8.807502   0.000000
     32          9.140916   0.000000
     33          9.282946   0.000000
     34         10.196400   0.000000
     35         11.126956   0.000000
     36         11.190940   0.000000
     37         11.333129   0.000000
     38         11.607734   0.000000
     39         11.890965   0.000000
     40         12.397673   0.000000
     41         13.027857   0.000000
     42         13.170804   0.000000
     43         14.073850   0.000000
     44         15.235512   0.000000
     45         15.297072   0.000000
     46         15.611918   0.000000
     47         15.839806   0.000000
     48         16.349317   0.000000
 
  0.0000000E+00  0.0000000E+00  0.1571429E+00  0.3968254E-02
      1        -12.679028   1.000000
      2        -11.559099   1.000000
      3         -8.648450   1.000000
      4         -8.301955   1.000000
      5         -6.287986   1.000000
      6         -5.392184   1.000000
      7         -4.313381   1.000000
      8         -4.116396   1.000000
      9         -3.893997   1.000000
     10         -3.303273   1.000000
     11         -2.386345   1.000000
     12         -2.237873   1.000000
     13         -2.236247   1.000000
     14         -1.173618   1.000000
     15         -0.334818   1.000000
     16          0.034521   1.000000
     17          0.052825   1.000000
     18          0.221965   1.000000
     19          0.269108   1.000000
     20          1.944583   0.999914
     21          2.052281   0.987215
     22          2.782254   0.000000
     23          5.441464   0.000000
     24          5.475210   0.000000
     25          5.956712   0.000000
     26          6.053594   0.000000
     27          6.910786   0.000000
     28          7.488246   0.000000
     29          7.756828   0.000000
     30          8.782269   0.000000
     31          8.844438   0.000000
     32          9.158921   0.000000
     33          9.339939   0.000000
     34         10.232456   0.000000
     35         11.021380   0.000000
     36         11.185098   0.000000
     37         11.319003   0.000000
     38         11.625423   0.000000
     39         11.892252   0.000000
     40         12.419269   0.000000
     41         12.969609   0.000000
     42         13.209311   0.000000
     43         14.155484   0.000000
     44         15.184129   0.000000
     45         15.198989   0.000000
     46         15.615994   0.000000
     47         15.747935   0.000000
     48         16.359886   0.000000
 
  0.0000000E+00  0.0000000E+00  0.1714286E+00  0.3968254E-02
      1        -12.675278   1.000000
      2        -11.566143   1.000000
      3         -8.646404   1.000000
      4         -8.290083   1.000000
      5         -6.324377   1.000000
      6         -5.425639   1.000000
      7         -4.267619   1.000000
      8         -4.073632   1.000000
      9         -3.886574   1.000000
     10         -3.262662   1.000000
     11         -2.382752   1.000000
     12         -2.259966   1.000000
     13         -2.238723   1.000000
     14         -1.192313   1.000000
     15         -0.407367   1.000000
     16          0.044587   1.000000
     17          0.059084   1.000000
     18          0.213189   1.000000
     19          0.253238   1.000000
     20          1.915363   0.999985
     21          2.033435   0.993776
     22          2.857648   0.000000
     23          5.400320   0.000000
     24          5.469247   0.000000
     25          5.954856   0.000000
     26          6.111836   0.000000
     27          6.933620   0.000000
     28          7.457776   0.000000
     29          7.762135   0.000000
     30          8.790269   0.000000
     31          8.884118   0.000000
     32          9.178255   0.000000
     33          9.398443   0.000000
     34         10.271959   0.000000
     35         10.912914   0.000000
     36         11.177233   0.000000
     37         11.304041   0.000000
     38         11.644195   0.000000
     39         11.897493   0.000000
     40         12.443038   0.000000
     41         12.908206   0.000000
     42         13.247549   0.000000
     43         14.237293   0.000000
     44         15.098711   0.000000
     45         15.132872   0.000000
     46         15.616059   0.000000
     47         15.655342   0.000000
     48         16.366357   0.000000
 
  0.0000000E+00  0.0000000E+00  0.1857143E+00  0.3968254E-02
      1        -12.671297   1.000000
      2        -11.573564   1.000000
      3         -8.644246   1.000000
      4         -8.277371   1.000000
      5         -6.361807   1.000000
      6         -5.458371   1.000000
      7         -4.221721   1.000000
      8         -4.028857   1.000000
      9         -3.878639   1.000000
     10         -3.219335   1.000000
     11         -2.378810   1.000000
     12         -2.282980   1.000000
     13         -2.241324   1.000000
     14         -1.212069   1.000000
     15         -0.483081   1.000000
     16          0.055386   1.000000
     17          0.065558   1.000000
     18          0.155776   1.000000
     19          0.286279   1.000000
     20          1.884856   0.999998
     21          2.013096   0.997339
     22          2.933731   0.000000
     23          5.358997   0.000000
     24          5.462692   0.000000
     25          5.953112   0.000000
     26          6.173960   0.000000
     27          6.955823   0.000000
     28          7.427041   0.000000
     29          7.767317   0.000000
     30          8.799341   0.000000
     31          8.926366   0.000000
     32          9.198799   0.000000
     33          9.458264   0.000000
     34         10.314839   0.000000
     35         10.802144   0.000000
     36         11.167369   0.000000
     37         11.288389   0.000000
     38         11.663836   0.000000
     39         11.906797   0.000000
     40         12.469070   0.000000
     41         12.844053   0.000000
     42         13.284936   0.000000
     43         14.318616   0.000000
     44         14.996835   0.000000
     45         15.082171   0.000000
     46         15.562352   0.000000
     47         15.611743   0.000000
     48         16.381350   0.000000
 
  0.0000000E+00  0.0000000E+00  0.2000000E+00  0.3968254E-02
      1        -12.667114   1.000000
      2        -11.581316   1.000000
      3         -8.641999   1.000000
      4         -8.263888   1.000000
      5         -6.399995   1.000000
      6         -5.490254   1.000000
      7         -4.175888   1.000000
      8         -3.982246   1.000000
      9         -3.870232   1.000000
     10         -3.173550   1.000000
     11         -2.374512   1.000000
     12         -2.306730   1.000000
     13         -2.244012   1.000000
     14         -1.232779   1.000000
     15         -0.561352   1.000000
     16          0.066873   1.000000
     17          0.072171   1.000000
     18          0.096876   1.000000
     19          0.320930   1.000000
     20          1.853285   1.000000
     21          1.991289   0.999017
     22          3.009995   0.000000
     23          5.317810   0.000000
     24          5.455528   0.000000
     25          5.951510   0.000000
     26          6.239755   0.000000
     27          6.977249   0.000000
     28          7.396303   0.000000
     29          7.772273   0.000000
     30          8.809195   0.000000
     31          8.970956   0.000000
     32          9.220395   0.000000
     33          9.519174   0.000000
     34         10.360994   0.000000
     35         10.689493   0.000000
     36         11.155647   0.000000
     37         11.272195   0.000000
     38         11.684088   0.000000
     39         11.920107   0.000000
     40         12.497448   0.000000
     41         12.777501   0.000000
     42         13.320869   0.000000
     43         14.398894   0.000000
     44         14.893911   0.000000
     45         15.032370   0.000000
     46         15.469273   0.000000
     47         15.602978   0.000000
     48         16.384261   0.000000
 
  0.0000000E+00  0.0000000E+00  0.2142857E+00  0.3968254E-02
      1        -12.662752   1.000000
      2        -11.589333   1.000000
      3         -8.639672   1.000000
      4         -8.249679   1.000000
      5         -6.438666   1.000000
      6         -5.521183   1.000000
      7         -4.130271   1.000000
      8         -3.933945   1.000000
      9         -3.861393   1.000000
     10         -3.125564   1.000000
     11         -2.369850   1.000000
     12         -2.331029   1.000000
     13         -2.246727   1.000000
     14         -1.254295   1.000000
     15         -0.641576   1.000000
     16          0.036512   1.000000
     17          0.078872   1.000000
     18          0.079008   1.000000
     19          0.357041   1.000000
     20          1.820896   1.000000
     21          1.968060   0.999691
     22          3.086018   0.000000
     23          5.277071   0.000000
     24          5.447748   0.000000
     25          5.950087   0.000000
     26          6.309026   0.000000
     27          6.997787   0.000000
     28          7.365825   0.000000
     29          7.776926   0.000000
     30          8.819637   0.000000
     31          9.017685   0.000000
     32          9.242888   0.000000
     33          9.580978   0.000000
     34         10.410291   0.000000
     35         10.575346   0.000000
     36         11.142325   0.000000
     37         11.255641   0.000000
     38         11.704665   0.000000
     39         11.937243   0.000000
     40         12.528314   0.000000
     41         12.708912   0.000000
     42         13.354801   0.000000
     43         14.477644   0.000000
     44         14.790489   0.000000
     45         14.983748   0.000000
     46         15.376394   0.000000
     47         15.590019   0.000000
     48         16.396559   0.000000
 
  0.0000000E+00  0.0000000E+00  0.2285714E+00  0.3968254E-02
      1        -12.658243   1.000000
      2        -11.597560   1.000000
      3         -8.637286   1.000000
      4         -8.234816   1.000000
      5         -6.477581   1.000000
      6         -5.551068   1.000000
      7         -4.085063   1.000000
      8         -3.884078   1.000000