   14   14    1    1
  0.1026565E+02  0.5705546E-09  0.4053972E-09  0.6213506E-09  0.5000000E-15
  1.000000000000000E-004
  CAR 
 Convergence                             
     42    175     48
 
  0.5000000E-01  0.3571429E-01  0.0000000E+00  0.3174603E-02
      1        -12.719695   1.000000
      2        -11.578280   1.000000
      3         -8.664361   1.000000
      4         -8.428261   1.000000
      5         -6.076215   1.000000
      6         -5.142997   1.000000
      7         -4.680054   1.000000
      8         -4.282794   1.000000
      9         -4.044739   1.000000
     10         -3.557344   1.000000
     11         -2.613341   1.000000
     12         -2.344781   1.000000
     13         -1.854899   1.000000
     14         -1.115215   1.000000
     15         -0.087419   1.000000
     16         -0.056977   1.000000
     17          0.132801   1.000000
     18          0.152837   1.000000
     19          0.542252   1.000000
     20          1.994438   0.000057
     21          2.056836   0.000000
     22          2.188552   0.000000
     23          5.422852   0.000000
     24          5.713411   0.000000
     25          5.800110   0.000000
     26          5.923822   0.000000
     27          6.774378   0.000000
     28          7.508503   0.000000
     29          7.835276   0.000000
     30          8.483581   0.000000
     31          8.741540   0.000000
     32          8.895628   0.000000
     33          8.982963   0.000000
     34         10.079487   0.000000
     35         11.143318   0.000000
     36         11.276328   0.000000
     37         11.603962   0.000000
     38         11.725946   0.000000
     39         11.891361   0.000000
     40         12.357198   0.000000
     41         12.806302   0.000000
     42         13.388502   0.000000
     43         13.415903   0.000000
     44         15.302416   0.000000
     45         15.497730   0.000000
     46         15.983650   0.000000
     47         16.264053   0.000000
     48         16.284319   0.000000
 
  0.1500000E+00  0.3571429E-01  0.0000000E+00  0.3174603E-02
      1        -12.675998   1.000000
      2        -11.652111   1.000000
      3         -8.643150   1.000000
      4         -8.416760   1.000000
      5         -6.008285   1.000000
      6         -5.481984   1.000000
      7         -4.801234   1.000000
      8         -4.020324   1.000000
      9         -3.803396   1.000000
     10         -3.221362   1.000000
     11         -2.683188   1.000000
     12         -2.324979   1.000000
     13         -1.932469   1.000000
     14         -1.421662   1.000000
     15         -0.047397   1.000000
     16         -0.040640   1.000000
     17          0.073089   1.000000
     18          0.174419   1.000000
     19          0.447053   1.000000
     20          1.908449   0.076758
     21          1.979136   0.000306
     22          2.067880   0.000000
     23          5.512217   0.000000
     24          5.718956   0.000000
     25          5.831239   0.000000
     26          6.267568   0.000000
     27          6.689446   0.000000
     28          7.148082   0.000000
     29          8.041774   0.000000
     30          8.620038   0.000000
     31          8.993132   0.000000
     32          9.072299   0.000000
     33          9.150515   0.000000
     34         10.186376   0.000000
     35         10.885745   0.000000
     36         11.072479   0.000000
     37         11.215601   0.000000
     38         11.644018   0.000000
     39         12.108215   0.000000
     40         12.444826   0.000000
     41         13.056786   0.000000
     42         13.065066   0.000000
     43         13.944258   0.000000
     44         14.793307   0.000000
     45         15.680502   0.000000
     46         15.763734   0.000000
     47         16.152286   0.000000
     48         16.440243   0.000000
 
  0.2500000E+00  0.3571429E-01  0.0000000E+00  0.3174603E-02
      1        -12.590470   1.000000
      2        -11.785109   1.000000
      3         -8.599459   1.000000
      4         -8.402008   1.000000
      5         -5.986484   1.000000
      6         -5.807602   1.000000
      7         -4.754852   1.000000
      8         -3.893987   1.000000
      9         -3.293066   1.000000
     10         -2.850674   1.000000
     11         -2.731019   1.000000
     12         -2.285139   1.000000
     13         -2.041778   1.000000
     14         -1.925195   1.000000
     15         -0.244505   1.000000
     16         -0.006290   1.000000
     17          0.121332   1.000000
     18          0.138433   1.000000
     19          0.416940   1.000000
     20          1.760732   0.997028
     21          1.839609   0.698424
     22          1.846798   0.624204
     23          5.633491   0.000000
     24          5.675320   0.000000
     25          6.140044   0.000000
     26          6.564278   0.000000
     27          6.724391   0.000000
     28          6.894031   0.000000
     29          8.190587   0.000000
     30          8.768982   0.000000
     31          8.940687   0.000000
     32          9.516829   0.000000
     33          9.595537   0.000000
     34         10.227198   0.000000
     35         10.428698   0.000000
     36         10.567394   0.000000
     37         11.333262   0.000000
     38         11.787657   0.000000
     39         12.342737   0.000000
     40         12.501973   0.000000
     41         12.741597   0.000000
     42         12.852998   0.000000
     43         14.568111   0.000000
     44         14.846291   0.000000
     45         15.164874   0.000000
     46         15.911000   0.000000
     47         15.932313   0.000000
     48         16.213824   0.000000
 
  0.3500000E+00  0.3571429E-01  0.0000000E+00  0.3174603E-02
      1        -12.467085   1.000000
      2        -11.954456   1.000000
      3         -8.537666   1.000000
      4         -8.398674   1.000000
      5         -6.066218   1.000000
      6         -6.040328   1.000000
      7         -4.428152   1.000000
      8         -3.725960   1.000000
      9         -3.043708   1.000000
     10         -2.910001   1.000000
     11         -2.459714   1.000000
     12         -2.270861   1.000000
     13         -2.167919   1.000000
     14         -2.141346   1.000000
     15         -0.543613   1.000000
     16         -0.269429   1.000000
     17          0.153840   1.000000
     18          0.228829   1.000000
     19          0.589605   1.000000
     20          1.504145   1.000000
     21          1.639132   1.000000
     22          1.699038   0.999997
     23          5.660763   0.000000
     24          5.718375   0.000000
     25          6.463972   0.000000
     26          6.636588   0.000000
     27          6.662125   0.000000
     28          7.371022   0.000000
     29          8.313550   0.000000
     30          8.641322   0.000000
     31          8.754739   0.000000
     32          9.484575   0.000000
     33          9.998146   0.000000
     34         10.066620   0.000000
     35         10.341006   0.000000
     36         11.083163   0.000000
     37         11.354656   0.000000
     38         11.883070   0.000000
     39         12.146572   0.000000
     40         12.214956   0.000000
     41         12.469132   0.000000
     42         13.203285   0.000000
     43         14.655766   0.000000
     44         14.912180   0.000000
     45         15.187783   0.000000
     46         15.308427   0.000000
     47         15.502875   0.000000
     48         16.306338   0.000000
 
  0.4500000E+00  0.3571429E-01  0.0000000E+00  0.3174603E-02
      1        -12.312484   1.000000
      2        -12.136760   1.000000
      3         -8.471742   1.000000
      4         -8.421045   1.000000
      5         -6.154174   1.000000
      6         -6.150465   1.000000
      7         -3.913905   1.000000
      8         -3.517847   1.000000
      9         -3.315617   1.000000
     10         -3.281254   1.000000
     11         -2.375806   1.000000
     12         -2.249633   1.000000
     13         -1.982877   1.000000
     14         -1.927199   1.000000
     15         -0.764216   1.000000
     16         -0.628113   1.000000
     17          0.236666   1.000000
     18          0.269973   1.000000
     19          0.849672   1.000000
     20          1.166217   1.000000
     21          1.558718   1.000000
     22          1.585778   1.000000
     23          5.689759   0.000000
     24          5.728432   0.000000
     25          6.443521   0.000000
     26          6.507833   0.000000
     27          7.328578   0.000000
     28          8.029192   0.000000
     29          8.052646   0.000000
     30          8.429944   0.000000
     31          8.566951   0.000000
     32          8.742031   0.000000
     33         10.449623   0.000000
     34         10.463305   0.000000
     35         10.702397   0.000000
     36         11.159414   0.000000
     37         11.343402   0.000000
     38         11.534645   0.000000
     39         11.866785   0.000000
     40         12.423600   0.000000
     41         12.663915   0.000000
     42         13.197056   0.000000
     43         14.534298   0.000000
     44         14.667818   0.000000
     45         14.808393   0.000000
     46         14.868039   0.000000
     47         16.026264   0.000000
     48         16.371859   0.000000
 
  0.5000000E-01  0.1071429E+00  0.0000000E+00  0.3174603E-02
      1        -12.695775   1.000000
      2        -11.556729   1.000000
      3         -8.645714   1.000000
      4         -8.405262   1.000000
      5         -6.049632   1.000000
      6         -5.109334   1.000000
      7         -4.658143   1.000000
      8         -4.581660   1.000000
      9         -4.188224   1.000000
     10         -3.534679   1.000000
     11         -3.305281   1.000000
     12         -1.813870   1.000000
     13         -1.110659   1.000000
     14         -1.057349   1.000000
     15         -0.320318   1.000000
     16         -0.292333   1.000000
     17          0.146319   1.000000
     18          0.223094   1.000000
     19          0.620276   1.000000
     20          1.727807   0.999884
     21          1.807060   0.925137
     22          2.240557   0.000000
     23          5.543021   0.000000
     24          5.671295   0.000000
     25          5.707494   0.000000
     26          5.966657   0.000000
     27          7.058710   0.000000
     28          7.793537   0.000000
     29          8.029338   0.000000
     30          8.143856   0.000000
     31          8.746417   0.000000
     32          9.034527   0.000000
     33          9.090946   0.000000
     34         10.528378   0.000000
     35         11.208926   0.000000
     36         11.355846   0.000000
     37         11.538392   0.000000
     38         11.828323   0.000000
     39         12.002317   0.000000
     40         12.635357   0.000000
     41         12.807604   0.000000
     42         13.127956   0.000000
     43         13.131893   0.000000
     44         15.257366   0.000000
     45         15.303913   0.000000
     46         15.787890   0.000000
     47         15.789084   0.000000
     48         16.145743   0.000000
 
  0.1500000E+00  0.1071429E+00  0.0000000E+00  0.3174603E-02
      1        -12.652170   1.000000
      2        -11.630419   1.000000
      3         -8.624352   1.000000
      4         -8.394134   1.000000
      5         -5.979929   1.000000
      6         -5.451958   1.000000
      7         -4.781333   1.000000
      8         -4.500468   1.000000
      9         -3.764970   1.000000
     10         -3.385360   1.000000
     11         -3.183630   1.000000
     12         -1.792308   1.000000
     13         -1.416264   1.000000
     14         -1.174863   1.000000
     15         -0.281718   1.000000
     16         -0.214254   1.000000
     17          0.113454   1.000000
     18          0.195953   1.000000
     19          0.517445   1.000000
     20          1.647570   1.000000
     21          1.730817   0.999839
     22          2.110237   0.000000
     23          5.619147   0.000000
     24          5.770584   0.000000
     25          5.895246   0.000000
     26          6.075354   0.000000
     27          6.975774   0.000000
     28          7.469052   0.000000
     29          8.175192   0.000000
     30          8.311287   0.000000
     31          9.063887   0.000000
     32          9.102626   0.000000
     33          9.360211   0.000000
     34         10.449177   0.000000
     35         10.818036   0.000000
     36         11.025642   0.000000
     37         11.409892   0.000000
     38         11.816806   0.000000
     39         12.221378   0.000000
     40         12.685711   0.000000
     41         12.807843   0.000000
     42         13.088989   0.000000
     43         13.663636   0.000000
     44         14.877885   0.000000
     45         15.326020   0.000000
     46         15.683787   0.000000
     47         15.721294   0.000000
     48         16.325765   0.000000
 
  0.2500000E+00  0.1071429E+00  0.0000000E+00  0.3174603E-02
      1        -12.566835   1.000000
      2        -11.763161   1.000000
      3         -8.580449   1.000000
      4         -8.380080   1.000000
      5         -5.955379   1.000000
      6         -5.777326   1.000000
      7         -4.738316   1.000000
      8         -4.392693   1.000000
      9         -3.506604   1.000000
     10         -3.240256   1.000000
     11         -2.718517   1.000000
     12         -1.920591   1.000000
     13         -1.748314   1.000000
     14         -1.336447   1.000000
     15         -0.246523   1.000000
     16         -0.235734   1.000000
     17          0.033154   1.000000
     18          0.183056   1.000000
     19          0.441304   1.000000
     20          1.513005   1.000000
     21          1.601112   1.000000
     22          1.862873   0.445066
     23          5.816741   0.000000
     24          5.898682   0.000000
     25          5.977163   0.000000
     26          6.522208   0.000000
     27          6.855847   0.000000
     28          7.242031   0.000000
     29          8.381860   0.000000
     30          8.442744   0.000000
     31          9.038811   0.000000
     32          9.555230   0.000000
     33          9.820142   0.000000
     34         10.072165   0.000000
     35         10.297594   0.000000
     36         10.763237   0.000000
     37         11.472972   0.000000
     38         12.051936   0.000000
     39         12.247093   0.000000
     40         12.504085   0.000000
     41         12.892614   0.000000
     42         12.969962   0.000000
     43         14.239405   0.000000
     44         15.011739   0.000000
     45         15.094224   0.000000
     46         15.574030   0.000000
     47         15.641008   0.000000
     48         16.346277   0.000000
 
  0.3500000E+00  0.1071429E+00  0.0000000E+00  0.3174603E-02
      1        -12.443711   1.000000
      2        -11.932159   1.000000
      3         -8.518404   1.000000
      4         -8.377630   1.000000
      5         -6.033908   1.000000
      6         -6.009209   1.000000
      7         -4.413753   1.000000
      8         -4.246421   1.000000
      9         -3.677041   1.000000
     10         -2.862052   1.000000
     11         -2.378635   1.000000
     12         -2.236406   1.000000
     13         -1.684490   1.000000
     14         -1.498446   1.000000
     15         -0.505685   1.000000
     16         -0.330387   1.000000
     17          0.064296   1.000000
     18          0.095288   1.000000
     19          0.600188   1.000000
     20          1.373624   1.000000
     21          1.456241   1.000000
     22          1.540078   1.000000
     23          5.834271   0.000000
     24          5.971730   0.000000
     25          6.481631   0.000000
     26          6.767353   0.000000
     27          6.840872   0.000000
     28          7.331540   0.000000
     29          8.372679   0.000000
     30          8.549577   0.000000
     31          8.883699   0.000000
     32          9.321267   0.000000
     33         10.016818   0.000000
     34         10.040715   0.000000
     35         10.388188   0.000000
     36         11.159510   0.000000
     37         11.309962   0.000000
     38         11.783065   0.000000
     39         12.225081   0.000000
     40         12.492794   0.000000
     41         12.668034   0.000000
     42         13.404099   0.000000
     43         14.699629   0.000000
     44         14.708942   0.000000
     45         15.083226   0.000000
     46         15.241197   0.000000
     47         15.578816   0.000000
     48         16.320291   0.000000
 
  0.4500000E+00  0.1071429E+00  0.0000000E+00  0.3174603E-02
      1        -12.289438   1.000000
      2        -12.114084   1.000000
      3         -8.452130   1.000000
      4         -8.400842   1.000000
      5         -6.122257   1.000000
      6         -6.118114   1.000000
      7         -4.068409   1.000000
      8         -3.906405   1.000000
      9         -3.865850   1.000000
     10         -3.302906   1.000000
     11         -2.123460   1.000000
     12         -1.931381   1.000000
     13         -1.616381   1.000000
     14         -1.611224   1.000000
     15         -0.726327   1.000000
     16         -0.624038   1.000000
     17          0.098347   1.000000
     18          0.129399   1.000000
     19          0.859009   1.000000
     20          1.172677   1.000000
     21          1.320435   1.000000
     22          1.344339   1.000000
     23          5.886256   0.000000
     24          5.953238   0.000000
     25          6.757412   0.000000
     26          6.808157   0.000000
     27          7.146722   0.000000
     28          7.855920   0.000000
     29          7.898862   0.000000
     30          8.578157   0.000000
     31          8.641097   0.000000
     32          8.752780   0.000000
     33         10.264372   0.000000
     34         10.513620   0.000000
     35         10.752012   0.000000
     36         10.850932   0.000000
     37         11.490738   0.000000
     38         11.593348   0.000000
     39         11.944572   0.000000
     40         12.590691   0.000000
     41         12.970453   0.000000
     42         13.426735   0.000000
     43         14.484457   0.000000
     44         14.669771   0.000000
     45         14.768706   0.000000
     46         14.986536   0.000000
     47         16.051920   0.000000
     48         16.346728   0.000000
 
  0.5000000E-01  0.1785714E+00  0.0000000E+00  0.3174603E-02
      1        -12.651586   1.000000
      2        -11.516989   1.000000
      3         -8.611581   1.000000
      4         -8.362837   1.000000
      5         -6.000497   1.000000
      6         -5.138105   1.000000
      7         -5.019179   1.000000
      8         -4.616629   1.000000
      9         -4.171633   1.000000
     10         -3.926288   1.000000
     11         -3.481694   1.000000
     12         -1.223644   1.000000
     13         -1.101442   1.000000
     14         -0.662422   1.000000
     15         -0.558731   1.000000
     16         -0.200423   1.000000
     17          0.167389   1.000000
     18          0.275401   1.000000
     19          0.698258   1.000000
     20          1.346788   1.000000
     21          1.409663   1.000000
     22          2.278318   0.000000
     23          5.256208   0.000000
     24          5.420087   0.000000
     25          6.083566   0.000000
     26          6.153335   0.000000
     27          7.490926   0.000000
     28          7.579842   0.000000
     29          8.273830   0.000000
     30          8.673047   0.000000
     31          8.830485   0.000000
     32          9.174710   0.000000
     33          9.313647   0.000000
     34         10.827993   0.000000
     35         11.262942   0.000000
     36         11.514436   0.000000
     37         11.653492   0.000000
     38         12.027848   0.000000
     39         12.218170   0.000000
     40         12.688642   0.000000
     41         12.701039   0.000000
     42         12.939347   0.000000
     43         13.171555   0.000000
     44         14.597192   0.000000
     45         15.088484   0.000000
     46         15.265094   0.000000
     47         15.367106   0.000000
     48         15.884518   0.000000
 
  0.1500000E+00  0.1785714E+00  0.0000000E+00  0.3174603E-02
      1        -12.608165   1.000000
      2        -11.590413   1.000000
      3         -8.589912   1.000000
      4         -8.352402   1.000000
      5         -5.927408   1.000000
      6         -5.403493   1.000000
      7         -5.041283   1.000000
      8         -4.743875   1.000000
      9         -3.991918   1.000000
     10         -3.723283   1.000000
     11         -3.144280   1.000000
     12         -1.407972   1.000000
     13         -1.197655   1.000000
     14         -0.770473   1.000000
     15         -0.520864   1.000000
     16         -0.118803   1.000000
     17          0.146377   1.000000
     18          0.220991   1.000000
     19          0.585693   1.000000
     20          1.267931   1.000000
     21          1.340114   1.000000
     22          2.143026   0.000000
     23          5.336665   0.000000
     24          5.764152   0.000000
     25          6.099447   0.000000
     26          6.198860   0.000000
     27          7.410539   0.000000
     28          7.736359   0.000000
     29          8.006209   0.000000
     30          8.765289   0.000000
     31          9.188482   0.000000
     32          9.232200   0.000000
     33          9.597143   0.000000
     34         10.463695   0.000000
     35         10.724023   0.000000
     36         11.219352   0.000000
     37         11.671285   0.000000
     38         12.141470   0.000000
     39         12.373666   0.000000
     40         12.447257   0.000000
     41         13.099386   0.000000
     42         13.218087   0.000000
     43         13.372902   0.000000
     44         14.609679   0.000000
     45         14.751997   0.000000
     46         15.199885   0.000000
     47         15.431229   0.000000
     48         15.916656   0.000000
 
  0.2500000E+00  0.1785714E+00  0.0000000E+00  0.3174603E-02
      1        -12.523165   1.000000
      2        -11.722659   1.000000
      3         -8.545578   1.000000
      4         -8.339669   1.000000
      5         -5.897493   1.000000
      6         -5.722657   1.000000
      7         -4.949791   1.000000
      8         -4.707444   1.000000
      9         -4.114625   1.000000
     10         -3.190674   1.000000
     11         -2.674756   1.000000
     12         -1.904302   1.000000
     13         -1.157306   1.000000
     14         -0.909750   1.000000
     15         -0.468359   1.000000
     16         -0.112860   1.000000
     17         -0.007576   1.000000
     18          0.232268   1.000000
     19          0.470969   1.000000
     20          1.136884   1.000000
     21          1.222116   1.000000
     22          1.887368   0.203001
     23          5.656962   0.000000
     24          6.054534   0.000000
     25          6.238194   0.000000
     26          6.329303   0.000000
     27          7.308948   0.000000
     28          7.818049   0.000000
     29          7.970481   0.000000
     30          8.894230   0.000000
     31          9.186109   0.000000
     32          9.663011   0.000000
     33          9.800743   0.000000
     34         10.079469   0.000000
     35         10.200112   0.000000
     36         11.002629   0.000000
     37         11.534491   0.000000
     38         12.048699   0.000000
     39         12.451067   0.000000
     40         12.748572   0.000000
     41         12.979753   0.000000
     42         13.388859   0.000000
     43         13.894717   0.000000
     44         14.520937   0.000000
     45         14.801068   0.000000
     46         15.224096   0.000000
     47         15.448149   0.000000
     48         16.127509   0.000000
 
  0.3500000E+00  0.1785714E+00  0.0000000E+00  0.3174603E-02
      1        -12.400541   1.000000
      2        -11.891021   1.000000
      3         -8.483074   1.000000
      4         -8.338912   1.000000
      5         -5.973709   1.000000
      6         -5.951811   1.000000
      7         -4.814615   1.000000
      8         -4.387206   1.000000
      9         -4.278049   1.000000
     10         -2.823992   1.000000
     11         -2.338136   1.000000
     12         -2.195347   1.000000
     13         -1.101087   1.000000
     14         -1.046970   1.000000
     15         -0.475504   1.000000
     16         -0.397576   1.000000
     17          0.035987   1.000000
     18          0.038208   1.000000
     19          0.617669   1.000000
     20          1.007653   1.000000
     21          1.089783   1.000000
     22          1.553454   1.000000
     23          6.066531   0.000000
     24          6.189930   0.000000
     25          6.360241   0.000000
     26          6.762790   0.000000
     27          7.254386   0.000000
     28          7.740074   0.000000
     29          8.027608   0.000000
     30          8.993689   0.000000
     31          9.054494   0.000000
     32          9.123398   0.000000
     33          9.830953   0.000000
     34         10.129335   0.000000
     35         10.648729   0.000000
     36         11.022208   0.000000
     37         11.258205   0.000000
     38         11.894418   0.000000
     39         12.287133   0.000000
     40         12.929915   0.000000
     41         12.980920   0.000000
     42         13.730344   0.000000
     43         14.309710   0.000000
     44         14.328520   0.000000
     45         14.960743   0.000000
     46         15.055474   0.000000
     47         15.540675   0.000000
     48         16.306170   0.000000
 
  0.4500000E+00  0.1785714E+00  0.0000000E+00  0.3174603E-02
      1        -12.246891   1.000000
      2        -12.072233   1.000000
      3         -8.416134   1.000000
      4         -8.363720   1.000000
      5         -6.063017   1.000000
      6         -6.057876   1.000000
      7         -4.647753   1.000000
      8         -4.463185   1.000000
      9         -3.875721   1.000000
     10         -3.280502   1.000000
     11         -2.055885   1.000000
     12         -1.891289   1.000000
     13         -1.120084   1.000000
     14         -1.060306   1.000000
     15         -0.652231   1.000000
     16         -0.647513   1.000000
     17         -0.013115   1.000000
     18          0.030375   1.000000
     19          0.874625   1.000000
     20          0.945259   1.000000
     21          0.985621   1.000000
     22          1.200994   1.000000
     23          6.158476   0.000000
     24          6.277661   0.000000
     25          6.840125   0.000000
     26          7.175756   0.000000
     27          7.233307   0.000000
     28          7.582249   0.000000
     29          7.886423   0.000000
     30          8.394945   0.000000
     31          9.049093   0.000000
     32          9.080687   0.000000
     33          9.955641   0.000000
     34         10.428297   0.000000
     35         10.651008   0.000000
     36         10.925953   0.000000
     37         11.670466   0.000000
     38         11.683360   0.000000
     39         12.063585   0.000000
     40         12.844568   0.000000
     41         13.357754   0.000000
     42         13.702694   0.000000
     43         14.161014   0.000000
     44         14.315160   0.000000
     45         14.928957   0.000000
     46         15.067708   0.000000
     47         15.918523   0.000000
     48         16.221016   0.000000
 
  0.5000000E-01  0.2500000E+00  0.0000000E+00  0.3174603E-02
      1        -12.594339   1.000000
      2        -11.465640   1.000000
      3         -8.567973   1.000000
      4         -8.307948   1.000000
      5         -5.936728   1.000000
      6         -5.618212   1.000000
      7         -4.949476   1.000000
      8         -4.560791   1.000000
      9         -4.445579   1.000000
     10         -4.132479   1.000000
     11         -3.420057   1.000000
     12         -1.233548   1.000000
     13         -1.087189   1.000000
     14         -1.014923   1.000000
     15         -0.216523   1.000000
     16          0.195448   1.000000
     17          0.318351   1.000000
     18          0.569297   1.000000
     19          0.761619   1.000000
     20          0.962888   1.000000
     21          0.976854   1.000000
     22          2.312229   0.000000
     23          4.914976   0.000000
     24          5.128154   0.000000
     25          6.312693   0.000000
     26          6.542477   0.000000
     27          7.223259   0.000000
     28          7.917507   0.000000
     29          8.643720   0.000000
     30          9.011788   0.000000
     31          9.399635   0.000000
     32          9.529486   0.000000
     33          9.594737   0.000000
     34         10.689375   0.000000
     35         11.210869   0.000000
     36         11.911378   0.000000
     37         11.967462   0.000000
     38         12.234126   0.000000
     39         12.367631   0.000000
     40         12.394503   0.000000
     41         12.507214   0.000000
     42         12.924166   0.000000
     43         13.716611   0.000000
     44         13.821155   0.000000
     45         14.345600   0.000000
     46         15.038561   0.000000
     47         15.340729   0.000000
     48         15.776542   0.000000
 
  0.1500000E+00  0.2500000E+00  0.0000000E+00  0.3174603E-02
      1        -12.551147   1.000000
      2        -11.538718   1.000000
      3         -8.545894   1.000000
      4         -8.298466   1.000000
      5         -5.859042   1.000000
      6         -5.583438   1.000000
      7         -5.285228   1.000000
      8         -4.694320   1.000000