<?xml version="1.0" encoding="ISO-8859-1"?>
<modeling>
 <generator>
  <i name="program" type="string">vasp </i>
  <i name="version" type="string">6.4.3  </i>
  <i name="subversion" type="string">19Mar24 (build May 31 2024 16:31:43) complex                          parallel </i>
  <i name="platform" type="string">LinuxIFC </i>
  <i name="date" type="string">2024 11 05 </i>
  <i name="time" type="string">22:25:15 </i>
 </generator>
 <incar>
  <i type="string" name="SYSTEM">Convergence</i>
  <i type="int" name="ISTART">     0</i>
  <i type="string" name="PREC">Accurate</i>
  <i type="string" name="ALGO">Normal</i>
  <i type="int" name="ISPIN">     1</i>
  <i type="int" name="ICHARG">     2</i>
  <i type="int" name="NELM">   100</i>
  <i type="int" name="IBRION">    -1</i>
  <i name="EDIFF">      0.00000100</i>
  <i name="EDIFFG">     -0.00100000</i>
  <i type="int" name="NSW">     0</i>
  <i type="int" name="ISIF">     2</i>
  <i name="ENCUT">    600.00000000</i>
  <i name="POTIM">      0.50000000</i>
  <i type="int" name="ISMEAR">     0</i>
  <i name="SIGMA">      0.05000000</i>
  <i type="logical" name="LWAVE"> F  </i>
  <i type="logical" name="LCHARG"> F  </i>
  <i type="string" name="GGA">PE</i>
 </incar>
 <primitive_cell>
  <structure name="primitive_cell" >
   <crystal>
    <varray name="basis" >
     <v>       5.70554550       0.00000000       0.00000000 </v>
     <v>       0.00000000       4.05397185       0.00000000 </v>
     <v>       0.00000000       0.00000000       6.21350630 </v>
    </varray>
    <i name="volume">    143.71915160 </i>
    <varray name="rec_basis" >
     <v>       0.17526808       0.00000000       0.00000000 </v>
     <v>       0.00000000       0.24667167       0.00000000 </v>
     <v>       0.00000000       0.00000000       0.16093973 </v>
    </varray>
   </crystal>
   <varray name="positions" >
    <v>       0.52123000       0.50000000       0.63796000 </v>
    <v>       0.47877000       0.50000000       0.36204000 </v>
    <v>       0.97877000       0.50000000       0.63796000 </v>
    <v>       0.02123000       0.50000000       0.36204000 </v>
    <v>       0.60090000       0.50000000       0.89991000 </v>
    <v>       0.39910000       0.50000000       0.10009000 </v>
    <v>       0.89910000       0.50000000       0.89991000 </v>
    <v>       0.10090000       0.50000000       0.10009000 </v>
    <v>       0.75000000       0.79171000       0.72973000 </v>
    <v>       0.25000000       0.20829000       0.27027000 </v>
    <v>       0.75000000       0.20829000       0.72973000 </v>
    <v>       0.25000000       0.79171000       0.27027000 </v>
    <v>       0.25000000       0.50000000       0.52367000 </v>
    <v>       0.75000000       0.50000000       0.47633000 </v>
   </varray>
  </structure>
  <varray name="primitive_index" >
   <v type="int" >        1 </v>
   <v type="int" >        2 </v>
   <v type="int" >        3 </v>
   <v type="int" >        4 </v>
   <v type="int" >        5 </v>
   <v type="int" >        6 </v>
   <v type="int" >        7 </v>
   <v type="int" >        8 </v>
   <v type="int" >        9 </v>
   <v type="int" >       10 </v>
   <v type="int" >       11 </v>
   <v type="int" >       12 </v>
   <v type="int" >       13 </v>
   <v type="int" >       14 </v>
  </varray>
 </primitive_cell>
 <kpoints>
  <generation param="Monkhorst-Pack">
   <v type="int" name="divisions">      10       14        9 </v>
   <v name="usershift">      0.00000000       0.00000000       0.00000000 </v>
   <v name="genvec1">      0.10000000       0.00000000       0.00000000 </v>
   <v name="genvec2">      0.00000000       0.07142857       0.00000000 </v>
   <v name="genvec3">      0.00000000       0.00000000       0.11111111 </v>
   <v name="shift">      0.50000000       0.50000000       0.00000000 </v>
  </generation>
  <varray name="kpointlist" >
   <v>       0.05000000       0.03571429       0.00000000 </v>
   <v>       0.15000000       0.03571429       0.00000000 </v>
   <v>       0.25000000       0.03571429       0.00000000 </v>
   <v>       0.35000000       0.03571429       0.00000000 </v>
   <v>       0.45000000       0.03571429       0.00000000 </v>
   <v>       0.05000000       0.10714286       0.00000000 </v>
   <v>       0.15000000       0.10714286       0.00000000 </v>
   <v>       0.25000000       0.10714286       0.00000000 </v>
   <v>       0.35000000       0.10714286       0.00000000 </v>
   <v>       0.45000000       0.10714286       0.00000000 </v>
   <v>       0.05000000       0.17857143       0.00000000 </v>
   <v>       0.15000000       0.17857143       0.00000000 </v>
   <v>       0.25000000       0.17857143       0.00000000 </v>
   <v>       0.35000000       0.17857143       0.00000000 </v>
   <v>       0.45000000       0.17857143       0.00000000 </v>
   <v>       0.05000000       0.25000000       0.00000000 </v>
   <v>       0.15000000       0.25000000       0.00000000 </v>
   <v>       0.25000000       0.25000000       0.00000000 </v>
   <v>       0.35000000       0.25000000       0.00000000 </v>
   <v>       0.45000000       0.25000000       0.00000000 </v>
   <v>       0.05000000       0.32142857       0.00000000 </v>
   <v>       0.15000000       0.32142857       0.00000000 </v>
   <v>       0.25000000       0.32142857       0.00000000 </v>
   <v>       0.35000000       0.32142857       0.00000000 </v>
   <v>       0.45000000       0.32142857       0.00000000 </v>
   <v>       0.05000000       0.39285714       0.00000000 </v>
   <v>       0.15000000       0.39285714       0.00000000 </v>
   <v>       0.25000000       0.39285714       0.00000000 </v>
   <v>       0.35000000       0.39285714       0.00000000 </v>
   <v>       0.45000000       0.39285714       0.00000000 </v>
   <v>       0.05000000       0.46428571       0.00000000 </v>
   <v>       0.15000000       0.46428571       0.00000000 </v>
   <v>       0.25000000       0.46428571       0.00000000 </v>
   <v>       0.35000000       0.46428571       0.00000000 </v>
   <v>       0.45000000       0.46428571       0.00000000 </v>
   <v>       0.05000000       0.03571429       0.11111111 </v>
   <v>       0.15000000       0.03571429       0.11111111 </v>
   <v>       0.25000000       0.03571429       0.11111111 </v>
   <v>       0.35000000       0.03571429       0.11111111 </v>
   <v>       0.45000000       0.03571429       0.11111111 </v>
   <v>       0.05000000       0.10714286       0.11111111 </v>
   <v>       0.15000000       0.10714286       0.11111111 </v>
   <v>       0.25000000       0.10714286       0.11111111 </v>
   <v>       0.35000000       0.10714286       0.11111111 </v>
   <v>       0.45000000       0.10714286       0.11111111 </v>
   <v>       0.05000000       0.17857143       0.11111111 </v>
   <v>       0.15000000       0.17857143       0.11111111 </v>
   <v>       0.25000000       0.17857143       0.11111111 </v>
   <v>       0.35000000       0.17857143       0.11111111 </v>
   <v>       0.45000000       0.17857143       0.11111111 </v>
   <v>       0.05000000       0.25000000       0.11111111 </v>
   <v>       0.15000000       0.25000000       0.11111111 </v>
   <v>       0.25000000       0.25000000       0.11111111 </v>
   <v>       0.35000000       0.25000000       0.11111111 </v>
   <v>       0.45000000       0.25000000       0.11111111 </v>
   <v>       0.05000000       0.32142857       0.11111111 </v>
   <v>       0.15000000       0.32142857       0.11111111 </v>
   <v>       0.25000000       0.32142857       0.11111111 </v>
   <v>       0.35000000       0.32142857       0.11111111 </v>
   <v>       0.45000000       0.32142857       0.11111111 </v>
   <v>       0.05000000       0.39285714       0.11111111 </v>
   <v>       0.15000000       0.39285714       0.11111111 </v>
   <v>       0.25000000       0.39285714       0.11111111 </v>
   <v>       0.35000000       0.39285714       0.11111111 </v>
   <v>       0.45000000       0.39285714       0.11111111 </v>
   <v>       0.05000000       0.46428571       0.11111111 </v>
   <v>       0.15000000       0.46428571       0.11111111 </v>
   <v>       0.25000000       0.46428571       0.11111111 </v>
   <v>       0.35000000       0.46428571       0.11111111 </v>
   <v>       0.45000000       0.46428571       0.11111111 </v>
   <v>       0.05000000       0.03571429       0.22222222 </v>
   <v>       0.15000000       0.03571429       0.22222222 </v>
   <v>       0.25000000       0.03571429       0.22222222 </v>
   <v>       0.35000000       0.03571429       0.22222222 </v>
   <v>       0.45000000       0.03571429       0.22222222 </v>
   <v>       0.05000000       0.10714286       0.22222222 </v>
   <v>       0.15000000       0.10714286       0.22222222 </v>
   <v>       0.25000000       0.10714286       0.22222222 </v>
   <v>       0.35000000       0.10714286       0.22222222 </v>
   <v>       0.45000000       0.10714286       0.22222222 </v>
   <v>       0.05000000       0.17857143       0.22222222 </v>
   <v>       0.15000000       0.17857143       0.22222222 </v>
   <v>       0.25000000       0.17857143       0.22222222 </v>
   <v>       0.35000000       0.17857143       0.22222222 </v>
   <v>       0.45000000       0.17857143       0.22222222 </v>
   <v>       0.05000000       0.25000000       0.22222222 </v>
   <v>       0.15000000       0.25000000       0.22222222 </v>
   <v>       0.25000000       0.25000000       0.22222222 </v>
   <v>       0.35000000       0.25000000       0.22222222 </v>
   <v>       0.45000000       0.25000000       0.22222222 </v>
   <v>       0.05000000       0.32142857       0.22222222 </v>
   <v>       0.15000000       0.32142857       0.22222222 </v>
   <v>       0.25000000       0.32142857       0.22222222 </v>
   <v>       0.35000000       0.32142857       0.22222222 </v>
   <v>       0.45000000       0.32142857       0.22222222 </v>
   <v>       0.05000000       0.39285714       0.22222222 </v>
   <v>       0.15000000       0.39285714       0.22222222 </v>
   <v>       0.25000000       0.39285714       0.22222222 </v>
   <v>       0.35000000       0.39285714       0.22222222 </v>
   <v>       0.45000000       0.39285714       0.22222222 </v>
   <v>       0.05000000       0.46428571       0.22222222 </v>
   <v>       0.15000000       0.46428571       0.22222222 </v>
   <v>       0.25000000       0.46428571       0.22222222 </v>
   <v>       0.35000000       0.46428571       0.22222222 </v>
   <v>       0.45000000       0.46428571       0.22222222 </v>
   <v>       0.05000000       0.03571429       0.33333333 </v>
   <v>       0.15000000       0.03571429       0.33333333 </v>
   <v>       0.25000000       0.03571429       0.33333333 </v>
   <v>       0.35000000       0.03571429       0.33333333 </v>
   <v>       0.45000000       0.03571429       0.33333333 </v>
   <v>       0.05000000       0.10714286       0.33333333 </v>
   <v>       0.15000000       0.10714286       0.33333333 </v>
   <v>       0.25000000       0.10714286       0.33333333 </v>
   <v>       0.35000000       0.10714286       0.33333333 </v>
   <v>       0.45000000       0.10714286       0.33333333 </v>
   <v>       0.05000000       0.17857143       0.33333333 </v>
   <v>       0.15000000       0.17857143       0.33333333 </v>
   <v>       0.25000000       0.17857143       0.33333333 </v>
   <v>       0.35000000       0.17857143       0.33333333 </v>
   <v>       0.45000000       0.17857143       0.33333333 </v>
   <v>       0.05000000       0.25000000       0.33333333 </v>
   <v>       0.15000000       0.25000000       0.33333333 </v>
   <v>       0.25000000       0.25000000       0.33333333 </v>
   <v>       0.35000000       0.25000000       0.33333333 </v>
   <v>       0.45000000       0.25000000       0.33333333 </v>
   <v>       0.05000000       0.32142857       0.33333333 </v>
   <v>       0.15000000       0.32142857       0.33333333 </v>
   <v>       0.25000000       0.32142857       0.33333333 </v>
   <v>       0.35000000       0.32142857       0.33333333 </v>
   <v>       0.45000000       0.32142857       0.33333333 </v>
   <v>       0.05000000       0.39285714       0.33333333 </v>
   <v>       0.15000000       0.39285714       0.33333333 </v>
   <v>       0.25000000       0.39285714       0.33333333 </v>
   <v>       0.35000000       0.39285714       0.33333333 </v>
   <v>       0.45000000       0.39285714       0.33333333 </v>
   <v>       0.05000000       0.46428571       0.33333333 </v>
   <v>       0.15000000       0.46428571       0.33333333 </v>
   <v>       0.25000000       0.46428571       0.33333333 </v>
   <v>       0.35000000       0.46428571       0.33333333 </v>
   <v>       0.45000000       0.46428571       0.33333333 </v>
   <v>       0.05000000       0.03571429       0.44444444 </v>
   <v>       0.15000000       0.03571429       0.44444444 </v>
   <v>       0.25000000       0.03571429       0.44444444 </v>
   <v>       0.35000000       0.03571429       0.44444444 </v>
   <v>       0.45000000       0.03571429       0.44444444 </v>
   <v>       0.05000000       0.10714286       0.44444444 </v>
   <v>       0.15000000       0.10714286       0.44444444 </v>
   <v>       0.25000000       0.10714286       0.44444444 </v>
   <v>       0.35000000       0.10714286       0.44444444 </v>
   <v>       0.45000000       0.10714286       0.44444444 </v>
   <v>       0.05000000       0.17857143       0.44444444 </v>
   <v>       0.15000000       0.17857143       0.44444444 </v>
   <v>       0.25000000       0.17857143       0.44444444 </v>
   <v>       0.35000000       0.17857143       0.44444444 </v>
   <v>       0.45000000       0.17857143       0.44444444 </v>
   <v>       0.05000000       0.25000000       0.44444444 </v>
   <v>       0.15000000       0.25000000       0.44444444 </v>
   <v>       0.25000000       0.25000000       0.44444444 </v>
   <v>       0.35000000       0.25000000       0.44444444 </v>
   <v>       0.45000000       0.25000000       0.44444444 </v>
   <v>       0.05000000       0.32142857       0.44444444 </v>
   <v>       0.15000000       0.32142857       0.44444444 </v>
   <v>       0.25000000       0.32142857       0.44444444 </v>
   <v>       0.35000000       0.32142857       0.44444444 </v>
   <v>       0.45000000       0.32142857       0.44444444 </v>
   <v>       0.05000000       0.39285714       0.44444444 </v>
   <v>       0.15000000       0.39285714       0.44444444 </v>
   <v>       0.25000000       0.39285714       0.44444444 </v>
   <v>       0.35000000       0.39285714       0.44444444 </v>
   <v>       0.45000000       0.39285714       0.44444444 </v>
   <v>       0.05000000       0.46428571       0.44444444 </v>
   <v>       0.15000000       0.46428571       0.44444444 </v>
   <v>       0.25000000       0.46428571       0.44444444 </v>
   <v>       0.35000000       0.46428571       0.44444444 </v>
   <v>       0.45000000       0.46428571       0.44444444 </v>
  </varray>
  <varray name="weights" >
   <v>       0.00317460 </v>
   <v>       0.00317460 </v>
   <v>       0.00317460 </v>
   <v>       0.00317460 </v>
   <v>       0.00317460 </v>
   <v>       0.00317460 </v>
   <v>       0.00317460 </v>
   <v>       0.00317460 </v>
   <v>       0.00317460 </v>
   <v>       0.00317460 </v>
   <v>       0.00317460 </v>
   <v>       0.00317460 </v>
   <v>       0.00317460 </v>
   <v>       0.00317460 </v>
   <v>       0.00317460 </v>
   <v>       0.00317460 </v>
   <v>       0.00317460 </v>
   <v>       0.00317460 </v>
   <v>       0.00317460 </v>
   <v>       0.00317460 </v>
   <v>       0.00317460 </v>
   <v>       0.00317460 </v>
   <v>       0.00317460 </v>
   <v>       0.00317460 </v>
   <v>       0.00317460 </v>
   <v>       0.00317460 </v>
   <v>       0.00317460 </v>
   <v>       0.00317460 </v>
   <v>       0.00317460 </v>
   <v>       0.00317460 </v>
   <v>       0.00317460 </v>
   <v>       0.00317460 </v>
   <v>       0.00317460 </v>
   <v>       0.00317460 </v>
   <v>       0.00317460 </v>
   <v>       0.00634921 </v>
   <v>       0.00634921 </v>
   <v>       0.00634921 </v>
   <v>       0.00634921 </v>
   <v>       0.00634921 </v>
   <v>       0.00634921 </v>
   <v>       0.00634921 </v>
   <v>       0.00634921 </v>
   <v>       0.00634921 </v>
   <v>       0.00634921 </v>
   <v>       0.00634921 </v>
   <v>       0.00634921 </v>
   <v>       0.00634921 </v>
   <v>       0.00634921 </v>
   <v>       0.00634921 </v>
   <v>       0.00634921 </v>
   <v>       0.00634921 </v>
   <v>       0.00634921 </v>
   <v>       0.00634921 </v>
   <v>       0.00634921 </v>
   <v>       0.00634921 </v>
   <v>       0.00634921 </v>
   <v>       0.00634921 </v>
   <v>       0.00634921 </v>
   <v>       0.00634921 </v>
   <v>       0.00634921 </v>
   <v>       0.00634921 </v>
   <v>       0.00634921 </v>
   <v>       0.00634921 </v>
   <v>       0.00634921 </v>
   <v>       0.00634921 </v>
   <v>       0.00634921 </v>
   <v>       0.00634921 </v>
   <v>       0.00634921 </v>
   <v>       0.00634921 </v>
   <v>       0.00634921 </v>
   <v>       0.00634921 </v>
   <v>       0.00634921 </v>
   <v>       0.00634921 </v>
   <v>       0.00634921 </v>
   <v>       0.00634921 </v>
   <v>       0.00634921 </v>
   <v>       0.00634921 </v>
   <v>       0.00634921 </v>
   <v>       0.00634921 </v>
   <v>       0.00634921 </v>
   <v>       0.00634921 </v>
   <v>       0.00634921 </v>
   <v>       0.00634921 </v>
   <v>       0.00634921 </v>
   <v>       0.00634921 </v>
   <v>       0.00634921 </v>
   <v>       0.00634921 </v>
   <v>       0.00634921 </v>
   <v>       0.00634921 </v>
   <v>       0.00634921 </v>
   <v>       0.00634921 </v>
   <v>       0.00634921 </v>
   <v>       0.00634921 </v>
   <v>       0.00634921 </v>
   <v>       0.00634921 </v>
   <v>       0.00634921 </v>
   <v>       0.00634921 </v>
   <v>       0.00634921 </v>
   <v>       0.00634921 </v>
   <v>       0.00634921 </v>
   <v>       0.00634921 </v>
   <v>       0.00634921 </v>
   <v>       0.00634921 </v>
   <v>       0.00634921 </v>
   <v>       0.00634921 </v>
   <v>       0.00634921 </v>
   <v>       0.00634921 </v>
   <v>       0.00634921 </v>
   <v>       0.00634921 </v>
   <v>       0.00634921 </v>
   <v>       0.00634921 </v>
   <v>       0.00634921 </v>
   <v>       0.00634921 </v>
   <v>       0.00634921 </v>
   <v>       0.00634921 </v>
   <v>       0.00634921 </v>
   <v>       0.00634921 </v>
   <v>       0.00634921 </v>
   <v>       0.00634921 </v>
   <v>       0.00634921 </v>
   <v>       0.00634921 </v>
   <v>       0.00634921 </v>
   <v>       0.00634921 </v>
   <v>       0.00634921 </v>
   <v>       0.00634921 </v>
   <v>       0.00634921 </v>
   <v>       0.00634921 </v>
   <v>       0.00634921 </v>
   <v>       0.00634921 </v>
   <v>       0.00634921 </v>
   <v>       0.00634921 </v>
   <v>       0.00634921 </v>
   <v>       0.00634921 </v>
   <v>       0.00634921 </v>
   <v>       0.00634921 </v>
   <v>       0.00634921 </v>
   <v>       0.00634921 </v>
   <v>       0.00634921 </v>
   <v>       0.00634921 </v>
   <v>       0.00634921 </v>
   <v>       0.00634921 </v>
   <v>       0.00634921 </v>
   <v>       0.00634921 </v>
   <v>       0.00634921 </v>
   <v>       0.00634921 </v>
   <v>       0.00634921 </v>
   <v>       0.00634921 </v>
   <v>       0.00634921 </v>
   <v>       0.00634921 </v>
   <v>       0.00634921 </v>
   <v>       0.00634921 </v>
   <v>       0.00634921 </v>
   <v>       0.00634921 </v>
   <v>       0.00634921 </v>
   <v>       0.00634921 </v>
   <v>       0.00634921 </v>
   <v>       0.00634921 </v>
   <v>       0.00634921 </v>
   <v>       0.00634921 </v>
   <v>       0.00634921 </v>
   <v>       0.00634921 </v>
   <v>       0.00634921 </v>
   <v>       0.00634921 </v>
   <v>       0.00634921 </v>
   <v>       0.00634921 </v>
   <v>       0.00634921 </v>
   <v>       0.00634921 </v>
   <v>       0.00634921 </v>
   <v>       0.00634921 </v>
   <v>       0.00634921 </v>
   <v>       0.00634921 </v>
   <v>       0.00634921 </v>
   <v>       0.00634921 </v>
   <v>       0.00634921 </v>
  </varray>
 </kpoints>
 <parameters>
  <separator name="general" >
   <i type="string" name="SYSTEM">Convergence</i>
   <i type="logical" name="LCOMPAT"> F  </i>
  </separator>
  <separator name="electronic" >
   <i type="string" name="PREC">accura</i>
   <i name="ENMAX">    600.00000000</i>
   <i name="ENAUG">    535.51400000</i>
   <i name="EDIFF">      0.00000100</i>
   <i type="int" name="IALGO">    38</i>
   <i type="int" name="IWAVPR">    10</i>
   <i type="int" name="NBANDS">    48</i>
   <i type="int" name="NBANDSLOW">    -1</i>
   <i type="int" name="NBANDSHIGH">    -1</i>
   <i name="NELECT">     42.00000000</i>
   <i type="int" name="TURBO">     0</i>
   <i type="int" name="IRESTART">     0</i>
   <i type="int" name="NREBOOT">     0</i>
   <i type="int" name="NMIN">     0</i>
   <i name="EREF">      0.00000000</i>
   <separator name="electronic smearing" >
    <i type="int" name="ISMEAR">     0</i>
    <i name="SIGMA">      0.05000000</i>
    <i name="KSPACING">      0.50000000</i>
    <i type="logical" name="KGAMMA"> T  </i>
    <i type="logical" name="KBLOWUP"> T  </i>
   </separator>
   <separator name="electronic projectors" >
    <i type="logical" name="LREAL"> F  </i>
    <v name="ROPT">      0.00000000</v>
    <i type="int" name="LMAXPAW">  -100</i>
    <i type="int" name="LMAXMIX">     2</i>
    <i type="logical" name="NLSPLINE"> F  </i>
   </separator>
   <separator name="electronic startup" >
    <i type="int" name="ISTART">     0</i>
    <i type="int" name="ICHARG">     2</i>
    <i type="int" name="INIWAV">     1</i>
   </separator>
   <separator name="electronic spin" >
    <i type="int" name="ISPIN">     1</i>
    <i type="logical" name="LNONCOLLINEAR"> F  </i>
    <v name="MAGMOM">      1.00000000      1.00000000      1.00000000      1.00000000      1.00000000      1.00000000      1.00000000      1.00000000      1.00000000      1.00000000      1.00000000      1.00000000      1.00000000      1.00000000</v>
    <i name="NUPDOWN">     -1.00000000</i>
    <i type="logical" name="LSORBIT"> F  </i>
    <v name="SAXIS">      0.00000000      0.00000000      1.00000000</v>
    <i type="logical" name="LSPIRAL"> F  </i>
    <v name="QSPIRAL">      0.00000000      0.00000000      0.00000000</v>
    <i type="logical" name="LZEROZ"> F  </i>
   </separator>
   <separator name="electronic exchange-correlation" >
    <i type="logical" name="LASPH"> F  </i>
   </separator>
   <separator name="electronic convergence" >
    <i type="int" name="NELM">   100</i>
    <i type="int" name="NELMDL">    -5</i>
    <i type="int" name="NELMIN">     2</i>
    <i name="ENINI">    600.00000000</i>
    <separator name="electronic convergence detail" >
     <i type="logical" name="LDIAG"> T  </i>
     <i type="logical" name="LSUBROT"> F  </i>
     <i name="WEIMIN">      0.00000000</i>
     <i name="EBREAK">      0.00000001</i>
     <i name="DEPER">      0.30000000</i>
     <i type="int" name="NRMM">     4</i>
     <i name="TIME">      0.40000000</i>
    </separator>
   </separator>
   <separator name="electronic mixer" >
    <i name="AMIX">      0.40000000</i>
    <i name="BMIX">      1.00000000</i>
    <i name="AMIN">      0.10000000</i>
    <i name="AMIX_MAG">      1.60000000</i>
    <i name="BMIX_MAG">      1.00000000</i>
    <separator name="electronic mixer details" >
     <i type="int" name="IMIX">     4</i>
     <i type="logical" name="MIXFIRST"> F  </i>
     <i type="int" name="MAXMIX">   -45</i>
     <i name="WC">    100.00000000</i>
     <i type="int" name="INIMIX">     1</i>
     <i type="int" name="MIXPRE">     1</i>
     <i type="int" name="MREMOVE">     5</i>
    </separator>
   </separator>
   <separator name="electronic dipolcorrection" >
    <i type="logical" name="LDIPOL"> F  </i>
    <i type="logical" name="LMONO"> F  </i>
    <i type="int" name="IDIPOL">     0</i>
    <i name="EPSILON">      1.00000000</i>
    <v name="DIPOL">   -100.00000000   -100.00000000   -100.00000000</v>
    <i name="EFIELD">      0.00000000</i>
    <i type="logical" name="LVACPOTAV"> F  </i>
   </separator>
  </separator>
  <separator name="grids" >
   <i type="int" name="NGX">    48</i>
   <i type="int" name="NGY">    32</i>
   <i type="int" name="NGZ">    50</i>
   <i type="int" name="NGXF">    96</i>
   <i type="int" name="NGYF">    64</i>
   <i type="int" name="NGZF">   100</i>
   <i type="logical" name="ADDGRID"> F  </i>
  </separator>
  <separator name="ionic" >
   <i type="int" name="NSW">     0</i>
   <i type="int" name="IBRION">    -1</i>
   <i type="int" name="MDALGO">     0</i>
   <i type="int" name="ISIF">     2</i>
   <i name="PSTRESS">      0.00000000</i>
   <i name="EDIFFG">     -0.00100000</i>
   <i type="int" name="NFREE">     0</i>
   <i name="POTIM">      0.50000000</i>
   <i name="SMASS">     -3.00000000</i>
   <i name="SCALEE">      1.00000000</i>
  </separator>
  <separator name="ionic md" >
   <i name="TEBEG">      0.00010000</i>
   <i name="TEEND">      0.00010000</i>
   <i type="int" name="NBLOCK">     1</i>
   <i type="int" name="KBLOCK">     1</i>
   <i type="int" name="NPACO">   256</i>
   <i name="APACO">     10.00000000</i>
  </separator>
  <separator name="symmetry" >
   <i type="int" name="ISYM">     2</i>
   <i name="SYMPREC">      0.00001000</i>
  </separator>
  <separator name="dos" >
   <i type="int" name="LORBIT">     0</i>
   <v name="RWIGS">     -1.00000000</v>
   <i type="int" name="NEDOS">   301</i>
   <i name="EMIN">     10.00000000</i>
   <i name="EMAX">    -10.00000000</i>
   <i name="EFERMI">      0.00000000</i>
  </separator>
  <separator name="writing" >
   <i type="int" name="NWRITE">     2</i>
   <i type="logical" name="LWAVE"> F  </i>
   <i type="logical" name="LDOWNSAMPLE"> F  </i>
   <i type="logical" name="LCHARG"> F  </i>
   <i type="logical" name="LPARD"> F  </i>
   <i type="logical" name="LVTOT"> F  </i>
   <i type="logical" name="LVHAR"> F  </i>
   <i type="logical" name="LELF"> F  </i>
   <i type="logical" name="LOPTICS"> F  </i>
   <v name="STM">      0.00000000      0.00000000      0.00000000      0.00000000      0.00000000      0.00000000      0.00000000</v>
  </separator>
  <separator name="performance" >
   <i type="int" name="NPAR">    24</i>
   <i type="int" name="NSIM">     4</i>
   <i type="int" name="NBLK">    -1</i>
   <i type="logical" name="LPLANE"> T  </i>
   <i type="logical" name="LSCALAPACK"> T  </i>
   <i type="logical" name="LSCAAWARE"> F  </i>
   <i type="logical" name="LSCALU"> F  </i>
   <i type="logical" name="LASYNC"> F  </i>
   <i type="logical" name="LORBITALREAL"> F  </i>
  </separator>
  <separator name="miscellaneous" >
   <i type="int" name="IDIOT">     3</i>
   <i type="int" name="PHON_NSTRUCT">    -1</i>
   <i type="logical" name="LMUSIC"> F  </i>
   <v name="POMASS">     10.81100000</v>
   <v name="DARWINR">      0.00000000</v>
   <v name="DARWINV">      1.00000000</v>
   <i type="logical" name="LCORR"> T  </i>
  </separator>
  <i type="logical" name="GGA_COMPAT"> T  </i>
  <i type="logical" name="LBERRY"> F  </i>
  <i type="int" name="ICORELEVEL">     0</i>
  <i type="logical" name="LDAU"> F  </i>
  <i type="int" name="I_CONSTRAINED_M">     0</i>
  <separator name="electronic exchange-correlation" >
   <i type="string" name="GGA    ">PE</i>
   <i type="string" name="XC_C">1</i>
   <i type="int" name="VOSKOWN">     0</i>
   <i type="logical" name="LHFCALC"> F  </i>
   <i type="string" name="PRECFOCK"></i>
   <i type="logical" name="LSYMGRAD"> F  </i>
   <i type="logical" name="LHFONE"> F  </i>
   <i type="logical" name="LRHFCALC"> F  </i>
   <i type="logical" name="LTHOMAS"> F  </i>
   <i type="logical" name="LMODELHF"> F  </i>
   <i type="logical" name="LFOCKACE"> F  </i>
   <i name="ENCUT4O">     -1.00000000</i>
   <i type="int" name="EXXOEP">     0</i>
   <i type="int" name="FOURORBIT">     0</i>
   <i name="AEXX">      0.00000000</i>
   <i name="HFALPHA">      0.00000000</i>
   <i name="MCALPHA">      0.00000000</i>
   <i name="ALDAX">      1.00000000</i>
   <i name="AGGAX">      1.00000000</i>
   <i name="AMGGAX">      1.00000000</i>
   <i name="ALDAC">      1.00000000</i>
   <i name="AGGAC">      1.00000000</i>
   <i name="AMGGAC">      1.00000000</i>
   <i type="int" name="NKREDX">     1</i>
   <i type="int" name="NKREDY">     1</i>
   <i type="int" name="NKREDZ">     1</i>
   <i type="logical" name="SHIFTRED"> F  </i>
   <i type="logical" name="ODDONLY"> F  </i>
   <i type="logical" name="EVENONLY"> F  </i>
   <i type="int" name="LMAXFOCK">     0</i>
   <i type="int" name="NMAXFOCKAE">     0</i>
   <i type="logical" name="LFOCKAEDFT"> F  </i>
   <i name="HFSCREEN">      0.00000000</i>
   <i name="HFSCREENC">      0.00000000</i>
   <i type="int" name="NBANDSGWLOW">     0</i>
  </separator>
  <separator name="vdW DFT" >
   <i type="logical" name="LUSE_VDW"> F  </i>
   <i type="int" name="IVDW_NL">    -1</i>
   <i type="logical" name="LSPIN_VDW"> F  </i>
   <i name="ZAB_VDW">     -0.84910000</i>
   <i name="GAMMA_VDW">      1.39626340</i>
   <i name="ALPHA_VDW">      0.00000000</i>
   <i name="PARAM1">      0.12340000</i>
   <i name="PARAM2">      1.00000000</i>
   <i name="BPARAM">      6.30000000</i>
   <i name="CPARAM">      0.00930000</i>
  </separator>
  <separator name="model GW" >
   <i type="int" name="MODEL_GW">     0</i>
   <i name="MODEL_EPS0">      6.15939221</i>
   <i name="MODEL_ALPHA">      1.00000000</i>
  </separator>
  <separator name="linear response parameters" >
   <i type="logical" name="LEPSILON"> F  </i>
   <i type="logical" name="LRPA"> F  </i>
   <i type="logical" name="LNABLA"> F  </i>
   <i type="logical" name="LVEL"> F  </i>
   <i name="CSHIFT">      0.10000000</i>
   <i name="OMEGAMAX">     -1.00000000</i>
   <i name="DEG_THRESHOLD">      0.00200000</i>
   <i name="RTIME">     -0.10000000</i>
   <i name="WPLASMAI">      0.00000000</i>
   <v name="DFIELD">      0.00000000      0.00000000      0.00000000</v>
   <v name="WPLASMA">      0.00000000      0.00000000      0.00000000      0.00000000      0.00000000      0.00000000      0.00000000      0.00000000      0.00000000</v>
  </separator>
  <separator name="orbital magnetization" >
   <i type="logical" name="NUCIND"> F  </i>
   <v name="MAGPOS">      0.00000000      0.00000000      0.00000000</v>
   <i type="logical" name="LNICSALL"> T  </i>
   <i type="logical" name="ORBITALMAG"> F  </i>
   <i type="logical" name="LMAGBLOCH"> F  </i>
   <i type="logical" name="LCHIMAG"> F  </i>
   <i type="logical" name="LGAUGE"> T  </i>
   <i type="int" name="MAGATOM">     0</i>
   <v name="MAGDIPOL">      0.00000000      0.00000000      0.00000000</v>
   <v name="AVECCONST">      0.00000000      0.00000000      0.00000000</v>
  </separator>
  <separator name="response functions" >
   <i type="logical" name="LALL_IN_ONE"> F  </i>
   <i type="int" name="IALL_IN_ONE">    -1</i>
   <i type="int" name="NBANDS_WAVE">    -1</i>
   <i type="logical" name="LFINITE_TEMPERATURE"> F  </i>
   <i type="logical" name="LADDER"> F  </i>
   <i type="logical" name="LRPAFORCE"> F  </i>
   <i type="logical" name="LFXC"> F  </i>
   <i type="logical" name="LHARTREE"> T  </i>
   <i type="int" name="IBSE">     0</i>
   <v type="int" name="KPOINT">    -1     0     0     0</v>
   <i type="logical" name="LTCTC"> F  </i>
   <i type="logical" name="LTCTE"> F  </i>
   <i type="logical" name="LTETE"> F  </i>
   <i type="logical" name="LTRIPLET"> F  </i>
   <i type="logical" name="LFXCEPS"> F  </i>
   <i type="logical" name="LFXHEG"> F  </i>
   <i type="int" name="NATURALO">     2</i>
   <i type="logical" name="LHOLEGF"> F  </i>
   <i type="logical" name="L2ORDER"> F  </i>
   <i type="logical" name="LDMP1"> F  </i>
   <i type="logical" name="LMP2LT"> F  </i>
   <i type="logical" name="LSMP2LT"> F  </i>
   <i type="logical" name="LGWLF"> F  </i>
   <i name="ENCUTGW">     -1.60000002</i>
   <i name="ENCUTGWSOFT">     -1.60000002</i>
   <i name="ENCUTLF">     -1.00000000</i>
   <i type="logical" name="ESF_SPLINES"> F  </i>
   <i name="ESF_CONV">      0.01000000</i>
   <i type="int" name="ESF_NINTER">    15</i>
   <i type="int" name="LMAXMP2">    -1</i>
   <i name="SCISSOR">      0.00000000</i>
   <i type="int" name="NOMEGA">     0</i>
   <i type="int" name="NOMEGAR">     0</i>
   <i type="int" name="NBANDSGW">    -1</i>
   <i type="int" name="NBANDSO">    -1</i>
   <i type="int" name="NBANDSV">    -1</i>
   <i type="int" name="NELMGW">     1</i>
   <i type="int" name="NELMHF">     1</i>
   <i type="int" name="DIM">     3</i>
   <i type="int" name="IESPILON">     4</i>
   <i type="int" name="ANTIRES">     0</i>
   <i name="OMEGAMAX">    -30.00000000</i>
   <i name="OMEGAMIN">    -30.00000000</i>
   <i name="OMEGATL">   -200.00000000</i>
   <i type="int" name="OMEGAGRID">     0</i>
   <i name="CSHIFT">     -0.10000000</i>
   <i type="logical" name="LSELFENERGY"> F  </i>
   <i type="logical" name="LSPECTRAL"> F  </i>
   <i type="logical" name="LSPECTRALGW"> F  </i>
   <i type="logical" name="LSINGLES"> F  </i>
   <i type="logical" name="LFERMIGW"> F  </i>
   <i type="logical" name="ODDONLYGW"> F  </i>
   <i type="logical" name="EVENONLYGW"> F  </i>
   <i type="int" name="NKREDLFX">     1</i>
   <i type="int" name="NKREDLFY">     1</i>
   <i type="int" name="NKREDLFZ">     1</i>
   <i type="int" name="MAXMEM">  2800</i>
   <i type="int" name="TELESCOPE">     0</i>
   <i type="int" name="NTAUPAR">    -1</i>
   <i type="int" name="NOMEGAPAR">    -1</i>
   <i name="DAMP_NEWTON">      0.80000001</i>
   <i name="LAMBDA">      1.00000000</i>
  </separator>
  <separator name="External order field" >
   <i name="OFIELD_KAPPA">      0.00000000</i>
   <v name="OFIELD_K">      0.00000000      0.00000000      0.00000000</v>
   <i name="OFIELD_Q6_NEAR">      0.00000000</i>
   <i name="OFIELD_Q6_FAR">      0.00000000</i>
   <i name="OFIELD_A">      0.00000000</i>
  </separator>
  <separator name="optional k-points parameters" >
   <i type="int" name="KPOINTS_OPT_MODE">     1</i>
   <i type="logical" name="LKPOINTS_OPT"> F  </i>
  </separator>
 </parameters>
 <atominfo>
  <atoms>      14 </atoms>
  <types>       1 </types>
  <array name="atoms" >
   <dimension dim="1">ion</dimension>
   <field type="string">element</field>
   <field type="int">atomtype</field>
   <set>
    <rc><c>B </c><c>   1</c></rc>
    <rc><c>B </c><c>   1</c></rc>
    <rc><c>B </c><c>   1</c></rc>
    <rc><c>B </c><c>   1</c></rc>
    <rc><c>B </c><c>   1</c></rc>
    <rc><c>B </c><c>   1</c></rc>
    <rc><c>B </c><c>   1</c></rc>
    <rc><c>B </c><c>   1</c></rc>
    <rc><c>B </c><c>   1</c></rc>
    <rc><c>B </c><c>   1</c></rc>
    <rc><c>B </c><c>   1</c></rc>
    <rc><c>B </c><c>   1</c></rc>
    <rc><c>B </c><c>   1</c></rc>
    <rc><c>B </c><c>   1</c></rc>
   </set>
  </array>
  <array name="atomtypes" >
   <dimension dim="1">type</dimension>
   <field type="int">atomspertype</field>
   <field type="string">element</field>
   <field>mass</field>
   <field>valence</field>
   <field type="string">pseudopotential</field>
   <set>
    <rc><c>  14</c><c>B </c><c>     10.81100000</c><c>      3.00000000</c><c>  PAW_PBE B 06Sep2000                   </c></rc>
   </set>
  </array>
 </atominfo>
 <structure name="initialpos" >
  <crystal>
   <varray name="basis" >
    <v>       5.70554550       0.00000000       0.00000000 </v>
    <v>       0.00000000       4.05397185       0.00000000 </v>
    <v>       0.00000000       0.00000000       6.21350630 </v>
   </varray>
   <i name="volume">    143.71915160 </i>
   <varray name="rec_basis" >
    <v>       0.17526808       0.00000000       0.00000000 </v>
    <v>       0.00000000       0.24667167       0.00000000 </v>
    <v>       0.00000000       0.00000000       0.16093973 </v>
   </varray>
  </crystal>
  <varray name="positions" >
   <v>       0.52123000       0.50000000       0.63796000 </v>
   <v>       0.47877000       0.50000000       0.36204000 </v>
   <v>       0.97877000       0.50000000       0.63796000 </v>
   <v>       0.02123000       0.50000000       0.36204000 </v>
   <v>       0.60090000       0.50000000       0.89991000 </v>
   <v>       0.39910000       0.50000000       0.10009000 </v>
   <v>       0.89910000       0.50000000       0.89991000 </v>
   <v>       0.10090000       0.50000000       0.10009000 </v>
   <v>       0.75000000       0.79171000       0.72973000 </v>
   <v>       0.25000000       0.20829000       0.27027000 </v>
   <v>       0.75000000       0.20829000       0.72973000 </v>
   <v>       0.25000000       0.79171000       0.27027000 </v>
   <v>       0.25000000       0.50000000       0.52367000 </v>
   <v>       0.75000000       0.50000000       0.47633000 </v>
  </varray>
 </structure>
 <calculation>
  <scstep>
   <time name="dav">    4.58    4.79</time>
   <time name="total">    4.60    4.81</time>
   <energy>
    <i name="alphaZ">     93.82075292 </i>
    <i name="ewald">   -794.57471884 </i>
    <i name="hartreedc">   -271.78369253 </i>
    <i name="XCdc">     97.38745151 </i>
    <i name="pawpsdc">    608.99811708 </i>
    <i name="pawaedc">   -597.02363782 </i>
    <i name="eentropy">     -0.00168078 </i>
    <i name="bandstr">    -54.47526748 </i>
    <i name="atom">    996.37441054 </i>
    <i name="e_fr_energy">     78.72173461 </i>
    <i name="e_wo_entrp">     78.72341539 </i>
    <i name="e_0_energy">     78.72257500 </i>
   </energy>
  </scstep>
  <scstep>
   <time name="dav">    6.23    6.43</time>
   <time name="total">    6.23    6.43</time>
   <energy>
    <i name="e_fr_energy">    -91.69209823 </i>
    <i name="e_wo_entrp">    -91.68897088 </i>
    <i name="e_0_energy">    -91.69053456 </i>
   </energy>
  </scstep>
  <scstep>
   <time name="dav">    6.47    6.58</time>
   <time name="total">    6.47    6.58</time>
   <energy>
    <i name="e_fr_energy">    -97.52432828 </i>
    <i name="e_wo_entrp">    -97.52066414 </i>
    <i name="e_0_energy">    -97.52249621 </i>
   </energy>
  </scstep>
  <scstep>
   <time name="dav">    5.44    5.48</time>
   <time name="total">    5.44    5.49</time>
   <energy>
    <i name="e_fr_energy">    -97.55885754 </i>
    <i name="e_wo_entrp">    -97.55519487 </i>
    <i name="e_0_energy">    -97.55702620 </i>
   </energy>
  </scstep>
  <scstep>
   <time name="dav">    6.45    6.49</time>
   <time name="total">    6.54    6.59</time>
   <energy>
    <i name="e_fr_energy">    -97.55924436 </i>
    <i name="e_wo_entrp">    -97.55558164 </i>
    <i name="e_0_energy">    -97.55741300 </i>
   </energy>
  </scstep>
  <scstep>
   <time name="dav">    6.46    6.51</time>
   <time name="total">    6.57    6.61</time>
   <energy>
    <i name="e_fr_energy">    -92.20986208 </i>
    <i name="e_wo_entrp">    -92.20641204 </i>
    <i name="e_0_energy">    -92.20813706 </i>
   </energy>
  </scstep>
  <scstep>
   <time name="dav">    6.55    6.59</time>
   <time name="total">    6.65    6.69</time>
   <energy>
    <i name="e_fr_energy">    -90.57574346 </i>
    <i name="e_wo_entrp">    -90.57259566 </i>
    <i name="e_0_energy">    -90.57416956 </i>
   </energy>
  </scstep>
  <scstep>
   <time name="dav">    5.06    5.09</time>
   <time name="total">    5.16    5.19</time>
   <energy>
    <i name="e_fr_energy">    -90.58824994 </i>
    <i name="e_wo_entrp">    -90.58506796 </i>
    <i name="e_0_energy">    -90.58665895 </i>
   </energy>
  </scstep>
  <scstep>
   <time name="dav">    6.15    6.18</time>
   <time name="total">    6.25    6.28</time>
   <energy>
    <i name="e_fr_energy">    -90.60244113 </i>
    <i name="e_wo_entrp">    -90.59917550 </i>
    <i name="e_0_energy">    -90.60080832 </i>
   </energy>
  </scstep>
  <scstep>
   <time name="dav">    5.14    5.18</time>
   <time name="total">    5.24    5.28</time>
   <energy>
    <i name="e_fr_energy">    -90.60647294 </i>
    <i name="e_wo_entrp">    -90.60325271 </i>
    <i name="e_0_energy">    -90.60486282 </i>
   </energy>
  </scstep>
  <scstep>
   <time name="dav">    5.75    5.79</time>
   <time name="total">    5.85    5.89</time>
   <energy>
    <i name="e_fr_energy">    -90.60754118 </i>
    <i name="e_wo_entrp">    -90.60433137 </i>
    <i name="e_0_energy">    -90.60593628 </i>
   </energy>
  </scstep>
  <scstep>
   <time name="dav">    5.46    5.64</time>
   <time name="total">    5.56    5.74</time>
   <energy>
    <i name="e_fr_energy">    -90.60765525 </i>
    <i name="e_wo_entrp">    -90.60443937 </i>
    <i name="e_0_energy">    -90.60604731 </i>
   </energy>
  </scstep>
  <scstep>
   <time name="dav">    6.00    6.04</time>
   <time name="total">    6.10    6.14</time>
   <energy>
    <i name="e_fr_energy">    -90.60766013 </i>
    <i name="e_wo_entrp">    -90.60444404 </i>
    <i name="e_0_energy">    -90.60605209 </i>
   </energy>
  </scstep>
  <scstep>
   <time name="dav">    5.34    5.37</time>
   <time name="total">    5.36    5.72</time>
   <energy>
    <i name="alphaZ">     93.82075292 </i>
    <i name="ewald">   -794.57471884 </i>
    <i name="hartreedc">   -349.14327855 </i>
    <i name="XCdc">    101.46295884 </i>
    <i name="pawpsdc">   3707.72982175 </i>
    <i name="pawaedc">  -3696.90425339 </i>
    <i name="eentropy">     -0.00321621 </i>
    <i name="bandstr">   -149.37013787 </i>
    <i name="atom">    996.37441054 </i>
    <i name="e_fr_energy">    -90.60766081 </i>
    <i name="e_wo_entrp">    -90.60444459 </i>
    <i name="e_0_energy">    -90.60605270 </i>
   </energy>
  </scstep>
  <structure>
   <crystal>
    <varray name="basis" >
     <v>       5.70554550       0.00000000       0.00000000 </v>
     <v>       0.00000000       4.05397185       0.00000000 </v>
     <v>       0.00000000       0.00000000       6.21350630 </v>
    </varray>
    <i name="volume">    143.71915160 </i>
    <varray name="rec_basis" >
     <v>       0.17526808       0.00000000       0.00000000 </v>
     <v>       0.00000000       0.24667167       0.00000000 </v>
     <v>       0.00000000       0.00000000       0.16093973 </v>
    </varray>
   </crystal>
   <varray name="positions" >
    <v>       0.52123000       0.50000000       0.63796000 </v>
    <v>       0.47877000       0.50000000       0.36204000 </v>
    <v>       0.97877000       0.50000000       0.63796000 </v>
    <v>       0.02123000       0.50000000       0.36204000 </v>
    <v>       0.60090000       0.50000000       0.89991000 </v>
    <v>       0.39910000       0.50000000       0.10009000 </v>
    <v>       0.89910000       0.50000000       0.89991000 </v>
    <v>       0.10090000       0.50000000       0.10009000 </v>
    <v>       0.75000000       0.79171000       0.72973000 </v>
    <v>       0.25000000       0.20829000       0.27027000 </v>
    <v>       0.75000000       0.20829000       0.72973000 </v>
    <v>       0.25000000       0.79171000       0.27027000 </v>
    <v>       0.25000000       0.50000000       0.52367000 </v>
    <v>       0.75000000       0.50000000       0.47633000 </v>
   </varray>
  </structure>
  <varray name="forces" >
   <v>       0.02040954      -0.00000000       0.04176566 </v>
   <v>      -0.02040954       0.00000000      -0.04176566 </v>
   <v>      -0.02040954      -0.00000000       0.04176566 </v>
   <v>       0.02040954      -0.00000000      -0.04176566 </v>
   <v>      -0.81387794      -0.00000000       0.25161787 </v>
   <v>       0.81387794       0.00000000      -0.25161787 </v>
   <v>       0.81387794       0.00000000       0.25161787 </v>
   <v>      -0.81387794       0.00000000      -0.25161787 </v>
   <v>       0.00000000       0.05994103      -0.07321550 </v>
   <v>      -0.00000000      -0.05994103       0.07321550 </v>
   <v>       0.00000000      -0.05994103      -0.07321550 </v>
   <v>      -0.00000000       0.05994103       0.07321550 </v>
   <v>      -0.00000000       0.00000000       0.04462015 </v>
   <v>       0.00000000       0.00000000      -0.04462015 </v>
  </varray>
  <varray name="stress" >
   <v>       5.22914861       0.00000000       0.00000000 </v>
   <v>       0.00000000      -4.07285345       0.00000000 </v>
   <v>       0.00000000       0.00000000     -14.82783219 </v>
  </varray>
  <energy>
   <i name="e_fr_energy">    -90.60766081 </i>
   <i name="e_wo_entrp">    -90.60444459 </i>
   <i name="e_0_energy">    -90.60605270 </i>
  </energy>
  <time name="totalsc">   86.76   89.10</time>
  <eigenvalues>
   <array>
    <dimension dim="1">band</dimension>
    <dimension dim="2">kpoint</dimension>
    <dimension dim="3">spin</dimension>
    <field>eigene</field>
    <field>occ</field>
    <set>
     <set comment="spin 1">
      <set comment="kpoint 1">
       <r>  -12.7197    1.0000 </r>
       <r>  -11.5783    1.0000 </r>
       <r>   -8.6644    1.0000 </r>
       <r>   -8.4283    1.0000 </r>
       <r>   -6.0762    1.0000 </r>
       <r>   -5.1430    1.0000 </r>
       <r>   -4.6801    1.0000 </r>
       <r>   -4.2828    1.0000 </r>
       <r>   -4.0447    1.0000 </r>
       <r>   -3.5573    1.0000 </r>
       <r>   -2.6133    1.0000 </r>
       <r>   -2.3448    1.0000 </r>
       <r>   -1.8549    1.0000 </r>
       <r>   -1.1152    1.0000 </r>
       <r>   -0.0874    1.0000 </r>
       <r>   -0.0570    1.0000 </r>
       <r>    0.1328    1.0000 </r>
       <r>    0.1528    1.0000 </r>
       <r>    0.5423    1.0000 </r>
       <r>    1.9944    0.0001 </r>
       <r>    2.0568    0.0000 </r>
       <r>    2.1886    0.0000 </r>
       <r>    5.4229    0.0000 </r>
       <r>    5.7134    0.0000 </r>
       <r>    5.8001    0.0000 </r>
       <r>    5.9238    0.0000 </r>
       <r>    6.7744    0.0000 </r>
       <r>    7.5085    0.0000 </r>
       <r>    7.8353    0.0000 </r>
       <r>    8.4836    0.0000 </r>
       <r>    8.7415    0.0000 </r>
       <r>    8.8956    0.0000 </r>
       <r>    8.9830    0.0000 </r>
       <r>   10.0795    0.0000 </r>
       <r>   11.1433    0.0000 </r>
       <r>   11.2763    0.0000 </r>
       <r>   11.6040    0.0000 </r>
       <r>   11.7259    0.0000 </r>
       <r>   11.8914    0.0000 </r>
       <r>   12.3572    0.0000 </r>
       <r>   12.8063    0.0000 </r>
       <r>   13.3885    0.0000 </r>
       <r>   13.4159    0.0000 </r>
       <r>   15.3024    0.0000 </r>
       <r>   15.4977    0.0000 </r>
       <r>   15.9836    0.0000 </r>
       <r>   16.2641    0.0000 </r>
       <r>   16.2843    0.0000 </r>
      </set>
      <set comment="kpoint 2">
       <r>  -12.6760    1.0000 </r>
       <r>  -11.6521    1.0000 </r>
       <r>   -8.6432    1.0000 </r>
       <r>   -8.4168    1.0000 </r>
       <r>   -6.0083    1.0000 </r>
       <r>   -5.4820    1.0000 </r>
       <r>   -4.8012    1.0000 </r>
       <r>   -4.0203    1.0000 </r>
       <r>   -3.8034    1.0000 </r>
       <r>   -3.2214    1.0000 </r>
       <r>   -2.6832    1.0000 </r>
       <r>   -2.3250    1.0000 </r>
       <r>   -1.9325    1.0000 </r>
       <r>   -1.4217    1.0000 </r>
       <r>   -0.0474    1.0000 </r>
       <r>   -0.0406    1.0000 </r>
       <r>    0.0731    1.0000 </r>
       <r>    0.1744    1.0000 </r>
       <r>    0.4471    1.0000 </r>
       <r>    1.9084    0.0768 </r>
       <r>    1.9791    0.0003 </r>
       <r>    2.0679    0.0000 </r>
       <r>    5.5122    0.0000 </r>
       <r>    5.7190    0.0000 </r>
       <r>    5.8312    0.0000 </r>
       <r>    6.2676    0.0000 </r>
       <r>    6.6894    0.0000 </r>
       <r>    7.1481    0.0000 </r>
       <r>    8.0418    0.0000 </r>
       <r>    8.6200    0.0000 </r>
       <r>    8.9931    0.0000 </r>
       <r>    9.0723    0.0000 </r>
       <r>    9.1505    0.0000 </r>
       <r>   10.1864    0.0000 </r>
       <r>   10.8857    0.0000 </r>
       <r>   11.0725    0.0000 </r>
       <r>   11.2156    0.0000 </r>
       <r>   11.6440    0.0000 </r>
       <r>   12.1082    0.0000 </r>
       <r>   12.4448    0.0000 </r>
       <r>   13.0568    0.0000 </r>
       <r>   13.0651    0.0000 </r>
       <r>   13.9443    0.0000 </r>
       <r>   14.7933    0.0000 </r>
       <r>   15.6805    0.0000 </r>
       <r>   15.7637    0.0000 </r>
       <r>   16.1523    0.0000 </r>
       <r>   16.4402    0.0000 </r>
      </set>
      <set comment="kpoint 3">
       <r>  -12.5905    1.0000 </r>
       <r>  -11.7851    1.0000 </r>
       <r>   -8.5995    1.0000 </r>
       <r>   -8.4020    1.0000 </r>
       <r>   -5.9865    1.0000 </r>
       <r>   -5.8076    1.0000 </r>
       <r>   -4.7549    1.0000 </r>
       <r>   -3.8940    1.0000 </r>
       <r>   -3.2931    1.0000 </r>
       <r>   -2.8507    1.0000 </r>
       <r>   -2.7310    1.0000 </r>
       <r>   -2.2851    1.0000 </r>
       <r>   -2.0418    1.0000 </r>
       <r>   -1.9252    1.0000 </r>
       <r>   -0.2445    1.0000 </r>
       <r>   -0.0063    1.0000 </r>
       <r>    0.1213    1.0000 </r>
       <r>    0.1384    1.0000 </r>
       <r>    0.4169    1.0000 </r>
       <r>    1.7607    0.9970 </r>
       <r>    1.8396    0.6984 </r>
       <r>    1.8468    0.6242 </r>
       <r>    5.6335    0.0000 </r>
       <r>    5.6753    0.0000 </r>
       <r>    6.1400    0.0000 </r>
       <r>    6.5643    0.0000 </r>
       <r>    6.7244    0.0000 </r>
       <r>    6.8940    0.0000 </r>
       <r>    8.1906    0.0000 </r>
       <r>    8.7690    0.0000 </r>
       <r>    8.9407    0.0000 </r>
       <r>    9.5168    0.0000 </r>
       <r>    9.5955    0.0000 </r>
       <r>   10.2272    0.0000 </r>
       <r>   10.4287    0.0000 </r>
       <r>   10.5674    0.0000 </r>
       <r>   11.3333    0.0000 </r>
       <r>   11.7877    0.0000 </r>
       <r>   12.3427    0.0000 </r>
       <r>   12.5020    0.0000 </r>
       <r>   12.7416    0.0000 </r>
       <r>   12.8530    0.0000 </r>
       <r>   14.5681    0.0000 </r>
       <r>   14.8463    0.0000 </r>
       <r>   15.1649    0.0000 </r>
       <r>   15.9110    0.0000 </r>
       <r>   15.9323    0.0000 </r>
       <r>   16.2138    0.0000 </r>
      </set>
      <set comment="kpoint 4">
       <r>  -12.4671    1.0000 </r>
       <r>  -11.9545    1.0000 </r>
       <r>   -8.5377    1.0000 </r>
       <r>   -8.3987    1.0000 </r>
       <r>   -6.0662    1.0000 </r>
       <r>   -6.0403    1.0000 </r>
       <r>   -4.4282    1.0000 </r>
       <r>   -3.7260    1.0000 </r>
       <r>   -3.0437    1.0000 </r>
       <r>   -2.9100    1.0000 </r>
       <r>   -2.4597    1.0000 </r>
       <r>   -2.2709    1.0000 </r>
       <r>   -2.1679    1.0000 </r>
       <r>   -2.1413    1.0000 </r>
       <r>   -0.5436    1.0000 </r>
       <r>   -0.2694    1.0000 </r>
       <r>    0.1538    1.0000 </r>
       <r>    0.2288    1.0000 </r>
       <r>    0.5896    1.0000 </r>
       <r>    1.5041    1.0000 </r>
       <r>    1.6391    1.0000 </r>
       <r>    1.6990    1.0000 </r>
       <r>    5.6608    0.0000 </r>
       <r>    5.7184    0.0000 </r>
       <r>    6.4640    0.0000 </r>
       <r>    6.6366    0.0000 </r>
       <r>    6.6621    0.0000 </r>
       <r>    7.3710    0.0000 </r>
       <r>    8.3135    0.0000 </r>
       <r>    8.6413    0.0000 </r>
       <r>    8.7547    0.0000 </r>
       <r>    9.4846    0.0000 </r>
       <r>    9.9981    0.0000 </r>
       <r>   10.0666    0.0000 </r>
       <r>   10.3410    0.0000 </r>
       <r>   11.0832    0.0000 </r>
       <r>   11.3547    0.0000 </r>
       <r>   11.8831    0.0000 </r>
       <r>   12.1466    0.0000 </r>
       <r>   12.2150    0.0000 </r>
       <r>   12.4691    0.0000 </r>
       <r>   13.2033    0.0000 </r>
       <r>   14.6558    0.0000 </r>
       <r>   14.9122    0.0000 </r>
       <r>   15.1878    0.0000 </r>
       <r>   15.3084    0.0000 </r>
       <r>   15.5029    0.0000 </r>
       <r>   16.3063    0.0000 </r>
      </set>
      <set comment="kpoint 5">
       <r>  -12.3125    1.0000 </r>
       <r>  -12.1368    1.0000 </r>
       <r>   -8.4717    1.0000 </r>
       <r>   -8.4210    1.0000 </r>
       <r>   -6.1542    1.0000 </r>
       <r>   -6.1505    1.0000 </r>
       <r>   -3.9139    1.0000 </r>
       <r>   -3.5178    1.0000 </r>
       <r>   -3.3156    1.0000 </r>
       <r>   -3.2813    1.0000 </r>
       <r>   -2.3758    1.0000 </r>
       <r>   -2.2496    1.0000 </r>
       <r>   -1.9829    1.0000 </r>
       <r>   -1.9272    1.0000 </r>
       <r>   -0.7642    1.0000 </r>
       <r>   -0.6281    1.0000 </r>
       <r>    0.2367    1.0000 </r>
       <r>    0.2700    1.0000 </r>
       <r>    0.8497    1.0000 </r>
       <r>    1.1662    1.0000 </r>
       <r>    1.5587    1.0000 </r>
       <r>    1.5858    1.0000 </r>
       <r>    5.6898    0.0000 </r>
       <r>    5.7284    0.0000 </r>
       <r>    6.4435    0.0000 </r>
       <r>    6.5078    0.0000 </r>
       <r>    7.3286    0.0000 </r>
       <r>    8.0292    0.0000 </r>
       <r>    8.0526    0.0000 </r>
       <r>    8.4299    0.0000 </r>
       <r>    8.5670    0.0000 </r>
       <r>    8.7420    0.0000 </r>
       <r>   10.4496    0.0000 </r>
       <r>   10.4633    0.0000 </r>
       <r>   10.7024    0.0000 </r>
       <r>   11.1594    0.0000 </r>
       <r>   11.3434    0.0000 </r>
       <r>   11.5346    0.0000 </r>
       <r>   11.8668    0.0000 </r>
       <r>   12.4236    0.0000 </r>
       <r>   12.6639    0.0000 </r>
       <r>   13.1971    0.0000 </r>
       <r>   14.5343    0.0000 </r>
       <r>   14.6678    0.0000 </r>
       <r>   14.8084    0.0000 </r>
       <r>   14.8680    0.0000 </r>
       <r>   16.0263    0.0000 </r>
       <r>   16.3719    0.0000 </r>
      </set>
      <set comment="kpoint 6">
       <r>  -12.6958    1.0000 </r>
       <r>  -11.5567    1.0000 </r>
       <r>   -8.6457    1.0000 </r>
       <r>   -8.4053    1.0000 </r>
       <r>   -6.0496    1.0000 </r>
       <r>   -5.1093    1.0000 </r>
       <r>   -4.6581    1.0000 </r>
       <r>   -4.5817    1.0000 </r>
       <r>   -4.1882    1.0000 </r>
       <r>   -3.5347    1.0000 </r>
       <r>   -3.3053    1.0000 </r>
       <r>   -1.8139    1.0000 </r>
       <r>   -1.1107    1.0000 </r>
       <r>   -1.0573    1.0000 </r>
       <r>   -0.3203    1.0000 </r>
       <r>   -0.2923    1.0000 </r>
       <r>    0.1463    1.0000 </r>
       <r>    0.2231    1.0000 </r>
       <r>    0.6203    1.0000 </r>
       <r>    1.7278    0.9999 </r>
       <r>    1.8071    0.9251 </r>
       <r>    2.2406    0.0000 </r>
       <r>    5.5430    0.0000 </r>
       <r>    5.6713    0.0000 </r>
       <r>    5.7075    0.0000 </r>
       <r>    5.9667    0.0000 </r>
       <r>    7.0587    0.0000 </r>
       <r>    7.7935    0.0000 </r>
       <r>    8.0293    0.0000 </r>
       <r>    8.1439    0.0000 </r>
       <r>    8.7464    0.0000 </r>
       <r>    9.0345    0.0000 </r>
       <r>    9.0909    0.0000 </r>
       <r>   10.5284    0.0000 </r>
       <r>   11.2089    0.0000 </r>
       <r>   11.3558    0.0000 </r>
       <r>   11.5384    0.0000 </r>
       <r>   11.8283    0.0000 </r>
       <r>   12.0023    0.0000 </r>
       <r>   12.6354    0.0000 </r>
       <r>   12.8076    0.0000 </r>
       <r>   13.1280    0.0000 </r>
       <r>   13.1319    0.0000 </r>
       <r>   15.2574    0.0000 </r>
       <r>   15.3039    0.0000 </r>
       <r>   15.7879    0.0000 </r>
       <r>   15.7891    0.0000 </r>
       <r>   16.1457    0.0000 </r>
      </set>
      <set comment="kpoint 7">
       <r>  -12.6522    1.0000 </r>
       <r>  -11.6304    1.0000 </r>
       <r>   -8.6244    1.0000 </r>
       <r>   -8.3941    1.0000 </r>
       <r>   -5.9799    1.0000 </r>
       <r>   -5.4520    1.0000 </r>
       <r>   -4.7813    1.0000 </r>
       <r>   -4.5005    1.0000 </r>
       <r>   -3.7650    1.0000 </r>
       <r>   -3.3854    1.0000 </r>
       <r>   -3.1836    1.0000 </r>
       <r>   -1.7923    1.0000 </r>
       <r>   -1.4163    1.0000 </r>
       <r>   -1.1749    1.0000 </r>
       <r>   -0.2817    1.0000 </r>
       <r>   -0.2143    1.0000 </r>
       <r>    0.1135    1.0000 </r>
       <r>    0.1960    1.0000 </r>
       <r>    0.5174    1.0000 </r>
       <r>    1.6476    1.0000 </r>
       <r>    1.7308    0.9998 </r>
       <r>    2.1102    0.0000 </r>
       <r>    5.6191    0.0000 </r>
       <r>    5.7706    0.0000 </r>
       <r>    5.8952    0.0000 </r>
       <r>    6.0754    0.0000 </r>
       <r>    6.9758    0.0000 </r>
       <r>    7.4691    0.0000 </r>
       <r>    8.1752    0.0000 </r>
       <r>    8.3113    0.0000 </r>
       <r>    9.0639    0.0000 </r>
       <r>    9.1026    0.0000 </r>
       <r>    9.3602    0.0000 </r>
       <r>   10.4492    0.0000 </r>
       <r>   10.8180    0.0000 </r>
       <r>   11.0256    0.0000 </r>
       <r>   11.4099    0.0000 </r>
       <r>   11.8168    0.0000 </r>
       <r>   12.2214    0.0000 </r>
       <r>   12.6857    0.0000 </r>
       <r>   12.8078    0.0000 </r>
       <r>   13.0890    0.0000 </r>
       <r>   13.6636    0.0000 </r>
       <r>   14.8779    0.0000 </r>
       <r>   15.3260    0.0000 </r>
       <r>   15.6838    0.0000 </r>
       <r>   15.7213    0.0000 </r>
       <r>   16.3258    0.0000 </r>
      </set>
      <set comment="kpoint 8">
       <r>  -12.5668    1.0000 </r>
       <r>  -11.7632    1.0000 </r>
       <r>   -8.5804    1.0000 </r>
       <r>   -8.3801    1.0000 </r>
       <r>   -5.9554    1.0000 </r>
       <r>   -5.7773    1.0000 </r>
       <r>   -4.7383    1.0000 </r>
       <r>   -4.3927    1.0000 </r>
       <r>   -3.5066    1.0000 </r>
       <r>   -3.2403    1.0000 </r>
       <r>   -2.7185    1.0000 </r>
       <r>   -1.9206    1.0000 </r>
       <r>   -1.7483    1.0000 </r>
       <r>   -1.3364    1.0000 </r>
       <r>   -0.2465    1.0000 </r>
       <r>   -0.2357    1.0000 </r>
       <r>    0.0332    1.0000 </r>
       <r>    0.1831    1.0000 </r>
       <r>    0.4413    1.0000 </r>
       <r>    1.5130    1.0000 </r>
       <r>    1.6011    1.0000 </r>
       <r>    1.8629    0.4451 </r>
       <r>    5.8167    0.0000 </r>
       <r>    5.8987    0.0000 </r>
       <r>    5.9772    0.0000 </r>
       <r>    6.5222    0.0000 </r>
       <r>    6.8558    0.0000 </r>
       <r>    7.2420    0.0000 </r>
       <r>    8.3819    0.0000 </r>
       <r>    8.4427    0.0000 </r>
       <r>    9.0388    0.0000 </r>
       <r>    9.5552    0.0000 </r>
       <r>    9.8201    0.0000 </r>
       <r>   10.0722    0.0000 </r>
       <r>   10.2976    0.0000 </r>
       <r>   10.7632    0.0000 </r>
       <r>   11.4730    0.0000 </r>
       <r>   12.0519    0.0000 </r>
       <r>   12.2471    0.0000 </r>
       <r>   12.5041    0.0000 </r>
       <r>   12.8926    0.0000 </r>
       <r>   12.9700    0.0000 </r>
       <r>   14.2394    0.0000 </r>
       <r>   15.0117    0.0000 </r>
       <r>   15.0942    0.0000 </r>
       <r>   15.5740    0.0000 </r>
       <r>   15.6410    0.0000 </r>
       <r>   16.3463    0.0000 </r>
      </set>
      <set comment="kpoint 9">
       <r>  -12.4437    1.0000 </r>
       <r>  -11.9322    1.0000 </r>
       <r>   -8.5184    1.0000 </r>
       <r>   -8.3776    1.0000 </r>
       <r>   -6.0339    1.0000 </r>
       <r>   -6.0092    1.0000 </r>
       <r>   -4.4138    1.0000 </r>
       <r>   -4.2464    1.0000 </r>
       <r>   -3.6770    1.0000 </r>
       <r>   -2.8621    1.0000 </r>
       <r>   -2.3786    1.0000 </r>
       <r>   -2.2364    1.0000 </r>
       <r>   -1.6845    1.0000 </r>
       <r>   -1.4984    1.0000 </r>
       <r>   -0.5057    1.0000 </r>
       <r>   -0.3304    1.0000 </r>
       <r>    0.0643    1.0000 </r>
       <r>    0.0953    1.0000 </r>
       <r>    0.6002    1.0000 </r>
       <r>    1.3736    1.0000 </r>
       <r>    1.4562    1.0000 </r>
       <r>    1.5401    1.0000 </r>
       <r>    5.8343    0.0000 </r>
       <r>    5.9717    0.0000 </r>
       <r>    6.4816    0.0000 </r>
       <r>    6.7674    0.0000 </r>
       <r>    6.8409    0.0000 </r>
       <r>    7.3315    0.0000 </r>
       <r>    8.3727    0.0000 </r>
       <r>    8.5496    0.0000 </r>
       <r>    8.8837    0.0000 </r>
       <r>    9.3213    0.0000 </r>
       <r>   10.0168    0.0000 </r>
       <r>   10.0407    0.0000 </r>
       <r>   10.3882    0.0000 </r>
       <r>   11.1595    0.0000 </r>
       <r>   11.3100    0.0000 </r>
       <r>   11.7831    0.0000 </r>
       <r>   12.2251    0.0000 </r>
       <r>   12.4928    0.0000 </r>
       <r>   12.6680    0.0000 </r>
       <r>   13.4041    0.0000 </r>
       <r>   14.6996    0.0000 </r>
       <r>   14.7089    0.0000 </r>
       <r>   15.0832    0.0000 </r>
       <r>   15.2412    0.0000 </r>
       <r>   15.5788    0.0000 </r>
       <r>   16.3203    0.0000 </r>
      </set>
      <set comment="kpoint 10">
       <r>  -12.2894    1.0000 </r>
       <r>  -12.1141    1.0000 </r>
       <r>   -8.4521    1.0000 </r>
       <r>   -8.4008    1.0000 </r>
       <r>   -6.1223    1.0000 </r>
       <r>   -6.1181    1.0000 </r>
       <r>   -4.0684    1.0000 </r>
       <r>   -3.9064    1.0000 </r>
       <r>   -3.8659    1.0000 </r>
       <r>   -3.3029    1.0000 </r>
       <r>   -2.1235    1.0000 </r>
       <r>   -1.9314    1.0000 </r>
       <r>   -1.6164    1.0000 </r>
       <r>   -1.6112    1.0000 </r>
       <r>   -0.7263    1.0000 </r>
       <r>   -0.6240    1.0000 </r>
       <r>    0.0983    1.0000 </r>
       <r>    0.1294    1.0000 </r>
       <r>    0.8590    1.0000 </r>
       <r>    1.1727    1.0000 </r>
       <r>    1.3204    1.0000 </r>
       <r>    1.3443    1.0000 </r>
       <r>    5.8863    0.0000 </r>
       <r>    5.9532    0.0000 </r>
       <r>    6.7574    0.0000 </r>
       <r>    6.8082    0.0000 </r>
       <r>    7.1467    0.0000 </r>
       <r>    7.8559    0.0000 </r>
       <r>    7.8989    0.0000 </r>
       <r>    8.5782    0.0000 </r>
       <r>    8.6411    0.0000 </r>
       <r>    8.7528    0.0000 </r>
       <r>   10.2644    0.0000 </r>
       <r>   10.5136    0.0000 </r>
       <r>   10.7520    0.0000 </r>
       <r>   10.8509    0.0000 </r>
       <r>   11.4907    0.0000 </r>
       <r>   11.5933    0.0000 </r>
       <r>   11.9446    0.0000 </r>
       <r>   12.5907    0.0000 </r>
       <r>   12.9705    0.0000 </r>
       <r>   13.4267    0.0000 </r>
       <r>   14.4845    0.0000 </r>
       <r>   14.6698    0.0000 </r>
       <r>   14.7687    0.0000 </r>
       <r>   14.9865    0.0000 </r>
       <r>   16.0519    0.0000 </r>
       <r>   16.3467    0.0000 </r>
      </set>
      <set comment="kpoint 11">
       <r>  -12.6516    1.0000 </r>
       <r>  -11.5170    1.0000 </r>
       <r>   -8.6116    1.0000 </r>
       <r>   -8.3628    1.0000 </r>
       <r>   -6.0005    1.0000 </r>
       <r>   -5.1381    1.0000 </r>
       <r>   -5.0192    1.0000 </r>
       <r>   -4.6166    1.0000 </r>
       <r>   -4.1716    1.0000 </r>
       <r>   -3.9263    1.0000 </r>
       <r>   -3.4817    1.0000 </r>
       <r>   -1.2236    1.0000 </r>
       <r>   -1.1014    1.0000 </r>
       <r>   -0.6624    1.0000 </r>
       <r>   -0.5587    1.0000 </r>
       <r>   -0.2004    1.0000 </r>
       <r>    0.1674    1.0000 </r>
       <r>    0.2754    1.0000 </r>
       <r>    0.6983    1.0000 </r>
       <r>    1.3468    1.0000 </r>
       <r>    1.4097    1.0000 </r>
       <r>    2.2783    0.0000 </r>
       <r>    5.2562    0.0000 </r>
       <r>    5.4201    0.0000 </r>
       <r>    6.0836    0.0000 </r>
       <r>    6.1533    0.0000 </r>
       <r>    7.4909    0.0000 </r>
       <r>    7.5798    0.0000 </r>
       <r>    8.2738    0.0000 </r>
       <r>    8.6730    0.0000 </r>
       <r>    8.8305    0.0000 </r>
       <r>    9.1747    0.0000 </r>
       <r>    9.3136    0.0000 </r>
       <r>   10.8280    0.0000 </r>
       <r>   11.2629    0.0000 </r>
       <r>   11.5144    0.0000 </r>
       <r>   11.6535    0.0000 </r>
       <r>   12.0278    0.0000 </r>
       <r>   12.2182    0.0000 </r>
       <r>   12.6886    0.0000 </r>
       <r>   12.7010    0.0000 </r>
       <r>   12.9393    0.0000 </r>
       <r>   13.1716    0.0000 </r>
       <r>   14.5972    0.0000 </r>
       <r>   15.0885    0.0000 </r>
       <r>   15.2651    0.0000 </r>
       <r>   15.3671    0.0000 </r>
       <r>   15.8845    0.0000 </r>
      </set>
      <set comment="kpoint 12">
       <r>  -12.6082    1.0000 </r>
       <r>  -11.5904    1.0000 </r>
       <r>   -8.5899    1.0000 </r>
       <r>   -8.3524    1.0000 </r>
       <r>   -5.9274    1.0000 </r>
       <r>   -5.4035    1.0000 </r>
       <r>   -5.0413    1.0000 </r>
       <r>   -4.7439    1.0000 </r>
       <r>   -3.9919    1.0000 </r>
       <r>   -3.7233    1.0000 </r>
       <r>   -3.1443    1.0000 </r>
       <r>   -1.4080    1.0000 </r>
       <r>   -1.1977    1.0000 </r>
       <r>   -0.7705    1.0000 </r>
       <r>   -0.5209    1.0000 </r>
       <r>   -0.1188    1.0000 </r>
       <r>    0.1464    1.0000 </r>
       <r>    0.2210    1.0000 </r>
       <r>    0.5857    1.0000 </r>
       <r>    1.2679    1.0000 </r>
       <r>    1.3401    1.0000 </r>
       <r>    2.1430    0.0000 </r>
       <r>    5.3367    0.0000 </r>
       <r>    5.7642    0.0000 </r>
       <r>    6.0994    0.0000 </r>
       <r>    6.1989    0.0000 </r>
       <r>    7.4105    0.0000 </r>
       <r>    7.7364    0.0000 </r>
       <r>    8.0062    0.0000 </r>
       <r>    8.7653    0.0000 </r>
       <r>    9.1885    0.0000 </r>
       <r>    9.2322    0.0000 </r>
       <r>    9.5971    0.0000 </r>
       <r>   10.4637    0.0000 </r>
       <r>   10.7240    0.0000 </r>
       <r>   11.2194    0.0000 </r>
       <r>   11.6713    0.0000 </r>
       <r>   12.1415    0.0000 </r>
       <r>   12.3737    0.0000 </r>
       <r>   12.4473    0.0000 </r>
       <r>   13.0994    0.0000 </r>
       <r>   13.2181    0.0000 </r>
       <r>   13.3729    0.0000 </r>
       <r>   14.6097    0.0000 </r>
       <r>   14.7520    0.0000 </r>
       <r>   15.1999    0.0000 </r>
       <r>   15.4312    0.0000 </r>
       <r>   15.9167    0.0000 </r>
      </set>
      <set comment="kpoint 13">
       <r>  -12.5232    1.0000 </r>
       <r>  -11.7227    1.0000 </r>
       <r>   -8.5456    1.0000 </r>
       <r>   -8.3397    1.0000 </r>
       <r>   -5.8975    1.0000 </r>
       <r>   -5.7227    1.0000 </r>
       <r>   -4.9498    1.0000 </r>
       <r>   -4.7074    1.0000 </r>
       <r>   -4.1146    1.0000 </r>
       <r>   -3.1907    1.0000 </r>
       <r>   -2.6748    1.0000 </r>
       <r>   -1.9043    1.0000 </r>
       <r>   -1.1573    1.0000 </r>
       <r>   -0.9098    1.0000 </r>
       <r>   -0.4684    1.0000 </r>
       <r>   -0.1129    1.0000 </r>
       <r>   -0.0076    1.0000 </r>
       <r>    0.2323    1.0000 </r>
       <r>    0.4710    1.0000 </r>
       <r>    1.1369    1.0000 </r>
       <r>    1.2221    1.0000 </r>
       <r>    1.8874    0.2030 </r>
       <r>    5.6570    0.0000 </r>
       <r>    6.0545    0.0000 </r>
       <r>    6.2382    0.0000 </r>
       <r>    6.3293    0.0000 </r>
       <r>    7.3089    0.0000 </r>
       <r>    7.8180    0.0000 </r>
       <r>    7.9705    0.0000 </r>
       <r>    8.8942    0.0000 </r>
       <r>    9.1861    0.0000 </r>
       <r>    9.6630    0.0000 </r>
       <r>    9.8007    0.0000 </r>
       <r>   10.0795    0.0000 </r>
       <r>   10.2001    0.0000 </r>
       <r>   11.0026    0.0000 </r>
       <r>   11.5345    0.0000 </r>
       <r>   12.0487    0.0000 </r>
       <r>   12.4511    0.0000 </r>
       <r>   12.7486    0.0000 </r>
       <r>   12.9798    0.0000 </r>
       <r>   13.3889    0.0000 </r>
       <r>   13.8947    0.0000 </r>
       <r>   14.5209    0.0000 </r>
       <r>   14.8011    0.0000 </r>
       <r>   15.2241    0.0000 </r>
       <r>   15.4481    0.0000 </r>
       <r>   16.1275    0.0000 </r>
      </set>
      <set comment="kpoint 14">
       <r>  -12.4005    1.0000 </r>
       <r>  -11.8910    1.0000 </r>
       <r>   -8.4831    1.0000 </r>
       <r>   -8.3389    1.0000 </r>
       <r>   -5.9737    1.0000 </r>
       <r>   -5.9518    1.0000 </r>
       <r>   -4.8146    1.0000 </r>
       <r>   -4.3872    1.0000 </r>
       <r>   -4.2780    1.0000 </r>
       <r>   -2.8240    1.0000 </r>
       <r>   -2.3381    1.0000 </r>
       <r>   -2.1953    1.0000 </r>
       <r>   -1.1011    1.0000 </r>
       <r>   -1.0470    1.0000 </r>
       <r>   -0.4755    1.0000 </r>
       <r>   -0.3976    1.0000 </r>
       <r>    0.0360    1.0000 </r>
       <r>    0.0382    1.0000 </r>
       <r>    0.6177    1.0000 </r>
       <r>    1.0077    1.0000 </r>
       <r>    1.0898    1.0000 </r>
       <r>    1.5535    1.0000 </r>
       <r>    6.0665    0.0000 </r>
       <r>    6.1899    0.0000 </r>
       <r>    6.3602    0.0000 </r>
       <r>    6.7628    0.0000 </r>
       <r>    7.2544    0.0000 </r>
       <r>    7.7401    0.0000 </r>
       <r>    8.0276    0.0000 </r>
       <r>    8.9937    0.0000 </r>
       <r>    9.0545    0.0000 </r>
       <r>    9.1234    0.0000 </r>
       <r>    9.8310    0.0000 </r>
       <r>   10.1293    0.0000 </r>
       <r>   10.6487    0.0000 </r>
       <r>   11.0222    0.0000 </r>
       <r>   11.2582    0.0000 </r>
       <r>   11.8944    0.0000 </r>
       <r>   12.2871    0.0000 </r>
       <r>   12.9299    0.0000 </r>
       <r>   12.9809    0.0000 </r>
       <r>   13.7303    0.0000 </r>
       <r>   14.3097    0.0000 </r>
       <r>   14.3285    0.0000 </r>
       <r>   14.9607    0.0000 </r>
       <r>   15.0555    0.0000 </r>
       <r>   15.5407    0.0000 </r>
       <r>   16.3062    0.0000 </r>
      </set>
      <set comment="kpoint 15">
       <r>  -12.2469    1.0000 </r>
       <r>  -12.0722    1.0000 </r>
       <r>   -8.4161    1.0000 </r>
       <r>   -8.3637    1.0000 </r>
       <r>   -6.0630    1.0000 </r>
       <r>   -6.0579    1.0000 </r>
       <r>   -4.6478    1.0000 </r>
       <r>   -4.4632    1.0000 </r>
       <r>   -3.8757    1.0000 </r>
       <r>   -3.2805    1.0000 </r>
       <r>   -2.0559    1.0000 </r>
       <r>   -1.8913    1.0000 </r>
       <r>   -1.1201    1.0000 </r>
       <r>   -1.0603    1.0000 </r>
       <r>   -0.6522    1.0000 </r>
       <r>   -0.6475    1.0000 </r>
       <r>   -0.0131    1.0000 </r>
       <r>    0.0304    1.0000 </r>
       <r>    0.8746    1.0000 </r>
       <r>    0.9453    1.0000 </r>
       <r>    0.9856    1.0000 </r>
       <r>    1.2010    1.0000 </r>
       <r>    6.1585    0.0000 </r>
       <r>    6.2777    0.0000 </r>
       <r>    6.8401    0.0000 </r>
       <r>    7.1758    0.0000 </r>
       <r>    7.2333    0.0000 </r>
       <r>    7.5822    0.0000 </r>
       <r>    7.8864    0.0000 </r>
       <r>    8.3949    0.0000 </r>
       <r>    9.0491    0.0000 </r>
       <r>    9.0807    0.0000 </r>
       <r>    9.9556    0.0000 </r>
       <r>   10.4283    0.0000 </r>
       <r>   10.6510    0.0000 </r>
       <r>   10.9260    0.0000 </r>
       <r>   11.6705    0.0000 </r>
       <r>   11.6834    0.0000 </r>
       <r>   12.0636    0.0000 </r>
       <r>   12.8446    0.0000 </r>
       <r>   13.3578    0.0000 </r>
       <r>   13.7027    0.0000 </r>
       <r>   14.1610    0.0000 </r>
       <r>   14.3152    0.0000 </r>
       <r>   14.9290    0.0000 </r>
       <r>   15.0677    0.0000 </r>
       <r>   15.9185    0.0000 </r>
       <r>   16.2210    0.0000 </r>
      </set>
      <set comment="kpoint 16">
       <r>  -12.5943    1.0000 </r>
       <r>  -11.4656    1.0000 </r>
       <r>   -8.5680    1.0000 </r>
       <r>   -8.3079    1.0000 </r>
       <r>   -5.9367    1.0000 </r>
       <r>   -5.6182    1.0000 </r>
       <r>   -4.9495    1.0000 </r>
       <r>   -4.5608    1.0000 </r>
       <r>   -4.4456    1.0000 </r>
       <r>   -4.1325    1.0000 </r>
       <r>   -3.4201    1.0000 </r>
       <r>   -1.2335    1.0000 </r>
       <r>   -1.0872    1.0000 </r>
       <r>   -1.0149    1.0000 </r>
       <r>   -0.2165    1.0000 </r>
       <r>    0.1954    1.0000 </r>
       <r>    0.3184    1.0000 </r>
       <r>    0.5693    1.0000 </r>
       <r>    0.7616    1.0000 </r>
       <r>    0.9629    1.0000 </r>
       <r>    0.9769    1.0000 </r>
       <r>    2.3122    0.0000 </r>
       <r>    4.9150    0.0000 </r>
       <r>    5.1282    0.0000 </r>
       <r>    6.3127    0.0000 </r>
       <r>    6.5425    0.0000 </r>
       <r>    7.2233    0.0000 </r>
       <r>    7.9175    0.0000 </r>
       <r>    8.6437    0.0000 </r>
       <r>    9.0118    0.0000 </r>
       <r>    9.3996    0.0000 </r>
       <r>    9.5295    0.0000 </r>
       <r>    9.5947    0.0000 </r>
       <r>   10.6894    0.0000 </r>
       <r>   11.2109    0.0000 </r>
       <r>   11.9114    0.0000 </r>
       <r>   11.9675    0.0000 </r>
       <r>   12.2341    0.0000 </r>
       <r>   12.3676    0.0000 </r>
       <r>   12.3945    0.0000 </r>
       <r>   12.5072    0.0000 </r>
       <r>   12.9242    0.0000 </r>
       <r>   13.7166    0.0000 </r>
       <r>   13.8212    0.0000 </r>
       <r>   14.3456    0.0000 </r>
       <r>   15.0386    0.0000 </r>
       <r>   15.3407    0.0000 </r>
       <r>   15.7765    0.0000 </r>
      </set>
      <set comment="kpoint 17">
       <r>  -12.5511    1.0000 </r>
       <r>  -11.5387    1.0000 </r>
       <r>   -8.5459    1.0000 </r>
       <r>   -8.2985    1.0000 </r>
       <r>   -5.8590    1.0000 </r>
       <r>   -5.5834    1.0000 </r>
       <r>   -5.2852    1.0000 </r>
       <r>   -4.6943    1.0000 </r>
       <r>   -4.5105    1.0000 </r>
       <r>   -3.6699    1.0000 </r>
       <r>   -3.0830    1.0000 </r>
       <r>   -1.4015    1.0000 </r>
       <r>   -1.1770    1.0000 </r>
       <r>   -1.0300    1.0000 </r>
       <r>   -0.2176    1.0000 </r>
       <r>    0.1788    1.0000 </r>
       <r>    0.2524    1.0000 </r>
       <r>    0.5491    1.0000 </r>
       <r>    0.6402    1.0000 </r>
       <r>    0.8974    1.0000 </r>
       <r>    0.9352    1.0000 </r>
       <r>    2.1750    0.0000 </r>
       <r>    5.0110    0.0000 </r>
       <r>    5.4581    0.0000 </r>
       <r>    6.2587    0.0000 </r>
       <r>    6.6753    0.0000 </r>
       <r>    7.3584    0.0000 </r>
       <r>    7.8756    0.0000 </r>
       <r>    8.5833    0.0000 </r>
       <r>    9.1221    0.0000 </r>
       <r>    9.3677    0.0000 </r>
       <r>    9.7383    0.0000 </r>
       <r>    9.8353    0.0000 </r>
       <r>   10.2826    0.0000 </r>
       <r>   10.6518    0.0000 </r>
       <r>   11.6478    0.0000 </r>
       <r>   11.8330    0.0000 </r>
       <r>   12.1904    0.0000 </r>
       <r>   12.4180    0.0000 </r>
       <r>   12.5881    0.0000 </r>
       <r>   12.8987    0.0000 </r>
       <r>   13.3269    0.0000 </r>
       <r>   13.7195    0.0000 </r>
       <r>   13.8592    0.0000 </r>
       <r>   14.1865    0.0000 </r>
       <r>   14.9997    0.0000 </r>
       <r>   15.3699    0.0000 </r>
       <r>   15.6570    0.0000 </r>
      </set>
      <set comment="kpoint 18">
       <r>  -12.4666    1.0000 </r>
       <r>  -11.6703    1.0000 </r>
       <r>   -8.5010    1.0000 </r>
       <r>   -8.2875    1.0000 </r>
       <r>   -5.8216    1.0000 </r>
       <r>   -5.6699    1.0000 </r>
       <r>   -5.4310    1.0000 </r>
       <r>   -4.6679    1.0000 </r>
       <r>   -4.6319    1.0000 </r>
       <r>   -3.1319    1.0000 </r>
       <r>   -2.6146    1.0000 </r>
       <r>   -1.8854    1.0000 </r>
       <r>   -1.1166    1.0000 </r>
       <r>   -1.0493    1.0000 </r>
       <r>   -0.2355    1.0000 </r>
       <r>   -0.0749    1.0000 </r>
       <r>    0.2901    1.0000 </r>
       <r>    0.4827    1.0000 </r>
       <r>    0.4982    1.0000 </r>
       <r>    0.8081    1.0000 </r>
       <r>    0.8679    1.0000 </r>
       <r>    1.9157    0.0513 </r>
       <r>    5.3357    0.0000 </r>
       <r>    5.9306    0.0000 </r>
       <r>    6.2312    0.0000 </r>
       <r>    6.7892    0.0000 </r>
       <r>    7.5250    0.0000 </r>
       <r>    7.8980    0.0000 </r>
       <r>    8.5126    0.0000 </r>
       <r>    9.3083    0.0000 </r>
       <r>    9.3395    0.0000 </r>
       <r>    9.5422    0.0000 </r>
       <r>    9.9892    0.0000 </r>
       <r>   10.0512    0.0000 </r>
       <r>   10.5013    0.0000 </r>
       <r>   11.3285    0.0000 </r>
       <r>   11.3428    0.0000 </r>
       <r>   12.1846    0.0000 </r>
       <r>   12.6755    0.0000 </r>
       <r>   12.9005    0.0000 </r>
       <r>   13.1187    0.0000 </r>
       <r>   13.4552    0.0000 </r>
       <r>   13.6923    0.0000 </r>
       <r>   13.9508    0.0000 </r>
       <r>   14.3219    0.0000 </r>
       <r>   15.0914    0.0000 </r>
       <r>   15.2932    0.0000 </r>
       <r>   15.9209    0.0000 </r>
      </set>
      <set comment="kpoint 19">
       <r>  -12.3447    1.0000 </r>
       <r>  -11.8378    1.0000 </r>
       <r>   -8.4378    1.0000 </r>
       <r>   -8.2891    1.0000 </r>
       <r>   -5.8947    1.0000 </r>
       <r>   -5.8794    1.0000 </r>
       <r>   -5.3176    1.0000 </r>
       <r>   -4.7951    1.0000 </r>
       <r>   -4.3518    1.0000 </r>
       <r>   -2.7797    1.0000 </r>
       <r>   -2.2959    1.0000 </r>
       <r>   -2.1398    1.0000 </r>
       <r>   -1.0586    1.0000 </r>
       <r>   -1.0328    1.0000 </r>
       <r>   -0.3979    1.0000 </r>
       <r>   -0.3511    1.0000 </r>
       <r>    0.1283    1.0000 </r>
       <r>    0.3540    1.0000 </r>
       <r>    0.6375    1.0000 </r>
       <r>    0.7511    1.0000 </r>
       <r>    0.8011    1.0000 </r>
       <r>    1.5780    1.0000 </r>
       <r>    5.8612    0.0000 </r>
       <r>    6.2642    0.0000 </r>
       <r>    6.5061    0.0000 </r>
       <r>    6.7406    0.0000 </r>
       <r>    7.5257    0.0000 </r>
       <r>    7.9594    0.0000 </r>
       <r>    8.4683    0.0000 </r>
       <r>    8.8681    0.0000 </r>
       <r>    9.2211    0.0000 </r>
       <r>    9.5276    0.0000 </r>
       <r>    9.8435    0.0000 </r>
       <r>   10.2882    0.0000 </r>
       <r>   10.7400    0.0000 </r>
       <r>   11.0389    0.0000 </r>
       <r>   11.3759    0.0000 </r>
       <r>   12.1103    0.0000 </r>
       <r>   12.3525    0.0000 </r>
       <r>   13.0980    0.0000 </r>
       <r>   13.2221    0.0000 </r>
       <r>   13.5864    0.0000 </r>
       <r>   13.8307    0.0000 </r>
       <r>   14.0849    0.0000 </r>
       <r>   14.6909    0.0000 </r>
       <r>   14.9239    0.0000 </r>
       <r>   15.3612    0.0000 </r>
       <r>   16.2512    0.0000 </r>
      </set>
      <set comment="kpoint 20">
       <r>  -12.1918    1.0000 </r>
       <r>  -12.0181    1.0000 </r>
       <r>   -8.3700    1.0000 </r>
       <r>   -8.3160    1.0000 </r>
       <r>   -5.9861    1.0000 </r>
       <r>   -5.9790    1.0000 </r>
       <r>   -5.1571    1.0000 </r>
       <r>   -4.9767    1.0000 </r>
       <r>   -3.8438    1.0000 </r>
       <r>   -3.2506    1.0000 </r>
       <r>   -1.9993    1.0000 </r>
       <r>   -1.8452    1.0000 </r>
       <r>   -0.9978    1.0000 </r>
       <r>   -0.9380    1.0000 </r>
       <r>   -0.6942    1.0000 </r>
       <r>   -0.6513    1.0000 </r>
       <r>    0.1060    1.0000 </r>
       <r>    0.2070    1.0000 </r>
       <r>    0.7354    1.0000 </r>
       <r>    0.7518    1.0000 </r>
       <r>    0.9002    1.0000 </r>
       <r>    1.2224    1.0000 </r>
       <r>    6.3974    0.0000 </r>
       <r>    6.5191    0.0000 </r>
       <r>    6.5769    0.0000 </r>
       <r>    7.0941    0.0000 </r>
       <r>    7.1664    0.0000 </r>
       <r>    7.6495    0.0000 </r>
       <r>    8.4578    0.0000 </r>
       <r>    8.5216    0.0000 </r>
       <r>    9.4152    0.0000 </r>
       <r>    9.5841    0.0000 </r>
       <r>    9.7850    0.0000 </r>
       <r>   10.0862    0.0000 </r>
       <r>   10.8024    0.0000 </r>
       <r>   11.1806    0.0000 </r>
       <r>   11.8027    0.0000 </r>
       <r>   11.8823    0.0000 </r>
       <r>   12.1837    0.0000 </r>
       <r>   13.0766    0.0000 </r>
       <r>   13.3718    0.0000 </r>
       <r>   13.5532    0.0000 </r>
       <r>   13.7766    0.0000 </r>
       <r>   13.8806    0.0000 </r>
       <r>   15.0343    0.0000 </r>
       <r>   15.0512    0.0000 </r>
       <r>   15.5963    0.0000 </r>
       <r>   15.8973    0.0000 </r>
      </set>
      <set comment="kpoint 21">
       <r>  -12.5345    1.0000 </r>
[...]
       <r>   -2.3396    1.0000 </r>
       <r>   -2.1543    1.0000 </r>
       <r>   -1.9922    1.0000 </r>
       <r>   -1.5139    1.0000 </r>
       <r>   -0.7562    1.0000 </r>
       <r>   -0.2248    1.0000 </r>
       <r>    0.1484    1.0000 </r>
       <r>    0.3671    1.0000 </r>
       <r>    0.4860    1.0000 </r>
       <r>    1.5627    1.0000 </r>
       <r>    1.5889    1.0000 </r>
       <r>    1.8438    0.6562 </r>
       <r>    5.4797    0.0000 </r>
       <r>    6.1102    0.0000 </r>
       <r>    6.6301    0.0000 </r>
       <r>    7.1670    0.0000 </r>
       <r>    7.7276    0.0000 </r>
       <r>    8.1834    0.0000 </r>
       <r>    8.9444    0.0000 </r>
       <r>    9.0981    0.0000 </r>
       <r>    9.6703    0.0000 </r>
       <r>    9.9038    0.0000 </r>
       <r>   10.5307    0.0000 </r>
       <r>   10.9853    0.0000 </r>
       <r>   11.1384    0.0000 </r>
       <r>   11.4055    0.0000 </r>
       <r>   11.5070    0.0000 </r>
       <r>   11.8947    0.0000 </r>
       <r>   12.7753    0.0000 </r>
       <r>   13.0639    0.0000 </r>
       <r>   13.3043    0.0000 </r>
       <r>   13.6801    0.0000 </r>
       <r>   13.7943    0.0000 </r>
       <r>   14.0885    0.0000 </r>
       <r>   14.4023    0.0000 </r>
       <r>   14.9048    0.0000 </r>
       <r>   15.0224    0.0000 </r>
       <r>   15.3219    0.0000 </r>
      </set>
      <set comment="kpoint 175">
       <r>  -12.0169    1.0000 </r>
       <r>  -11.8777    1.0000 </r>
       <r>   -8.5545    1.0000 </r>
       <r>   -8.4422    1.0000 </r>
       <r>   -5.9361    1.0000 </r>
       <r>   -5.8308    1.0000 </r>
       <r>   -4.9067    1.0000 </r>
       <r>   -4.5850    1.0000 </r>
       <r>   -4.4269    1.0000 </r>
       <r>   -3.9908    1.0000 </r>
       <r>   -2.2067    1.0000 </r>
       <r>   -2.1455    1.0000 </r>
       <r>   -2.0819    1.0000 </r>
       <r>   -1.7976    1.0000 </r>
       <r>   -0.2407    1.0000 </r>
       <r>   -0.0294    1.0000 </r>
       <r>    0.3700    1.0000 </r>
       <r>    0.4577    1.0000 </r>
       <r>    0.5233    1.0000 </r>
       <r>    0.8506    1.0000 </r>
       <r>    1.6029    1.0000 </r>
       <r>    1.7024    1.0000 </r>
       <r>    5.8239    0.0000 </r>
       <r>    6.0082    0.0000 </r>
       <r>    6.8331    0.0000 </r>
       <r>    7.3537    0.0000 </r>
       <r>    7.4340    0.0000 </r>
       <r>    7.5226    0.0000 </r>
       <r>    9.3491    0.0000 </r>
       <r>    9.5297    0.0000 </r>
       <r>    9.7372    0.0000 </r>
       <r>    9.9146    0.0000 </r>
       <r>   10.4048    0.0000 </r>
       <r>   10.7506    0.0000 </r>
       <r>   11.1907    0.0000 </r>
       <r>   11.4468    0.0000 </r>
       <r>   11.4517    0.0000 </r>
       <r>   11.5556    0.0000 </r>
       <r>   13.0172    0.0000 </r>
       <r>   13.1214    0.0000 </r>
       <r>   13.6381    0.0000 </r>
       <r>   13.9831    0.0000 </r>
       <r>   14.1148    0.0000 </r>
       <r>   14.2127    0.0000 </r>
       <r>   14.5221    0.0000 </r>
       <r>   14.6735    0.0000 </r>
       <r>   14.8243    0.0000 </r>
       <r>   14.9677    0.0000 </r>
      </set>
     </set>
    </set>
   </array>
  </eigenvalues>
  <separator name="orbital magnetization" >
   <v name="MAGDIPOLOUT">      0.00000000      0.00000000      0.00000000</v>
  </separator>
  <dos>
   <i name="efermi">      1.85798952 </i>
   <total>
    <array>
     <dimension dim="1">gridpoints</dimension>
     <dimension dim="2">spin</dimension>
     <field>energy</field>
     <field>total</field>
     <field>integrated</field>
     <set>
      <set comment="spin 1">
       <r>   -14.1777     0.0000     0.0000 </r>
       <r>   -14.0708     0.0000     0.0000 </r>
       <r>   -13.9639     0.0000     0.0000 </r>
       <r>   -13.8569     0.0000     0.0000 </r>
       <r>   -13.7500     0.0000     0.0000 </r>
       <r>   -13.6431     0.0000     0.0000 </r>
       <r>   -13.5362     0.0000     0.0000 </r>
       <r>   -13.4293     0.0000     0.0000 </r>
       <r>   -13.3223     0.0000     0.0000 </r>
       <r>   -13.2154     0.0000     0.0000 </r>
       <r>   -13.1085     0.0000     0.0000 </r>
       <r>   -13.0016     0.0000     0.0000 </r>
       <r>   -12.8947     0.0000     0.0000 </r>
       <r>   -12.7877     0.0039     0.0004 </r>
       <r>   -12.6808     0.5103     0.0550 </r>
       <r>   -12.5739     2.3954     0.3111 </r>
       <r>   -12.4670     3.5747     0.6933 </r>
       <r>   -12.3601     4.3794     1.1615 </r>
       <r>   -12.2531     3.5392     1.5400 </r>
       <r>   -12.1462     2.7375     1.8326 </r>
       <r>   -12.0393     2.7558     2.1273 </r>
       <r>   -11.9324     2.4983     2.3944 </r>
       <r>   -11.8255     2.7721     2.6908 </r>
       <r>   -11.7185     3.4099     3.0554 </r>
       <r>   -11.6116     3.5373     3.4336 </r>
       <r>   -11.5047     3.1409     3.7694 </r>
       <r>   -11.3978     1.7013     3.9513 </r>
       <r>   -11.2909     0.4465     3.9991 </r>
       <r>   -11.1839     0.0088     4.0000 </r>
       <r>   -11.0770     0.0000     4.0000 </r>
       <r>   -10.9701     0.0000     4.0000 </r>
       <r>   -10.8632     0.0000     4.0000 </r>
       <r>   -10.7563     0.0000     4.0000 </r>
       <r>   -10.6493     0.0000     4.0000 </r>
       <r>   -10.5424     0.0000     4.0000 </r>
       <r>   -10.4355     0.0000     4.0000 </r>
       <r>   -10.3286     0.0000     4.0000 </r>
       <r>   -10.2217     0.0000     4.0000 </r>
       <r>   -10.1147     0.0000     4.0000 </r>
       <r>   -10.0078     0.0000     4.0000 </r>
       <r>    -9.9009     0.0000     4.0000 </r>
       <r>    -9.7940     0.0000     4.0000 </r>
       <r>    -9.6871     0.0000     4.0000 </r>
       <r>    -9.5801     0.0000     4.0000 </r>
       <r>    -9.4732     0.0000     4.0000 </r>
       <r>    -9.3663     0.0000     4.0000 </r>
       <r>    -9.2594     0.0000     4.0000 </r>
       <r>    -9.1525     0.0000     4.0000 </r>
       <r>    -9.0455     0.0000     4.0000 </r>
       <r>    -8.9386     0.0007     4.0001 </r>
       <r>    -8.8317     0.2825     4.0303 </r>
       <r>    -8.7248     2.1142     4.2563 </r>
       <r>    -8.6179     5.3833     4.8319 </r>
       <r>    -8.5109     7.0184     5.5823 </r>
       <r>    -8.4040     6.2812     6.2539 </r>
       <r>    -8.2971     5.3302     6.8238 </r>
       <r>    -8.1902     4.8488     7.3422 </r>
       <r>    -8.0833     3.8617     7.7551 </r>
       <r>    -7.9763     1.6615     7.9328 </r>
       <r>    -7.8694     0.5766     7.9944 </r>
       <r>    -7.7625     0.0522     8.0000 </r>
       <r>    -7.6556     0.0000     8.0000 </r>
       <r>    -7.5487     0.0000     8.0000 </r>
       <r>    -7.4417     0.0000     8.0000 </r>
       <r>    -7.3348     0.0000     8.0000 </r>
       <r>    -7.2279     0.0000     8.0000 </r>
       <r>    -7.1210     0.0000     8.0000 </r>
       <r>    -7.0141     0.0004     8.0000 </r>
       <r>    -6.9071     0.1095     8.0117 </r>
       <r>    -6.8002     0.2598     8.0395 </r>
       <r>    -6.6933     0.4241     8.0849 </r>
       <r>    -6.5864     0.7664     8.1668 </r>
       <r>    -6.4795     0.8444     8.2571 </r>
       <r>    -6.3725     1.4308     8.4101 </r>
       <r>    -6.2656     1.9317     8.6166 </r>
       <r>    -6.1587     3.0503     8.9428 </r>
       <r>    -6.0518     3.8025     9.3493 </r>
       <r>    -5.9449     4.1247     9.7903 </r>
       <r>    -5.8379     4.0545    10.2238 </r>
       <r>    -5.7310     3.8902    10.6398 </r>
       <r>    -5.6241     4.0769    11.0757 </r>
       <r>    -5.5172     4.2161    11.5265 </r>
       <r>    -5.4103     4.5712    12.0152 </r>
       <r>    -5.3034     4.6286    12.5101 </r>
       <r>    -5.1964     4.4997    12.9912 </r>
       <r>    -5.0895     3.8867    13.4068 </r>
       <r>    -4.9826     3.2212    13.7512 </r>
       <r>    -4.8757     2.9789    14.0697 </r>
       <r>    -4.7688     2.3024    14.3159 </r>
       <r>    -4.6618     2.8983    14.6258 </r>
       <r>    -4.5549     3.3731    14.9864 </r>
       <r>    -4.4480     3.4419    15.3544 </r>
       <r>    -4.3411     3.3687    15.7146 </r>
       <r>    -4.2342     2.9655    16.0317 </r>
       <r>    -4.1272     2.9125    16.3431 </r>
       <r>    -4.0203     2.9281    16.6561 </r>
       <r>    -3.9134     2.8886    16.9650 </r>
       <r>    -3.8065     3.1035    17.2968 </r>
       <r>    -3.6996     2.9023    17.6071 </r>
       <r>    -3.5926     2.7091    17.8968 </r>
       <r>    -3.4857     3.0803    18.2261 </r>
       <r>    -3.3788     2.6649    18.5110 </r>
       <r>    -3.2719     2.8242    18.8130 </r>
       <r>    -3.1650     2.8035    19.1127 </r>
       <r>    -3.0580     2.7048    19.4019 </r>
       <r>    -2.9511     3.0907    19.7324 </r>
       <r>    -2.8442     2.9883    20.0519 </r>
       <r>    -2.7373     2.4501    20.3139 </r>
       <r>    -2.6304     2.6321    20.5953 </r>
       <r>    -2.5234     3.0086    20.9170 </r>
       <r>    -2.4165     3.0094    21.2387 </r>
       <r>    -2.3096     3.1789    21.5786 </r>
       <r>    -2.2027     4.0002    22.0063 </r>
       <r>    -2.0958     3.6558    22.3972 </r>
       <r>    -1.9888     3.1941    22.7387 </r>
       <r>    -1.8819     4.9655    23.2696 </r>
       <r>    -1.7750     5.5242    23.8603 </r>
       <r>    -1.6681     5.6586    24.4653 </r>
       <r>    -1.5612     6.1663    25.1246 </r>
       <r>    -1.4542     6.1576    25.7830 </r>
       <r>    -1.3473     5.6233    26.3842 </r>
       <r>    -1.2404     4.6912    26.8858 </r>
       <r>    -1.1335     6.4812    27.5788 </r>
       <r>    -1.0266     4.2165    28.0296 </r>
       <r>    -0.9196     2.2923    28.2747 </r>
       <r>    -0.8127     2.7079    28.5642 </r>
       <r>    -0.7058     2.8856    28.8727 </r>
       <r>    -0.5989     4.4110    29.3444 </r>
       <r>    -0.4920     6.8033    30.0718 </r>
       <r>    -0.3850     5.6878    30.6799 </r>
       <r>    -0.2781     6.6198    31.3877 </r>
       <r>    -0.1712     6.3909    32.0710 </r>
       <r>    -0.0643     6.7323    32.7908 </r>
       <r>     0.0426     6.8504    33.5233 </r>
       <r>     0.1496     6.2265    34.1890 </r>
       <r>     0.2565     8.8433    35.1345 </r>
       <r>     0.3634     8.1245    36.0032 </r>
       <r>     0.4703     8.6743    36.9307 </r>
       <r>     0.5772     5.4294    37.5112 </r>
       <r>     0.6842     3.0326    37.8354 </r>
       <r>     0.7911     3.2153    38.1792 </r>
       <r>     0.8980     3.5928    38.5633 </r>
       <r>     1.0049     3.5872    38.9469 </r>
       <r>     1.1118     2.8131    39.2476 </r>
       <r>     1.2188     3.3570    39.6066 </r>
       <r>     1.3257     4.4663    40.0841 </r>
       <r>     1.4326     3.8328    40.4939 </r>
       <r>     1.5395     3.6937    40.8888 </r>
       <r>     1.6464     4.5925    41.3799 </r>
       <r>     1.7534     3.3808    41.7414 </r>
       <r>     1.8603     2.4741    42.0059 </r>
       <r>     1.9672     2.6832    42.2928 </r>
       <r>     2.0741     2.0995    42.5172 </r>
       <r>     2.1810     2.6458    42.8001 </r>
       <r>     2.2880     2.6197    43.0802 </r>
       <r>     2.3949     1.9883    43.2928 </r>
       <r>     2.5018     0.9180    43.3910 </r>
       <r>     2.6087     0.3806    43.4317 </r>
       <r>     2.7156     0.5761    43.4933 </r>
       <r>     2.8226     0.4213    43.5383 </r>
       <r>     2.9295     0.3060    43.5710 </r>
       <r>     3.0364     0.7276    43.6488 </r>
       <r>     3.1433     1.0270    43.7586 </r>
       <r>     3.2502     0.5773    43.8204 </r>
       <r>     3.3572     0.0177    43.8223 </r>
       <r>     3.4641     0.1173    43.8348 </r>
       <r>     3.5710     0.3914    43.8767 </r>
       <r>     3.6779     0.3424    43.9133 </r>
       <r>     3.7848     0.3623    43.9520 </r>
       <r>     3.8917     0.4158    43.9965 </r>
       <r>     3.9987     0.0331    44.0000 </r>
       <r>     4.1056     0.0000    44.0000 </r>
       <r>     4.2125     0.0169    44.0018 </r>
       <r>     4.3194     0.1620    44.0191 </r>
       <r>     4.4263     0.3790    44.0597 </r>
       <r>     4.5333     0.4456    44.1073 </r>
       <r>     4.6402     0.6182    44.1734 </r>
       <r>     4.7471     0.8661    44.2660 </r>
       <r>     4.8540     0.8387    44.3557 </r>
       <r>     4.9609     0.8687    44.4486 </r>
       <r>     5.0679     1.2456    44.5817 </r>
       <r>     5.1748     1.1861    44.7086 </r>
       <r>     5.2817     1.5842    44.8779 </r>
       <r>     5.3886     2.1302    45.1057 </r>
       <r>     5.4955     2.5062    45.3736 </r>
       <r>     5.6025     2.7978    45.6728 </r>
       <r>     5.7094     3.2848    46.0240 </r>
       <r>     5.8163     3.2759    46.3743 </r>
       <r>     5.9232     4.2213    46.8256 </r>
       <r>     6.0301     4.8173    47.3407 </r>
       <r>     6.1371     4.0984    47.7789 </r>
       <r>     6.2440     4.5979    48.2705 </r>
       <r>     6.3509     4.2968    48.7299 </r>
       <r>     6.4578     3.9543    49.1527 </r>
       <r>     6.5647     4.5290    49.6369 </r>
       <r>     6.6717     3.2652    49.9860 </r>
       <r>     6.7786     3.9549    50.4089 </r>
       <r>     6.8855     4.6031    50.9011 </r>
       <r>     6.9924     4.5958    51.3924 </r>
       <r>     7.0993     4.3400    51.8565 </r>
       <r>     7.2063     5.5718    52.4522 </r>
       <r>     7.3132     5.0082    52.9877 </r>
       <r>     7.4201     4.4879    53.4675 </r>
       <r>     7.5270     4.2377    53.9206 </r>
       <r>     7.6339     3.5989    54.3054 </r>
       <r>     7.7409     3.1035    54.6372 </r>
       <r>     7.8478     3.0336    54.9616 </r>
       <r>     7.9547     2.9690    55.2790 </r>
       <r>     8.0616     4.1547    55.7232 </r>
       <r>     8.1685     3.9325    56.1437 </r>
       <r>     8.2755     3.7521    56.5449 </r>
       <r>     8.3824     4.0168    56.9743 </r>
       <r>     8.4893     4.2562    57.4294 </r>
       <r>     8.5962     4.4997    57.9105 </r>
       <r>     8.7031     4.3008    58.3704 </r>
       <r>     8.8101     5.3576    58.9432 </r>
       <r>     8.9170     4.7907    59.4554 </r>
       <r>     9.0239     5.2783    60.0198 </r>
       <r>     9.1308     5.2277    60.5787 </r>
       <r>     9.2377     5.0192    61.1154 </r>
       <r>     9.3447     4.6625    61.6139 </r>
       <r>     9.4516     4.4108    62.0855 </r>
       <r>     9.5585     5.0881    62.6295 </r>
       <r>     9.6654     5.0410    63.1685 </r>
       <r>     9.7723     5.2813    63.7332 </r>
       <r>     9.8793     4.4984    64.2141 </r>
       <r>     9.9862     3.6957    64.6093 </r>
       <r>    10.0931     5.1921    65.1644 </r>
       <r>    10.2000     4.7246    65.6696 </r>
       <r>    10.3069     4.1675    66.1152 </r>
       <r>    10.4139     5.3269    66.6847 </r>
       <r>    10.5208     5.8351    67.3086 </r>
       <r>    10.6277     4.0867    67.7455 </r>
       <r>    10.7346     3.9178    68.1644 </r>
       <r>    10.8415     3.2841    68.5156 </r>
       <r>    10.9485     4.6960    69.0177 </r>
       <r>    11.0554     5.4006    69.5951 </r>
       <r>    11.1623     6.3023    70.2689 </r>
       <r>    11.2692     6.0084    70.9113 </r>
       <r>    11.3761     5.1812    71.4653 </r>
       <r>    11.4831     4.4315    71.9391 </r>
       <r>    11.5900     4.4772    72.4178 </r>
       <r>    11.6969     4.9885    72.9512 </r>
       <r>    11.8038     4.8299    73.4676 </r>
       <r>    11.9107     5.9874    74.1078 </r>
       <r>    12.0177     6.0226    74.7517 </r>
       <r>    12.1246     6.0659    75.4003 </r>
       <r>    12.2315     5.5419    75.9928 </r>
       <r>    12.3384     4.9998    76.5274 </r>
       <r>    12.4453     5.7244    77.1394 </r>
       <r>    12.5523     5.9674    77.7775 </r>
       <r>    12.6592     5.9342    78.4120 </r>
       <r>    12.7661     5.9581    79.0490 </r>
       <r>    12.8730     5.8938    79.6792 </r>
       <r>    12.9799     5.6268    80.2808 </r>
       <r>    13.0869     6.3478    80.9595 </r>
       <r>    13.1938     6.3236    81.6356 </r>
       <r>    13.3007     5.4668    82.2201 </r>
       <r>    13.4076     6.1199    82.8744 </r>
       <r>    13.5145     5.4409    83.4562 </r>
       <r>    13.6214     4.8455    83.9743 </r>
       <r>    13.7284     6.1902    84.6361 </r>
       <r>    13.8353     5.5170    85.2260 </r>
       <r>    13.9422     5.3736    85.8005 </r>
       <r>    14.0491     5.4781    86.3863 </r>
       <r>    14.1560     4.6761    86.8862 </r>
       <r>    14.2630     4.9696    87.4176 </r>
       <r>    14.3699     4.9562    87.9475 </r>
       <r>    14.4768     4.9398    88.4757 </r>
       <r>    14.5837     5.2739    89.0395 </r>
       <r>    14.6906     5.2044    89.5960 </r>
       <r>    14.7976     4.1024    90.0346 </r>
       <r>    14.9045     5.0080    90.5701 </r>
       <r>    15.0114     6.1377    91.2263 </r>
       <r>    15.1183     5.7102    91.8368 </r>
       <r>    15.2252     5.7283    92.4493 </r>
       <r>    15.3322     5.9948    93.0903 </r>
       <r>    15.4391     5.7752    93.7078 </r>
       <r>    15.5460     6.0184    94.3512 </r>
       <r>    15.6529     4.6296    94.8462 </r>
       <r>    15.7598     2.5197    95.1157 </r>
       <r>    15.8668     2.7084    95.4052 </r>
       <r>    15.9737     1.8414    95.6021 </r>
       <r>    16.0806     1.1311    95.7231 </r>
       <r>    16.1875     0.8991    95.8192 </r>
       <r>    16.2944     0.6948    95.8935 </r>
       <r>    16.4014     0.8152    95.9806 </r>
       <r>    16.5083     0.1794    95.9998 </r>
       <r>    16.6152     0.0017    96.0000 </r>
       <r>    16.7221     0.0000    96.0000 </r>
       <r>    16.8290     0.0000    96.0000 </r>
       <r>    16.9360     0.0000    96.0000 </r>
       <r>    17.0429     0.0000    96.0000 </r>
       <r>    17.1498     0.0000    96.0000 </r>
       <r>    17.2567     0.0000    96.0000 </r>
       <r>    17.3636     0.0000    96.0000 </r>
       <r>    17.4706     0.0000    96.0000 </r>
       <r>    17.5775     0.0000    96.0000 </r>
       <r>    17.6844     0.0000    96.0000 </r>
       <r>    17.7913     0.0000    96.0000 </r>
       <r>    17.8982     0.0000    96.0000 </r>
      </set>
     </set>
    </array>
   </total>
  </dos>
 </calculation>
 <structure name="finalpos" >
  <crystal>
   <varray name="basis" >
    <v>       5.70554550       0.00000000       0.00000000 </v>
    <v>       0.00000000       4.05397185       0.00000000 </v>
    <v>       0.00000000       0.00000000       6.21350630 </v>
   </varray>
   <i name="volume">    143.71915160 </i>
   <varray name="rec_basis" >
    <v>       0.17526808       0.00000000       0.00000000 </v>
    <v>       0.00000000       0.24667167       0.00000000 </v>
    <v>       0.00000000       0.00000000       0.16093973 </v>
   </varray>
  </crystal>
  <varray name="positions" >
   <v>       0.52123000       0.50000000       0.63796000 </v>
   <v>       0.47877000       0.50000000       0.36204000 </v>
   <v>       0.97877000       0.50000000       0.63796000 </v>
   <v>       0.02123000       0.50000000       0.36204000 </v>
   <v>       0.60090000       0.50000000       0.89991000 </v>
   <v>       0.39910000       0.50000000       0.10009000 </v>
   <v>       0.89910000       0.50000000       0.89991000 </v>
   <v>       0.10090000       0.50000000       0.10009000 </v>
   <v>       0.75000000       0.79171000       0.72973000 </v>
   <v>       0.25000000       0.20829000       0.27027000 </v>
   <v>       0.75000000       0.20829000       0.72973000 </v>
   <v>       0.25000000       0.79171000       0.27027000 </v>
   <v>       0.25000000       0.50000000       0.52367000 </v>
   <v>       0.75000000       0.50000000       0.47633000 </v>
  </varray>
 </structure>
</modeling>
