   14   14    1    1
  0.1021960E+02  0.5697000E-09  0.4047900E-09  0.6204200E-09  0.5000000E-15
  1.000000000000000E-004
  CAR 
 Kpoints                                 
     42     12     48
 
  0.1250000E+00  0.8333333E-01  0.1250000E+00  0.8333333E-01
      1        -12.673482   1.000000
      2        -11.657111   1.000000
      3         -8.631878   1.000000
      4         -8.334592   1.000000
      5         -6.159129   1.000000
      6         -5.319636   1.000000
      7         -4.616074   1.000000
      8         -4.335291   1.000000
      9         -3.769244   1.000000
     10         -3.236044   1.000000
     11         -3.086558   1.000000
     12         -2.064432   1.000000
     13         -1.490693   1.000000
     14         -1.305454   1.000000
     15         -0.278746   1.000000
     16         -0.059036   1.000000
     17          0.011668   1.000000
     18          0.214912   1.000000
     19          0.397007   1.000000
     20          1.580245   1.000000
     21          1.964383   0.000015
     22          2.498672   0.000000
     23          5.523078   0.000000
     24          5.796429   0.000000
     25          5.884264   0.000000
     26          6.164403   0.000000
     27          7.015391   0.000000
     28          7.380072   0.000000
     29          8.130292   0.000000
     30          8.505870   0.000000
     31          8.897485   0.000000
     32          9.315957   0.000000
     33          9.528541   0.000000
     34         10.494242   0.000000
     35         10.762230   0.000000
     36         11.038747   0.000000
     37         11.293370   0.000000
     38         11.835367   0.000000
     39         12.103284   0.000000
     40         12.678435   0.000000
     41         13.131974   0.000000
     42         13.396596   0.000000
     43         13.679558   0.000000
     44         14.811242   0.000000
     45         15.309884   0.000000
     46         15.724845   0.000000
     47         15.898515   0.000000
     48         16.394504   0.000000
 
  0.3750000E+00  0.8333333E-01  0.1250000E+00  0.8333333E-01
      1        -12.419914   1.000000
      2        -12.004984   1.000000
      3         -8.564586   1.000000
      4         -8.365118   1.000000
      5         -6.129438   1.000000
      6         -5.745252   1.000000
      7         -4.310463   1.000000
      8         -4.024080   1.000000
      9         -3.558291   1.000000
     10         -2.933010   1.000000
     11         -2.468248   1.000000
     12         -2.021606   1.000000
     13         -1.846299   1.000000
     14         -1.803461   1.000000
     15         -0.605533   1.000000
     16         -0.277869   1.000000
     17         -0.026904   1.000000
     18          0.225868   1.000000
     19          0.522984   1.000000
     20          1.404319   1.000000
     21          1.520353   1.000000
     22          1.802622   0.657593
     23          5.747350   0.000000
     24          6.135569   0.000000
     25          6.578305   0.000000
     26          6.797762   0.000000
     27          6.801197   0.000000
     28          7.331561   0.000000
     29          8.498661   0.000000
     30          8.597848   0.000000
     31          8.842013   0.000000
     32          9.056780   0.000000
     33          9.809404   0.000000
     34         10.361732   0.000000
     35         10.717008   0.000000
     36         11.242867   0.000000
     37         11.506670   0.000000
     38         11.825978   0.000000
     39         12.351560   0.000000
     40         12.514812   0.000000
     41         13.145467   0.000000
     42         13.481001   0.000000
     43         14.252465   0.000000
     44         14.711907   0.000000
     45         15.071505   0.000000
     46         15.359565   0.000000
     47         15.471422   0.000000
     48         16.088863   0.000000
 
  0.1250000E+00  0.2500000E+00  0.1250000E+00  0.8333333E-01
      1        -12.560215   1.000000
      2        -11.553500   1.000000
      3         -8.540764   1.000000
      4         -8.230488   1.000000
      5         -6.026718   1.000000
      6         -5.603624   1.000000
      7         -5.154968   1.000000
      8         -4.586015   1.000000
      9         -4.496012   1.000000
     10         -3.666854   1.000000
     11         -2.976248   1.000000
     12         -1.299520   1.000000
     13         -1.220521   1.000000
     14         -0.950941   1.000000
     15         -0.278051   1.000000
     16          0.005562   1.000000
     17          0.270008   1.000000
     18          0.500273   1.000000
     19          0.556877   1.000000
     20          0.753212   1.000000
     21          1.028880   1.000000
     22          2.591633   0.000000
     23          5.079065   0.000000
     24          5.483989   0.000000
     25          6.170136   0.000000
     26          6.737636   0.000000
     27          7.492449   0.000000
     28          8.145623   0.000000
     29          8.663708   0.000000
     30          9.070792   0.000000
     31          9.519178   0.000000
     32          9.616509   0.000000
     33          9.925000   0.000000
     34         10.332712   0.000000
     35         10.537637   0.000000
     36         11.767598   0.000000
     37         11.815528   0.000000
     38         12.054217   0.000000
     39         12.618086   0.000000
     40         12.697886   0.000000
     41         12.869110   0.000000
     42         13.553763   0.000000
     43         13.708911   0.000000
     44         13.816543   0.000000
     45         14.476759   0.000000
     46         14.942625   0.000000
     47         15.445523   0.000000
     48         15.806156   0.000000
 
  0.3750000E+00  0.2500000E+00  0.1250000E+00  0.8333333E-01
      1        -12.309283   1.000000
      2        -11.898442   1.000000
      3         -8.467127   1.000000
      4         -8.268512   1.000000
      5         -5.976499   1.000000
      6         -5.603801   1.000000
      7         -5.304790   1.000000
      8         -4.897507   1.000000
      9         -4.235712   1.000000
     10         -2.855663   1.000000
     11         -2.343770   1.000000
     12         -1.847745   1.000000
     13         -1.201381   1.000000
     14         -0.939719   1.000000
     15         -0.636308   1.000000
     16         -0.189388   1.000000
     17          0.116362   1.000000
     18          0.268137   1.000000
     19          0.566098   1.000000
     20          0.745314   1.000000
     21          0.935730   1.000000
     22          1.578033   1.000000
     23          6.097790   0.000000
     24          6.391887   0.000000
     25          6.546200   0.000000
     26          6.971142   0.000000
     27          7.584097   0.000000
     28          8.036883   0.000000
     29          8.395383   0.000000
     30          8.575526   0.000000
     31          9.261490   0.000000
     32          9.533958   0.000000
     33          9.719751   0.000000
     34         10.595080   0.000000
     35         10.773511   0.000000
     36         11.273266   0.000000
     37         11.549266   0.000000
     38         11.900039   0.000000
     39         12.973074   0.000000
     40         13.113331   0.000000
     41         13.463180   0.000000
     42         13.533835   0.000000
     43         13.793775   0.000000
     44         14.097713   0.000000
     45         14.669750   0.000000
     46         14.980310   0.000000
     47         15.266628   0.000000
     48         16.189100   0.000000
 
  0.1250000E+00  0.4166667E+00  0.1250000E+00  0.8333333E-01
      1        -12.436122   1.000000
      2        -11.440622   1.000000
      3         -8.444270   1.000000
      4         -8.116671   1.000000
      5         -6.372660   1.000000
      6         -5.870409   1.000000
      7         -5.352766   1.000000
      8         -4.977716   1.000000
      9         -4.365839   1.000000
     10         -3.548230   1.000000
     11         -2.825251   1.000000
     12         -1.843078   1.000000
     13         -1.572231   1.000000
     14         -1.238706   1.000000
     15         -0.197734   1.000000
     16          0.054591   1.000000
     17          0.243696   1.000000
     18          0.320867   1.000000
     19          0.592676   1.000000
     20          1.133872   1.000000
     21          2.029115   0.000000
     22          2.654801   0.000000
     23          4.490218   0.000000
     24          5.001754   0.000000
     25          6.403738   0.000000
     26          7.146973   0.000000
     27          7.542844   0.000000
     28          8.683956   0.000000
     29          8.963463   0.000000
     30          9.261482   0.000000
     31          9.908489   0.000000
     32         10.195036   0.000000
     33         10.398079   0.000000
     34         11.010567   0.000000
     35         11.252357   0.000000
     36         11.585606   0.000000
     37         11.879267   0.000000
     38         12.097206   0.000000
     39         12.400123   0.000000
     40         12.877589   0.000000
     41         12.964582   0.000000
     42         13.357916   0.000000
     43         13.596486   0.000000
     44         14.448160   0.000000
     45         14.554122   0.000000
     46         15.127800   0.000000
     47         15.345775   0.000000
     48         15.436375   0.000000
 
  0.3750000E+00  0.4166667E+00  0.1250000E+00  0.8333333E-01
      1        -12.188304   1.000000
      2        -11.782224   1.000000
      3         -8.362773   1.000000
      4         -8.164237   1.000000
      5         -6.102023   1.000000
      6         -5.792135   1.000000
      7         -5.669528   1.000000
      8         -5.402880   1.000000
      9         -4.151005   1.000000
     10         -2.758605   1.000000
     11         -2.209608   1.000000
     12         -1.818217   1.000000
     13         -1.707036   1.000000
     14         -1.455852   1.000000
     15         -0.553663   1.000000
     16         -0.375159   1.000000
     17         -0.029742   1.000000
     18          0.036753   1.000000
     19          0.641039   1.000000
     20          1.480972   1.000000
     21          1.634998   1.000000
     22          1.830283   0.353284
     23          5.540569   0.000000
     24          6.054709   0.000000
     25          6.740974   0.000000
     26          7.208063   0.000000
     27          7.492216   0.000000
     28          7.803722   0.000000
     29          9.044297   0.000000
     30          9.216358   0.000000
     31          9.800633   0.000000
     32          9.921955   0.000000
     33         10.477277   0.000000
     34         10.999549   0.000000
     35         11.702515   0.000000
     36         11.841143   0.000000
     37         11.946985   0.000000
     38         12.088997   0.000000
     39         12.218342   0.000000
     40         12.603356   0.000000
     41         13.049379   0.000000
     42         13.463817   0.000000
     43         13.663476   0.000000
     44         14.041655   0.000000
     45         14.395024   0.000000
     46         14.632374   0.000000
     47         15.213574   0.000000
     48         15.721138   0.000000
 
  0.1250000E+00  0.8333333E-01  0.3750000E+00  0.8333333E-01
      1        -12.602062   1.000000
      2        -11.768175   1.000000
      3         -8.656448   1.000000
      4         -8.156666   1.000000
      5         -6.636274   1.000000
      6         -5.619933   1.000000
      7         -4.197042   1.000000
      8         -3.831282   1.000000
      9         -3.427564   1.000000
     10         -3.105935   1.000000
     11         -2.493093   1.000000
     12         -2.001939   1.000000
     13         -1.739025   1.000000
     14         -1.493040   1.000000
     15         -1.321665   1.000000
     16         -0.624930   1.000000
     17         -0.134718   1.000000
     18          0.291759   1.000000
     19          0.532692   1.000000
     20          1.259893   1.000000
     21          1.743229   0.981501
     22          3.236039   0.000000
     23          5.357904   0.000000
     24          5.697099   0.000000
     25          5.938989   0.000000
     26          7.011858   0.000000
     27          7.196254   0.000000
     28          7.364925   0.000000
     29          8.135908   0.000000
     30          8.849324   0.000000
     31          8.932728   0.000000
     32          9.477305   0.000000
     33          9.612375   0.000000
     34         10.486925   0.000000
     35         10.653809   0.000000
     36         11.008375   0.000000
     37         11.388117   0.000000
     38         11.874820   0.000000
     39         12.232837   0.000000
     40         12.574286   0.000000
     41         13.146278   0.000000
     42         13.645137   0.000000
     43         13.994656   0.000000
     44         14.323942   0.000000
     45         14.790118   0.000000
     46         14.959783   0.000000
     47         15.428378   0.000000
     48         16.025535   0.000000
 
  0.3750000E+00  0.8333333E-01  0.3750000E+00  0.8333333E-01
      1        -12.372574   1.000000
      2        -12.022645   1.000000
      3         -8.777606   1.000000
      4         -8.506920   1.000000
      5         -5.713890   1.000000
      6         -5.037428   1.000000
      7         -4.609076   1.000000
      8         -3.936479   1.000000
      9         -3.606806   1.000000
     10         -3.507926   1.000000
     11         -2.454703   1.000000
     12         -1.974791   1.000000
     13         -1.792033   1.000000
     14         -1.655294   1.000000
     15         -0.573512   1.000000
     16         -0.505677   1.000000
     17         -0.321722   1.000000
     18         -0.142798   1.000000
     19          0.316519   1.000000
     20          1.285807   1.000000
     21          1.953597   0.000056
     22          2.257847   0.000000
     23          5.885237   0.000000
     24          6.290887   0.000000
     25          6.699811   0.000000
     26          6.779837   0.000000
     27          7.018943   0.000000
     28          7.181654   0.000000
     29          7.972709   0.000000
     30          8.203246   0.000000
     31          8.466255   0.000000
     32          9.106026   0.000000
     33         10.229854   0.000000
     34         10.614799   0.000000
     35         11.176803   0.000000
     36         11.309552   0.000000
     37         11.937471   0.000000
     38         12.452197   0.000000
     39         12.508970   0.000000
     40         13.025437   0.000000
     41         13.433579   0.000000
     42         13.658865   0.000000
     43         14.021385   0.000000
     44         14.248978   0.000000
     45         14.533418   0.000000
     46         15.043868   0.000000
     47         15.601370   0.000000
     48         15.824895   0.000000
 
  0.1250000E+00  0.2500000E+00  0.3750000E+00  0.8333333E-01
      1        -12.491550   1.000000
      2        -11.659845   1.000000
      3         -8.565581   1.000000
      4         -8.060506   1.000000
      5         -6.505509   1.000000
      6         -5.464953   1.000000
      7         -5.452880   1.000000
      8         -4.785539   1.000000
      9         -3.710675   1.000000
     10         -3.008855   1.000000
     11         -2.348807   1.000000
     12         -1.494705   1.000000
     13         -1.297463   1.000000
     14         -1.141594   1.000000
     15         -0.812991   1.000000
     16         -0.622868   1.000000
     17         -0.029874   1.000000
     18          0.201141   1.000000
     19          0.458711   1.000000
     20          0.685705   1.000000
     21          0.927962   1.000000
     22          3.327212   0.000000
     23          5.291309   0.000000
     24          5.864926   0.000000
     25          6.508849   0.000000
     26          6.671626   0.000000
     27          8.015962   0.000000
     28          8.447402   0.000000
     29          8.761175   0.000000
     30          8.985774   0.000000
     31          8.991360   0.000000
     32          9.560064   0.000000
     33          9.882385   0.000000
     34         10.084046   0.000000
     35         10.564855   0.000000
     36         10.989065   0.000000
     37         11.262612   0.000000
     38         12.247333   0.000000
     39         12.702497   0.000000
     40         13.056996   0.000000
     41         13.282732   0.000000
     42         13.564250   0.000000
     43         13.953154   0.000000
     44         14.106999   0.000000
     45         14.490920   0.000000
     46         15.084310   0.000000
     47         15.278785   0.000000
     48         15.427731   0.000000
 
  0.3750000E+00  0.2500000E+00  0.3750000E+00  0.8333333E-01
      1        -12.263808   1.000000
      2        -11.915322   1.000000
      3         -8.671701   1.000000
      4         -8.402211   1.000000
      5         -5.581945   1.000000
      6         -5.243758   1.000000
      7         -4.953103   1.000000
      8         -4.859484   1.000000
      9         -4.511002   1.000000
     10         -3.427572   1.000000
     11         -2.361485   1.000000
     12         -1.652396   1.000000
     13         -1.428325   1.000000
     14         -1.235311   1.000000
     15         -0.496629   1.000000
     16         -0.382544   1.000000
     17          0.066174   1.000000
     18          0.176654   1.000000
     19          0.490532   1.000000
     20          1.091757   1.000000
     21          1.263990   1.000000
     22          1.407104   1.000000
     23          6.118591   0.000000
     24          6.395963   0.000000
     25          6.914365   0.000000
     26          7.152259   0.000000
     27          7.549326   0.000000
     28          7.897623   0.000000
     29          8.010555   0.000000
     30          8.511202   0.000000
     31          9.093746   0.000000
     32          9.435181   0.000000
     33          9.882711   0.000000
     34         10.772576   0.000000
     35         11.118747   0.000000
     36         11.209799   0.000000
     37         11.824364   0.000000
     38         12.590117   0.000000
     39         12.784845   0.000000
     40         13.255501   0.000000
     41         13.406189   0.000000
     42         13.853518   0.000000
     43         13.967067   0.000000
     44         14.235235   0.000000
     45         14.394369   0.000000
     46         14.564678   0.000000
     47         15.107054   0.000000
     48         15.374962   0.000000
 
  0.1250000E+00  0.4166667E+00  0.3750000E+00  0.8333333E-01
      1        -12.370788   1.000000
      2        -11.541331   1.000000
      3         -8.469037   1.000000
      4         -7.956855   1.000000
      5         -6.355274   1.000000
      6         -6.226936   1.000000
      7         -5.564855   1.000000
      8         -5.264206   1.000000
      9         -3.553359   1.000000
     10         -2.904960   1.000000
     11         -2.188332   1.000000
     12         -1.712653   1.000000
     13         -1.423894   1.000000
     14         -1.330388   1.000000
     15         -1.230212   1.000000
     16         -0.590258   1.000000
     17         -0.438165   1.000000
     18         -0.055793   1.000000
     19          0.474174   1.000000
     20          1.428283   1.000000
     21          1.902871   0.007558
     22          3.396944   0.000000
     23          4.760816   0.000000
     24          5.987948   0.000000
     25          6.174355   0.000000
     26          7.455701   0.000000
     27          7.607435   0.000000
     28          7.997215   0.000000
     29          9.007624   0.000000
     30          9.273987   0.000000
     31          9.696907   0.000000
     32         10.118810   0.000000
     33         10.883695   0.000000
     34         11.064808   0.000000
     35         11.334044   0.000000
     36         11.470719   0.000000
     37         11.587895   0.000000
     38         11.902139   0.000000
     39         12.100044   0.000000
     40         12.622861   0.000000
     41         12.717362   0.000000
     42         13.402574   0.000000
     43         13.716150   0.000000
     44         13.789085   0.000000
     45         14.552983   0.000000
     46         14.968793   0.000000
     47         15.339035   0.000000
     48         15.673430   0.000000
 
  0.3750000E+00  0.4166667E+00  0.3750000E+00  0.8333333E-01
      1        -12.145076   1.000000
      2        -11.798154   1.000000
      3         -8.557164   1.000000
      4         -8.288923   1.000000
      5         -6.010155   1.000000
      6         -5.728557   1.000000
      7         -5.407865   1.000000
      8         -4.687542   1.000000
      9         -4.400090   1.000000
     10         -3.310492   1.000000
     11         -2.264359   1.000000
     12         -2.088321   1.000000
     13         -1.909210   1.000000
     14         -1.498397   1.000000
     15         -0.424906   1.000000
     16         -0.222754   1.000000
     17          0.110220   1.000000
     18          0.483981   1.000000
     19          0.529816   1.000000
     20          1.364099   1.000000
     21          1.472323   1.000000
     22          1.664027   0.999992
     23          5.667463   0.000000
     24          6.044265   0.000000
     25          6.864638   0.000000
     26          7.168584   0.000000
     27          7.885503   0.000000
     28          8.009869   0.000000
     29          8.913812   0.000000
     30          9.134640   0.000000
     31          9.677556   0.000000
     32          9.934375   0.000000
     33         10.401212   0.000000
     34         10.897595   0.000000
     35         11.265339   0.000000
     36         11.580907   0.000000
     37         11.668052   0.000000
     38         12.014565   0.000000
     39         12.833886   0.000000
     40         13.019009   0.000000
     41         13.202230   0.000000
     42         13.499426   0.000000
     43         13.849991   0.000000
     44         14.260153   0.000000
     45         14.531772   0.000000
     46         14.959250   0.000000
     47         15.075933   0.000000
     48         15.277105   0.000000
