   1   1   0   0
  0.3354790E+04  0.1497000E-08  0.1247500E-08  0.1796400E-08  0.5000000E-15
  1.000000000000000E-004
  CAR 
 Convergence                             
      2.50209700     -9.97693515  301     -3.60699985      1.00000000
     -9.977  0.0000E+00  0.0000E+00
     -9.935  0.0000E+00  0.0000E+00
     -9.894  0.0000E+00  0.0000E+00
     -9.852  0.0000E+00  0.0000E+00
     -9.811  0.0000E+00  0.0000E+00
     -9.769  0.0000E+00  0.0000E+00
     -9.727  0.0000E+00  0.0000E+00
     -9.686  0.1388E-12  0.5773E-14
     -9.644  0.7993E-09  0.3325E-10
     -9.603  0.1177E-05  0.4901E-07
     -9.561  0.4515E-03  0.1883E-04
     -9.519  0.4579E-01  0.1924E-02
     -9.478  0.1257E+01  0.5420E-01
     -9.436  0.9612E+01  0.4540E+00
     -9.395  0.2109E+02  0.1331E+01
     -9.353  0.1347E+02  0.1891E+01
     -9.311  0.2481E+01  0.1995E+01
     -9.270  0.1285E+00  0.2000E+01
     -9.228  0.1815E-02  0.2000E+01
     -9.187  0.6814E-05  0.2000E+01
     -9.145  0.6685E-08  0.2000E+01
     -9.103  0.1697E-11  0.2000E+01
     -9.062  0.0000E+00  0.2000E+01
     -9.020  0.0000E+00  0.2000E+01
     -8.979  0.0000E+00  0.2000E+01
     -8.937  0.0000E+00  0.2000E+01
     -8.895  0.0000E+00  0.2000E+01
     -8.854  0.0000E+00  0.2000E+01
     -8.812  0.0000E+00  0.2000E+01
     -8.771  0.0000E+00  0.2000E+01
     -8.729  0.0000E+00  0.2000E+01
     -8.687  0.0000E+00  0.2000E+01
     -8.646  0.0000E+00  0.2000E+01
     -8.604  0.0000E+00  0.2000E+01
     -8.563  0.0000E+00  0.2000E+01
     -8.521  0.0000E+00  0.2000E+01
     -8.479  0.0000E+00  0.2000E+01
     -8.438  0.0000E+00  0.2000E+01
     -8.396  0.0000E+00  0.2000E+01
     -8.355  0.0000E+00  0.2000E+01
     -8.313  0.0000E+00  0.2000E+01
     -8.271  0.0000E+00  0.2000E+01
     -8.230  0.0000E+00  0.2000E+01
     -8.188  0.0000E+00  0.2000E+01
     -8.147  0.0000E+00  0.2000E+01
     -8.105  0.0000E+00  0.2000E+01
     -8.063  0.0000E+00  0.2000E+01
     -8.022  0.0000E+00  0.2000E+01
     -7.980  0.0000E+00  0.2000E+01
     -7.939  0.0000E+00  0.2000E+01
     -7.897  0.0000E+00  0.2000E+01
     -7.855  0.0000E+00  0.2000E+01
     -7.814  0.0000E+00  0.2000E+01
     -7.772  0.0000E+00  0.2000E+01
     -7.731  0.0000E+00  0.2000E+01
     -7.689  0.0000E+00  0.2000E+01
     -7.648  0.0000E+00  0.2000E+01
     -7.606  0.0000E+00  0.2000E+01
     -7.564  0.0000E+00  0.2000E+01
     -7.523  0.0000E+00  0.2000E+01
     -7.481  0.0000E+00  0.2000E+01
     -7.440  0.0000E+00  0.2000E+01
     -7.398  0.0000E+00  0.2000E+01
     -7.356  0.0000E+00  0.2000E+01
     -7.315  0.0000E+00  0.2000E+01
     -7.273  0.0000E+00  0.2000E+01
     -7.232  0.0000E+00  0.2000E+01
     -7.190  0.0000E+00  0.2000E+01
     -7.148  0.0000E+00  0.2000E+01
     -7.107  0.0000E+00  0.2000E+01
     -7.065  0.0000E+00  0.2000E+01
     -7.024  0.0000E+00  0.2000E+01
     -6.982  0.0000E+00  0.2000E+01
     -6.940  0.0000E+00  0.2000E+01
     -6.899  0.0000E+00  0.2000E+01
     -6.857  0.0000E+00  0.2000E+01
     -6.816  0.0000E+00  0.2000E+01
     -6.774  0.0000E+00  0.2000E+01
     -6.732  0.0000E+00  0.2000E+01
     -6.691  0.0000E+00  0.2000E+01
     -6.649  0.0000E+00  0.2000E+01
     -6.608  0.0000E+00  0.2000E+01
     -6.566  0.0000E+00  0.2000E+01
     -6.524  0.0000E+00  0.2000E+01
     -6.483  0.0000E+00  0.2000E+01
     -6.441  0.0000E+00  0.2000E+01
     -6.400  0.0000E+00  0.2000E+01
     -6.358  0.0000E+00  0.2000E+01
     -6.316  0.0000E+00  0.2000E+01
     -6.275  0.0000E+00  0.2000E+01
     -6.233  0.0000E+00  0.2000E+01
     -6.192  0.0000E+00  0.2000E+01
     -6.150  0.0000E+00  0.2000E+01
     -6.108  0.0000E+00  0.2000E+01
     -6.067  0.0000E+00  0.2000E+01
     -6.025  0.0000E+00  0.2000E+01
     -5.984  0.0000E+00  0.2000E+01
     -5.942  0.0000E+00  0.2000E+01
     -5.900  0.0000E+00  0.2000E+01
     -5.859  0.0000E+00  0.2000E+01
     -5.817  0.0000E+00  0.2000E+01
     -5.776  0.0000E+00  0.2000E+01
     -5.734  0.0000E+00  0.2000E+01
     -5.692  0.0000E+00  0.2000E+01
     -5.651  0.0000E+00  0.2000E+01
     -5.609  0.0000E+00  0.2000E+01
     -5.568  0.0000E+00  0.2000E+01
     -5.526  0.0000E+00  0.2000E+01
     -5.484  0.0000E+00  0.2000E+01
     -5.443  0.0000E+00  0.2000E+01
     -5.401  0.0000E+00  0.2000E+01
     -5.360  0.0000E+00  0.2000E+01
     -5.318  0.0000E+00  0.2000E+01
     -5.276  0.0000E+00  0.2000E+01
     -5.235  0.0000E+00  0.2000E+01
     -5.193  0.0000E+00  0.2000E+01
     -5.152  0.0000E+00  0.2000E+01
     -5.110  0.0000E+00  0.2000E+01
     -5.069  0.0000E+00  0.2000E+01
     -5.027  0.0000E+00  0.2000E+01
     -4.985  0.0000E+00  0.2000E+01
     -4.944  0.0000E+00  0.2000E+01
     -4.902  0.0000E+00  0.2000E+01
     -4.861  0.0000E+00  0.2000E+01
     -4.819  0.0000E+00  0.2000E+01
     -4.777  0.0000E+00  0.2000E+01
     -4.736  0.0000E+00  0.2000E+01
     -4.694  0.0000E+00  0.2000E+01
     -4.653  0.0000E+00  0.2000E+01
     -4.611  0.0000E+00  0.2000E+01
     -4.569  0.0000E+00  0.2000E+01
     -4.528  0.0000E+00  0.2000E+01
     -4.486  0.0000E+00  0.2000E+01
     -4.445  0.0000E+00  0.2000E+01
     -4.403  0.0000E+00  0.2000E+01
     -4.361  0.0000E+00  0.2000E+01
     -4.320  0.0000E+00  0.2000E+01
     -4.278  0.0000E+00  0.2000E+01
     -4.237  0.0000E+00  0.2000E+01
     -4.195  0.0000E+00  0.2000E+01
     -4.153  0.0000E+00  0.2000E+01
     -4.112  0.0000E+00  0.2000E+01
     -4.070  0.0000E+00  0.2000E+01
     -4.029  0.0000E+00  0.2000E+01
     -3.987  0.0000E+00  0.2000E+01
     -3.945  0.0000E+00  0.2000E+01
     -3.904  0.0000E+00  0.2000E+01
     -3.862  0.1640E-13  0.2000E+01
     -3.821  0.1727E-09  0.2000E+01
     -3.779  0.3930E-06  0.2000E+01
     -3.737  0.2319E-03  0.2000E+01
     -3.696  0.3597E-01  0.2002E+01
     -3.654  0.1498E+01  0.2064E+01
     -3.613  0.1721E+02  0.2780E+01
     -3.571  0.5625E+02  0.5119E+01
     -3.529  0.5338E+02  0.7340E+01
     -3.488  0.1470E+02  0.7951E+01
     -3.446  0.1148E+01  0.7999E+01
     -3.405  0.2469E-01  0.8000E+01
     -3.363  0.1422E-03  0.8000E+01
     -3.321  0.2150E-06  0.8000E+01
     -3.280  0.8424E-10  0.8000E+01
     -3.238  0.0000E+00  0.8000E+01
     -3.197  0.0000E+00  0.8000E+01
     -3.155  0.0000E+00  0.8000E+01
     -3.113  0.0000E+00  0.8000E+01
     -3.072  0.0000E+00  0.8000E+01
     -3.030  0.0000E+00  0.8000E+01
     -2.989  0.0000E+00  0.8000E+01
     -2.947  0.0000E+00  0.8000E+01
     -2.905  0.0000E+00  0.8000E+01
     -2.864  0.0000E+00  0.8000E+01
     -2.822  0.0000E+00  0.8000E+01
     -2.781  0.0000E+00  0.8000E+01
     -2.739  0.0000E+00  0.8000E+01
     -2.697  0.0000E+00  0.8000E+01
     -2.656  0.0000E+00  0.8000E+01
     -2.614  0.0000E+00  0.8000E+01
     -2.573  0.0000E+00  0.8000E+01
     -2.531  0.0000E+00  0.8000E+01
     -2.490  0.0000E+00  0.8000E+01
     -2.448  0.0000E+00  0.8000E+01
     -2.406  0.0000E+00  0.8000E+01
     -2.365  0.0000E+00  0.8000E+01
     -2.323  0.0000E+00  0.8000E+01
     -2.282  0.0000E+00  0.8000E+01
     -2.240  0.0000E+00  0.8000E+01
     -2.198  0.0000E+00  0.8000E+01
     -2.157  0.0000E+00  0.8000E+01
     -2.115  0.0000E+00  0.8000E+01
     -2.074  0.0000E+00  0.8000E+01
     -2.032  0.0000E+00  0.8000E+01
     -1.990  0.0000E+00  0.8000E+01
     -1.949  0.0000E+00  0.8000E+01
     -1.907  0.0000E+00  0.8000E+01
     -1.866  0.0000E+00  0.8000E+01
     -1.824  0.0000E+00  0.8000E+01
     -1.782  0.0000E+00  0.8000E+01
     -1.741  0.0000E+00  0.8000E+01
     -1.699  0.0000E+00  0.8000E+01
     -1.658  0.0000E+00  0.8000E+01
     -1.616  0.0000E+00  0.8000E+01
     -1.574  0.0000E+00  0.8000E+01
     -1.533  0.0000E+00  0.8000E+01
     -1.491  0.0000E+00  0.8000E+01
     -1.450  0.0000E+00  0.8000E+01
     -1.408  0.0000E+00  0.8000E+01
     -1.366  0.0000E+00  0.8000E+01
     -1.325  0.0000E+00  0.8000E+01
     -1.283  0.0000E+00  0.8000E+01
     -1.242  0.0000E+00  0.8000E+01
     -1.200  0.0000E+00  0.8000E+01
     -1.158  0.0000E+00  0.8000E+01
     -1.117  0.0000E+00  0.8000E+01
     -1.075  0.0000E+00  0.8000E+01
     -1.034  0.0000E+00  0.8000E+01
     -0.992  0.0000E+00  0.8000E+01
     -0.950  0.0000E+00  0.8000E+01
     -0.909  0.0000E+00  0.8000E+01
     -0.867  0.0000E+00  0.8000E+01
     -0.826  0.0000E+00  0.8000E+01
     -0.784  0.0000E+00  0.8000E+01
     -0.742  0.0000E+00  0.8000E+01
     -0.701  0.0000E+00  0.8000E+01
     -0.659  0.0000E+00  0.8000E+01
     -0.618  0.0000E+00  0.8000E+01
     -0.576  0.0000E+00  0.8000E+01
     -0.534  0.2949E-14  0.8000E+01
     -0.493  0.1732E-10  0.8000E+01
     -0.451  0.2746E-07  0.8000E+01
     -0.410  0.1203E-04  0.8000E+01
     -0.368  0.1516E-02  0.8000E+01
     -0.326  0.5840E-01  0.8002E+01
     -0.285  0.7528E+00  0.8034E+01
     -0.243  0.3703E+01  0.8188E+01
     -0.202  0.8357E+01  0.8535E+01
     -0.160  0.1079E+02  0.8984E+01
     -0.118  0.1014E+02  0.9406E+01
     -0.077  0.8062E+01  0.9741E+01
     -0.035  0.4597E+01  0.9933E+01
      0.006  0.1471E+01  0.9994E+01
      0.048  0.7266E+00  0.1002E+02
      0.089  0.2508E+01  0.1013E+02
      0.131  0.6393E+01  0.1039E+02
      0.173  0.1095E+02  0.1085E+02
      0.214  0.1429E+02  0.1144E+02
      0.256  0.1564E+02  0.1209E+02
      0.297  0.1573E+02  0.1275E+02
      0.339  0.1590E+02  0.1341E+02
      0.381  0.1617E+02  0.1408E+02
      0.422  0.1653E+02  0.1477E+02
      0.464  0.1767E+02  0.1551E+02
      0.505  0.1844E+02  0.1627E+02
      0.547  0.1842E+02  0.1704E+02
      0.589  0.1902E+02  0.1783E+02
      0.630  0.1990E+02  0.1866E+02
      0.672  0.2033E+02  0.1950E+02
      0.713  0.2105E+02  0.2038E+02
      0.755  0.2244E+02  0.2131E+02
      0.797  0.2224E+02  0.2224E+02
      0.838  0.2185E+02  0.2315E+02
      0.880  0.2342E+02  0.2412E+02
      0.921  0.2446E+02  0.2514E+02
      0.963  0.2412E+02  0.2614E+02
      1.005  0.2488E+02  0.2718E+02
      1.046  0.2585E+02  0.2825E+02
      1.088  0.2590E+02  0.2933E+02
      1.129  0.2600E+02  0.3041E+02
      1.171  0.2681E+02  0.3152E+02
      1.213  0.2764E+02  0.3267E+02
      1.254  0.2718E+02  0.3380E+02
      1.296  0.2743E+02  0.3495E+02
      1.337  0.2848E+02  0.3613E+02
      1.379  0.2847E+02  0.3732E+02
      1.421  0.2821E+02  0.3849E+02
      1.462  0.2931E+02  0.3971E+02
      1.504  0.3080E+02  0.4099E+02
      1.545  0.2986E+02  0.4223E+02
      1.587  0.2948E+02  0.4346E+02
      1.629  0.2997E+02  0.4470E+02
      1.670  0.2747E+02  0.4585E+02
      1.712  0.2096E+02  0.4672E+02
      1.753  0.1385E+02  0.4729E+02
      1.795  0.8194E+01  0.4764E+02
      1.837  0.4729E+01  0.4783E+02
      1.878  0.2535E+01  0.4794E+02
      1.920  0.1073E+01  0.4798E+02
      1.961  0.3406E+00  0.4800E+02
      2.003  0.7193E-01  0.4800E+02
      2.045  0.6940E-02  0.4800E+02
      2.086  0.2205E-03  0.4800E+02
      2.128  0.1998E-05  0.4800E+02
      2.169  0.4889E-08  0.4800E+02
      2.211  0.3152E-11  0.4800E+02
      2.253  0.5253E-15  0.4800E+02
      2.294  0.0000E+00  0.4800E+02
      2.336  0.0000E+00  0.4800E+02
      2.377  0.0000E+00  0.4800E+02
      2.419  0.0000E+00  0.4800E+02
      2.461  0.0000E+00  0.4800E+02
      2.502  0.0000E+00  0.4800E+02
