  14  14   0   0
  0.1021318E+02  0.5700971E-09  0.4044058E-09  0.6201871E-09  0.5000000E-15
  1.000000000000000E-004
  CAR 
 SC                                      
     17.94331470    -14.15531683  301      1.92726687      1.00000000
    -14.155  0.0000E+00  0.0000E+00
    -14.048  0.0000E+00  0.0000E+00
    -13.941  0.0000E+00  0.0000E+00
    -13.834  0.0000E+00  0.0000E+00
    -13.727  0.0000E+00  0.0000E+00
    -13.620  0.0000E+00  0.0000E+00
    -13.513  0.0000E+00  0.0000E+00
    -13.406  0.0000E+00  0.0000E+00
    -13.299  0.0000E+00  0.0000E+00
    -13.192  0.7814E-13  0.8361E-14
    -13.085  0.1660E-08  0.1776E-09
    -12.978  0.4153E-05  0.4446E-06
    -12.871  0.1346E-02  0.1444E-03
    -12.764  0.6706E-01  0.7320E-02
    -12.657  0.6867E+00  0.8079E-01
    -12.550  0.2157E+01  0.3116E+00
    -12.443  0.3426E+01  0.6782E+00
    -12.336  0.4015E+01  0.1108E+01
    -12.229  0.3561E+01  0.1489E+01
    -12.122  0.2903E+01  0.1799E+01
    -12.015  0.2619E+01  0.2080E+01
    -11.908  0.2551E+01  0.2353E+01
    -11.801  0.2680E+01  0.2639E+01
    -11.694  0.3093E+01  0.2970E+01
    -11.587  0.3423E+01  0.3336E+01
    -11.480  0.3112E+01  0.3669E+01
    -11.373  0.2069E+01  0.3891E+01
    -11.266  0.8540E+00  0.3982E+01
    -11.159  0.1587E+00  0.3999E+01
    -11.052  0.7966E-02  0.4000E+01
    -10.945  0.7152E-04  0.4000E+01
    -10.838  0.8936E-07  0.4000E+01
    -10.731  0.1355E-10  0.4000E+01
    -10.624  0.2294E-15  0.4000E+01
    -10.517  0.0000E+00  0.4000E+01
    -10.410  0.0000E+00  0.4000E+01
    -10.303  0.0000E+00  0.4000E+01
    -10.196  0.0000E+00  0.4000E+01
    -10.089  0.0000E+00  0.4000E+01
     -9.982  0.0000E+00  0.4000E+01
     -9.875  0.0000E+00  0.4000E+01
     -9.769  0.0000E+00  0.4000E+01
     -9.662  0.0000E+00  0.4000E+01
     -9.555  0.0000E+00  0.4000E+01
     -9.448  0.0000E+00  0.4000E+01
     -9.341  0.1301E-13  0.4000E+01
     -9.234  0.4100E-09  0.4000E+01
     -9.127  0.1477E-05  0.4000E+01
     -9.020  0.6638E-03  0.4000E+01
     -8.913  0.4381E-01  0.4005E+01
     -8.806  0.5728E+00  0.4066E+01
     -8.699  0.2409E+01  0.4324E+01
     -8.592  0.5095E+01  0.4869E+01
     -8.485  0.6344E+01  0.5548E+01
     -8.378  0.5507E+01  0.6137E+01
     -8.271  0.4786E+01  0.6649E+01
     -8.164  0.4658E+01  0.7147E+01
     -8.057  0.4004E+01  0.7576E+01
     -7.950  0.2482E+01  0.7841E+01
     -7.843  0.1099E+01  0.7959E+01
     -7.736  0.3388E+00  0.7995E+01
     -7.629  0.4415E-01  0.8000E+01
     -7.522  0.1383E-02  0.8000E+01
     -7.415  0.6969E-05  0.8000E+01
     -7.308  0.7609E-08  0.8000E+01
     -7.201  0.5073E-05  0.8000E+01
     -7.094  0.9818E-03  0.8000E+01
     -6.987  0.2610E-01  0.8003E+01
     -6.880  0.1336E+00  0.8017E+01
     -6.773  0.2927E+00  0.8049E+01
     -6.666  0.5111E+00  0.8103E+01
     -6.559  0.6963E+00  0.8178E+01
     -6.452  0.9241E+00  0.8277E+01
     -6.345  0.1488E+01  0.8436E+01
     -6.238  0.2180E+01  0.8669E+01
     -6.131  0.3070E+01  0.8998E+01
     -6.024  0.3867E+01  0.9411E+01
     -5.917  0.3983E+01  0.9837E+01
     -5.810  0.4071E+01  0.1027E+02
     -5.703  0.4171E+01  0.1072E+02
     -5.596  0.3987E+01  0.1115E+02
     -5.489  0.4169E+01  0.1159E+02
     -5.382  0.4629E+01  0.1209E+02
     -5.275  0.4661E+01  0.1259E+02
     -5.168  0.4331E+01  0.1305E+02
     -5.061  0.3714E+01  0.1345E+02
     -4.954  0.3131E+01  0.1378E+02
     -4.847  0.2711E+01  0.1407E+02
     -4.740  0.2719E+01  0.1436E+02
     -4.633  0.3195E+01  0.1470E+02
     -4.526  0.3539E+01  0.1508E+02
     -4.419  0.3326E+01  0.1544E+02
     -4.312  0.2973E+01  0.1576E+02
     -4.205  0.3096E+01  0.1609E+02
     -4.098  0.2882E+01  0.1640E+02
     -3.991  0.2740E+01  0.1669E+02
     -3.884  0.3085E+01  0.1702E+02
     -3.777  0.3077E+01  0.1735E+02
     -3.670  0.3000E+01  0.1767E+02
     -3.563  0.2715E+01  0.1796E+02
     -3.456  0.2657E+01  0.1825E+02
     -3.349  0.2724E+01  0.1854E+02
     -3.242  0.2742E+01  0.1883E+02
     -3.135  0.2746E+01  0.1912E+02
     -3.028  0.2882E+01  0.1943E+02
     -2.921  0.2875E+01  0.1974E+02
     -2.814  0.2885E+01  0.2005E+02
     -2.707  0.2365E+01  0.2030E+02
     -2.600  0.2321E+01  0.2055E+02
     -2.493  0.2845E+01  0.2085E+02
     -2.386  0.3364E+01  0.2121E+02
     -2.279  0.3599E+01  0.2160E+02
     -2.172  0.3440E+01  0.2197E+02
     -2.065  0.3749E+01  0.2237E+02
     -1.958  0.3796E+01  0.2277E+02
     -1.851  0.4468E+01  0.2325E+02
     -1.744  0.5350E+01  0.2382E+02
     -1.637  0.6220E+01  0.2449E+02
     -1.530  0.6243E+01  0.2516E+02
     -1.423  0.6081E+01  0.2581E+02
     -1.316  0.5624E+01  0.2641E+02
     -1.209  0.5063E+01  0.2695E+02
     -1.102  0.5279E+01  0.2752E+02
     -0.995  0.4247E+01  0.2797E+02
     -0.888  0.3057E+01  0.2830E+02
     -0.781  0.3009E+01  0.2862E+02
     -0.674  0.3702E+01  0.2902E+02
     -0.567  0.4741E+01  0.2952E+02
     -0.460  0.5418E+01  0.3010E+02
     -0.353  0.6165E+01  0.3076E+02
     -0.246  0.6423E+01  0.3145E+02
     -0.139  0.6251E+01  0.3212E+02
     -0.032  0.6435E+01  0.3281E+02
      0.075  0.7189E+01  0.3358E+02
      0.182  0.8560E+01  0.3449E+02
      0.289  0.8693E+01  0.3542E+02
      0.396  0.7820E+01  0.3626E+02
      0.503  0.6295E+01  0.3693E+02
      0.610  0.4571E+01  0.3742E+02
      0.717  0.3609E+01  0.3781E+02
      0.824  0.3124E+01  0.3814E+02
      0.931  0.3027E+01  0.3847E+02
      1.038  0.3242E+01  0.3881E+02
      1.145  0.3873E+01  0.3923E+02
      1.252  0.3971E+01  0.3965E+02
      1.359  0.3411E+01  0.4002E+02
      1.466  0.3772E+01  0.4042E+02
      1.573  0.4143E+01  0.4087E+02
      1.680  0.3605E+01  0.4125E+02
      1.787  0.3072E+01  0.4158E+02
      1.894  0.2986E+01  0.4190E+02
      2.001  0.3089E+01  0.4223E+02
      2.108  0.3016E+01  0.4255E+02
      2.215  0.2346E+01  0.4280E+02
      2.322  0.1758E+01  0.4299E+02
      2.429  0.1526E+01  0.4315E+02
      2.536  0.1289E+01  0.4329E+02
      2.643  0.1072E+01  0.4341E+02
      2.750  0.8723E+00  0.4350E+02
      2.857  0.5588E+00  0.4356E+02
      2.964  0.3561E+00  0.4360E+02
      3.071  0.4034E+00  0.4364E+02
      3.178  0.4224E+00  0.4369E+02
      3.285  0.4230E+00  0.4373E+02
      3.392  0.5702E+00  0.4379E+02
      3.499  0.5401E+00  0.4385E+02
      3.606  0.2455E+00  0.4388E+02
      3.713  0.1366E+00  0.4389E+02
      3.820  0.2667E+00  0.4392E+02
      3.927  0.3305E+00  0.4396E+02
      4.034  0.2865E+00  0.4399E+02
      4.141  0.1182E+00  0.4400E+02
      4.248  0.4200E-01  0.4400E+02
      4.355  0.1588E+00  0.4402E+02
      4.462  0.3188E+00  0.4405E+02
      4.569  0.4903E+00  0.4411E+02
      4.676  0.7055E+00  0.4418E+02
      4.783  0.7964E+00  0.4427E+02
      4.890  0.8984E+00  0.4436E+02
      4.997  0.1042E+01  0.4448E+02
      5.104  0.1194E+01  0.4460E+02
      5.211  0.1321E+01  0.4474E+02
      5.318  0.1598E+01  0.4492E+02
      5.425  0.2007E+01  0.4513E+02
      5.532  0.2515E+01  0.4540E+02
      5.639  0.2987E+01  0.4572E+02
      5.746  0.3107E+01  0.4605E+02
      5.853  0.3419E+01  0.4642E+02
      5.960  0.4279E+01  0.4687E+02
      6.067  0.4697E+01  0.4738E+02
      6.174  0.4636E+01  0.4787E+02
      6.281  0.4197E+01  0.4832E+02
      6.388  0.3983E+01  0.4875E+02
      6.495  0.4162E+01  0.4919E+02
      6.602  0.3954E+01  0.4962E+02
      6.709  0.3501E+01  0.4999E+02
      6.816  0.3751E+01  0.5039E+02
      6.923  0.4402E+01  0.5086E+02
      7.030  0.4594E+01  0.5136E+02
      7.137  0.4711E+01  0.5186E+02
      7.244  0.4868E+01  0.5238E+02
      7.351  0.4860E+01  0.5290E+02
      7.458  0.4430E+01  0.5337E+02
      7.565  0.4130E+01  0.5382E+02
      7.672  0.3863E+01  0.5423E+02
      7.779  0.3380E+01  0.5459E+02
      7.886  0.3070E+01  0.5492E+02
      7.993  0.3388E+01  0.5528E+02
      8.100  0.3602E+01  0.5567E+02
      8.207  0.3696E+01  0.5606E+02
      8.314  0.3947E+01  0.5649E+02
      8.421  0.4155E+01  0.5693E+02
      8.528  0.3986E+01  0.5736E+02
      8.635  0.4037E+01  0.5779E+02
      8.742  0.4207E+01  0.5824E+02
      8.849  0.4746E+01  0.5875E+02
      8.956  0.5267E+01  0.5931E+02
      9.063  0.5574E+01  0.5991E+02
      9.170  0.5384E+01  0.6048E+02
      9.277  0.4933E+01  0.6101E+02
      9.384  0.4795E+01  0.6152E+02
      9.491  0.5109E+01  0.6207E+02
      9.598  0.5095E+01  0.6262E+02
      9.705  0.4813E+01  0.6313E+02
      9.812  0.5089E+01  0.6367E+02
      9.919  0.5202E+01  0.6423E+02
     10.026  0.4727E+01  0.6474E+02
     10.133  0.4144E+01  0.6518E+02
     10.240  0.4222E+01  0.6563E+02
     10.347  0.4911E+01  0.6616E+02
     10.454  0.5382E+01  0.6673E+02
     10.561  0.5077E+01  0.6728E+02
     10.668  0.4481E+01  0.6776E+02
     10.775  0.4152E+01  0.6820E+02
     10.882  0.3470E+01  0.6857E+02
     10.989  0.3631E+01  0.6896E+02
     11.096  0.5072E+01  0.6950E+02
     11.203  0.5739E+01  0.7012E+02
     11.310  0.5821E+01  0.7074E+02
     11.417  0.5217E+01  0.7130E+02
     11.524  0.4822E+01  0.7181E+02
     11.631  0.5104E+01  0.7236E+02
     11.738  0.4999E+01  0.7289E+02
     11.845  0.4864E+01  0.7342E+02
     11.952  0.5391E+01  0.7399E+02
     12.059  0.6056E+01  0.7464E+02
     12.166  0.6008E+01  0.7528E+02
     12.273  0.5283E+01  0.7585E+02
     12.380  0.5527E+01  0.7644E+02
     12.487  0.6096E+01  0.7709E+02
     12.594  0.5891E+01  0.7772E+02
     12.701  0.5612E+01  0.7832E+02
     12.808  0.5744E+01  0.7894E+02
     12.915  0.5853E+01  0.7956E+02
     13.022  0.5659E+01  0.8017E+02
     13.129  0.5777E+01  0.8079E+02
     13.236  0.5914E+01  0.8142E+02
     13.343  0.6028E+01  0.8206E+02
     13.450  0.5768E+01  0.8268E+02
     13.557  0.5595E+01  0.8328E+02
     13.663  0.5749E+01  0.8390E+02
     13.770  0.5539E+01  0.8449E+02
     13.877  0.5395E+01  0.8507E+02
     13.984  0.5673E+01  0.8567E+02
     14.091  0.5471E+01  0.8626E+02
     14.198  0.5125E+01  0.8681E+02
     14.305  0.5166E+01  0.8736E+02
     14.412  0.4850E+01  0.8788E+02
     14.519  0.4999E+01  0.8841E+02
     14.626  0.5279E+01  0.8898E+02
     14.733  0.4853E+01  0.8950E+02
     14.840  0.4049E+01  0.8993E+02
     14.947  0.5051E+01  0.9047E+02
     15.054  0.5966E+01  0.9111E+02
     15.161  0.5563E+01  0.9170E+02
     15.268  0.5956E+01  0.9234E+02
     15.375  0.5997E+01  0.9298E+02
     15.482  0.6211E+01  0.9365E+02
     15.589  0.5629E+01  0.9425E+02
     15.696  0.4430E+01  0.9472E+02
     15.803  0.3674E+01  0.9512E+02
     15.910  0.2467E+01  0.9538E+02
     16.017  0.1534E+01  0.9554E+02
     16.124  0.1338E+01  0.9569E+02
     16.231  0.1104E+01  0.9581E+02
     16.338  0.8499E+00  0.9590E+02
     16.445  0.6176E+00  0.9596E+02
     16.552  0.2966E+00  0.9599E+02
     16.659  0.4701E-01  0.9600E+02
     16.766  0.1380E-02  0.9600E+02
     16.873  0.5656E-05  0.9600E+02
     16.980  0.2797E-08  0.9600E+02
     17.087  0.1551E-12  0.9600E+02
     17.194  0.0000E+00  0.9600E+02
     17.301  0.0000E+00  0.9600E+02
     17.408  0.0000E+00  0.9600E+02
     17.515  0.0000E+00  0.9600E+02
     17.622  0.0000E+00  0.9600E+02
     17.729  0.0000E+00  0.9600E+02
     17.836  0.0000E+00  0.9600E+02
     17.943  0.0000E+00  0.9600E+02
