   14   14    1    1
  0.1021318E+02  0.5700971E-09  0.4044058E-09  0.6201871E-09  0.5000000E-15
  1.000000000000000E-004
  CAR 
 SC                                      
     42    324     48
 
  0.4166667E-01  0.0000000E+00  0.0000000E+00  0.8912656E-03
      1        -12.696288   1.000000
      2        -11.525058   1.000000
      3         -8.659049   1.000000
      4         -8.366593   1.000000
      5         -6.047716   1.000000
      6         -5.147119   1.000000
      7         -4.701427   1.000000
      8         -4.316861   1.000000
      9         -3.928496   1.000000
     10         -3.493436   1.000000
     11         -2.398168   1.000000
     12         -2.218121   1.000000
     13         -2.116086   1.000000
     14         -1.097851   1.000000
     15         -0.012296   1.000000
     16          0.001455   1.000000
     17          0.046136   1.000000
     18          0.091765   1.000000
     19          0.662754   1.000000
     20          2.113005   0.004310
     21          2.145667   0.001005
     22          2.229108   0.000010
     23          5.514176   0.000000
     24          5.728956   0.000000
     25          5.729881   0.000000
     26          6.006417   0.000000
     27          6.717624   0.000000
     28          7.560240   0.000000
     29          7.842491   0.000000
     30          8.635540   0.000000
     31          8.872949   0.000000
     32          8.885663   0.000000
     33          9.053532   0.000000
     34         10.034556   0.000000
     35         11.197905   0.000000
     36         11.367871   0.000000
     37         11.509332   0.000000
     38         11.711220   0.000000
     39         11.977752   0.000000
     40         12.304047   0.000000
     41         12.954769   0.000000
     42         13.416895   0.000000
     43         13.493968   0.000000
     44         15.438077   0.000000
     45         15.546113   0.000000
     46         16.027903   0.000000
     47         16.322312   0.000000
     48         16.392040   0.000000
 
  0.1250000E+00  0.0000000E+00  0.0000000E+00  0.8912656E-03
      1        -12.665452   1.000000
      2        -11.578857   1.000000
      3         -8.640809   1.000000
      4         -8.358147   1.000000
      5         -5.994995   1.000000
      6         -5.418031   1.000000
      7         -4.801473   1.000000
      8         -3.972893   1.000000
      9         -3.885426   1.000000
     10         -3.247408   1.000000
     11         -2.385248   1.000000
     12         -2.226849   1.000000
     13         -2.216937   1.000000
     14         -1.316211   1.000000
     15         -0.086006   1.000000
     16          0.044639   1.000000
     17          0.077013   1.000000
     18          0.124416   1.000000
     19          0.589956   1.000000
     20          2.056562   0.033737
     21          2.075528   0.018009
     22          2.142724   0.001156
     23          5.571185   0.000000
     24          5.696197   0.000000
     25          5.801704   0.000000
     26          6.240951   0.000000
     27          6.660615   0.000000
     28          7.253094   0.000000
     29          8.042629   0.000000
     30          8.733179   0.000000
     31          9.036881   0.000000
     32          9.080391   0.000000
     33          9.110169   0.000000
     34         10.101080   0.000000
     35         11.082130   0.000000
     36         11.251178   0.000000
     37         11.291983   0.000000
     38         11.499265   0.000000
     39         12.133501   0.000000
     40         12.367260   0.000000
     41         13.144183   0.000000
     42         13.235607   0.000000
     43         13.858930   0.000000
     44         14.952136   0.000000
     45         15.702976   0.000000
     46         15.948206   0.000000
     47         16.265965   0.000000
     48         16.409424   0.000000
 
  0.2083333E+00  0.0000000E+00  0.0000000E+00  0.8912656E-03
      1        -12.604654   1.000000
      2        -11.678549   1.000000
      3         -8.604063   1.000000
      4         -8.345660   1.000000
      5         -5.954598   1.000000
      6         -5.706870   1.000000
      7         -4.829835   1.000000
      8         -3.800198   1.000000
      9         -3.544078   1.000000
     10         -2.877577   1.000000
     11         -2.394482   1.000000
     12         -2.358406   1.000000
     13         -2.243854   1.000000
     14         -1.696587   1.000000
     15         -0.251598   1.000000
     16          0.135426   1.000000
     17          0.139172   1.000000
     18          0.147848   1.000000
     19          0.478247   1.000000
     20          1.952608   0.360029
     21          1.955411   0.345307
     22          1.972133   0.262875
     23          5.652782   0.000000
     24          5.656130   0.000000
     25          6.020137   0.000000
     26          6.569422   0.000000
     27          6.609426   0.000000
     28          6.984639   0.000000
     29          8.181571   0.000000
     30          8.882338   0.000000
     31          9.012301   0.000000
     32          9.398483   0.000000
     33          9.447852   0.000000
     34         10.287590   0.000000
     35         10.587562   0.000000
     36         10.778460   0.000000
     37         11.354442   0.000000
     38         11.611100   0.000000
     39         12.321262   0.000000
     40         12.571149   0.000000
     41         12.814420   0.000000
     42         13.148998   0.000000
     43         14.446395   0.000000
     44         14.714729   0.000000
     45         15.450948   0.000000
     46         15.943223   0.000000
     47         16.162948   0.000000
     48         16.456234   0.000000
 
  0.2916667E+00  0.0000000E+00  0.0000000E+00  0.8912656E-03
      1        -12.515734   1.000000
      2        -11.811053   1.000000
      3         -8.550666   1.000000
      4         -8.337465   1.000000
      5         -5.995810   1.000000
      6         -5.943427   1.000000
      7         -4.663661   1.000000
      8         -3.674640   1.000000
      9         -3.127849   1.000000
     10         -2.616917   1.000000
     11         -2.471016   1.000000
     12         -2.327048   1.000000
     13         -2.265023   1.000000
     14         -2.141306   1.000000
     15         -0.475287   1.000000
     16          0.001168   1.000000
     17          0.213700   1.000000
     18          0.244914   1.000000
     19          0.494761   1.000000
     20          1.730609   0.997292
     21          1.808135   0.953984
     22          1.830404   0.914633
     23          5.627458   0.000000
     24          5.728313   0.000000
     25          6.388654   0.000000
     26          6.481130   0.000000
     27          6.776820   0.000000
     28          7.064431   0.000000
     29          8.288680   0.000000
     30          8.888842   0.000000
     31          8.931511   0.000000
     32          9.818707   0.000000
     33          9.823884   0.000000
     34          9.980243   0.000000
     35         10.412867   0.000000
     36         10.669982   0.000000
     37         11.455945   0.000000
     38         11.879494   0.000000
     39         12.312637   0.000000
     40         12.403046   0.000000
     41         12.734038   0.000000
     42         12.980314   0.000000
     43         14.859001   0.000000
     44         14.959955   0.000000
     45         15.058081   0.000000
     46         15.754265   0.000000
     47         15.779575   0.000000
     48         16.208579   0.000000
 
  0.3750000E+00  0.0000000E+00  0.0000000E+00  0.8912656E-03
      1        -12.401650   1.000000
      2        -11.961785   1.000000
      3         -8.486822   1.000000
      4         -8.343911   1.000000
      5         -6.103097   1.000000
      6         -6.088255   1.000000
      7         -4.320373   1.000000
      8         -3.511824   1.000000
      9         -2.954177   1.000000
     10         -2.857015   1.000000
     11         -2.525472   1.000000
     12         -2.316733   1.000000
     13         -2.170838   1.000000
     14         -2.071475   1.000000
     15         -0.710214   1.000000
     16         -0.303119   1.000000
     17          0.297196   1.000000
     18          0.334012   1.000000
     19          0.655022   1.000000
     20          1.446223   1.000000
     21          1.681366   0.999747
     22          1.709158   0.998981
     23          5.636398   0.000000
     24          5.753694   0.000000
     25          6.434978   0.000000
     26          6.624393   0.000000
     27          6.881586   0.000000
     28          7.580005   0.000000
     29          8.378349   0.000000
     30          8.637193   0.000000
     31          8.730243   0.000000
     32          9.348162   0.000000
     33         10.220677   0.000000
     34         10.229570   0.000000
     35         10.438089   0.000000
     36         11.250680   0.000000
     37         11.452576   0.000000
     38         11.780620   0.000000
     39         12.149695   0.000000
     40         12.276056   0.000000
     41         12.465197   0.000000
     42         13.337142   0.000000
     43         14.584704   0.000000
     44         14.973317   0.000000
     45         15.032394   0.000000
     46         15.261515   0.000000
     47         15.644580   0.000000
     48         16.436855   0.000000
 
  0.4583333E+00  0.0000000E+00  0.0000000E+00  0.8912656E-03
      1        -12.266797   1.000000
      2        -12.117368   1.000000
      3         -8.423260   1.000000
      4         -8.372628   1.000000
      5         -6.175004   1.000000
      6         -6.162811   1.000000
      7         -3.869726   1.000000
      8         -3.369823   1.000000
      9         -3.316297   1.000000
     10         -3.094800   1.000000
     11         -2.439524   1.000000
     12         -2.362694   1.000000
     13         -1.970036   1.000000
     14         -1.863387   1.000000
     15         -0.816622   1.000000
     16         -0.630896   1.000000
     17          0.361709   1.000000
     18          0.378229   1.000000
     19          0.882741   1.000000
     20          1.153632   1.000000
     21          1.612612   0.999996
     22          1.625479   0.999990
     23          5.676356   0.000000
     24          5.726741   0.000000
     25          6.450015   0.000000
     26          6.516566   0.000000
     27          7.462176   0.000000
     28          8.079450   0.000000
     29          8.139274   0.000000
     30          8.470023   0.000000
     31          8.584723   0.000000
     32          8.731093   0.000000
     33         10.547683   0.000000
     34         10.561237   0.000000
     35         10.780946   0.000000
     36         11.255817   0.000000
     37         11.391532   0.000000
     38         11.626002   0.000000
     39         11.912701   0.000000
     40         12.368691   0.000000
     41         12.727424   0.000000
     42         13.209370   0.000000
     43         14.583258   0.000000
     44         14.675851   0.000000
     45         14.796605   0.000000
     46         14.879119   0.000000
     47         16.157705   0.000000
     48         16.474369   0.000000
 
  0.4166667E-01  0.5882353E-01  0.0000000E+00  0.1782531E-02
      1        -12.687859   1.000000
      2        -11.517441   1.000000
      3         -8.652443   1.000000
      4         -8.358437   1.000000
      5         -6.038489   1.000000
      6         -5.134994   1.000000
      7         -4.693889   1.000000
      8         -4.344625   1.000000
      9         -4.102203   1.000000
     10         -3.484449   1.000000
     11         -2.778129   1.000000
     12         -2.165694   1.000000
     13         -1.519223   1.000000
     14         -1.096218   1.000000
     15         -0.145175   1.000000
     16         -0.054096   1.000000
     17          0.072924   1.000000
     18          0.099934   1.000000
     19          0.702686   1.000000
     20          2.020762   0.093046
     21          2.022598   0.088799
     22          2.272064   0.000001
     23          5.602507   0.000000
     24          5.645159   0.000000
     25          5.813558   0.000000
     26          5.925152   0.000000
     27          6.821425   0.000000
     28          7.666915   0.000000
     29          7.948338   0.000000
     30          8.387147   0.000000
     31          8.886291   0.000000
     32          8.990250   0.000000
     33          9.075084   0.000000
     34         10.232526   0.000000
     35         11.283313   0.000000
     36         11.338542   0.000000
     37         11.543978   0.000000
     38         11.690785   0.000000
     39         12.011190   0.000000
     40         12.401872   0.000000
     41         12.951848   0.000000
     42         13.319570   0.000000
     43         13.380580   0.000000
     44         15.440567   0.000000
     45         15.474745   0.000000
     46         15.995101   0.000000
     47         16.279992   0.000000
     48         16.283871   0.000000
 
  0.1250000E+00  0.5882353E-01  0.0000000E+00  0.1782531E-02
      1        -12.657048   1.000000
      2        -11.571216   1.000000
      3         -8.634169   1.000000
      4         -8.350089   1.000000
      5         -5.985337   1.000000
      6         -5.407288   1.000000
      7         -4.794375   1.000000
      8         -4.141982   1.000000
      9         -3.918218   1.000000
     10         -3.239409   1.000000
     11         -2.825162   1.000000
     12         -2.151306   1.000000
     13         -1.588121   1.000000
     14         -1.314360   1.000000
     15         -0.141936   1.000000
     16         -0.027111   1.000000
     17          0.045543   1.000000
     18          0.136545   1.000000
     19          0.629341   1.000000
     20          1.956091   0.341771
     21          1.964607   0.298727
     22          2.180977   0.000167
     23          5.662374   0.000000
     24          5.694074   0.000000
     25          5.799856   0.000000
     26          6.160283   0.000000
     27          6.764916   0.000000
     28          7.369131   0.000000
     29          8.140704   0.000000
     30          8.489219   0.000000
     31          9.092098   0.000000
     32          9.116030   0.000000
     33          9.178449   0.000000
     34         10.249610   0.000000
     35         11.050300   0.000000
     36         11.263276   0.000000
     37         11.332022   0.000000
     38         11.559247   0.000000
     39         12.167828   0.000000
     40         12.462791   0.000000
     41         13.125181   0.000000
     42         13.148688   0.000000
     43         13.751888   0.000000
     44         14.988114   0.000000
     45         15.610838   0.000000
     46         15.940686   0.000000
     47         16.090291   0.000000
     48         16.441595   0.000000
 
  0.2083333E+00  0.5882353E-01  0.0000000E+00  0.1782531E-02
      1        -12.596296   1.000000
      2        -11.670837   1.000000
      3         -8.597361   1.000000
      4         -8.337778   1.000000
      5         -5.944112   1.000000
      6         -5.696333   1.000000
      7         -4.823662   1.000000
      8         -4.038876   1.000000
      9         -3.509848   1.000000
     10         -2.941850   1.000000
     11         -2.847656   1.000000
     12         -2.122289   1.000000
     13         -1.696795   1.000000
     14         -1.694179   1.000000
     15         -0.256956   1.000000
     16          0.010319   1.000000
     17          0.096941   1.000000
     18          0.186087   1.000000
     19          0.511782   1.000000
     20          1.836815   0.899582
     21          1.864017   0.814470
     22          2.005029   0.135725
     23          5.706485   0.000000
     24          5.750606   0.000000
     25          5.962218   0.000000
     26          6.516652   0.000000
     27          6.674890   0.000000
     28          7.120981   0.000000
     29          8.273712   0.000000
     30          8.647441   0.000000
     31          9.082243   0.000000
     32          9.457760   0.000000
     33          9.512669   0.000000
     34         10.326846   0.000000
     35         10.564522   0.000000
     36         10.762065   0.000000
     37         11.424901   0.000000
     38         11.705012   0.000000
     39         12.373130   0.000000
     40         12.633873   0.000000
     41         12.723424   0.000000
     42         13.159329   0.000000
     43         14.278762   0.000000
     44         14.820001   0.000000
     45         15.468535   0.000000
     46         15.831658   0.000000
     47         16.014429   0.000000
     48         16.472433   0.000000
 
  0.2916667E+00  0.5882353E-01  0.0000000E+00  0.1782531E-02
      1        -12.507439   1.000000
      2        -11.803255   1.000000
      3         -8.543903   1.000000
      4         -8.329838   1.000000
      5         -5.984724   1.000000
      6         -5.932746   1.000000
      7         -4.658287   1.000000
      8         -3.920552   1.000000
      9         -3.088476   1.000000
     10         -3.065558   1.000000
     11         -2.449631   1.000000
     12         -2.167324   1.000000
     13         -2.060809   1.000000
     14         -1.815108   1.000000
     15         -0.467518   1.000000
     16         -0.045846   1.000000
     17          0.194726   1.000000
     18          0.195957   1.000000
     19          0.506028   1.000000
     20          1.683808   0.999712
     21          1.739677   0.996010
     22          1.770188   0.986839
     23          5.689902   0.000000
     24          5.822941   0.000000
     25          6.324102   0.000000
     26          6.589092   0.000000
     27          6.810355   0.000000
     28          7.081551   0.000000
     29          8.376087   0.000000
     30          8.732274   0.000000
     31          8.981470   0.000000
     32          9.835916   0.000000
     33          9.863511   0.000000
     34          9.973537   0.000000
     35         10.329594   0.000000
     36         10.735513   0.000000
     37         11.500968   0.000000
     38         11.998171   0.000000
     39         12.220126   0.000000
     40         12.470965   0.000000
     41         12.746506   0.000000
     42         13.047683   0.000000
     43         14.708360   0.000000
     44         15.017680   0.000000
     45         15.158491   0.000000
     46         15.658200   0.000000
     47         15.713058   0.000000
     48         16.263323   0.000000
 
  0.3750000E+00  0.5882353E-01  0.0000000E+00  0.1782531E-02
      1        -12.393435   1.000000
      2        -11.953885   1.000000
      3         -8.479979   1.000000
      4         -8.336552   1.000000
      5         -6.092184   1.000000
      6         -6.076994   1.000000
      7         -4.315476   1.000000
      8         -3.774314   1.000000
      9         -3.234682   1.000000
     10         -2.932021   1.000000
     11         -2.430529   1.000000
     12         -2.064556   1.000000
     13         -1.992828   1.000000
     14         -1.927489   1.000000
     15         -0.697694   1.000000
     16         -0.311664   1.000000
     17          0.249235   1.000000
     18          0.281422   1.000000
     19          0.659365   1.000000
     20          1.446386   1.000000
     21          1.595050   0.999999
     22          1.618991   0.999993
     23          5.704787   0.000000
     24          5.843428   0.000000
     25          6.546837   0.000000
     26          6.724185   0.000000
     27          6.816026   0.000000
     28          7.534696   0.000000
     29          8.460124   0.000000
     30          8.533028   0.000000
     31          8.790034   0.000000
     32          9.286572   0.000000
     33         10.206962   0.000000
     34         10.235656   0.000000
     35         10.440300   0.000000
     36         11.273728   0.000000
     37         11.418645   0.000000
     38         11.754808   0.000000
     39         12.176079   0.000000
     40         12.394589   0.000000
     41         12.538833   0.000000
     42         13.409681   0.000000
     43         14.657324   0.000000
     44         14.925073   0.000000
     45         14.984639   0.000000
     46         15.241630   0.000000
     47         15.703395   0.000000
     48         16.431004   0.000000
 
  0.4583333E+00  0.5882353E-01  0.0000000E+00  0.1782531E-02
      1        -12.258685   1.000000
      2        -12.109356   1.000000
      3         -8.416318   1.000000
      4         -8.365511   1.000000
      5         -6.163877   1.000000
      6         -6.151580   1.000000
      7         -3.865437   1.000000
      8         -3.605550   1.000000
      9         -3.419218   1.000000
     10         -3.362501   1.000000
     11         -2.221795   1.000000
     12         -2.053886   1.000000
     13         -1.875797   1.000000
     14         -1.827541   1.000000
     15         -0.806119   1.000000
     16         -0.628395   1.000000
     17          0.307790   1.000000
     18          0.324169   1.000000
     19          0.886017   1.000000
     20          1.156858   1.000000
     21          1.522504   1.000000
     22          1.535392   1.000000
     23          5.751201   0.000000
     24          5.808912   0.000000
     25          6.564139   0.000000
     26          6.628099   0.000000
     27          7.394388   0.000000
     28          8.005867   0.000000
     29          8.083494   0.000000
     30          8.545030   0.000000
     31          8.626214   0.000000
     32          8.694531   0.000000
     33         10.503642   0.000000
     34         10.580503   0.000000
     35         10.758119   0.000000
     36         11.086489   0.000000
     37         11.494561   0.000000
     38         11.656377   0.000000
     39         11.944425   0.000000
     40         12.429483   0.000000
     41         12.846202   0.000000
     42         13.302220   0.000000
     43         14.599983   0.000000
     44         14.698242   0.000000
     45         14.765856   0.000000
     46         14.931220   0.000000
     47         16.163025   0.000000
     48         16.461809   0.000000
 
  0.4166667E-01  0.1176471E+00  0.0000000E+00  0.1782531E-02
      1        -12.663412   1.000000
      2        -11.495402   1.000000
      3         -8.633374   1.000000
      4         -8.334812   1.000000
      5         -6.011745   1.000000
      6         -5.100339   1.000000
      7         -4.671772   1.000000
      8         -4.625252   1.000000
      9         -4.228098   1.000000
     10         -3.459948   1.000000
     11         -3.337241   1.000000
     12         -1.677097   1.000000
     13         -1.091507   1.000000
     14         -0.855324   1.000000
     15         -0.353643   1.000000
     16         -0.273403   1.000000
     17          0.112373   1.000000
     18          0.118791   1.000000
     19          0.777677   1.000000
     20          1.770697   0.986594
     21          1.774780   0.984477
     22          2.308786   0.000000
     23          5.493918   0.000000
     24          5.708102   0.000000
     25          5.845015   0.000000
     26          5.957276   0.000000
     27          7.095287   0.000000
     28          7.940944   0.000000
     29          7.998230   0.000000
     30          8.278660   0.000000
     31          8.888589   0.000000
     32          9.117434   0.000000
     33          9.159429   0.000000
     34         10.649340   0.000000
     35         11.273708   0.000000
     36         11.500126   0.000000
     37         11.601738   0.000000
     38         11.686253   0.000000
     39         12.116328   0.000000
     40         12.675174   0.000000
     41         12.901762   0.000000
     42         13.109059   0.000000
     43         13.136132   0.000000
     44         15.243465   0.000000
     45         15.409365   0.000000
     46         15.797036   0.000000
     47         15.806974   0.000000
     48         16.154732   0.000000
 
  0.1250000E+00  0.1176471E+00  0.0000000E+00  0.1782531E-02
      1        -12.632666   1.000000
      2        -11.549078   1.000000
      3         -8.614990   1.000000
      4         -8.326744   1.000000
      5         -5.957309   1.000000
      6         -5.376781   1.000000
      7         -4.773610   1.000000
      8         -4.560181   1.000000
      9         -3.904171   1.000000
     10         -3.391822   1.000000
     11         -3.206719   1.000000
     12         -1.661969   1.000000
     13         -1.308998   1.000000
     14         -0.968931   1.000000
     15         -0.272092   1.000000
     16         -0.245115   1.000000
     17          0.054785   1.000000
     18          0.150654   1.000000
     19          0.700179   1.000000
     20          1.707346   0.999065
     21          1.720096   0.998304
     22          2.212337   0.000028
     23          5.551075   0.000000
     24          5.904958   0.000000
     25          5.912544   0.000000
     26          5.969932   0.000000
     27          7.040423   0.000000
     28          7.678855   0.000000
     29          8.104415   0.000000
     30          8.428323   0.000000
     31          9.138882   0.000000
     32          9.149490   0.000000
     33          9.348812   0.000000
     34         10.538825   0.000000
     35         10.972332   0.000000
     36         11.209383   0.000000
     37         11.535940   0.000000
     38         11.744600   0.000000
     39         12.274160   0.000000
     40         12.711355   0.000000
     41         12.879554   0.000000
     42         13.151396   0.000000
     43         13.525942   0.000000
     44         15.027830   0.000000
     45         15.312615   0.000000
     46         15.732583   0.000000
     47         15.743220   0.000000
     48         16.286287   0.000000
 
  0.2083333E+00  0.1176471E+00  0.0000000E+00  0.1782531E-02
      1        -12.572052   1.000000
      2        -11.648515   1.000000
      3         -8.578014   1.000000
      4         -8.314966   1.000000
      5         -5.913664   1.000000
      6         -5.666017   1.000000
      7         -4.805671   1.000000
      8         -4.480742   1.000000
      9         -3.481257   1.000000
     10         -3.475069   1.000000
     11         -2.837754   1.000000
     12         -1.687327   1.000000
     13         -1.631721   1.000000
     14         -1.118509   1.000000
     15         -0.261461   1.000000
     16         -0.203004   1.000000
     17          0.012929   1.000000
     18          0.207655   1.000000
     19          0.568683   1.000000
     20          1.594341   0.999999
     21          1.622186   0.999992
     22          2.026429   0.080402
     23          5.748403   0.000000
     24          5.893612   0.000000
     25          6.008247   0.000000
     26          6.312649   0.000000
     27          6.955090   0.000000
     28          7.458322   0.000000
     29          8.281796   0.000000
     30          8.540708   0.000000
     31          9.164151   0.000000
     32          9.492232   0.000000
     33          9.698707   0.000000
     34         10.312482   0.000000
     35         10.519173   0.000000
     36         10.800546   0.000000
     37         11.594292   0.000000
     38         11.970508   0.000000
     39         12.446447   0.000000
     40         12.508936   0.000000
     41         12.898799   0.000000
     42         13.188368   0.000000
     43         14.010634   0.000000
     44         14.904749   0.000000
     45         15.243717   0.000000
     46         15.650603   0.000000
     47         15.705283   0.000000
     48         16.484286   0.000000
 
  0.2916667E+00  0.1176471E+00  0.0000000E+00  0.1782531E-02
      1        -12.483386   1.000000
      2        -11.780671   1.000000
      3         -8.524365   1.000000
      4         -8.307750   1.000000
      5         -5.952472   1.000000
      6         -5.901823   1.000000
      7         -4.642689   1.000000
      8         -4.374786   1.000000
      9         -3.608571   1.000000
     10         -3.046505   1.000000
     11         -2.425294   1.000000
     12         -2.141108   1.000000
     13         -1.586410   1.000000
     14         -1.268165   1.000000
     15         -0.428608   1.000000
     16         -0.194997   1.000000
     17          0.082882   1.000000
     18          0.188281   1.000000
     19          0.527967   1.000000
     20          1.458746   1.000000
     21          1.501114   1.000000
     22          1.770343   0.986765
     23          5.842772   0.000000
     24          6.076491   0.000000
     25          6.150545   0.000000
     26          6.707997   0.000000
     27          6.880057   0.000000
     28          7.338484   0.000000
     29          8.427181   0.000000
     30          8.630504   0.000000
     31          9.083150   0.000000
     32          9.739531   0.000000
     33          9.873413   0.000000
     34         10.132766   0.000000
     35         10.192350   0.000000
     36         10.848017   0.000000
     37         11.555922   0.000000
     38         12.058192   0.000000
     39         12.305643   0.000000
     40         12.654262   0.000000
     41         12.783373   0.000000
     42         13.242987   0.000000
     43         14.466133   0.000000
     44         14.971400   0.000000
     45         15.253431   0.000000
     46         15.474816   0.000000
     47         15.511878   0.000000
     48         16.317162   0.000000
 
  0.3750000E+00  0.1176471E+00  0.0000000E+00  0.1782531E-02
      1        -12.369625   1.000000
      2        -11.930990   1.000000
      3         -8.460221   1.000000
      4         -8.315268   1.000000
      5         -6.060493   1.000000
      6         -6.044230   1.000000
      7         -4.301285   1.000000
      8         -4.242953   1.000000