       N       E                     dE             d eps       ncg     rms          rms(c)
DAV:   1     0.790834689211E+02    0.79083E+02   -0.19948E+04 31104   0.862E+02
DAV:   2    -0.917214167014E+02   -0.17080E+03   -0.16001E+03 42528   0.167E+02
DAV:   3    -0.975364757511E+02   -0.58151E+01   -0.57794E+01 45912   0.274E+01
DAV:   4    -0.975704371604E+02   -0.33961E-01   -0.33960E-01 37080   0.243E+00
DAV:   5    -0.975708112300E+02   -0.37407E-03   -0.37406E-03 45888   0.244E-01    0.123E+01
DAV:   6    -0.922491097523E+02    0.53217E+01   -0.38357E+00 45120   0.645E+00    0.679E+00
DAV:   7    -0.906055253991E+02    0.16436E+01   -0.31568E+00 46536   0.579E+00    0.172E+00
DAV:   8    -0.906151735655E+02   -0.96482E-02   -0.22019E-01 34560   0.161E+00    0.817E-01
DAV:   9    -0.906303973433E+02   -0.15224E-01   -0.19535E-02 43224   0.493E-01    0.216E-01
DAV:  10    -0.906350303754E+02   -0.46330E-02   -0.33503E-03 34320   0.204E-01    0.767E-02
DAV:  11    -0.906363761906E+02   -0.13458E-02   -0.77016E-04 40728   0.982E-02    0.343E-02
DAV:  12    -0.906364866117E+02   -0.11042E-03   -0.76676E-05 39408   0.343E-02    0.783E-03
DAV:  13    -0.906365013514E+02   -0.14740E-04   -0.13229E-05 41808   0.141E-02    0.223E-03
DAV:  14    -0.906365023916E+02   -0.10402E-05   -0.79702E-07 40032   0.392E-03    0.864E-04
DAV:  15    -0.906365026904E+02   -0.29885E-06   -0.18243E-07 36504   0.187E-03
   1 F= -.92598799E+02 E0= -.92591149E+02  d E =-.152992E-01
