   1   1   0   0
  0.3362865E+04  0.1498200E-08  0.1248500E-08  0.1797840E-08  0.5000000E-15
  1.000000000000000E-004
  CAR 
 Convergence                             
      2.49875959     -9.97685459  301     -3.60707523      1.00000000
     -9.977  0.0000E+00  0.0000E+00
     -9.935  0.0000E+00  0.0000E+00
     -9.894  0.0000E+00  0.0000E+00
     -9.852  0.0000E+00  0.0000E+00
     -9.811  0.0000E+00  0.0000E+00
     -9.769  0.0000E+00  0.0000E+00
     -9.727  0.0000E+00  0.0000E+00
     -9.686  0.1415E-12  0.5884E-14
     -9.644  0.8094E-09  0.3367E-10
     -9.603  0.1188E-05  0.4943E-07
     -9.561  0.4540E-03  0.1893E-04
     -9.519  0.4593E-01  0.1929E-02
     -9.478  0.1258E+01  0.5426E-01
     -9.436  0.9616E+01  0.4542E+00
     -9.395  0.2109E+02  0.1331E+01
     -9.353  0.1347E+02  0.1891E+01
     -9.311  0.2484E+01  0.1995E+01
     -9.270  0.1288E+00  0.2000E+01
     -9.228  0.1823E-02  0.2000E+01
     -9.187  0.6867E-05  0.2000E+01
     -9.145  0.6762E-08  0.2000E+01
     -9.104  0.1719E-11  0.2000E+01
     -9.062  0.0000E+00  0.2000E+01
     -9.020  0.0000E+00  0.2000E+01
     -8.979  0.0000E+00  0.2000E+01
     -8.937  0.0000E+00  0.2000E+01
     -8.896  0.0000E+00  0.2000E+01
     -8.854  0.0000E+00  0.2000E+01
     -8.812  0.0000E+00  0.2000E+01
     -8.771  0.0000E+00  0.2000E+01
     -8.729  0.0000E+00  0.2000E+01
     -8.688  0.0000E+00  0.2000E+01
     -8.646  0.0000E+00  0.2000E+01
     -8.605  0.0000E+00  0.2000E+01
     -8.563  0.0000E+00  0.2000E+01
     -8.521  0.0000E+00  0.2000E+01
     -8.480  0.0000E+00  0.2000E+01
     -8.438  0.0000E+00  0.2000E+01
     -8.397  0.0000E+00  0.2000E+01
     -8.355  0.0000E+00  0.2000E+01
     -8.313  0.0000E+00  0.2000E+01
     -8.272  0.0000E+00  0.2000E+01
     -8.230  0.0000E+00  0.2000E+01
     -8.189  0.0000E+00  0.2000E+01
     -8.147  0.0000E+00  0.2000E+01
     -8.106  0.0000E+00  0.2000E+01
     -8.064  0.0000E+00  0.2000E+01
     -8.022  0.0000E+00  0.2000E+01
     -7.981  0.0000E+00  0.2000E+01
     -7.939  0.0000E+00  0.2000E+01
     -7.898  0.0000E+00  0.2000E+01
     -7.856  0.0000E+00  0.2000E+01
     -7.814  0.0000E+00  0.2000E+01
     -7.773  0.0000E+00  0.2000E+01
     -7.731  0.0000E+00  0.2000E+01
     -7.690  0.0000E+00  0.2000E+01
     -7.648  0.0000E+00  0.2000E+01
     -7.606  0.0000E+00  0.2000E+01
     -7.565  0.0000E+00  0.2000E+01
     -7.523  0.0000E+00  0.2000E+01
     -7.482  0.0000E+00  0.2000E+01
     -7.440  0.0000E+00  0.2000E+01
     -7.399  0.0000E+00  0.2000E+01
     -7.357  0.0000E+00  0.2000E+01
     -7.315  0.0000E+00  0.2000E+01
     -7.274  0.0000E+00  0.2000E+01
     -7.232  0.0000E+00  0.2000E+01
     -7.191  0.0000E+00  0.2000E+01
     -7.149  0.0000E+00  0.2000E+01
     -7.107  0.0000E+00  0.2000E+01
     -7.066  0.0000E+00  0.2000E+01
     -7.024  0.0000E+00  0.2000E+01
     -6.983  0.0000E+00  0.2000E+01
     -6.941  0.0000E+00  0.2000E+01
     -6.900  0.0000E+00  0.2000E+01
     -6.858  0.0000E+00  0.2000E+01
     -6.816  0.0000E+00  0.2000E+01
     -6.775  0.0000E+00  0.2000E+01
     -6.733  0.0000E+00  0.2000E+01
     -6.692  0.0000E+00  0.2000E+01
     -6.650  0.0000E+00  0.2000E+01
     -6.608  0.0000E+00  0.2000E+01
     -6.567  0.0000E+00  0.2000E+01
     -6.525  0.0000E+00  0.2000E+01
     -6.484  0.0000E+00  0.2000E+01
     -6.442  0.0000E+00  0.2000E+01
     -6.401  0.0000E+00  0.2000E+01
     -6.359  0.0000E+00  0.2000E+01
     -6.317  0.0000E+00  0.2000E+01
     -6.276  0.0000E+00  0.2000E+01
     -6.234  0.0000E+00  0.2000E+01
     -6.193  0.0000E+00  0.2000E+01
     -6.151  0.0000E+00  0.2000E+01
     -6.109  0.0000E+00  0.2000E+01
     -6.068  0.0000E+00  0.2000E+01
     -6.026  0.0000E+00  0.2000E+01
     -5.985  0.0000E+00  0.2000E+01
     -5.943  0.0000E+00  0.2000E+01
     -5.901  0.0000E+00  0.2000E+01
     -5.860  0.0000E+00  0.2000E+01
     -5.818  0.0000E+00  0.2000E+01
     -5.777  0.0000E+00  0.2000E+01
     -5.735  0.0000E+00  0.2000E+01
     -5.694  0.0000E+00  0.2000E+01
     -5.652  0.0000E+00  0.2000E+01
     -5.610  0.0000E+00  0.2000E+01
     -5.569  0.0000E+00  0.2000E+01
     -5.527  0.0000E+00  0.2000E+01
     -5.486  0.0000E+00  0.2000E+01
     -5.444  0.0000E+00  0.2000E+01
     -5.402  0.0000E+00  0.2000E+01
     -5.361  0.0000E+00  0.2000E+01
     -5.319  0.0000E+00  0.2000E+01
     -5.278  0.0000E+00  0.2000E+01
     -5.236  0.0000E+00  0.2000E+01
     -5.195  0.0000E+00  0.2000E+01
     -5.153  0.0000E+00  0.2000E+01
     -5.111  0.0000E+00  0.2000E+01
     -5.070  0.0000E+00  0.2000E+01
     -5.028  0.0000E+00  0.2000E+01
     -4.987  0.0000E+00  0.2000E+01
     -4.945  0.0000E+00  0.2000E+01
     -4.903  0.0000E+00  0.2000E+01
     -4.862  0.0000E+00  0.2000E+01
     -4.820  0.0000E+00  0.2000E+01
     -4.779  0.0000E+00  0.2000E+01
     -4.737  0.0000E+00  0.2000E+01
     -4.696  0.0000E+00  0.2000E+01
     -4.654  0.0000E+00  0.2000E+01
     -4.612  0.0000E+00  0.2000E+01
     -4.571  0.0000E+00  0.2000E+01
     -4.529  0.0000E+00  0.2000E+01
     -4.488  0.0000E+00  0.2000E+01
     -4.446  0.0000E+00  0.2000E+01
     -4.404  0.0000E+00  0.2000E+01
     -4.363  0.0000E+00  0.2000E+01
     -4.321  0.0000E+00  0.2000E+01
     -4.280  0.0000E+00  0.2000E+01
     -4.238  0.0000E+00  0.2000E+01
     -4.196  0.0000E+00  0.2000E+01
     -4.155  0.0000E+00  0.2000E+01
     -4.113  0.0000E+00  0.2000E+01
     -4.072  0.0000E+00  0.2000E+01
     -4.030  0.0000E+00  0.2000E+01
     -3.989  0.0000E+00  0.2000E+01
     -3.947  0.0000E+00  0.2000E+01
     -3.905  0.0000E+00  0.2000E+01
     -3.864  0.1602E-13  0.2000E+01
     -3.822  0.1267E-09  0.2000E+01
     -3.781  0.3024E-06  0.2000E+01
     -3.739  0.1872E-03  0.2000E+01
     -3.697  0.3048E-01  0.2001E+01
     -3.656  0.1332E+01  0.2057E+01
     -3.614  0.1605E+02  0.2724E+01
     -3.573  0.5500E+02  0.5011E+01
     -3.531  0.5473E+02  0.7287E+01
     -3.490  0.1582E+02  0.7945E+01
     -3.448  0.1299E+01  0.7999E+01
     -3.406  0.2943E-01  0.8000E+01
     -3.365  0.1788E-03  0.8000E+01
     -3.323  0.2858E-06  0.8000E+01
     -3.282  0.1184E-09  0.8000E+01
     -3.240  0.1602E-13  0.8000E+01
     -3.198  0.0000E+00  0.8000E+01
     -3.157  0.0000E+00  0.8000E+01
     -3.115  0.0000E+00  0.8000E+01
     -3.074  0.0000E+00  0.8000E+01
     -3.032  0.0000E+00  0.8000E+01
     -2.991  0.0000E+00  0.8000E+01
     -2.949  0.0000E+00  0.8000E+01
     -2.907  0.0000E+00  0.8000E+01
     -2.866  0.0000E+00  0.8000E+01
     -2.824  0.0000E+00  0.8000E+01
     -2.783  0.0000E+00  0.8000E+01
     -2.741  0.0000E+00  0.8000E+01
     -2.699  0.0000E+00  0.8000E+01
     -2.658  0.0000E+00  0.8000E+01
     -2.616  0.0000E+00  0.8000E+01
     -2.575  0.0000E+00  0.8000E+01
     -2.533  0.0000E+00  0.8000E+01
     -2.491  0.0000E+00  0.8000E+01
     -2.450  0.0000E+00  0.8000E+01
     -2.408  0.0000E+00  0.8000E+01
     -2.367  0.0000E+00  0.8000E+01
     -2.325  0.0000E+00  0.8000E+01
     -2.284  0.0000E+00  0.8000E+01
     -2.242  0.0000E+00  0.8000E+01
     -2.200  0.0000E+00  0.8000E+01
     -2.159  0.0000E+00  0.8000E+01
     -2.117  0.0000E+00  0.8000E+01
     -2.076  0.0000E+00  0.8000E+01
     -2.034  0.0000E+00  0.8000E+01
     -1.992  0.0000E+00  0.8000E+01
     -1.951  0.0000E+00  0.8000E+01
     -1.909  0.0000E+00  0.8000E+01
     -1.868  0.0000E+00  0.8000E+01
     -1.826  0.0000E+00  0.8000E+01
     -1.785  0.0000E+00  0.8000E+01
     -1.743  0.0000E+00  0.8000E+01
     -1.701  0.0000E+00  0.8000E+01
     -1.660  0.0000E+00  0.8000E+01
     -1.618  0.0000E+00  0.8000E+01
     -1.577  0.0000E+00  0.8000E+01
     -1.535  0.0000E+00  0.8000E+01
     -1.493  0.0000E+00  0.8000E+01
     -1.452  0.0000E+00  0.8000E+01
     -1.410  0.0000E+00  0.8000E+01
     -1.369  0.0000E+00  0.8000E+01
     -1.327  0.0000E+00  0.8000E+01
     -1.286  0.0000E+00  0.8000E+01
     -1.244  0.0000E+00  0.8000E+01
     -1.202  0.0000E+00  0.8000E+01
     -1.161  0.0000E+00  0.8000E+01
     -1.119  0.0000E+00  0.8000E+01
     -1.078  0.0000E+00  0.8000E+01
     -1.036  0.0000E+00  0.8000E+01
     -0.994  0.0000E+00  0.8000E+01
     -0.953  0.0000E+00  0.8000E+01
     -0.911  0.0000E+00  0.8000E+01
     -0.870  0.0000E+00  0.8000E+01
     -0.828  0.0000E+00  0.8000E+01
     -0.786  0.0000E+00  0.8000E+01
     -0.745  0.0000E+00  0.8000E+01
     -0.703  0.0000E+00  0.8000E+01
     -0.662  0.0000E+00  0.8000E+01
     -0.620  0.0000E+00  0.8000E+01
     -0.579  0.0000E+00  0.8000E+01
     -0.537  0.1585E-14  0.8000E+01
     -0.495  0.1027E-10  0.8000E+01
     -0.454  0.1769E-07  0.8000E+01
     -0.412  0.8412E-05  0.8000E+01
     -0.371  0.1148E-02  0.8000E+01
     -0.329  0.4768E-01  0.8002E+01
     -0.287  0.6582E+00  0.8029E+01
     -0.246  0.3433E+01  0.8172E+01
     -0.204  0.8102E+01  0.8509E+01
     -0.163  0.1077E+02  0.8957E+01
     -0.121  0.1025E+02  0.9383E+01
     -0.080  0.8240E+01  0.9726E+01
     -0.038  0.4816E+01  0.9926E+01
      0.004  0.1588E+01  0.9992E+01
      0.045  0.6937E+00  0.1002E+02
      0.087  0.2334E+01  0.1012E+02
      0.128  0.6128E+01  0.1037E+02
      0.170  0.1072E+02  0.1082E+02
      0.212  0.1418E+02  0.1141E+02
      0.253  0.1563E+02  0.1206E+02
      0.295  0.1575E+02  0.1271E+02
      0.336  0.1591E+02  0.1337E+02
      0.378  0.1619E+02  0.1405E+02
      0.419  0.1652E+02  0.1473E+02
      0.461  0.1763E+02  0.1547E+02
      0.503  0.1846E+02  0.1624E+02
      0.544  0.1844E+02  0.1700E+02
      0.586  0.1900E+02  0.1779E+02
      0.627  0.1990E+02  0.1862E+02
      0.669  0.2034E+02  0.1947E+02
      0.711  0.2103E+02  0.2034E+02
      0.752  0.2243E+02  0.2127E+02
      0.794  0.2231E+02  0.2220E+02
      0.835  0.2186E+02  0.2311E+02
      0.877  0.2339E+02  0.2408E+02
      0.919  0.2449E+02  0.2510E+02
      0.960  0.2416E+02  0.2611E+02
      1.002  0.2487E+02  0.2714E+02
      1.043  0.2587E+02  0.2822E+02
      1.085  0.2595E+02  0.2930E+02
      1.126  0.2603E+02  0.3038E+02
      1.168  0.2682E+02  0.3149E+02
      1.210  0.2767E+02  0.3264E+02
      1.251  0.2724E+02  0.3378E+02
      1.293  0.2746E+02  0.3492E+02
      1.334  0.2851E+02  0.3610E+02
      1.376  0.2853E+02  0.3729E+02
      1.418  0.2826E+02  0.3847E+02
      1.459  0.2932E+02  0.3968E+02
      1.501  0.3084E+02  0.4097E+02
      1.542  0.2993E+02  0.4221E+02
      1.584  0.2952E+02  0.4344E+02
      1.625  0.3002E+02  0.4469E+02
      1.667  0.2757E+02  0.4583E+02
      1.709  0.2107E+02  0.4671E+02
      1.750  0.1394E+02  0.4729E+02
      1.792  0.8254E+01  0.4763E+02
      1.833  0.4761E+01  0.4783E+02
      1.875  0.2552E+01  0.4794E+02
      1.917  0.1080E+01  0.4798E+02
      1.958  0.3429E+00  0.4800E+02
      2.000  0.7238E-01  0.4800E+02
      2.041  0.6992E-02  0.4800E+02
      2.083  0.2227E-03  0.4800E+02
      2.124  0.2024E-05  0.4800E+02
      2.166  0.4969E-08  0.4800E+02
      2.208  0.3216E-11  0.4800E+02
      2.249  0.5424E-15  0.4800E+02
      2.291  0.0000E+00  0.4800E+02
      2.332  0.0000E+00  0.4800E+02
      2.374  0.0000E+00  0.4800E+02
      2.416  0.0000E+00  0.4800E+02
      2.457  0.0000E+00  0.4800E+02
      2.499  0.0000E+00  0.4800E+02
