  14  14   0   0
  0.1020427E+02  0.5694152E-09  0.4045876E-09  0.6201098E-09  0.5000000E-15
  1.000000000000000E-004
  CAR 
 Convergence                             
     18.00053008    -14.18976716  301      1.89282137      1.00000000
    -14.190  0.0000E+00  0.0000E+00
    -14.082  0.0000E+00  0.0000E+00
    -13.975  0.0000E+00  0.0000E+00
    -13.868  0.0000E+00  0.0000E+00
    -13.761  0.0000E+00  0.0000E+00
    -13.653  0.0000E+00  0.0000E+00
    -13.546  0.0000E+00  0.0000E+00
    -13.439  0.0000E+00  0.0000E+00
    -13.331  0.0000E+00  0.0000E+00
    -13.224  0.0000E+00  0.0000E+00
    -13.117  0.0000E+00  0.0000E+00
    -13.009  0.4270E-16  0.4582E-17
    -12.902  0.2894E-07  0.3105E-08
    -12.795  0.3794E-02  0.4071E-03
    -12.688  0.5080E+00  0.5491E-01
    -12.580  0.2389E+01  0.3112E+00
    -12.473  0.3560E+01  0.6933E+00
    -12.366  0.4369E+01  0.1162E+01
    -12.258  0.3539E+01  0.1542E+01
    -12.151  0.2734E+01  0.1835E+01
    -12.044  0.2749E+01  0.2130E+01
    -11.936  0.2507E+01  0.2399E+01
    -11.829  0.2771E+01  0.2697E+01
    -11.722  0.3433E+01  0.3065E+01
    -11.615  0.3535E+01  0.3444E+01
    -11.507  0.3106E+01  0.3777E+01
    -11.400  0.1656E+01  0.3955E+01
    -11.293  0.4124E+00  0.3999E+01
    -11.185  0.6718E-02  0.4000E+01
    -11.078  0.1461E-06  0.4000E+01
    -10.971  0.6832E-15  0.4000E+01
    -10.863  0.0000E+00  0.4000E+01
    -10.756  0.0000E+00  0.4000E+01
    -10.649  0.0000E+00  0.4000E+01
    -10.542  0.0000E+00  0.4000E+01
    -10.434  0.0000E+00  0.4000E+01
    -10.327  0.0000E+00  0.4000E+01
    -10.220  0.0000E+00  0.4000E+01
    -10.112  0.0000E+00  0.4000E+01
    -10.005  0.0000E+00  0.4000E+01
     -9.898  0.0000E+00  0.4000E+01
     -9.790  0.0000E+00  0.4000E+01
     -9.683  0.0000E+00  0.4000E+01
     -9.576  0.0000E+00  0.4000E+01
     -9.469  0.0000E+00  0.4000E+01
     -9.361  0.0000E+00  0.4000E+01
     -9.254  0.0000E+00  0.4000E+01
     -9.147  0.0000E+00  0.4000E+01
     -9.039  0.8853E-09  0.4000E+01
     -8.932  0.6080E-03  0.4000E+01
     -8.825  0.2740E+00  0.4029E+01
     -8.717  0.2083E+01  0.4253E+01
     -8.610  0.5314E+01  0.4823E+01
     -8.503  0.6978E+01  0.5572E+01
     -8.396  0.6303E+01  0.6248E+01
     -8.288  0.5324E+01  0.6820E+01
     -8.181  0.4831E+01  0.7338E+01
     -8.074  0.3876E+01  0.7754E+01
     -7.966  0.1667E+01  0.7933E+01
     -7.859  0.5767E+00  0.7994E+01
     -7.752  0.5164E-01  0.8000E+01
     -7.644  0.2347E-04  0.8000E+01
     -7.537  0.2545E-11  0.8000E+01
     -7.430  0.0000E+00  0.8000E+01
     -7.323  0.0000E+00  0.8000E+01
     -7.215  0.0000E+00  0.8000E+01
     -7.108  0.5118E-09  0.8000E+01
     -7.001  0.4113E-03  0.8000E+01
     -6.893  0.1141E+00  0.8012E+01
     -6.786  0.2570E+00  0.8040E+01
     -6.679  0.4269E+00  0.8086E+01
     -6.571  0.7660E+00  0.8168E+01
     -6.464  0.8536E+00  0.8259E+01
     -6.357  0.1449E+01  0.8415E+01
     -6.249  0.1974E+01  0.8627E+01
     -6.142  0.3059E+01  0.8955E+01
     -6.035  0.3778E+01  0.9360E+01
     -5.928  0.4110E+01  0.9801E+01
     -5.820  0.4042E+01  0.1024E+02
     -5.713  0.3853E+01  0.1065E+02
     -5.606  0.4071E+01  0.1109E+02
     -5.498  0.4222E+01  0.1154E+02
     -5.391  0.4536E+01  0.1203E+02
     -5.284  0.4589E+01  0.1252E+02
     -5.176  0.4488E+01  0.1300E+02
     -5.069  0.3863E+01  0.1341E+02
     -4.962  0.3230E+01  0.1376E+02
     -4.855  0.2943E+01  0.1408E+02
     -4.747  0.2349E+01  0.1433E+02
     -4.640  0.2896E+01  0.1464E+02
     -4.533  0.3367E+01  0.1500E+02
     -4.425  0.3482E+01  0.1537E+02
     -4.318  0.3319E+01  0.1573E+02
     -4.211  0.2951E+01  0.1605E+02
     -4.103  0.2906E+01  0.1636E+02
     -3.996  0.2951E+01  0.1667E+02
     -3.889  0.2852E+01  0.1698E+02
     -3.782  0.3124E+01  0.1732E+02
     -3.674  0.2865E+01  0.1762E+02
     -3.567  0.2704E+01  0.1791E+02
     -3.460  0.3059E+01  0.1824E+02
     -3.352  0.2629E+01  0.1852E+02
     -3.245  0.2874E+01  0.1883E+02
     -3.138  0.2725E+01  0.1912E+02
     -3.030  0.2751E+01  0.1942E+02
     -2.923  0.3031E+01  0.1975E+02
     -2.816  0.2970E+01  0.2006E+02
     -2.709  0.2424E+01  0.2032E+02
     -2.601  0.2665E+01  0.2061E+02
     -2.494  0.3024E+01  0.2093E+02
     -2.387  0.2978E+01  0.2125E+02
     -2.279  0.3198E+01  0.2160E+02
     -2.172  0.4016E+01  0.2203E+02
     -2.065  0.3655E+01  0.2242E+02
     -1.957  0.3295E+01  0.2277E+02
     -1.850  0.5182E+01  0.2333E+02
     -1.743  0.5602E+01  0.2393E+02
     -1.636  0.5585E+01  0.2453E+02
     -1.528  0.6185E+01  0.2519E+02
     -1.421  0.6096E+01  0.2585E+02
     -1.314  0.5547E+01  0.2644E+02
     -1.206  0.4686E+01  0.2695E+02
     -1.099  0.6493E+01  0.2764E+02
     -0.992  0.3899E+01  0.2806E+02
     -0.884  0.2266E+01  0.2830E+02
     -0.777  0.2696E+01  0.2859E+02
     -0.670  0.2880E+01  0.2890E+02
     -0.563  0.4564E+01  0.2939E+02
     -0.455  0.6877E+01  0.3013E+02
     -0.348  0.5652E+01  0.3074E+02
     -0.241  0.6728E+01  0.3146E+02
     -0.133  0.6356E+01  0.3214E+02
     -0.026  0.6751E+01  0.3286E+02
      0.081  0.6721E+01  0.3359E+02
      0.189  0.6324E+01  0.3426E+02
      0.296  0.8791E+01  0.3521E+02
      0.403  0.7935E+01  0.3606E+02
      0.510  0.8705E+01  0.3699E+02
      0.618  0.5183E+01  0.3755E+02
      0.725  0.2904E+01  0.3786E+02
      0.832  0.3318E+01  0.3822E+02
      0.940  0.3586E+01  0.3860E+02
      1.047  0.3547E+01  0.3898E+02
      1.154  0.2787E+01  0.3928E+02
      1.262  0.3406E+01  0.3965E+02
      1.369  0.4503E+01  0.4013E+02
      1.476  0.3763E+01  0.4053E+02
      1.583  0.3736E+01  0.4093E+02
      1.691  0.4569E+01  0.4142E+02
      1.798  0.3178E+01  0.4177E+02
      1.905  0.2483E+01  0.4203E+02
      2.013  0.2650E+01  0.4232E+02
      2.120  0.2093E+01  0.4254E+02
      2.227  0.2653E+01  0.4283E+02
      2.335  0.2553E+01  0.4310E+02
      2.442  0.1916E+01  0.4331E+02
      2.549  0.8283E+00  0.4339E+02
      2.656  0.3783E+00  0.4344E+02
      2.764  0.5707E+00  0.4350E+02
      2.871  0.4190E+00  0.4354E+02
      2.978  0.3059E+00  0.4357E+02
      3.086  0.7700E+00  0.4366E+02
      3.193  0.1009E+01  0.4377E+02
      3.300  0.5219E+00  0.4382E+02
      3.408  0.1155E-01  0.4382E+02
      3.515  0.1367E+00  0.4384E+02
      3.622  0.3974E+00  0.4388E+02
      3.729  0.3253E+00  0.4391E+02
      3.837  0.3762E+00  0.4395E+02
      3.944  0.3963E+00  0.4400E+02
      4.051  0.2419E-01  0.4400E+02
      4.159  0.4542E-04  0.4400E+02
      4.266  0.3748E-01  0.4400E+02
      4.373  0.1814E+00  0.4402E+02
      4.481  0.4068E+00  0.4407E+02
      4.588  0.4802E+00  0.4412E+02
      4.695  0.6408E+00  0.4419E+02
      4.803  0.8940E+00  0.4428E+02
      4.910  0.8446E+00  0.4437E+02
      5.017  0.8561E+00  0.4447E+02
      5.124  0.1284E+01  0.4460E+02
      5.232  0.1143E+01  0.4473E+02
      5.339  0.1648E+01  0.4490E+02
      5.446  0.2208E+01  0.4514E+02
      5.554  0.2483E+01  0.4541E+02
      5.661  0.2785E+01  0.4571E+02
      5.768  0.3395E+01  0.4607E+02
      5.876  0.3206E+01  0.4641E+02
      5.983  0.4338E+01  0.4688E+02
      6.090  0.4734E+01  0.4739E+02
      6.197  0.4034E+01  0.4782E+02
      6.305  0.4630E+01  0.4832E+02
      6.412  0.4103E+01  0.4876E+02
      6.519  0.4043E+01  0.4919E+02
      6.627  0.4458E+01  0.4967E+02
      6.734  0.3219E+01  0.5001E+02
      6.841  0.4012E+01  0.5044E+02
      6.949  0.4614E+01  0.5094E+02
      7.056  0.4538E+01  0.5143E+02
      7.163  0.4341E+01  0.5189E+02
      7.270  0.5609E+01  0.5249E+02
      7.378  0.4893E+01  0.5302E+02
      7.485  0.4442E+01  0.5350E+02
      7.592  0.4173E+01  0.5394E+02
      7.700  0.3556E+01  0.5433E+02
      7.807  0.3133E+01  0.5466E+02
      7.914  0.3000E+01  0.5498E+02
      8.022  0.2985E+01  0.5530E+02
      8.129  0.4171E+01  0.5575E+02
      8.236  0.3873E+01  0.5617E+02
      8.343  0.3668E+01  0.5656E+02
      8.451  0.3985E+01  0.5699E+02
      8.558  0.4200E+01  0.5744E+02
      8.665  0.4443E+01  0.5792E+02
      8.773  0.4197E+01  0.5837E+02
      8.880  0.5232E+01  0.5893E+02
      8.987  0.4996E+01  0.5946E+02
      9.095  0.5294E+01  0.6003E+02
      9.202  0.5243E+01  0.6059E+02
      9.309  0.4951E+01  0.6113E+02
      9.416  0.4701E+01  0.6163E+02
      9.524  0.4357E+01  0.6210E+02
      9.631  0.5109E+01  0.6265E+02
      9.738  0.5023E+01  0.6318E+02
      9.846  0.5307E+01  0.6375E+02
      9.953  0.4473E+01  0.6423E+02
     10.060  0.3618E+01  0.6462E+02
     10.168  0.5170E+01  0.6518E+02
     10.275  0.4713E+01  0.6568E+02
     10.382  0.4100E+01  0.6612E+02
     10.489  0.5448E+01  0.6671E+02
     10.597  0.5799E+01  0.6733E+02
     10.704  0.4059E+01  0.6776E+02
     10.811  0.3874E+01  0.6818E+02
     10.919  0.3220E+01  0.6853E+02
     11.026  0.4662E+01  0.6903E+02
     11.133  0.5510E+01  0.6962E+02
     11.241  0.6152E+01  0.7028E+02
     11.348  0.5987E+01  0.7092E+02
     11.455  0.5319E+01  0.7149E+02
     11.562  0.4260E+01  0.7195E+02
     11.670  0.4472E+01  0.7243E+02
     11.777  0.4915E+01  0.7295E+02
     11.884  0.4800E+01  0.7347E+02
     11.992  0.6046E+01  0.7412E+02
     12.099  0.5942E+01  0.7476E+02
     12.206  0.5958E+01  0.7540E+02
     12.314  0.5640E+01  0.7600E+02
     12.421  0.5018E+01  0.7654E+02
     12.528  0.5671E+01  0.7715E+02
     12.635  0.5999E+01  0.7779E+02
     12.743  0.6050E+01  0.7844E+02
     12.850  0.5865E+01  0.7907E+02
     12.957  0.5853E+01  0.7970E+02
     13.065  0.5585E+01  0.8030E+02
     13.172  0.6348E+01  0.8098E+02
     13.279  0.6246E+01  0.8165E+02
     13.387  0.5361E+01  0.8222E+02
     13.494  0.6139E+01  0.8288E+02
     13.601  0.5306E+01  0.8345E+02
     13.708  0.4803E+01  0.8397E+02
     13.816  0.6107E+01  0.8462E+02
     13.923  0.5525E+01  0.8522E+02
     14.030  0.5335E+01  0.8579E+02
     14.138  0.5474E+01  0.8638E+02
     14.245  0.4691E+01  0.8688E+02
     14.352  0.4883E+01  0.8740E+02
     14.460  0.5041E+01  0.8794E+02
     14.567  0.4969E+01  0.8848E+02
     14.674  0.5271E+01  0.8904E+02
     14.782  0.5154E+01  0.8960E+02
     14.889  0.4090E+01  0.9003E+02
     14.996  0.5105E+01  0.9058E+02
     15.103  0.6202E+01  0.9125E+02
     15.211  0.5618E+01  0.9185E+02
     15.318  0.5653E+01  0.9246E+02
     15.425  0.6040E+01  0.9310E+02
     15.533  0.5721E+01  0.9372E+02
     15.640  0.5929E+01  0.9435E+02
     15.747  0.4581E+01  0.9485E+02
     15.855  0.2455E+01  0.9511E+02
     15.962  0.2703E+01  0.9540E+02
     16.069  0.1868E+01  0.9560E+02
     16.176  0.1150E+01  0.9572E+02
     16.284  0.8863E+00  0.9582E+02
     16.391  0.7006E+00  0.9589E+02
     16.498  0.8120E+00  0.9598E+02
     16.606  0.1763E+00  0.9600E+02
     16.713  0.1674E-02  0.9600E+02
     16.820  0.2022E-07  0.9600E+02
     16.928  0.3942E-16  0.9600E+02
     17.035  0.0000E+00  0.9600E+02
     17.142  0.0000E+00  0.9600E+02
     17.249  0.0000E+00  0.9600E+02
     17.357  0.0000E+00  0.9600E+02
     17.464  0.0000E+00  0.9600E+02
     17.571  0.0000E+00  0.9600E+02
     17.679  0.0000E+00  0.9600E+02
     17.786  0.0000E+00  0.9600E+02
     17.893  0.0000E+00  0.9600E+02
     18.001  0.0000E+00  0.9600E+02
