   14   14    1    1
  0.1020427E+02  0.5694152E-09  0.4045876E-09  0.6201098E-09  0.5000000E-15
  1.000000000000000E-004
  CAR 
 Convergence                             
     42    175     48
 
  0.5000000E-01  0.3571429E-01  0.0000000E+00  0.3174603E-02
      1        -12.726572   1.000000
      2        -11.584464   1.000000
      3         -8.655732   1.000000
      4         -8.418797   1.000000
      5         -6.059411   1.000000
      6         -5.125543   1.000000
      7         -4.660791   1.000000
      8         -4.272115   1.000000
      9         -4.028882   1.000000
     10         -3.539107   1.000000
     11         -2.586833   1.000000
     12         -2.317596   1.000000
     13         -1.826183   1.000000
     14         -1.089241   1.000000
     15         -0.063678   1.000000
     16         -0.033612   1.000000
     17          0.164290   1.000000
     18          0.186427   1.000000
     19          0.573783   1.000000
     20          2.027137   0.000073
     21          2.090434   0.000000
     22          2.226828   0.000000
     23          5.469665   0.000000
     24          5.761046   0.000000
     25          5.850976   0.000000
     26          5.971091   0.000000
     27          6.827897   0.000000
     28          7.561877   0.000000
     29          7.891988   0.000000
     30          8.552726   0.000000
     31          8.822510   0.000000
     32          8.967715   0.000000
     33          9.074974   0.000000
     34         10.137747   0.000000
     35         11.197420   0.000000
     36         11.353716   0.000000
     37         11.684784   0.000000
     38         11.800269   0.000000
     39         11.957399   0.000000
     40         12.418544   0.000000
     41         12.888969   0.000000
     42         13.473332   0.000000
     43         13.500529   0.000000
     44         15.407358   0.000000
     45         15.594697   0.000000
     46         16.086836   0.000000
     47         16.355542   0.000000
     48         16.379634   0.000000
 
  0.1500000E+00  0.3571429E-01  0.0000000E+00  0.3174603E-02
      1        -12.682808   1.000000
      2        -11.658236   1.000000
      3         -8.634681   1.000000
      4         -8.407295   1.000000
      5         -5.991107   1.000000
      6         -5.467295   1.000000
      7         -4.783806   1.000000
      8         -4.005844   1.000000
      9         -3.788005   1.000000
     10         -3.200988   1.000000
     11         -2.657207   1.000000
     12         -2.297401   1.000000
     13         -1.905209   1.000000
     14         -1.396350   1.000000
     15         -0.023256   1.000000
     16         -0.010668   1.000000
     17          0.101084   1.000000
     18          0.206294   1.000000
     19          0.478736   1.000000
     20          1.940845   0.087182
     21          2.012432   0.000358
     22          2.105453   0.000000
     23          5.558255   0.000000
     24          5.770521   0.000000
     25          5.877610   0.000000
     26          6.317328   0.000000
     27          6.742178   0.000000
     28          7.199636   0.000000
     29          8.103091   0.000000
     30          8.689058   0.000000
     31          9.081066   0.000000
     32          9.151140   0.000000
     33          9.222009   0.000000
     34         10.252497   0.000000
     35         10.960752   0.000000
     36         11.149635   0.000000
     37         11.270672   0.000000
     38         11.717077   0.000000
     39         12.174774   0.000000
     40         12.508551   0.000000
     41         13.142354   0.000000
     42         13.148484   0.000000
     43         14.033069   0.000000
     44         14.894717   0.000000
     45         15.773064   0.000000
     46         15.850743   0.000000
     47         16.250902   0.000000
     48         16.537335   0.000000
 
  0.2500000E+00  0.3571429E-01  0.0000000E+00  0.3174603E-02
      1        -12.597149   1.000000
      2        -11.791175   1.000000
      3         -8.591143   1.000000
      4         -8.392585   1.000000
      5         -5.969595   1.000000
      6         -5.794252   1.000000
      7         -4.738070   1.000000
      8         -3.878022   1.000000
      9         -3.276794   1.000000
     10         -2.826421   1.000000
     11         -2.708025   1.000000
     12         -2.256765   1.000000
     13         -2.016324   1.000000
     14         -1.900901   1.000000
     15         -0.210463   1.000000
     16          0.021084   1.000000
     17          0.151465   1.000000
     18          0.163638   1.000000
     19          0.448473   1.000000
     20          1.793229   0.997575
     21          1.875331   0.689592
     22          1.879543   0.646377
     23          5.678950   0.000000
     24          5.727108   0.000000
     25          6.186768   0.000000
     26          6.615866   0.000000
     27          6.776415   0.000000
     28          6.944854   0.000000
     29          8.254751   0.000000
     30          8.837303   0.000000
     31          9.020331   0.000000
     32          9.595080   0.000000
     33          9.665617   0.000000
     34         10.298585   0.000000
     35         10.504970   0.000000
     36         10.645217   0.000000
     37         11.391872   0.000000
     38         11.858658   0.000000
     39         12.409845   0.000000
     40         12.587115   0.000000
     41         12.810160   0.000000
     42         12.940144   0.000000
     43         14.659339   0.000000
     44         14.941914   0.000000
     45         15.246064   0.000000
     46         16.006876   0.000000
     47         16.025243   0.000000
     48         16.316437   0.000000
 
  0.3500000E+00  0.3571429E-01  0.0000000E+00  0.3174603E-02
      1        -12.473595   1.000000
      2        -11.960536   1.000000
      3         -8.529334   1.000000
      4         -8.389426   1.000000
      5         -6.050691   1.000000
      6         -6.027441   1.000000
      7         -4.410348   1.000000
      8         -3.708710   1.000000
      9         -3.020881   1.000000
     10         -2.891801   1.000000
     11         -2.438465   1.000000
     12         -2.246223   1.000000
     13         -2.137939   1.000000
     14         -2.117901   1.000000
     15         -0.509556   1.000000
     16         -0.236645   1.000000
     17          0.179354   1.000000
     18          0.255016   1.000000
     19          0.621797   1.000000
     20          1.539456   1.000000
     21          1.670093   1.000000
     22          1.731036   0.999998
     23          5.711597   0.000000
     24          5.764406   0.000000
     25          6.514171   0.000000
     26          6.685395   0.000000
     27          6.711426   0.000000
     28          7.427256   0.000000
     29          8.379629   0.000000
     30          8.704932   0.000000
     31          8.827779   0.000000
     32          9.551940   0.000000
     33         10.075581   0.000000
     34         10.135930   0.000000
     35         10.417812   0.000000
     36         11.171026   0.000000
     37         11.421420   0.000000
     38         11.967016   0.000000
     39         12.223258   0.000000
     40         12.296296   0.000000
     41         12.538809   0.000000
     42         13.275393   0.000000
     43         14.732517   0.000000
     44         14.998491   0.000000
     45         15.288822   0.000000
     46         15.396889   0.000000
     47         15.596547   0.000000
     48         16.400962   0.000000
 
  0.4500000E+00  0.3571429E-01  0.0000000E+00  0.3174603E-02
      1        -12.318814   1.000000
      2        -12.142931   1.000000
      3         -8.463170   1.000000
      4         -8.412109   1.000000
      5         -6.140970   1.000000
      6         -6.136316   1.000000
      7         -3.894591   1.000000
      8         -3.499065   1.000000
      9         -3.294831   1.000000
     10         -3.260482   1.000000
     11         -2.356600   1.000000
     12         -2.227296   1.000000
     13         -1.953919   1.000000
     14         -1.901745   1.000000
     15         -0.730046   1.000000
     16         -0.594809   1.000000
     17          0.262746   1.000000
     18          0.296474   1.000000
     19          0.882739   1.000000
     20          1.200384   1.000000
     21          1.589441   1.000000
     22          1.616998   1.000000
     23          5.739245   0.000000
     24          5.776174   0.000000
     25          6.492339   0.000000
     26          6.556147   0.000000
     27          7.381467   0.000000
     28          8.089129   0.000000
     29          8.110096   0.000000
     30          8.497873   0.000000
     31          8.637128   0.000000
     32          8.805731   0.000000
     33         10.518933   0.000000
     34         10.536169   0.000000
     35         10.780950   0.000000
     36         11.239322   0.000000
     37         11.424001   0.000000
     38         11.621880   0.000000
     39         11.955970   0.000000
     40         12.502424   0.000000
     41         12.734395   0.000000
     42         13.271415   0.000000
     43         14.609752   0.000000
     44         14.757853   0.000000
     45         14.889913   0.000000
     46         14.948394   0.000000
     47         16.127382   0.000000
     48         16.471582   0.000000
 
  0.5000000E-01  0.1071429E+00  0.0000000E+00  0.3174603E-02
      1        -12.702525   1.000000
      2        -11.562897   1.000000
      3         -8.636897   1.000000
      4         -8.395605   1.000000
      5         -6.032570   1.000000
      6         -5.091783   1.000000
      7         -4.638673   1.000000
      8         -4.570122   1.000000
      9         -4.172955   1.000000
     10         -3.516175   1.000000
     11         -3.280549   1.000000
     12         -1.786747   1.000000
     13         -1.084651   1.000000
     14         -1.026878   1.000000
     15         -0.297770   1.000000
     16         -0.269766   1.000000
     17          0.177782   1.000000
     18          0.256701   1.000000
     19          0.652279   1.000000
     20          1.758982   0.999923
     21          1.839167   0.935440
     22          2.279116   0.000000
     23          5.587404   0.000000
     24          5.720159   0.000000
     25          5.753115   0.000000
     26          6.020500   0.000000
     27          7.114498   0.000000
     28          7.847655   0.000000
     29          8.093067   0.000000
     30          8.202725   0.000000
     31          8.826461   0.000000
     32          9.120453   0.000000
     33          9.170517   0.000000
     34         10.591098   0.000000
     35         11.284730   0.000000
     36         11.413406   0.000000
     37         11.618506   0.000000
     38         11.903246   0.000000
     39         12.068002   0.000000
     40         12.699499   0.000000
     41         12.888765   0.000000
     42         13.209135   0.000000
     43         13.216057   0.000000
     44         15.355239   0.000000
     45         15.405981   0.000000
     46         15.881321   0.000000
     47         15.895068   0.000000
     48         16.244842   0.000000
 
  0.1500000E+00  0.1071429E+00  0.0000000E+00  0.3174603E-02
      1        -12.658858   1.000000
      2        -11.636518   1.000000
      3         -8.615705   1.000000
      4         -8.384484   1.000000
      5         -5.962477   1.000000
      6         -5.437190   1.000000
      7         -4.763719   1.000000
      8         -4.486759   1.000000
      9         -3.748342   1.000000
     10         -3.361559   1.000000
     11         -3.162767   1.000000
     12         -1.764980   1.000000
     13         -1.390935   1.000000
     14         -1.146681   1.000000
     15         -0.258675   1.000000
     16         -0.188185   1.000000
     17          0.145531   1.000000
     18          0.227672   1.000000
     19          0.549596   1.000000
     20          1.678360   1.000000
     21          1.762625   0.999885
     22          2.148094   0.000000
     23          5.663152   0.000000
     24          5.818567   0.000000
     25          5.948548   0.000000
     26          6.123907   0.000000
     27          7.030856   0.000000
     28          7.522253   0.000000
     29          8.238910   0.000000
     30          8.374409   0.000000
     31          9.152318   0.000000
     32          9.180020   0.000000
     33          9.434763   0.000000
     34         10.517514   0.000000
     35         10.891575   0.000000
     36         11.102018   0.000000
     37         11.468118   0.000000
     38         11.889958   0.000000
     39         12.287877   0.000000
     40         12.755974   0.000000
     41         12.886326   0.000000
     42         13.172612   0.000000
     43         13.749723   0.000000
     44         14.980059   0.000000
     45         15.422108   0.000000
     46         15.771916   0.000000
     47         15.820338   0.000000
     48         16.424992   0.000000
 
  0.2500000E+00  0.1071429E+00  0.0000000E+00  0.3174603E-02
      1        -12.573397   1.000000
      2        -11.769189   1.000000
      3         -8.571960   1.000000
      4         -8.370480   1.000000
      5         -5.938194   1.000000
      6         -5.763805   1.000000
      7         -4.721381   1.000000
      8         -4.377855   1.000000
      9         -3.483841   1.000000
     10         -3.222011   1.000000
     11         -2.695809   1.000000
     12         -1.896333   1.000000
     13         -1.720558   1.000000
     14         -1.310456   1.000000
     15         -0.212905   1.000000
     16         -0.211129   1.000000
     17          0.059378   1.000000
     18          0.214884   1.000000
     19          0.473109   1.000000
     20          1.543202   1.000000
     21          1.632391   1.000000
     22          1.899510   0.424972
     23          5.868772   0.000000
     24          5.946036   0.000000
     25          6.023552   0.000000
     26          6.573358   0.000000
     27          6.909849   0.000000
     28          7.294049   0.000000
     29          8.444942   0.000000
     30          8.508060   0.000000
     31          9.121231   0.000000
     32          9.632614   0.000000
     33          9.891705   0.000000
     34         10.141995   0.000000
     35         10.371622   0.000000
     36         10.843101   0.000000
     37         11.534784   0.000000
     38         12.124183   0.000000
     39         12.328516   0.000000
     40         12.572093   0.000000
     41         12.979759   0.000000
     42         13.040790   0.000000
     43         14.327115   0.000000
     44         15.110719   0.000000
     45         15.184379   0.000000
     46         15.669108   0.000000
     47         15.731189   0.000000
     48         16.445033   0.000000
 
  0.3500000E+00  0.1071429E+00  0.0000000E+00  0.3174603E-02
      1        -12.450114   1.000000
      2        -11.938178   1.000000
      3         -8.509902   1.000000
      4         -8.368212   1.000000
      5         -6.018077   1.000000
      6         -5.996086   1.000000
      7         -4.395798   1.000000
      8         -4.230358   1.000000
      9         -3.655926   1.000000
     10         -2.841734   1.000000
     11         -2.356605   1.000000
     12         -2.212194   1.000000
     13         -1.656105   1.000000
     14         -1.474125   1.000000
     15         -0.470812   1.000000
     16         -0.300363   1.000000
     17          0.091684   1.000000
     18          0.121230   1.000000
     19          0.632524   1.000000
     20          1.403532   1.000000
     21          1.486782   1.000000
     22          1.575048   1.000000
     23          5.887026   0.000000
     24          6.019802   0.000000
     25          6.529036   0.000000
     26          6.819869   0.000000
     27          6.892524   0.000000
     28          7.385446   0.000000
     29          8.432797   0.000000
     30          8.616356   0.000000
     31          8.957982   0.000000
     32          9.386898   0.000000
     33         10.090627   0.000000
     34         10.117999   0.000000
     35         10.459175   0.000000
     36         11.248495   0.000000
     37         11.381794   0.000000
     38         11.860886   0.000000
     39         12.315667   0.000000
     40         12.563170   0.000000
     41         12.739262   0.000000
     42         13.478407   0.000000
     43         14.787525   0.000000
     44         14.794605   0.000000
     45         15.177565   0.000000
     46         15.329607   0.000000
     47         15.676245   0.000000
     48         16.413717   0.000000
 
  0.4500000E+00  0.1071429E+00  0.0000000E+00  0.3174603E-02
      1        -12.295675   1.000000
      2        -12.120180   1.000000
      3         -8.443400   1.000000
      4         -8.391746   1.000000
      5         -6.108797   1.000000
      6         -6.103684   1.000000
      7         -4.050864   1.000000
      8         -3.887365   1.000000
      9         -3.846114   1.000000
     10         -3.281944   1.000000
     11         -2.102864   1.000000
     12         -1.908338   1.000000
     13         -1.587951   1.000000
     14         -1.585984   1.000000
     15         -0.691646   1.000000
     16         -0.591121   1.000000
     17          0.124250   1.000000
     18          0.155524   1.000000
     19          0.892157   1.000000
     20          1.206728   1.000000
     21          1.349849   1.000000
     22          1.374096   1.000000
     23          5.937828   0.000000
     24          6.003117   0.000000
     25          6.808458   0.000000
     26          6.858834   0.000000
     27          7.197530   0.000000
     28          7.911153   0.000000
     29          7.957080   0.000000
     30          8.640704   0.000000
     31          8.709419   0.000000
     32          8.822646   0.000000
     33         10.338861   0.000000
     34         10.586853   0.000000
     35         10.823111   0.000000
     36         10.929314   0.000000
     37         11.571147   0.000000
     38         11.681312   0.000000
     39         12.035616   0.000000
     40         12.672346   0.000000
     41         13.043660   0.000000
     42         13.503417   0.000000
     43         14.570218   0.000000
     44         14.754628   0.000000
     45         14.850936   0.000000
     46         15.068295   0.000000
     47         16.151296   0.000000
     48         16.445622   0.000000
 
  0.5000000E-01  0.1785714E+00  0.0000000E+00  0.3174603E-02
      1        -12.658096   1.000000
      2        -11.523123   1.000000
      3         -8.602408   1.000000
      4         -8.352815   1.000000
      5         -5.982943   1.000000
      6         -5.127205   1.000000
      7         -5.000633   1.000000
      8         -4.596746   1.000000
      9         -4.156941   1.000000
     10         -3.903075   1.000000
     11         -3.462830   1.000000
     12         -1.198024   1.000000
     13         -1.075287   1.000000
     14         -0.642478   1.000000
     15         -0.535760   1.000000
     16         -0.167752   1.000000
     17          0.199020   1.000000
     18          0.309834   1.000000
     19          0.730888   1.000000
     20          1.375526   1.000000
     21          1.439465   1.000000
     22          2.317351   0.000000
     23          5.297224   0.000000
     24          5.463443   0.000000
     25          6.136120   0.000000
     26          6.209495   0.000000
     27          7.551117   0.000000
     28          7.639850   0.000000
     29          8.331025   0.000000
     30          8.743866   0.000000
     31          8.899656   0.000000
     32          9.263078   0.000000
     33          9.390091   0.000000
     34         10.898293   0.000000
     35         11.335742   0.000000
     36         11.590574   0.000000
     37         11.715781   0.000000
     38         12.104283   0.000000
     39         12.284316   0.000000
     40         12.764201   0.000000
     41         12.777979   0.000000
     42         13.027456   0.000000
     43         13.240890   0.000000
     44         14.700824   0.000000
     45         15.183815   0.000000
     46         15.367611   0.000000
     47         15.450318   0.000000
     48         15.986184   0.000000
 
  0.1500000E+00  0.1785714E+00  0.0000000E+00  0.3174603E-02
      1        -12.614615   1.000000
      2        -11.596461   1.000000
      3         -8.580915   1.000000
      4         -8.342398   1.000000
      5         -5.909425   1.000000
      6         -5.389184   1.000000
      7         -5.027857   1.000000
      8         -4.725889   1.000000
      9         -3.969430   1.000000
     10         -3.706057   1.000000
     11         -3.123321   1.000000
     12         -1.382691   1.000000
     13         -1.171480   1.000000
     14         -0.749369   1.000000
     15         -0.497701   1.000000
     16         -0.086912   1.000000
     17          0.180170   1.000000
     18          0.252874   1.000000
     19          0.618476   1.000000
     20          1.296307   1.000000
     21          1.369679   1.000000
     22          2.181315   0.000000
     23          5.377430   0.000000
     24          5.810094   0.000000
     25          6.155509   0.000000
     26          6.250301   0.000000
     27          7.470244   0.000000
     28          7.796411   0.000000
     29          8.063256   0.000000
     30          8.834369   0.000000
     31          9.274255   0.000000
     32          9.304000   0.000000
     33          9.675055   0.000000
     34         10.533702   0.000000
     35         10.796699   0.000000
     36         11.294039   0.000000
     37         11.733835   0.000000
     38         12.216018   0.000000
     39         12.448907   0.000000
     40         12.517544   0.000000
     41         13.182287   0.000000
     42         13.289972   0.000000
     43         13.457732   0.000000
     44         14.710265   0.000000
     45         14.844742   0.000000
     46         15.310446   0.000000
     47         15.514038   0.000000
     48         16.010175   0.000000
 
  0.2500000E+00  0.1785714E+00  0.0000000E+00  0.3174603E-02
      1        -12.529506   1.000000
      2        -11.728607   1.000000
      3         -8.536759   1.000000
      4         -8.329731   1.000000
      5         -5.879727   1.000000
      6         -5.708915   1.000000
      7         -4.936121   1.000000
      8         -4.690200   1.000000
      9         -4.093458   1.000000
     10         -3.171458   1.000000
     11         -2.651754   1.000000
     12         -1.879911   1.000000
     13         -1.130726   1.000000
     14         -0.888012   1.000000
     15         -0.444593   1.000000
     16         -0.076777   1.000000
     17          0.020818   1.000000
     18          0.264999   1.000000
     19          0.503200   1.000000
     20          1.164655   1.000000
     21          1.251251   1.000000
     22          1.924428   0.185668
     23          5.698979   0.000000
     24          6.110506   0.000000
     25          6.287164   0.000000
     26          6.379917   0.000000
     27          7.367542   0.000000
     28          7.873605   0.000000
     29          8.030216   0.000000
     30          8.962853   0.000000
     31          9.266522   0.000000
     32          9.737763   0.000000
     33          9.868080   0.000000
     34         10.156986   0.000000
     35         10.271356   0.000000
     36         11.081916   0.000000
     37         11.603320   0.000000
     38         12.122978   0.000000
     39         12.527796   0.000000
     40         12.818122   0.000000
     41         13.065359   0.000000
     42         13.464902   0.000000
     43         13.980348   0.000000
     44         14.618050   0.000000
     45         14.894619   0.000000
     46         15.329302   0.000000
     47         15.533904   0.000000
     48         16.220735   0.000000
 
  0.3500000E+00  0.1785714E+00  0.0000000E+00  0.3174603E-02
      1        -12.406742   1.000000
      2        -11.896926   1.000000
      3         -8.474264   1.000000
      4         -8.329181   1.000000
      5         -5.957310   1.000000
      6         -5.938280   1.000000
      7         -4.799949   1.000000
      8         -4.368995   1.000000
      9         -4.258536   1.000000
     10         -2.802850   1.000000
     11         -2.315372   1.000000
     12         -2.171018   1.000000
     13         -1.074029   1.000000
     14         -1.024704   1.000000
     15         -0.449271   1.000000
     16         -0.363234   1.000000
     17          0.064844   1.000000
     18          0.069239   1.000000
     19          0.650192   1.000000
     20          1.034930   1.000000
     21          1.118352   1.000000
     22          1.589076   1.000000
     23          6.121507   0.000000
     24          6.234996   0.000000
     25          6.411738   0.000000
     26          6.815159   0.000000
     27          7.311140   0.000000
     28          7.794538   0.000000
     29          8.084538   0.000000
     30          9.062473   0.000000
     31          9.119835   0.000000
     32          9.193552   0.000000
     33          9.906553   0.000000
     34         10.205660   0.000000
     35         10.718531   0.000000
     36         11.095931   0.000000
     37         11.347717   0.000000
     38         11.969187   0.000000
     39         12.378316   0.000000
     40         13.003658   0.000000
     41         13.054602   0.000000
     42         13.809895   0.000000
     43         14.403740   0.000000
     44         14.418532   0.000000
     45         15.052898   0.000000
     46         15.145892   0.000000
     47         15.638070   0.000000
     48         16.397476   0.000000
 
  0.4500000E+00  0.1785714E+00  0.0000000E+00  0.3174603E-02
      1        -12.252947   1.000000
      2        -12.078179   1.000000
      3         -8.407100   1.000000
      4         -8.354330   1.000000
      5         -6.049063   1.000000
      6         -6.042913   1.000000
      7         -4.631700   1.000000
      8         -4.445485   1.000000
      9         -3.855959   1.000000
     10         -3.259298   1.000000
     11         -2.033538   1.000000
     12         -1.867578   1.000000
     13         -1.095840   1.000000
     14         -1.033608   1.000000
     15         -0.621640   1.000000
     16         -0.614401   1.000000
     17          0.014995   1.000000
     18          0.058553   1.000000
     19          0.907837   1.000000
     20          0.972670   1.000000
     21          1.013625   1.000000
     22          1.235272   1.000000
     23          6.213076   0.000000
     24          6.330910   0.000000
     25          6.888762   0.000000
     26          7.229754   0.000000
     27          7.288696   0.000000
     28          7.634114   0.000000
     29          7.941903   0.000000
     30          8.454326   0.000000
     31          9.118715   0.000000
     32          9.151070   0.000000
     33         10.030072   0.000000
     34         10.501852   0.000000
     35         10.726562   0.000000
     36         10.995354   0.000000
     37         11.751556   0.000000
     38         11.771591   0.000000
     39         12.157236   0.000000
     40         12.931005   0.000000
     41         13.434472   0.000000
     42         13.782669   0.000000
     43         14.250015   0.000000
     44         14.404719   0.000000
     45         15.014066   0.000000
     46         15.154330   0.000000
     47         16.014060   0.000000
     48         16.318438   0.000000
 
  0.5000000E-01  0.2500000E+00  0.0000000E+00  0.3174603E-02
      1        -12.600533   1.000000
      2        -11.471745   1.000000
      3         -8.558340   1.000000
      4         -8.297458   1.000000
      5         -5.918511   1.000000
      6         -5.608503   1.000000
      7         -4.930153   1.000000
      8         -4.540327   1.000000
      9         -4.423624   1.000000
     10         -4.117549   1.000000
     11         -3.400685   1.000000
     12         -1.215470   1.000000
     13         -1.061080   1.000000
     14         -0.997863   1.000000
     15         -0.186839   1.000000
     16          0.227356   1.000000
     17          0.353397   1.000000
     18          0.603417   1.000000
     19          0.794739   1.000000
     20          0.989952   1.000000
     21          1.004176   1.000000
     22          2.351691   0.000000
     23          4.952773   0.000000
     24          5.169213   0.000000
     25          6.370258   0.000000
     26          6.599635   0.000000
     27          7.280705   0.000000
     28          7.983737   0.000000
     29          8.719475   0.000000
     30          9.073259   0.000000
     31          9.485333   0.000000
     32          9.595251   0.000000
     33          9.671334   0.000000
     34         10.759786   0.000000
     35         11.287120   0.000000
     36         11.983089   0.000000
     37         12.032995   0.000000
     38         12.313936   0.000000
     39         12.440798   0.000000
     40         12.464397   0.000000
     41         12.582938   0.000000
     42         13.012995   0.000000
     43         13.817736   0.000000
     44         13.898644   0.000000
     45         14.440397   0.000000
     46         15.122593   0.000000
     47         15.422400   0.000000
     48         15.886593   0.000000
 
  0.1500000E+00  0.2500000E+00  0.0000000E+00  0.3174603E-02
      1        -12.557293   1.000000
      2        -11.544712   1.000000
      3         -8.536458   1.000000
      4         -8.288004   1.000000
      5         -5.840364   1.000000
      6         -5.573778   1.000000
      7         -5.267909   1.000000
      8         -4.675827   1.000000