    1    1    1    1
  0.3375000E+04  0.1500000E-08  0.1250000E-08  0.1800000E-08  0.5000000E-15
  1.000000000000000E-004
  CAR 
 Convergence                             
      3    175      8
 
  0.5000000E-01  0.3571429E-01  0.0000000E+00  0.3174603E-02
      1         -9.409710   1.000000
      2         -3.572580   0.166735
      3         -3.572570   0.166670
      4         -3.572457   0.165871
      5         -0.261702   0.000000
      6          0.295876   0.000000
      7          0.310012   0.000000
      8          0.439920   0.000000
 
  0.1500000E+00  0.3571429E-01  0.0000000E+00  0.3174603E-02
      1         -9.409710   1.000000
      2         -3.572579   0.166733
      3         -3.572574   0.166692
      4         -3.572457   0.165869
      5         -0.251851   0.000000
      6          0.269568   0.000000
      7          0.321240   0.000000
      8          0.375686   0.000000
 
  0.2500000E+00  0.3571429E-01  0.0000000E+00  0.3174603E-02
      1         -9.409710   1.000000
      2         -3.572579   0.166731
      3         -3.572579   0.166727
      4         -3.572457   0.165866
      5         -0.233705   0.000000
      6          0.199433   0.000000
      7          0.342850   0.000000
      8          0.378215   0.000000
 
  0.3500000E+00  0.3571429E-01  0.0000000E+00  0.3174603E-02
      1         -9.409709   1.000000
      2         -3.572584   0.166762
      3         -3.572579   0.166728
      4         -3.572456   0.165863
      5         -0.211518   0.000000
      6          0.131651   0.000000
      7          0.371943   0.000000
      8          0.409745   0.000000
 
  0.4500000E+00  0.3571429E-01  0.0000000E+00  0.3174603E-02
      1         -9.409709   1.000000
      2         -3.572587   0.166784
      3         -3.572578   0.166726
      4         -3.572456   0.165862
      5         -0.194493   0.000000
      6          0.090533   0.000000
      7          0.398393   0.000000
      8          0.448710   0.000000
 
  0.5000000E-01  0.1071429E+00  0.0000000E+00  0.3174603E-02
      1         -9.409709   1.000000
      2         -3.572578   0.166722
      3         -3.572569   0.166657
      4         -3.572479   0.166027
      5         -0.252574   0.000000
      6          0.303973   0.000000
      7          0.318983   0.000000
      8          0.448787   0.000000
 
  0.1500000E+00  0.1071429E+00  0.0000000E+00  0.3174603E-02
      1         -9.409709   1.000000
      2         -3.572578   0.166721
      3         -3.572572   0.166679
      4         -3.572479   0.166025
      5         -0.242737   0.000000
      6          0.278052   0.000000
      7          0.330189   0.000000
      8          0.384637   0.000000
 
  0.2500000E+00  0.1071429E+00  0.0000000E+00  0.3174603E-02
      1         -9.409710   1.000000
      2         -3.572577   0.166719
      3         -3.572577   0.166715
      4         -3.572479   0.166023
      5         -0.224623   0.000000
      6          0.208480   0.000000
      7          0.351745   0.000000
      8          0.386803   0.000000
 
  0.3500000E+00  0.1071429E+00  0.0000000E+00  0.3174603E-02
      1         -9.409710   1.000000
      2         -3.572582   0.166751
      3         -3.572577   0.166717
      4         -3.572478   0.166020
      5         -0.202486   0.000000
      6          0.140937   0.000000
      7          0.380731   0.000000
      8          0.418198   0.000000
 
  0.4500000E+00  0.1071429E+00  0.0000000E+00  0.3174603E-02
      1         -9.409709   1.000000
      2         -3.572585   0.166772
      3         -3.572577   0.166715
      4         -3.572478   0.166019
      5         -0.185510   0.000000
      6          0.099934   0.000000
      7          0.407021   0.000000
      8          0.457046   0.000000
 
  0.5000000E-01  0.1785714E+00  0.0000000E+00  0.3174603E-02
      1         -9.409709   1.000000
      2         -3.572575   0.166700
      3         -3.572566   0.166636
      4         -3.572519   0.166309
      5         -0.234633   0.000000
      6          0.316749   0.000000
      7          0.336816   0.000000
      8          0.462387   0.000000
 
  0.1500000E+00  0.1785714E+00  0.0000000E+00  0.3174603E-02
      1         -9.409709   1.000000
      2         -3.572574   0.166698
      3         -3.572569   0.166658
      4         -3.572519   0.166308
      5         -0.224831   0.000000
      6          0.293184   0.000000
      7          0.347971   0.000000
      8          0.400956   0.000000
 
  0.2500000E+00  0.1785714E+00  0.0000000E+00  0.3174603E-02
      1         -9.409710   1.000000
      2         -3.572574   0.166697
      3         -3.572574   0.166693
      4         -3.572519   0.166307
      5         -0.206794   0.000000
      6          0.226119   0.000000
      7          0.369411   0.000000
      8          0.400650   0.000000
 
  0.3500000E+00  0.1785714E+00  0.0000000E+00  0.3174603E-02
      1         -9.409710   1.000000
      2         -3.572579   0.166729
      3         -3.572574   0.166695
      4         -3.572519   0.166304
      5         -0.184779   0.000000
      6          0.159360   0.000000
      7          0.398170   0.000000
      8          0.430851   0.000000
 
  0.4500000E+00  0.1785714E+00  0.0000000E+00  0.3174603E-02
      1         -9.409710   1.000000
      2         -3.572582   0.166751
      3         -3.572574   0.166693
      4         -3.572519   0.166304
      5         -0.167928   0.000000
      6          0.118676   0.000000
      7          0.424119   0.000000
      8          0.467774   0.000000
 
  0.5000000E-01  0.2500000E+00  0.0000000E+00  0.3174603E-02
      1         -9.409709   1.000000
      2         -3.572571   0.166672
      3         -3.572570   0.166664
      4         -3.572562   0.166609
      5         -0.208675   0.000000
      6          0.308029   0.000000
      7          0.363206   0.000000
      8          0.400730   0.000000
 
  0.1500000E+00  0.2500000E+00  0.0000000E+00  0.3174603E-02
      1         -9.409709   1.000000
      2         -3.572571   0.166671
      3         -3.572569   0.166662
      4         -3.572565   0.166631
      5         -0.198944   0.000000
      6          0.300994   0.000000
      7          0.374275   0.000000
      8          0.384657   0.000000
 
  0.2500000E+00  0.2500000E+00  0.0000000E+00  0.3174603E-02
      1         -9.409709   1.000000
      2         -3.572570   0.166670
      3         -3.572570   0.166666
      4         -3.572569   0.166660
      5         -0.181062   0.000000
      6          0.250155   0.000000
      7          0.374935   0.000000
      8          0.395511   0.000000
 
  0.3500000E+00  0.2500000E+00  0.0000000E+00  0.3174603E-02
      1         -9.409710   1.000000
      2         -3.572575   0.166703
      3         -3.572570   0.166667
      4         -3.572569   0.166659
      5         -0.159298   0.000000
      6          0.186435   0.000000
      7          0.397520   0.000000
      8          0.423884   0.000000
 
  0.4500000E+00  0.2500000E+00  0.0000000E+00  0.3174603E-02
      1         -9.409709   1.000000
      2         -3.572578   0.166724
      3         -3.572570   0.166666
      4         -3.572569   0.166657
      5         -0.142704   0.000000
      6          0.146590   0.000000
      7          0.422137   0.000000
      8          0.449262   0.000000
 
  0.5000000E-01  0.3214286E+00  0.0000000E+00  0.3174603E-02
      1         -9.409708   1.000000
      2         -3.572620   0.167019
      3         -3.572567   0.166645
      4         -3.572558   0.166582
      5         -0.176511   0.000000
      6          0.243344   0.000000
      7          0.397366   0.000000
      8          0.415392   0.000000
 
  0.1500000E+00  0.3214286E+00  0.0000000E+00  0.3174603E-02
      1         -9.409709   1.000000
      2         -3.572620   0.167017
      3         -3.572567   0.166643
      4         -3.572561   0.166604
      5         -0.166911   0.000000
      6          0.252185   0.000000
      7          0.384733   0.000000
      8          0.408287   0.000000
 
  0.2500000E+00  0.3214286E+00  0.0000000E+00  0.3174603E-02
      1         -9.409709   1.000000
      2         -3.572619   0.167015
      3         -3.572567   0.166642
      4         -3.572566   0.166638
      5         -0.149323   0.000000
      6          0.258682   0.000000
      7          0.321664   0.000000
      8          0.429184   0.000000
 
  0.3500000E+00  0.3214286E+00  0.0000000E+00  0.3174603E-02
      1         -9.409710   1.000000
      2         -3.572619   0.167014
      3         -3.572571   0.166675
      4         -3.572566   0.166640
      5         -0.128034   0.000000
      6          0.220044   0.000000
      7          0.319633   0.000000
      8          0.456914   0.000000
 
  0.4500000E+00  0.3214286E+00  0.0000000E+00  0.3174603E-02
      1         -9.409711   1.000000
      2         -3.572619   0.167012
      3         -3.572574   0.166697
      4         -3.572566   0.166640
      5         -0.111929   0.000000
      6          0.183204   0.000000
      7          0.340644   0.000000
      8          0.481375   0.000000
 
  0.5000000E-01  0.3928571E+00  0.0000000E+00  0.3174603E-02
      1         -9.409708   1.000000
      2         -3.572660   0.167304
      3         -3.572564   0.166622
      4         -3.572555   0.166560
      5         -0.142501   0.000000
      6          0.176242   0.000000
      7          0.436866   0.000000
      8          0.457851   0.000000
 
  0.1500000E+00  0.3928571E+00  0.0000000E+00  0.3174603E-02
      1         -9.409709   1.000000
      2         -3.572660   0.167304
      3         -3.572564   0.166622
      4         -3.572558   0.166583
      5         -0.133129   0.000000
      6          0.187291   0.000000
      7          0.422281   0.000000
      8          0.447524   0.000000
 
  0.2500000E+00  0.3928571E+00  0.0000000E+00  0.3174603E-02
      1         -9.409709   1.000000
      2         -3.572660   0.167300
      3         -3.572563   0.166620
      4         -3.572563   0.166616
      5         -0.116046   0.000000
      6          0.208085   0.000000
      7          0.344950   0.000000
      8          0.467817   0.000000
 
  0.3500000E+00  0.3928571E+00  0.0000000E+00  0.3174603E-02
      1         -9.409709   1.000000
      2         -3.572659   0.167297
      3         -3.572568   0.166653
      4         -3.572563   0.166618
      5         -0.095572   0.000000
      6          0.232180   0.000000
      7          0.281662   0.000000
      8          0.497027   0.000000
 
  0.4500000E+00  0.3928571E+00  0.0000000E+00  0.3174603E-02
      1         -9.409711   1.000000
      2         -3.572659   0.167297
      3         -3.572571   0.166676
      4         -3.572563   0.166619
      5         -0.080293   0.000000
      6          0.226491   0.000000
      7          0.273407   0.000000
      8          0.447524   0.000000
 
  0.5000000E-01  0.4642857E+00  0.0000000E+00  0.3174603E-02
      1         -9.409708   1.000000
      2         -3.572682   0.167463
      3         -3.572562   0.166611
      4         -3.572553   0.166548
      5         -0.117281   0.000000
      6          0.133387   0.000000
      7          0.471865   0.000000
      8          0.506165   0.000000
 
  0.1500000E+00  0.4642857E+00  0.0000000E+00  0.3174603E-02
      1         -9.409708   1.000000
      2         -3.572682   0.167460
      3         -3.572562   0.166609
      4         -3.572556   0.166570
      5         -0.108180   0.000000
      6          0.145073   0.000000
      7          0.462325   0.000000
      8          0.482079   0.000000
 
  0.2500000E+00  0.4642857E+00  0.0000000E+00  0.3174603E-02
      1         -9.409709   1.000000
      2         -3.572682   0.167458
      3         -3.572562   0.166608
      4         -3.572561   0.166605
      5         -0.091696   0.000000
      6          0.167752   0.000000
      7          0.381863   0.000000
      8          0.501479   0.000000
 
  0.3500000E+00  0.4642857E+00  0.0000000E+00  0.3174603E-02
      1         -9.409710   1.000000
      2         -3.572682   0.167456
      3         -3.572566   0.166641
      4         -3.572561   0.166606
      5         -0.072170   0.000000
      6          0.198994   0.000000
      7          0.313946   0.000000
      8          0.438497   0.000000
 
  0.4500000E+00  0.4642857E+00  0.0000000E+00  0.3174603E-02
      1         -9.409711   1.000000
      2         -3.572681   0.167454
      3         -3.572570   0.166664
      4         -3.572561   0.166605
      5         -0.057822   0.000000
      6          0.229545   0.000000
      7          0.273547   0.000000
      8          0.385178   0.000000
 
  0.5000000E-01  0.3571429E-01  0.1111111E+00  0.6349206E-02
      1         -9.409710   1.000000
      2         -3.572580   0.166735
      3         -3.572570   0.166669
      4         -3.572457   0.165870
      5         -0.258678   0.000000
      6          0.218650   0.000000
      7          0.388397   0.000000
      8          0.453275   0.000000
 
  0.1500000E+00  0.3571429E-01  0.1111111E+00  0.6349206E-02
      1         -9.409710   1.000000
      2         -3.572579   0.166733
      3         -3.572574   0.166692
      4         -3.572457   0.165869
      5         -0.248875   0.000000
      6          0.223868   0.000000
      7          0.319394   0.000000
      8          0.439786   0.000000
 
  0.2500000E+00  0.3571429E-01  0.1111111E+00  0.6349206E-02
      1         -9.409710   1.000000
      2         -3.572579   0.166732
      3         -3.572579   0.166727
      4         -3.572457   0.165866
      5         -0.230839   0.000000
      6          0.197452   0.000000
      7          0.279927   0.000000
      8          0.459656   0.000000
 
  0.3500000E+00  0.3571429E-01  0.1111111E+00  0.6349206E-02
      1         -9.409709   1.000000
      2         -3.572584   0.166762
      3         -3.572579   0.166729
      4         -3.572456   0.165863
      5         -0.208831   0.000000
      6          0.135647   0.000000
      7          0.302613   0.000000
      8          0.488301   0.000000
 
  0.4500000E+00  0.3571429E-01  0.1111111E+00  0.6349206E-02
      1         -9.409709   1.000000
      2         -3.572587   0.166784
      3         -3.572579   0.166728
      4         -3.572456   0.165862
      5         -0.191993   0.000000
      6          0.095410   0.000000
      7          0.333218   0.000000
      8          0.472264   0.000000
 
  0.5000000E-01  0.1071429E+00  0.1111111E+00  0.6349206E-02
      1         -9.409709   1.000000
      2         -3.572578   0.166722
      3         -3.572569   0.166657
      4         -3.572479   0.166026
      5         -0.249560   0.000000
      6          0.227654   0.000000
      7          0.395891   0.000000
      8          0.462011   0.000000
 
  0.1500000E+00  0.1071429E+00  0.1111111E+00  0.6349206E-02
      1         -9.409710   1.000000
      2         -3.572578   0.166721
      3         -3.572572   0.166680
      4         -3.572479   0.166025
      5         -0.239772   0.000000
      6          0.232829   0.000000
      7          0.328240   0.000000
      8          0.447741   0.000000
 
  0.2500000E+00  0.1071429E+00  0.1111111E+00  0.6349206E-02
      1         -9.409710   1.000000
      2         -3.572578   0.166720
      3         -3.572577   0.166716
      4         -3.572479   0.166023
      5         -0.221766   0.000000
      6          0.206509   0.000000
      7          0.289060   0.000000
      8          0.467405   0.000000
 
  0.3500000E+00  0.1071429E+00  0.1111111E+00  0.6349206E-02
      1         -9.409709   1.000000
      2         -3.572582   0.166750
      3         -3.572577   0.166716
      4         -3.572478   0.166020
      5         -0.199807   0.000000
      6          0.144929   0.000000
      7          0.311647   0.000000
      8          0.496099   0.000000
 
  0.4500000E+00  0.1071429E+00  0.1111111E+00  0.6349206E-02
      1         -9.409709   1.000000
      2         -3.572585   0.166772
      3         -3.572577   0.166716
      4         -3.572478   0.166019
      5         -0.183019   0.000000
      6          0.104804   0.000000
      7          0.342129   0.000000
      8          0.481545   0.000000
 
  0.5000000E-01  0.1785714E+00  0.1111111E+00  0.6349206E-02
      1         -9.409709   1.000000
      2         -3.572575   0.166701
      3         -3.572566   0.166636
      4         -3.572519   0.166310
      5         -0.231642   0.000000
      6          0.245001   0.000000
      7          0.402493   0.000000
      8          0.471310   0.000000
 
  0.1500000E+00  0.1785714E+00  0.1111111E+00  0.6349206E-02
      1         -9.409709   1.000000
      2         -3.572575   0.166699
      3         -3.572569   0.166658
      4         -3.572519   0.166308
      5         -0.221889   0.000000
      6          0.250021   0.000000
      7          0.345186   0.000000
      8          0.449957   0.000000
 
  0.2500000E+00  0.1785714E+00  0.1111111E+00  0.6349206E-02
      1         -9.409709   1.000000
      2         -3.572574   0.166697
      3         -3.572574   0.166693
      4         -3.572519   0.166306
      5         -0.203960   0.000000
      6          0.224158   0.000000
      7          0.307165   0.000000
      8          0.467435   0.000000
 
  0.3500000E+00  0.1785714E+00  0.1111111E+00  0.6349206E-02
      1         -9.409709   1.000000
      2         -3.572579   0.166729
      3         -3.572574   0.166695
      4         -3.572519   0.166304
      5         -0.182122   0.000000
      6          0.163340   0.000000
      7          0.329366   0.000000
      8          0.495793   0.000000
 
  0.4500000E+00  0.1785714E+00  0.1111111E+00  0.6349206E-02
      1         -9.409709   1.000000
      2         -3.572582   0.166750
      3         -3.572574   0.166693
      4         -3.572519   0.166303
      5         -0.165457   0.000000
      6          0.123530   0.000000
      7          0.359528   0.000000
      8          0.499730   0.000000
 
  0.5000000E-01  0.2500000E+00  0.1111111E+00  0.6349206E-02
      1         -9.409709   1.000000
      2         -3.572571   0.166673
      3         -3.572570   0.166664
      4         -3.572562   0.166609
      5         -0.205732   0.000000
      6          0.266152   0.000000
      7          0.351892   0.000000
      8          0.458555   0.000000
 
  0.1500000E+00  0.2500000E+00  0.1111111E+00  0.6349206E-02
      1         -9.409709   1.000000
      2         -3.572571   0.166672
      3         -3.572569   0.166662
      4         -3.572565   0.166630
      5         -0.196049   0.000000
      6          0.270789   0.000000
      7          0.355861   0.000000
      8          0.390347   0.000000
 
  0.2500000E+00  0.2500000E+00  0.1111111E+00  0.6349206E-02
      1         -9.409709   1.000000
      2         -3.572571   0.166670
      3         -3.572570   0.166665
      4         -3.572569   0.166660
      5         -0.178274   0.000000
      6          0.248239   0.000000
      7          0.333273   0.000000
      8          0.389413   0.000000
 
  0.3500000E+00  0.2500000E+00  0.1111111E+00  0.6349206E-02
      1         -9.409710   1.000000
      2         -3.572575   0.166703
      3         -3.572570   0.166668
      4         -3.572569   0.166660
      5         -0.156684   0.000000
      6          0.190388   0.000000
      7          0.353009   0.000000
      8          0.415626   0.000000
 
  0.4500000E+00  0.2500000E+00  0.1111111E+00  0.6349206E-02
      1         -9.409710   1.000000
      2         -3.572578   0.166724
      3         -3.572570   0.166667
      4         -3.572569   0.166658
      5         -0.140271   0.000000
      6          0.151417   0.000000
      7          0.381801   0.000000
      8          0.439450   0.000000
 
  0.5000000E-01  0.3214286E+00  0.1111111E+00  0.6349206E-02
      1         -9.409709   1.000000
      2         -3.572620   0.167019
      3         -3.572567   0.166646
      4         -3.572558   0.166582
      5         -0.173656   0.000000
      6          0.243506   0.000000
      7          0.327303   0.000000
      8          0.489633   0.000000
 
  0.1500000E+00  0.3214286E+00  0.1111111E+00  0.6349206E-02
      1         -9.409709   1.000000
      2         -3.572620   0.167017
      3         -3.572567   0.166645
      4         -3.572561   0.166604
      5         -0.164104   0.000000
      6          0.252248   0.000000
      7          0.336494   0.000000
      8          0.412595   0.000000
 
  0.2500000E+00  0.3214286E+00  0.1111111E+00  0.6349206E-02
      1         -9.409710   1.000000
      2         -3.572619   0.167015
      3         -3.572567   0.166643
      4         -3.572566   0.166639
      5         -0.146620   0.000000
      6          0.259155   0.000000
      7          0.324872   0.000000
      8          0.371722   0.000000
 
  0.3500000E+00  0.3214286E+00  0.1111111E+00  0.6349206E-02
      1         -9.409710   1.000000
      2         -3.572619   0.167014
      3         -3.572571   0.166675
      4         -3.572566   0.166641
      5         -0.125500   0.000000
      6          0.223918   0.000000
      7          0.322250   0.000000
      8          0.398084   0.000000
 
  0.4500000E+00  0.3214286E+00  0.1111111E+00  0.6349206E-02
      1         -9.409710   1.000000
      2         -3.572619   0.167012
      3         -3.572574   0.166697
      4         -3.572566   0.166639
      5         -0.109566   0.000000
      6          0.187981   0.000000
      7          0.342706   0.000000
      8          0.427387   0.000000
 
  0.5000000E-01  0.3928571E+00  0.1111111E+00  0.6349206E-02
      1         -9.409709   1.000000
      2         -3.572660   0.167305
      3         -3.572564   0.166624
      4         -3.572555   0.166561
      5         -0.139800   0.000000
      6          0.180127   0.000000
      7          0.363699   0.000000
      8          0.529640   0.000000
 
  0.1500000E+00  0.3928571E+00  0.1111111E+00  0.6349206E-02
      1         -9.409709   1.000000
      2         -3.572660   0.167303
      3         -3.572564   0.166623
      4         -3.572558   0.166583
      5         -0.130473   0.000000
      6          0.191150   0.000000
      7          0.371089   0.000000
      8          0.452078   0.000000
 
  0.2500000E+00  0.3928571E+00  0.1111111E+00  0.6349206E-02
      1         -9.409709   1.000000
      2         -3.572660   0.167300
      3         -3.572564   0.166621
      4         -3.572563   0.166617
      5         -0.113489   0.000000
      6          0.211888   0.000000
      7          0.345070   0.000000
      8          0.412416   0.000000
 
  0.3500000E+00  0.3928571E+00  0.1111111E+00  0.6349206E-02
      1         -9.409710   1.000000
      2         -3.572659   0.167298
      3         -3.572568   0.166653
      4         -3.572563   0.166619
      5         -0.093171   0.000000
      6          0.235999   0.000000
      7          0.285732   0.000000
      8          0.437045   0.000000
 
  0.4500000E+00  0.3928571E+00  0.1111111E+00  0.6349206E-02
      1         -9.409711   1.000000
      2         -3.572659   0.167297
      3         -3.572571   0.166675
      4         -3.572563   0.166618
      5         -0.078046   0.000000
      6          0.231149   0.000000
      7          0.276974   0.000000
      8          0.452038   0.000000
 
  0.5000000E-01  0.4642857E+00  0.1111111E+00  0.6349206E-02
      1         -9.409708   1.000000
      2         -3.572682   0.167462
      3         -3.572562   0.166612
      4         -3.572553   0.166548
      5         -0.114765   0.000000
      6          0.137829   0.000000
      7          0.404405   0.000000
      8          0.524932   0.000000
 
  0.1500000E+00  0.4642857E+00  0.1111111E+00  0.6349206E-02
      1         -9.409709   1.000000
      2         -3.572682   0.167461
      3         -3.572562   0.166611
      4         -3.572556   0.166570
      5         -0.105706   0.000000
      6          0.149483   0.000000
      7          0.411319   0.000000
      8          0.488281   0.000000
 
  0.2500000E+00  0.4642857E+00  0.1111111E+00  0.6349206E-02
      1         -9.409709   1.000000
      2         -3.572682   0.167458
      3         -3.572562   0.166609
      4         -3.572561   0.166606
      5         -0.089310   0.000000
      6          0.172082   0.000000
      7          0.381839   0.000000
      8          0.450985   0.000000
 
  0.3500000E+00  0.4642857E+00  0.1111111E+00  0.6349206E-02
      1         -9.409710   1.000000
      2         -3.572682   0.167456
      3         -3.572566   0.166641
      4         -3.572562   0.166607
      5         -0.069919   0.000000
      6          0.203161   0.000000
      7          0.317791   0.000000
      8          0.442738   0.000000
 
  0.4500000E+00  0.4642857E+00  0.1111111E+00  0.6349206E-02
      1         -9.409711   1.000000
      2         -3.572681   0.167454
      3         -3.572570   0.166663
      4         -3.572561   0.166606
      5         -0.055701   0.000000
      6          0.233412   0.000000
      7          0.277968   0.000000
      8          0.390339   0.000000
 
  0.5000000E-01  0.3571429E-01  0.2222222E+00  0.6349206E-02
      1         -9.409709   1.000000
      2         -3.572580   0.166736
      3         -3.572570   0.166670
      4         -3.572457   0.165870
      5         -0.250473   0.000000
      6          0.147531   0.000000
      7          0.433222   0.000000
      8          0.516248   0.000000
 
  0.1500000E+00  0.3571429E-01  0.2222222E+00  0.6349206E-02
      1         -9.409710   1.000000
      2         -3.572580   0.166735
      3         -3.572574   0.166692
      4         -3.572457   0.165869
      5         -0.240814   0.000000
      6          0.158042   0.000000
      7          0.330128   0.000000
      8          0.541090   0.000000
 
  0.2500000E+00  0.3571429E-01  0.2222222E+00  0.6349206E-02
      1         -9.409710   1.000000
      2         -3.572579   0.166733
      3         -3.572579   0.166727
      4         -3.572457   0.165866
      5         -0.223098   0.000000
      6          0.172268   0.000000
      7          0.246931   0.000000
      8          0.529337   0.000000
 
  0.3500000E+00  0.3571429E-01  0.2222222E+00  0.6349206E-02
      1         -9.409710   1.000000
      2         -3.572583   0.166762
      3         -3.572579   0.166731
      4         -3.572456   0.165863
      5         -0.201613   0.000000
      6          0.146049   0.000000
      7          0.234477   0.000000
      8          0.452523   0.000000
 
  0.4500000E+00  0.3571429E-01  0.2222222E+00  0.6349206E-02
      1         -9.409710   1.000000
      2         -3.572587   0.166784
      3         -3.572579   0.166729
      4         -3.572456   0.165862
      5         -0.185319   0.000000
      6          0.109609   0.000000
      7          0.263566   0.000000
      8          0.393043   0.000000
 
  0.5000000E-01  0.1071429E+00  0.2222222E+00  0.6349206E-02
      1         -9.409709   1.000000
      2         -3.572578   0.166724
      3         -3.572569   0.166658
      4         -3.572479   0.166026
      5         -0.241383   0.000000
      6          0.156812   0.000000
      7          0.440841   0.000000
      8          0.520089   0.000000
 
  0.1500000E+00  0.1071429E+00  0.2222222E+00  0.6349206E-02
      1         -9.409709   1.000000
      2         -3.572578   0.166723
      3         -3.572572   0.166680
      4         -3.572479   0.166024
      5         -0.231739   0.000000
      6          0.167311   0.000000
      7          0.338897   0.000000
      8          0.544109   0.000000
 
  0.2500000E+00  0.1071429E+00  0.2222222E+00  0.6349206E-02
      1         -9.409709   1.000000
      2         -3.572578   0.166721
      3         -3.572577   0.166715
      4         -3.572479   0.166022
      5         -0.214053   0.000000
      6          0.181502   0.000000
      7          0.256062   0.000000
      8          0.537720   0.000000
 
  0.3500000E+00  0.1071429E+00  0.2222222E+00  0.6349206E-02
      1         -9.409709   1.000000
      2         -3.572582   0.166750
      3         -3.572577   0.166718
      4         -3.572478   0.166020
      5         -0.192615   0.000000
      6          0.155324   0.000000
      7          0.243696   0.000000
      8          0.461840   0.000000
 
  0.4500000E+00  0.1071429E+00  0.2222222E+00  0.6349206E-02
      1         -9.409710   1.000000
      2         -3.572585   0.166772
      3         -3.572577   0.166717
      4         -3.572478   0.166019
      5         -0.176368   0.000000
      6          0.118979   0.000000
      7          0.272692   0.000000
      8          0.402521   0.000000
 
  0.5000000E-01  0.1785714E+00  0.2222222E+00  0.6349206E-02
      1         -9.409710   1.000000
      2         -3.572575   0.166703
      3         -3.572566   0.166636
      4         -3.572519   0.166310
      5         -0.223536   0.000000
      6          0.175135   0.000000
      7          0.440093   0.000000
      8          0.481900   0.000000
 
  0.1500000E+00  0.1785714E+00  0.2222222E+00  0.6349206E-02
      1         -9.409710   1.000000
      2         -3.572575   0.166702
      3         -3.572569   0.166658
      4         -3.572519   0.166308
      5         -0.213925   0.000000
      6          0.185598   0.000000
      7          0.355457   0.000000
      8          0.476254   0.000000
 
  0.2500000E+00  0.1785714E+00  0.2222222E+00  0.6349206E-02
      1         -9.409710   1.000000
      2         -3.572575   0.166699
      3         -3.572574   0.166693
      4         -3.572519   0.166306
      5         -0.196314   0.000000
      6          0.199679   0.000000
      7          0.274178   0.000000
      8          0.495552   0.000000
 