   14   14    1    1
  0.1021960E+02  0.5697000E-09  0.4047900E-09  0.6204200E-09  0.5000000E-15
  1.000000000000000E-004
  CAR 
 Kpoints                                 
     42    140     48
 
  0.0000000E+00  0.0000000E+00  0.6250000E-01  0.2136752E-02
      1        -12.729915   1.000000
      2        -11.585864   1.000000
      3         -8.653932   1.000000
      4         -8.410653   1.000000
      5         -6.112090   1.000000
      6         -5.131876   1.000000
      7         -4.544261   1.000000
      8         -4.291420   1.000000
      9         -3.971190   1.000000
     10         -3.551719   1.000000
     11         -2.439990   1.000000
     12         -2.267419   1.000000
     13         -2.213851   1.000000
     14         -1.054409   1.000000
     15         -0.010000   1.000000
     16          0.002666   1.000000
     17          0.091148   1.000000
     18          0.185787   1.000000
     19          0.491864   1.000000
     20          2.059522   0.000000
     21          2.092032   0.000000
     22          2.333883   0.000000
     23          5.405620   0.000000
     24          5.750754   0.000000
     25          5.873203   0.000000
     26          5.915316   0.000000
     27          6.820091   0.000000
     28          7.623520   0.000000
     29          7.710169   0.000000
     30          8.669114   0.000000
     31          8.735026   0.000000
     32          8.959972   0.000000
     33          9.064293   0.000000
     34         10.058754   0.000000
     35         11.147495   0.000000
     36         11.388857   0.000000
     37         11.622035   0.000000
     38         11.825836   0.000000
     39         11.882727   0.000000
     40         12.371330   0.000000
     41         12.876411   0.000000
     42         13.322096   0.000000
     43         13.696123   0.000000
     44         15.485420   0.000000
     45         15.595945   0.000000
     46         15.773885   0.000000
     47         16.361299   0.000000
     48         16.363467   0.000000
 
  0.1111111E+00  0.0000000E+00  0.6250000E-01  0.4273504E-02
      1        -12.702912   1.000000
      2        -11.631394   1.000000
      3         -8.648389   1.000000
      4         -8.398998   1.000000
      5         -6.072784   1.000000
      6         -5.322465   1.000000
      7         -4.709026   1.000000
      8         -3.972731   1.000000
      9         -3.933329   1.000000
     10         -3.312616   1.000000
     11         -2.427755   1.000000
     12         -2.295592   1.000000
     13         -2.274827   1.000000
     14         -1.252370   1.000000
     15         -0.052933   1.000000
     16          0.064726   1.000000
     17          0.109596   1.000000
     18          0.162330   1.000000
     19          0.438179   1.000000
     20          1.930557   0.005487
     21          2.125505   0.000000
     22          2.248004   0.000000
     23          5.444210   0.000000
     24          5.753683   0.000000
     25          5.854595   0.000000
     26          6.190734   0.000000
     27          6.757577   0.000000
     28          7.257607   0.000000
     29          7.968579   0.000000
     30          8.759073   0.000000
     31          8.891420   0.000000
     32          9.054147   0.000000
     33          9.206045   0.000000
     34         10.134836   0.000000
     35         11.131880   0.000000
     36         11.186391   0.000000
     37         11.258150   0.000000
     38         11.713187   0.000000
     39         12.013618   0.000000
     40         12.427337   0.000000
     41         13.130765   0.000000
     42         13.392975   0.000000
     43         13.773696   0.000000
     44         14.954199   0.000000
     45         15.695813   0.000000
     46         15.952900   0.000000
     47         16.162579   0.000000
     48         16.449959   0.000000
 
  0.2222222E+00  0.0000000E+00  0.6250000E-01  0.4273504E-02
      1        -12.623350   1.000000
      2        -11.756979   1.000000
      3         -8.621646   1.000000
      4         -8.378848   1.000000
      5         -6.051951   1.000000
      6         -5.609950   1.000000
      7         -4.778646   1.000000
      8         -3.821237   1.000000
      9         -3.435966   1.000000
     10         -2.828482   1.000000
     11         -2.511895   1.000000
     12         -2.388110   1.000000
     13         -2.296136   1.000000
     14         -1.751345   1.000000
     15         -0.166518   1.000000
     16         -0.022220   1.000000
     17          0.182256   1.000000
     18          0.240472   1.000000
     19          0.337922   1.000000
     20          1.751274   0.994254
     21          1.997533   0.000005
     22          2.056772   0.000000
     23          5.514258   0.000000
     24          5.789316   0.000000
     25          6.112393   0.000000
     26          6.602702   0.000000
     27          6.674570   0.000000
     28          6.904726   0.000000
     29          8.160873   0.000000
     30          8.948942   0.000000
     31          8.976675   0.000000
     32          9.326743   0.000000
     33          9.691508   0.000000
     34         10.419830   0.000000
     35         10.464003   0.000000
     36         10.652906   0.000000
     37         11.290629   0.000000
     38         11.735712   0.000000
     39         12.256091   0.000000
     40         12.661838   0.000000
     41         12.850661   0.000000
     42         13.218597   0.000000
     43         14.489517   0.000000
     44         14.667695   0.000000
     45         15.388275   0.000000
     46         15.923634   0.000000
     47         16.105379   0.000000
     48         16.278740   0.000000
 
  0.3333333E+00  0.0000000E+00  0.6250000E-01  0.4273504E-02
      1        -12.495756   1.000000
      2        -11.935403   1.000000
      3         -8.564104   1.000000
      4         -8.378104   1.000000
      5         -6.124779   1.000000
      6         -5.862834   1.000000
      7         -4.487407   1.000000
      8         -3.639647   1.000000
      9         -2.954632   1.000000
     10         -2.801956   1.000000
     11         -2.453999   1.000000
     12         -2.388434   1.000000
     13         -2.315259   1.000000
     14         -2.135339   1.000000
     15         -0.495561   1.000000
     16         -0.129552   1.000000
     17          0.074384   1.000000
     18          0.325825   1.000000
     19          0.525825   1.000000
     20          1.618260   1.000000
     21          1.625174   1.000000
     22          1.902706   0.039564
     23          5.585316   0.000000
     24          5.834277   0.000000
     25          6.452341   0.000000
     26          6.640440   0.000000
     27          6.667090   0.000000
     28          7.286416   0.000000
     29          8.313927   0.000000
     30          8.822910   0.000000
     31          8.857826   0.000000
     32          9.628875   0.000000
     33          9.751985   0.000000
     34         10.302805   0.000000
     35         10.401992   0.000000
     36         11.015193   0.000000
     37         11.323603   0.000000
     38         12.051492   0.000000
     39         12.154481   0.000000
     40         12.305972   0.000000
     41         12.747918   0.000000
     42         13.194113   0.000000
     43         14.586549   0.000000
     44         15.099418   0.000000
     45         15.259236   0.000000
     46         15.386597   0.000000
     47         15.570906   0.000000
     48         16.199078   0.000000
 
  0.4444444E+00  0.0000000E+00  0.6250000E-01  0.4273504E-02
      1        -12.328487   1.000000
      2        -12.135001   1.000000
      3         -8.486392   1.000000
      4         -8.415610   1.000000
      5         -6.152325   1.000000
      6         -6.059945   1.000000
      7         -3.934986   1.000000
      8         -3.397554   1.000000
      9         -3.275477   1.000000
     10         -3.110112   1.000000
     11         -2.494513   1.000000
     12         -2.401927   1.000000
     13         -2.041340   1.000000
     14         -1.888416   1.000000
     15         -0.725169   1.000000
     16         -0.528675   1.000000
     17          0.203483   1.000000
     18          0.309544   1.000000
     19          0.830274   1.000000
     20          1.211098   1.000000
     21          1.609791   1.000000
     22          1.727857   0.999288
     23          5.683478   0.000000
     24          5.791451   0.000000
     25          6.424302   0.000000
     26          6.511420   0.000000
     27          7.359032   0.000000
     28          7.918207   0.000000
     29          8.280104   0.000000
     30          8.454198   0.000000
     31          8.621465   0.000000
     32          8.805444   0.000000
     33         10.224878   0.000000
     34         10.593035   0.000000
     35         10.785010   0.000000
     36         11.344433   0.000000
     37         11.434064   0.000000
     38         11.837764   0.000000
     39         11.904036   0.000000
     40         12.416256   0.000000
     41         12.732242   0.000000
     42         13.249644   0.000000
     43         14.433152   0.000000
     44         14.594103   0.000000
     45         15.014941   0.000000
     46         15.064537   0.000000
     47         15.932463   0.000000
     48         16.307772   0.000000
 
  0.0000000E+00  0.7692308E-01  0.6250000E-01  0.4273504E-02
      1        -12.715706   1.000000
      2        -11.573069   1.000000
      3         -8.642813   1.000000
      4         -8.396969   1.000000
      5         -6.096403   1.000000
      6         -5.110755   1.000000
      7         -4.530253   1.000000
      8         -4.406340   1.000000
      9         -4.172251   1.000000
     10         -3.536645   1.000000
     11         -3.023704   1.000000
     12         -2.072433   1.000000
     13         -1.396096   1.000000
     14         -1.051715   1.000000
     15         -0.166361   1.000000
     16         -0.163175   1.000000
     17          0.098558   1.000000
     18          0.246975   1.000000
     19          0.553501   1.000000
     20          1.885888   0.100258
     21          1.938123   0.002912
     22          2.376363   0.000000
     23          5.556502   0.000000
     24          5.710417   0.000000
     25          5.781320   0.000000
     26          5.915762   0.000000
     27          7.001050   0.000000
     28          7.833206   0.000000
     29          7.851288   0.000000
     30          8.304682   0.000000
     31          8.771585   0.000000
     32          9.081436   0.000000
     33          9.098154   0.000000
     34         10.385215   0.000000
     35         11.247940   0.000000
     36         11.368470   0.000000
     37         11.575981   0.000000
     38         11.880554   0.000000
     39         11.951341   0.000000
     40         12.539541   0.000000
     41         12.869579   0.000000
     42         13.159302   0.000000
     43         13.512580   0.000000
     44         15.450507   0.000000
     45         15.476253   0.000000
     46         15.784940   0.000000
     47         16.157224   0.000000
     48         16.250191   0.000000
 
  0.1111111E+00  0.7692308E-01  0.6250000E-01  0.8547009E-02
      1        -12.688740   1.000000
      2        -11.618548   1.000000
      3         -8.637096   1.000000
      4         -8.385559   1.000000
      5         -6.056423   1.000000
      6         -5.303765   1.000000
      7         -4.697633   1.000000
      8         -4.302543   1.000000
      9         -3.917381   1.000000
     10         -3.300896   1.000000
     11         -3.059882   1.000000
     12         -2.059061   1.000000
     13         -1.454896   1.000000
     14         -1.248463   1.000000
     15         -0.212126   1.000000
     16         -0.069519   1.000000
     17          0.116284   1.000000
     18          0.203017   1.000000
     19          0.499539   1.000000
     20          1.769070   0.978516
     21          1.961075   0.000329
     22          2.286963   0.000000
     23          5.588497   0.000000
     24          5.720354   0.000000
     25          5.875326   0.000000
     26          6.078498   0.000000
     27          6.938958   0.000000
     28          7.450770   0.000000
     29          8.123656   0.000000
     30          8.401957   0.000000
     31          8.923594   0.000000
     32          9.182440   0.000000
     33          9.264472   0.000000
     34         10.396465   0.000000
     35         11.067042   0.000000
     36         11.219098   0.000000
     37         11.314810   0.000000
     38         11.790759   0.000000
     39         12.083880   0.000000
     40         12.589628   0.000000
     41         13.133081   0.000000
     42         13.211455   0.000000
     43         13.604005   0.000000
     44         15.015872   0.000000
     45         15.503988   0.000000
     46         15.884326   0.000000
     47         16.026115   0.000000
     48         16.386282   0.000000
 
  0.2222222E+00  0.7692308E-01  0.6250000E-01  0.8547009E-02
      1        -12.609285   1.000000
      2        -11.743994   1.000000
      3         -8.610050   1.000000
      4         -8.365926   1.000000
      5         -6.033856   1.000000
      6         -5.591841   1.000000
      7         -4.768397   1.000000
      8         -4.187731   1.000000
      9         -3.387739   1.000000
     10         -3.192762   1.000000
     11         -2.797125   1.000000
     12         -2.019620   1.000000
     13         -1.750661   1.000000
     14         -1.588758   1.000000
     15         -0.197335   1.000000
     16         -0.155730   1.000000
     17          0.144059   1.000000
     18          0.236291   1.000000
     19          0.373152   1.000000
     20          1.594336   1.000000
     21          1.889792   0.082188
     22          2.030682   0.000000
     23          5.649897   0.000000
     24          5.903895   0.000000
     25          6.015818   0.000000
     26          6.521657   0.000000
     27          6.790326   0.000000
     28          7.134555   0.000000
     29          8.307012   0.000000
     30          8.614480   0.000000
     31          9.038578   0.000000
     32          9.467659   0.000000
     33          9.768451   0.000000
     34         10.338057   0.000000
     35         10.450977   0.000000
     36         10.741770   0.000000
     37         11.386954   0.000000
     38         11.875687   0.000000
     39         12.342384   0.000000
     40         12.664048   0.000000
     41         12.824659   0.000000
     42         13.241623   0.000000
     43         14.207224   0.000000
     44         14.864096   0.000000
     45         15.354515   0.000000
     46         15.683224   0.000000
     47         16.010120   0.000000
     48         16.376356   0.000000
 
  0.3333333E+00  0.7692308E-01  0.6250000E-01  0.8547009E-02
      1        -12.481856   1.000000
      2        -11.922205   1.000000
      3         -8.552312   1.000000
      4         -8.365698   1.000000
      5         -6.105807   1.000000
      6         -5.844259   1.000000
      7         -4.478612   1.000000
      8         -4.027184   1.000000
      9         -3.374106   1.000000
     10         -2.892424   1.000000
     11         -2.410456   1.000000
     12         -2.206677   1.000000
     13         -1.933421   1.000000
     14         -1.751023   1.000000
     15         -0.478470   1.000000
     16         -0.204512   1.000000
     17          0.052619   1.000000
     18          0.237511   1.000000
     19          0.532894   1.000000
     20          1.461221   1.000000
     21          1.639547   1.000000
     22          1.751831   0.993991
     23          5.717196   0.000000
     24          5.974833   0.000000
     25          6.530055   0.000000
     26          6.634636   0.000000
     27          6.804577   0.000000
     28          7.244596   0.000000
     29          8.451073   0.000000
     30          8.647448   0.000000
     31          8.910837   0.000000
     32          9.525816   0.000000
     33          9.820924   0.000000
     34         10.228983   0.000000
     35         10.438033   0.000000
     36         11.083139   0.000000
     37         11.365487   0.000000
     38         11.971352   0.000000
     39         12.247661   0.000000
     40         12.429655   0.000000
     41         12.823757   0.000000
     42         13.307134   0.000000
     43         14.577278   0.000000
     44         15.007574   0.000000
     45         15.217385   0.000000
     46         15.351449   0.000000
     47         15.611683   0.000000
     48         16.252385   0.000000
 
  0.4444444E+00  0.7692308E-01  0.6250000E-01  0.8547009E-02
      1        -12.314791   1.000000
      2        -12.121551   1.000000
      3         -8.474496   1.000000
      4         -8.403559   1.000000
      5         -6.133226   1.000000
      6         -6.041014   1.000000
      7         -3.927767   1.000000
      8         -3.823649   1.000000
      9         -3.595610   1.000000
     10         -3.264740   1.000000
     11         -2.211382   1.000000
     12         -1.957709   1.000000
     13         -1.865423   1.000000
     14         -1.804179   1.000000
     15         -0.706713   1.000000
     16         -0.528389   1.000000
     17          0.116635   1.000000
     18          0.216796   1.000000
     19          0.835986   1.000000
     20          1.216479   1.000000
     21          1.461425   1.000000
     22          1.576310   1.000000
     23          5.818496   0.000000
     24          5.931448   0.000000
     25          6.613949   0.000000
     26          6.693760   0.000000
     27          7.246838   0.000000
     28          7.820385   0.000000
     29          8.168210   0.000000
     30          8.574392   0.000000
     31          8.687855   0.000000
     32          8.739645   0.000000
     33         10.242836   0.000000
     34         10.547921   0.000000
     35         10.731788   0.000000
     36         11.178765   0.000000
     37         11.473499   0.000000
     38         11.911005   0.000000
     39         11.967080   0.000000
     40         12.551210   0.000000
     41         12.897272   0.000000
     42         13.395025   0.000000
     43         14.456620   0.000000
     44         14.584130   0.000000
     45         14.983023   0.000000
     46         15.108560   0.000000
     47         15.954524   0.000000
     48         16.291382   0.000000
 
  0.0000000E+00  0.1538462E+00  0.6250000E-01  0.4273504E-02
      1        -12.675532   1.000000
      2        -11.536935   1.000000
      3         -8.611605   1.000000
      4         -8.358333   1.000000
      5         -6.052074   1.000000
      6         -5.050501   1.000000
      7         -4.937887   1.000000
      8         -4.489719   1.000000
      9         -4.198444   1.000000
     10         -3.728014   1.000000
     11         -3.488149   1.000000
     12         -1.400679   1.000000
     13         -1.044471   1.000000
     14         -0.596725   1.000000
     15         -0.497586   1.000000
     16         -0.382699   1.000000
     17          0.117305   1.000000
     18          0.311022   1.000000
     19          0.643978   1.000000
     20          1.506478   1.000000
     21          1.554986   1.000000
     22          2.427107   0.000000
     23          5.453260   0.000000
     24          5.500355   0.000000
     25          5.949113   0.000000
     26          6.097158   0.000000
     27          7.444346   0.000000
     28          7.780972   0.000000
     29          8.218827   0.000000
     30          8.468489   0.000000
     31          8.783863   0.000000
     32          9.208297   0.000000
     33          9.276514   0.000000
     34         10.883239   0.000000
     35         11.313141   0.000000
     36         11.451590   0.000000
     37         11.583102   0.000000
     38         12.044782   0.000000
     39         12.162931   0.000000
     40         12.703073   0.000000
     41         12.981309   0.000000
     42         12.993166   0.000000
     43         13.141535   0.000000
     44         14.916541   0.000000
     45         15.384440   0.000000
     46         15.478799   0.000000
     47         15.530108   0.000000
     48         16.054064   0.000000
 
  0.1111111E+00  0.1538462E+00  0.6250000E-01  0.8547009E-02
      1        -12.648671   1.000000
      2        -11.582273   1.000000
      3         -8.605389   1.000000
      4         -8.347612   1.000000
      5         -6.010135   1.000000
      6         -5.254802   1.000000
      7         -4.888065   1.000000
      8         -4.654576   1.000000
      9         -3.884557   1.000000
     10         -3.767179   1.000000
     11         -3.248298   1.000000
     12         -1.388074   1.000000
     13         -1.241430   1.000000
     14         -0.719540   1.000000
     15         -0.509493   1.000000
     16         -0.241536   1.000000
     17          0.136712   1.000000
     18          0.248937   1.000000
     19          0.585773   1.000000
     20          1.393976   1.000000
     21          1.578468   1.000000
     22          2.331515   0.000000
     23          5.441898   0.000000
     24          5.762300   0.000000
     25          5.969346   0.000000
     26          6.133795   0.000000
     27          7.381877   0.000000
     28          7.881997   0.000000
     29          7.945796   0.000000
     30          8.589722   0.000000
     31          9.006339   0.000000
     32          9.286606   0.000000
     33          9.462492   0.000000
     34         10.703205   0.000000
     35         10.933686   0.000000
     36         11.285739   0.000000
     37         11.581118   0.000000
     38         12.024456   0.000000
     39         12.293250   0.000000
     40         12.780404   0.000000
     41         13.050387   0.000000
     42         13.108369   0.000000
     43         13.350051   0.000000
     44         14.904416   0.000000
     45         15.031970   0.000000
     46         15.473870   0.000000
     47         15.561357   0.000000
     48         16.078891   0.000000
 
  0.2222222E+00  0.1538462E+00  0.6250000E-01  0.8547009E-02
      1        -12.569514   1.000000
      2        -11.707310   1.000000
      3         -8.577472   1.000000
      4         -8.329463   1.000000
      5         -5.982576   1.000000
      6         -5.541758   1.000000
      7         -4.793532   1.000000
      8         -4.732865   1.000000
      9         -3.881116   1.000000
     10         -3.337679   1.000000
     11         -2.757896   1.000000
     12         -1.737001   1.000000
     13         -1.349002   1.000000
     14         -0.926591   1.000000
     15         -0.452402   1.000000
     16         -0.147617   1.000000
     17          0.030220   1.000000
     18          0.280471   1.000000
     19          0.426136   1.000000
     20          1.226344   1.000000
     21          1.514825   1.000000
     22          2.059292   0.000000
     23          5.701260   0.000000
     24          5.966367   0.000000
     25          6.232328   0.000000
     26          6.262165   0.000000
     27          7.237200   0.000000
     28          7.669435   0.000000
     29          8.135200   0.000000
     30          8.723893   0.000000
     31          9.154087   0.000000
     32          9.617888   0.000000
     33          9.940722   0.000000
     34         10.136581   0.000000
     35         10.345078   0.000000
     36         11.010455   0.000000
     37         11.577919   0.000000
     38         12.191451   0.000000
     39         12.352799   0.000000
     40         12.609922   0.000000
     41         13.202950   0.000000
     42         13.320518   0.000000
     43         13.849261   0.000000
     44         14.797287   0.000000
     45         14.922622   0.000000
     46         15.392879   0.000000
     47         15.639012   0.000000
     48         16.277000   0.000000
 
  0.3333333E+00  0.1538462E+00  0.6250000E-01  0.8547009E-02
      1        -12.442547   1.000000
      2        -11.884914   1.000000
      3         -8.519167   1.000000
      4         -8.330733   1.000000
      5         -6.051954   1.000000
      6         -5.791785   1.000000
      7         -4.645043   1.000000
      8         -4.452795   1.000000
      9         -4.052192   1.000000
     10         -2.841792   1.000000
     11         -2.377695   1.000000
     12         -2.152733   1.000000
     13         -1.289110   1.000000
     14         -1.117222   1.000000
     15         -0.452982   1.000000
     16         -0.346197   1.000000
     17          0.014534   1.000000
     18          0.122990   1.000000
     19          0.549198   1.000000
     20          1.101280   1.000000
     21          1.373419   1.000000
     22          1.666779   1.000000
     23          5.996990   0.000000
     24          6.251370   0.000000
     25          6.333674   0.000000
     26          6.762966   0.000000
     27          7.121014   0.000000
     28          7.548919   0.000000
     29          8.272741   0.000000
     30          8.844799   0.000000
     31          9.084015   0.000000
     32          9.286919   0.000000
     33          9.857757   0.000000
     34         10.123388   0.000000
     35         10.636089   0.000000
     36         11.202510   0.000000
     37         11.309089   0.000000
     38         11.799086   0.000000
     39         12.577029   0.000000
     40         12.754677   0.000000
     41         13.033348   0.000000
     42         13.619067   0.000000
     43         14.333668   0.000000
     44         14.626578   0.000000
     45         15.074892   0.000000
     46         15.324015   0.000000
     47         15.530659   0.000000
     48         16.269146   0.000000
 
  0.4444444E+00  0.1538462E+00  0.6250000E-01  0.8547009E-02
      1        -12.276100   1.000000
      2        -12.083554   1.000000
      3         -8.441037   1.000000
      4         -8.369624   1.000000
      5         -6.078969   1.000000
      6         -5.987273   1.000000
      7         -4.460986   1.000000
      8         -4.255514   1.000000
      9         -3.903074   1.000000
     10         -3.243782   1.000000
     11         -2.105705   1.000000
     12         -1.873810   1.000000
     13         -1.252493   1.000000
     14         -1.215331   1.000000
     15         -0.656065   1.000000
     16         -0.538185   1.000000
     17         -0.031212   1.000000
     18          0.047798   1.000000
     19          0.850374   1.000000
     20          1.092626   1.000000
     21          1.211980   1.000000
     22          1.244894   1.000000
     23          6.117661   0.000000
     24          6.259971   0.000000
     25          6.943075   0.000000
     26          7.096638   0.000000
     27          7.109277   0.000000
     28          7.655172   0.000000
     29          7.942381   0.000000
     30          8.487454   0.000000
     31          8.934201   0.000000
     32          9.004415   0.000000
     33         10.090914   0.000000
     34         10.513045   0.000000
     35         10.665621   0.000000
     36         10.959228   0.000000
     37         11.613787   0.000000
     38         12.030698   0.000000
     39         12.113414   0.000000
     40         12.838178   0.000000
     41         13.284195   0.000000
     42         13.698154   0.000000
     43         14.272169   0.000000
     44         14.444233   0.000000
     45         14.982093   0.000000
     46         15.173061   0.000000
     47         15.882428   0.000000
     48         16.276290   0.000000
 
  0.0000000E+00  0.2307692E+00  0.6250000E-01  0.4273504E-02
      1        -12.616755   1.000000
      2        -11.484200   1.000000
      3         -8.566541   1.000000
      4         -8.301900   1.000000
      5         -5.987269   1.000000
      6         -5.494936   1.000000
      7         -4.960711   1.000000
      8         -4.427529   1.000000
      9         -4.321202   1.000000
     10         -4.166229   1.000000
     11         -3.426731   1.000000
     12         -1.155974   1.000000
     13         -1.037898   1.000000
     14         -0.889506   1.000000
     15         -0.363909   1.000000
     16          0.141497   1.000000
     17          0.361347   1.000000
     18          0.385829   1.000000
     19          0.718405   1.000000
     20          1.072172   1.000000
     21          1.085799   1.000000
     22          2.469063   0.000000
     23          5.059553   0.000000
     24          5.217288   0.000000
     25          6.282062   0.000000
     26          6.442493   0.000000
     27          7.360861   0.000000
     28          7.941872   0.000000
     29          8.762791   0.000000
     30          8.855002   0.000000
     31          9.288192   0.000000
     32          9.418106   0.000000
     33          9.559823   0.000000
     34         10.803605   0.000000
     35         11.285031   0.000000
     36         11.729684   0.000000
     37         11.893438   0.000000
     38         12.312936   0.000000
     39         12.402773   0.000000
     40         12.513694   0.000000
     41         12.735459   0.000000
     42         12.952904   0.000000
     43         13.675595   0.000000
     44         13.997922   0.000000
     45         14.651253   0.000000
     46         15.157029   0.000000
     47         15.342742   0.000000
     48         15.976739   0.000000
 
  0.1111111E+00  0.2307692E+00  0.6250000E-01  0.8547009E-02
      1        -12.590050   1.000000
      2        -11.529331   1.000000
      3         -8.559605   1.000000
      4         -8.292195   1.000000
      5         -5.942508   1.000000
      6         -5.472028   1.000000
      7         -5.149030   1.000000
      8         -4.603331   1.000000