   14   14    1    1
  0.1021960E+02  0.5697000E-09  0.4047900E-09  0.6204200E-09  0.5000000E-15
  1.000000000000000E-004
  CAR 
 Kpoints                                 
     42   1260     48
 
  0.0000000E+00  0.0000000E+00  0.0000000E+00  0.1146657E-03
      1        -12.733261   1.000000
      2        -11.576104   1.000000
      3         -8.661826   1.000000
      4         -8.424535   1.000000
      5         -6.076952   1.000000
      6         -5.058882   1.000000
      7         -4.637819   1.000000
      8         -4.349078   1.000000
      9         -3.972908   1.000000
     10         -3.598009   1.000000
     11         -2.421382   1.000000
     12         -2.241936   1.000000
     13         -2.182498   1.000000
     14         -1.051856   1.000000
     15         -0.036405   1.000000
     16         -0.002516   1.000000
     17          0.150397   1.000000
     18          0.173875   1.000000
     19          0.565723   1.000000
     20          2.080784   0.000000
     21          2.126968   0.000000
     22          2.215797   0.000000
     23          5.412706   0.000000
     24          5.803020   0.000000
     25          5.818398   0.000000
     26          5.911755   0.000000
     27          6.786979   0.000000
     28          7.674072   0.000000
     29          7.702542   0.000000
     30          8.635422   0.000000
     31          8.753967   0.000000
     32          8.854103   0.000000
     33          9.042168   0.000000
     34         10.030305   0.000000
     35         11.145084   0.000000
     36         11.401019   0.000000
     37         11.770927   0.000000
     38         11.803541   0.000000
     39         11.900374   0.000000
     40         12.355567   0.000000
     41         12.805807   0.000000
     42         13.396282   0.000000
     43         13.575259   0.000000
     44         15.555970   0.000000
     45         15.568808   0.000000
     46         15.943297   0.000000
     47         16.360127   0.000000
     48         16.600667   0.000000
 
  0.5263158E-01  0.0000000E+00  0.0000000E+00  0.2293315E-03
      1        -12.727159   1.000000
      2        -11.586749   1.000000
      3         -8.658996   1.000000
      4         -8.422720   1.000000
      5         -6.064096   1.000000
      6         -5.140882   1.000000
      7         -4.669645   1.000000
      8         -4.252293   1.000000
      9         -3.964358   1.000000
     10         -3.538828   1.000000
     11         -2.418755   1.000000
     12         -2.243637   1.000000
     13         -2.202473   1.000000
     14         -1.097977   1.000000
     15         -0.030294   1.000000
     16          0.007678   1.000000
     17          0.155118   1.000000
     18          0.157549   1.000000
     19          0.551683   1.000000
     20          2.067831   0.000000
     21          2.115527   0.000000
     22          2.199334   0.000000
     23          5.426600   0.000000
     24          5.795069   0.000000
     25          5.798292   0.000000
     26          5.993055   0.000000
     27          6.773721   0.000000
     28          7.498423   0.000000
     29          7.848183   0.000000
     30          8.655729   0.000000
     31          8.809676   0.000000
     32          8.890994   0.000000
     33          9.045081   0.000000
     34         10.048645   0.000000
     35         11.155402   0.000000
     36         11.341233   0.000000
     37         11.666284   0.000000
     38         11.767916   0.000000
     39         11.933178   0.000000
     40         12.367754   0.000000
     41         12.875526   0.000000
     42         13.505177   0.000000
     43         13.517951   0.000000
     44         15.364329   0.000000
     45         15.603475   0.000000
     46         16.081476   0.000000
     47         16.346573   0.000000
     48         16.376037   0.000000
 
  0.1052632E+00  0.0000000E+00  0.0000000E+00  0.2293315E-03
      1        -12.708922   1.000000
      2        -11.618028   1.000000
      3         -8.650373   1.000000
      4         -8.417606   1.000000
      5         -6.030737   1.000000
      6         -5.313232   1.000000
      7         -4.738522   1.000000
      8         -4.035978   1.000000
      9         -3.938780   1.000000
     10         -3.384047   1.000000
     11         -2.410793   1.000000
     12         -2.260332   1.000000
     13         -2.248716   1.000000
     14         -1.230655   1.000000
     15         -0.012198   1.000000
     16          0.036681   1.000000
     17          0.099692   1.000000
     18          0.176941   1.000000
     19          0.510149   1.000000
     20          2.030186   0.000010
     21          2.082180   0.000000
     22          2.149796   0.000000
     23          5.465451   0.000000
     24          5.773229   0.000000
     25          5.815560   0.000000
     26          6.157391   0.000000
     27          6.736086   0.000000
     28          7.301111   0.000000
     29          7.970519   0.000000
     30          8.713636   0.000000
     31          8.958903   0.000000
     32          8.996269   0.000000
     33          9.052174   0.000000
     34         10.104933   0.000000
     35         11.170351   0.000000
     36         11.186749   0.000000
     37         11.411757   0.000000
     38         11.704984   0.000000
     39         12.028353   0.000000
     40         12.403881   0.000000
     41         13.025814   0.000000
     42         13.358763   0.000000
     43         13.772997   0.000000
     44         15.060472   0.000000
     45         15.696949   0.000000
     46         16.064996   0.000000
     47         16.247544   0.000000
     48         16.422109   0.000000
 
  0.1578947E+00  0.0000000E+00  0.0000000E+00  0.2293315E-03
      1        -12.678734   1.000000
      2        -11.668114   1.000000
      3         -8.635572   1.000000
      4         -8.410150   1.000000
      5         -5.992304   1.000000
      6         -5.501999   1.000000
      7         -4.794472   1.000000
      8         -3.896377   1.000000
      9         -3.775545   1.000000
     10         -3.171976   1.000000
     11         -2.397173   1.000000
     12         -2.350595   1.000000
     13         -2.257016   1.000000
     14         -1.435204   1.000000
     15          0.010066   1.000000
     16          0.017156   1.000000
     17          0.080344   1.000000
     18          0.197269   1.000000
     19          0.449835   1.000000
     20          1.971517   0.004492
     21          2.029746   0.000010
     22          2.067303   0.000000
     23          5.521749   0.000000
     24          5.743075   0.000000
     25          5.898258   0.000000
     26          6.370909   0.000000
     27          6.679930   0.000000
     28          7.115053   0.000000
     29          8.067469   0.000000
     30          8.798797   0.000000
     31          9.032422   0.000000
     32          9.163711   0.000000
     33          9.181413   0.000000
     34         10.205131   0.000000
     35         10.910324   0.000000
     36         11.094255   0.000000
     37         11.238942   0.000000
     38         11.679611   0.000000
     39         12.169047   0.000000
     40         12.470253   0.000000
     41         13.124791   0.000000
     42         13.135378   0.000000
     43         14.116148   0.000000
     44         14.821036   0.000000
     45         15.759313   0.000000
     46         15.828188   0.000000
     47         16.322450   0.000000
     48         16.494321   0.000000
 
  0.2105263E+00  0.0000000E+00  0.0000000E+00  0.2293315E-03
      1        -12.636975   1.000000
      2        -11.734278   1.000000
      3         -8.614438   1.000000
      4         -8.401953   1.000000
      5         -5.971055   1.000000
      6         -5.680372   1.000000
      7         -4.794537   1.000000
      8         -3.837532   1.000000
      9         -3.501356   1.000000
     10         -2.929558   1.000000
     11         -2.466006   1.000000
     12         -2.377400   1.000000
     13         -2.268169   1.000000
     14         -1.692335   1.000000
     15         -0.109806   1.000000
     16          0.056445   1.000000
     17          0.133048   1.000000
     18          0.173584   1.000000
     19          0.415034   1.000000
     20          1.897839   0.298484
     21          1.953284   0.017998
     22          1.962561   0.009153
     23          5.585533   0.000000
     24          5.712177   0.000000
     25          6.047530   0.000000
     26          6.613517   0.000000
     27          6.623377   0.000000
     28          6.951183   0.000000
     29          8.150687   0.000000
     30          8.888551   0.000000
     31          8.997246   0.000000
     32          9.393480   0.000000
     33          9.408728   0.000000
     34         10.361905   0.000000
     35         10.585433   0.000000
     36         10.775135   0.000000
     37         11.306179   0.000000
     38         11.724149   0.000000
     39         12.304527   0.000000
     40         12.602258   0.000000
     41         12.841497   0.000000
     42         13.081396   0.000000
     43         14.489291   0.000000
     44         14.748355   0.000000
     45         15.443189   0.000000
     46         15.979456   0.000000
     47         16.217925   0.000000
     48         16.492398   0.000000
 
  0.2631579E+00  0.0000000E+00  0.0000000E+00  0.2293315E-03
      1        -12.584172   1.000000
      2        -11.813197   1.000000
      3         -8.587329   1.000000
      4         -8.395127   1.000000
      5         -5.982698   1.000000
      6         -5.837285   1.000000
      7         -4.714076   1.000000
      8         -3.762782   1.000000
      9         -3.233075   1.000000
     10         -2.675031   1.000000
     11         -2.599057   1.000000
     12         -2.352592   1.000000
     13         -2.280861   1.000000
     14         -1.977626   1.000000
     15         -0.254209   1.000000
     16          0.059339   1.000000
     17          0.103615   1.000000
     18          0.188588   1.000000
     19          0.455252   1.000000
     20          1.811575   0.972008
     21          1.817139   0.960267
     22          1.886145   0.421526
     23          5.646623   0.000000
     24          5.687918   0.000000
     25          6.259190   0.000000
     26          6.546372   0.000000
     27          6.812821   0.000000
     28          6.907535   0.000000
     29          8.225222   0.000000
     30          8.931223   0.000000
     31          8.936796   0.000000
     32          9.634696   0.000000
     33          9.669390   0.000000
     34         10.214855   0.000000
     35         10.518830   0.000000
     36         10.590414   0.000000
     37         11.370945   0.000000
     38         11.842539   0.000000
     39         12.391635   0.000000
     40         12.527577   0.000000
     41         12.825218   0.000000
     42         12.843446   0.000000
     43         14.833404   0.000000
     44         14.870180   0.000000
     45         15.130456   0.000000
     46         15.968435   0.000000
     47         16.097127   0.000000
     48         16.137960   0.000000
 
  0.3157895E+00  0.0000000E+00  0.0000000E+00  0.2293315E-03
      1        -12.521024   1.000000
      2        -11.901305   1.000000
      3         -8.555353   1.000000
      4         -8.392088   1.000000
      5         -6.023453   1.000000
      6         -5.966470   1.000000
      7         -4.553714   1.000000
      8         -3.672858   1.000000
      9         -3.002091   1.000000
     10         -2.742843   1.000000
     11         -2.433761   1.000000
     12         -2.371343   1.000000
     13         -2.284010   1.000000
     14         -2.206653   1.000000
     15         -0.414304   1.000000
     16         -0.111357   1.000000
     17          0.155654   1.000000
     18          0.240468   1.000000
     19          0.543101   1.000000
     20          1.648606   1.000000
     21          1.738792   0.999964
     22          1.806925   0.979458
     23          5.675403   0.000000
     24          5.695966   0.000000
     25          6.488428   0.000000
     26          6.526293   0.000000
     27          6.698950   0.000000
     28          7.217622   0.000000
     29          8.292831   0.000000
     30          8.843110   0.000000
     31          8.871503   0.000000
     32          9.820569   0.000000
     33          9.885389   0.000000
     34          9.938023   0.000000
     35         10.399303   0.000000
     36         10.898624   0.000000
     37         11.405157   0.000000
     38         12.023397   0.000000
     39         12.196356   0.000000
     40         12.457152   0.000000
     41         12.504445   0.000000
     42         13.083790   0.000000
     43         14.841919   0.000000
     44         14.955766   0.000000
     45         15.245353   0.000000
     46         15.604362   0.000000
     47         15.660486   0.000000
     48         16.290153   0.000000
 
  0.3684211E+00  0.0000000E+00  0.0000000E+00  0.2293315E-03
      1        -12.448437   1.000000
      2        -11.995103   1.000000
      3         -8.520424   1.000000
      4         -8.395200   1.000000
      5         -6.076239   1.000000
      6         -6.063842   1.000000
      7         -4.329916   1.000000
      8         -3.568721   1.000000
      9         -2.919457   1.000000
     10         -2.891515   1.000000
     11         -2.524956   1.000000
     12         -2.348482   1.000000
     13         -2.176603   1.000000
     14         -2.153531   1.000000
     15         -0.574269   1.000000
     16         -0.307191   1.000000
     17          0.208321   1.000000
     18          0.281957   1.000000
     19          0.658094   1.000000
     20          1.472567   1.000000
     21          1.672798   1.000000
     22          1.732134   0.999984
     23          5.676347   0.000000
     24          5.726677   0.000000
     25          6.448962   0.000000
     26          6.606904   0.000000
     27          6.840218   0.000000
     28          7.549032   0.000000
     29          8.355928   0.000000
     30          8.654471   0.000000
     31          8.745702   0.000000
     32          9.420816   0.000000
     33         10.144484   0.000000
     34         10.193647   0.000000
     35         10.452440   0.000000
     36         11.277050   0.000000
     37         11.387963   0.000000
     38         11.858092   0.000000
     39         12.131473   0.000000
     40         12.254671   0.000000
     41         12.511172   0.000000
     42         13.290008   0.000000
     43         14.619362   0.000000
     44         15.014512   0.000000
     45         15.138570   0.000000
     46         15.335425   0.000000
     47         15.603806   0.000000
     48         16.413820   0.000000
 
  0.4210526E+00  0.0000000E+00  0.0000000E+00  0.2293315E-03
      1        -12.367583   1.000000
      2        -12.091332   1.000000
      3         -8.485183   1.000000
      4         -8.406165   1.000000
      5         -6.127123   1.000000
      6         -6.123771   1.000000
      7         -4.060670   1.000000
      8         -3.451611   1.000000
      9         -3.133146   1.000000
     10         -3.040246   1.000000
     11         -2.503084   1.000000
     12         -2.367055   1.000000
     13         -2.057564   1.000000
     14         -1.974282   1.000000
     15         -0.702644   1.000000
     16         -0.504470   1.000000
     17          0.256018   1.000000
     18          0.306685   1.000000
     19          0.793936   1.000000
     20          1.292072   1.000000
     21          1.628552   1.000000
     22          1.669674   1.000000
     23          5.688986   0.000000
     24          5.735992   0.000000
     25          6.434287   0.000000
     26          6.534240   0.000000
     27          7.191091   0.000000
     28          7.898096   0.000000
     29          8.328960   0.000000
     30          8.418714   0.000000
     31          8.650064   0.000000
     32          9.025305   0.000000
     33         10.396833   0.000000
     34         10.418070   0.000000
     35         10.636306   0.000000
     36         11.333068   0.000000
     37         11.521810   0.000000
     38         11.683993   0.000000
     39         11.785105   0.000000
     40         12.510888   0.000000
     41         12.515148   0.000000
     42         13.312771   0.000000
     43         14.541462   0.000000
     44         14.817811   0.000000
     45         14.973535   0.000000
     46         15.028723   0.000000
     47         15.932932   0.000000
     48         16.469247   0.000000
 
  0.4736842E+00  0.0000000E+00  0.0000000E+00  0.2293315E-03
      1        -12.279882   1.000000
      2        -12.187100   1.000000
      3         -8.452617   1.000000
      4         -8.425585   1.000000
      5         -6.156142   1.000000
      6         -6.153276   1.000000
      7         -3.760837   1.000000
      8         -3.444281   1.000000
      9         -3.323090   1.000000
     10         -3.185143   1.000000
     11         -2.443415   1.000000
     12         -2.399191   1.000000
     13         -1.934236   1.000000
     14         -1.889744   1.000000
     15         -0.745998   1.000000
     16         -0.668613   1.000000
     17          0.292108   1.000000
     18          0.310251   1.000000
     19          0.947342   1.000000
     20          1.114919   1.000000
     21          1.612833   1.000000
     22          1.627630   1.000000
     23          5.708457   0.000000
     24          5.727208   0.000000
     25          6.445600   0.000000
     26          6.480027   0.000000
     27          7.567346   0.000000
     28          7.954058   0.000000
     29          8.261937   0.000000
     30          8.486301   0.000000
     31          8.562884   0.000000
     32          8.638296   0.000000
     33         10.575384   0.000000
     34         10.578206   0.000000
     35         10.895615   0.000000
     36         11.196985   0.000000
     37         11.318338   0.000000
     38         11.471230   0.000000
     39         12.094322   0.000000
     40         12.383077   0.000000
     41         12.803981   0.000000
     42         13.102914   0.000000
     43         14.622783   0.000000
     44         14.738970   0.000000
     45         14.780925   0.000000
     46         14.853202   0.000000
     47         16.212531   0.000000
     48         16.405374   0.000000
 
  0.0000000E+00  0.3703704E-01  0.0000000E+00  0.2293315E-03
      1        -12.729950   1.000000
      2        -11.573129   1.000000
      3         -8.659220   1.000000
      4         -8.421330   1.000000
      5         -6.073277   1.000000
      6         -5.053754   1.000000
      7         -4.634770   1.000000
      8         -4.358560   1.000000
      9         -4.048879   1.000000
     10         -3.594571   1.000000
     11         -2.600324   1.000000
     12         -2.323402   1.000000
     13         -1.809096   1.000000
     14         -1.051219   1.000000
     15         -0.076682   1.000000
     16         -0.050052   1.000000
     17          0.152839   1.000000
     18          0.196485   1.000000
     19          0.581860   1.000000
     20          2.028274   0.000012
     21          2.089706   0.000000
     22          2.236582   0.000000
     23          5.448624   0.000000
     24          5.760760   0.000000
     25          5.862163   0.000000
     26          5.878728   0.000000
     27          6.829724   0.000000
     28          7.729661   0.000000
     29          7.730654   0.000000
     30          8.510287   0.000000
     31          8.753725   0.000000
     32          8.921974   0.000000
     33          9.050366   0.000000
     34         10.116189   0.000000
     35         11.178757   0.000000
     36         11.389397   0.000000
     37         11.759743   0.000000
     38         11.818895   0.000000
     39         11.914517   0.000000
     40         12.395488   0.000000
     41         12.807366   0.000000
     42         13.350507   0.000000
     43         13.527934   0.000000
     44         15.539915   0.000000
     45         15.550747   0.000000
     46         15.954762   0.000000
     47         16.333642   0.000000
     48         16.485492   0.000000
 
  0.5263158E-01  0.3703704E-01  0.0000000E+00  0.4586630E-03
      1        -12.723850   1.000000
      2        -11.583765   1.000000
      3         -8.656394   1.000000
      4         -8.419514   1.000000
      5         -6.060393   1.000000
      6         -5.136158   1.000000
      7         -4.666626   1.000000
      8         -4.266144   1.000000
      9         -4.035703   1.000000
     10         -3.535445   1.000000
     11         -2.609826   1.000000
     12         -2.320644   1.000000
     13         -1.821740   1.000000
     14         -1.097338   1.000000
     15         -0.070740   1.000000
     16         -0.041302   1.000000
     17          0.160193   1.000000
     18          0.179628   1.000000
     19          0.567774   1.000000
     20          2.015641   0.000057
     21          2.078276   0.000000
     22          2.219695   0.000000
     23          5.462776   0.000000
     24          5.748194   0.000000
     25          5.840665   0.000000
     26          5.965758   0.000000
     27          6.816501   0.000000
     28          7.542068   0.000000
     29          7.888139   0.000000
     30          8.531646   0.000000
     31          8.810139   0.000000
     32          8.958307   0.000000
     33          9.054569   0.000000
     34         10.130761   0.000000
     35         11.188703   0.000000
     36         11.329665   0.000000
     37         11.656079   0.000000
     38         11.781954   0.000000
     39         11.947408   0.000000
     40         12.407509   0.000000
     41         12.877307   0.000000
     42         13.460070   0.000000
     43         13.470904   0.000000
     44         15.369764   0.000000
     45         15.573258   0.000000
     46         16.069224   0.000000
     47         16.318007   0.000000
     48         16.358070   0.000000
 
  0.1052632E+00  0.3703704E-01  0.0000000E+00  0.4586630E-03
      1        -12.705609   1.000000
      2        -11.615033   1.000000
      3         -8.647754   1.000000
      4         -8.414421   1.000000
      5         -6.026928   1.000000
      6         -5.308883   1.000000
      7         -4.735607   1.000000
      8         -4.092730   1.000000
      9         -3.967267   1.000000
     10         -3.380899   1.000000
     11         -2.638639   1.000000
     12         -2.312315   1.000000
     13         -1.857032   1.000000
     14         -1.229979   1.000000
     15         -0.053446   1.000000
     16         -0.020637   1.000000
     17          0.133734   1.000000
     18          0.180489   1.000000
     19          0.526072   1.000000
     20          1.978785   0.002414
     21          2.044967   0.000001
     22          2.169070   0.000000
     23          5.502310   0.000000
     24          5.755376   0.000000
     25          5.830230   0.000000
     26          6.127852   0.000000
     27          6.778974   0.000000
     28          7.346568   0.000000
     29          8.008985   0.000000
     30          8.592202   0.000000
     31          8.960917   0.000000
     32          9.059219   0.000000
     33          9.068845   0.000000
     34         10.175428   0.000000
     35         11.158957   0.000000
     36         11.218961   0.000000
     37         11.400090   0.000000
     38         11.722176   0.000000
     39         12.042780   0.000000
     40         12.443161   0.000000
     41         13.028438   0.000000
     42         13.312443   0.000000
     43         13.726454   0.000000
     44         15.075014   0.000000
     45         15.661945   0.000000
     46         16.057784   0.000000
     47         16.186765   0.000000
     48         16.433042   0.000000
 
  0.1578947E+00  0.3703704E-01  0.0000000E+00  0.4586630E-03
      1        -12.675432   1.000000
      2        -11.665109   1.000000
      3         -8.632942   1.000000
      4         -8.407005   1.000000
      5         -5.988335   1.000000
      6         -5.497785   1.000000
      7         -4.791755   1.000000
      8         -4.006593   1.000000
      9         -3.751028   1.000000
     10         -3.169657   1.000000
     11         -2.687071   1.000000
     12         -2.298221   1.000000
     13         -1.908189   1.000000
     14         -1.434430   1.000000
     15         -0.026626   1.000000
     16         -0.025422   1.000000
     17          0.094080   1.000000
     18          0.204377   1.000000
     19          0.464613   1.000000
     20          1.920875   0.118939
     21          1.992596   0.000666
     22          2.085357   0.000000
     23          5.559503   0.000000
     24          5.757509   0.000000
     25          5.881423   0.000000
     26          6.338441   0.000000
     27          6.722980   0.000000
     28          7.164269   0.000000
     29          8.104344   0.000000
     30          8.680368   0.000000
     31          9.060457   0.000000
     32          9.167109   0.000000
     33          9.239132   0.000000
     34         10.255343   0.000000
     35         10.899451   0.000000
     36         11.082299   0.000000
     37         11.269311   0.000000
     38         11.703502   0.000000
     39         12.184190   0.000000
     40         12.508203   0.000000
     41         13.079701   0.000000
     42         13.139365   0.000000
     43         14.060254   0.000000
     44         14.848465   0.000000
     45         15.737497   0.000000
     46         15.815292   0.000000
     47         16.221403   0.000000
     48         16.529015   0.000000
 
  0.2105263E+00  0.3703704E-01  0.0000000E+00  0.4586630E-03
      1        -12.633680   1.000000
      2        -11.731252   1.000000
      3         -8.611795   1.000000
      4         -8.398855   1.000000
      5         -5.966868   1.000000
      6         -5.676172   1.000000
      7         -4.792070   1.000000
      8         -3.942945   1.000000
      9         -3.482081   1.000000
     10         -2.933129   1.000000
     11         -2.750752   1.000000
     12         -2.278163   1.000000
     13         -1.967067   1.000000
     14         -1.691381   1.000000
     15         -0.116597   1.000000
     16          0.004078   1.000000
     17          0.119573   1.000000
     18          0.194978   1.000000
     19          0.424000   1.000000
     20          1.846884   0.819242
     21          1.925512   0.094848
     22          1.971103   0.004648
     23          5.624093   0.000000
     24          5.734300   0.000000
     25          6.023673   0.000000
     26          6.583420   0.000000
     27          6.656799   0.000000
     28          7.009342   0.000000
     29          8.186293   0.000000
     30          8.771837   0.000000
     31          9.037607   0.000000
     32          9.397758   0.000000
     33          9.464164   0.000000
     34         10.373801   0.000000
     35         10.582383   0.000000
     36         10.770087   0.000000
     37         11.333627   0.000000
     38         11.756263   0.000000
     39         12.323589   0.000000
     40         12.633735   0.000000
     41         12.800256   0.000000
     42         13.086367   0.000000
     43         14.403231   0.000000
     44         14.809012   0.000000
     45         15.454896   0.000000
     46         15.925788   0.000000
     47         16.145950   0.000000
     48         16.503229   0.000000
 
  0.2631579E+00  0.3703704E-01  0.0000000E+00  0.4586630E-03
      1        -12.580898   1.000000
      2        -11.810150   1.000000
      3         -8.584674   1.000000
      4         -8.392088   1.000000
      5         -5.978338   1.000000
      6         -5.833053   1.000000
      7         -4.711829   1.000000
      8         -3.869350   1.000000
      9         -3.212470   1.000000
     10         -2.861811   1.000000
     11         -2.655087   1.000000
     12         -2.254443   1.000000
     13         -2.026917   1.000000
     14         -1.975824   1.000000
     15         -0.253988   1.000000
     16          0.002681   1.000000
     17          0.134638   1.000000
     18          0.169333   1.000000
     19          0.458858   1.000000
     20          1.760575   0.999601
     21          1.834425   0.897039
     22          1.849221   0.801329
     23          5.685567   0.000000
     24          5.712755   0.000000
     25          6.233448   0.000000
     26          6.589998   0.000000
     27          6.791573   0.000000
     28          6.948556   0.000000
     29          8.259694   0.000000
     30          8.821029   0.000000
     31          8.988715   0.000000
     32          9.639550   0.000000
     33          9.717408   0.000000
     34         10.189097   0.000000
     35         10.462860   0.000000
     36         10.654554   0.000000
     37         11.393646   0.000000
     38         11.882332   0.000000
     39         12.414763   0.000000
     40         12.485509   0.000000
     41         12.848999   0.000000
     42         12.856617   0.000000
     43         14.697551   0.000000
     44         14.983967   0.000000
     45         15.151800   0.000000
     46         15.939245   0.000000
     47         15.951449   0.000000
     48         16.252501   0.000000
 
  0.3157895E+00  0.3703704E-01  0.0000000E+00  0.4586630E-03
      1        -12.517767   1.000000
      2        -11.898232   1.000000
      3         -8.552677   1.000000
      4         -8.389117   1.000000
      5         -6.018996   1.000000
      6         -5.962182   1.000000
      7         -4.551629   1.000000
      8         -3.783111   1.000000