  14  14   0   0
  0.1021960E+02  0.5697000E-09  0.4047900E-09  0.6204200E-09  0.5000000E-15
  1.000000000000000E-004
  CAR 
 Kpoints                                 
     17.98017124    -14.18822039  301      1.88757531      1.00000000
    -14.188  0.0000E+00  0.0000E+00
    -14.081  0.0000E+00  0.0000E+00
    -13.974  0.0000E+00  0.0000E+00
    -13.867  0.0000E+00  0.0000E+00
    -13.759  0.0000E+00  0.0000E+00
    -13.652  0.0000E+00  0.0000E+00
    -13.545  0.0000E+00  0.0000E+00
    -13.438  0.0000E+00  0.0000E+00
    -13.330  0.0000E+00  0.0000E+00
    -13.223  0.0000E+00  0.0000E+00
    -13.116  0.0000E+00  0.0000E+00
    -13.009  0.4602E-16  0.4934E-17
    -12.901  0.2948E-07  0.3161E-08
    -12.794  0.3810E-02  0.4085E-03
    -12.687  0.5080E+00  0.5488E-01
    -12.580  0.2387E+01  0.3109E+00
    -12.473  0.3561E+01  0.6927E+00
    -12.365  0.4369E+01  0.1161E+01
    -12.258  0.3538E+01  0.1540E+01
    -12.151  0.2734E+01  0.1834E+01
    -12.044  0.2749E+01  0.2128E+01
    -11.936  0.2501E+01  0.2397E+01
    -11.829  0.2770E+01  0.2694E+01
    -11.722  0.3418E+01  0.3060E+01
    -11.615  0.3532E+01  0.3439E+01
    -11.508  0.3121E+01  0.3773E+01
    -11.400  0.1677E+01  0.3953E+01
    -11.293  0.4292E+00  0.3999E+01
    -11.186  0.7683E-02  0.4000E+01
    -11.079  0.1979E-06  0.4000E+01
    -10.971  0.1131E-14  0.4000E+01
    -10.864  0.0000E+00  0.4000E+01
    -10.757  0.0000E+00  0.4000E+01
    -10.650  0.0000E+00  0.4000E+01
    -10.542  0.0000E+00  0.4000E+01
    -10.435  0.0000E+00  0.4000E+01
    -10.328  0.0000E+00  0.4000E+01
    -10.221  0.0000E+00  0.4000E+01
    -10.114  0.0000E+00  0.4000E+01
    -10.006  0.0000E+00  0.4000E+01
     -9.899  0.0000E+00  0.4000E+01
     -9.792  0.0000E+00  0.4000E+01
     -9.685  0.0000E+00  0.4000E+01
     -9.577  0.0000E+00  0.4000E+01
     -9.470  0.0000E+00  0.4000E+01
     -9.363  0.0000E+00  0.4000E+01
     -9.256  0.0000E+00  0.4000E+01
     -9.149  0.0000E+00  0.4000E+01
     -9.041  0.8779E-09  0.4000E+01
     -8.934  0.6016E-03  0.4000E+01
     -8.827  0.2725E+00  0.4029E+01
     -8.720  0.2079E+01  0.4252E+01
     -8.612  0.5309E+01  0.4822E+01
     -8.505  0.6984E+01  0.5570E+01
     -8.398  0.6301E+01  0.6246E+01
     -8.291  0.5322E+01  0.6817E+01
     -8.183  0.4834E+01  0.7335E+01
     -8.076  0.3888E+01  0.7752E+01
     -7.969  0.1677E+01  0.7932E+01
     -7.862  0.5828E+00  0.7994E+01
     -7.755  0.5328E-01  0.8000E+01
     -7.647  0.2584E-04  0.8000E+01
     -7.540  0.3055E-11  0.8000E+01
     -7.433  0.0000E+00  0.8000E+01
     -7.326  0.0000E+00  0.8000E+01
     -7.218  0.0000E+00  0.8000E+01
     -7.111  0.4483E-09  0.8000E+01
     -7.004  0.3817E-03  0.8000E+01
     -6.897  0.1118E+00  0.8012E+01
     -6.789  0.2578E+00  0.8040E+01
     -6.682  0.4245E+00  0.8085E+01
     -6.575  0.7647E+00  0.8167E+01
     -6.468  0.8508E+00  0.8258E+01
     -6.361  0.1444E+01  0.8413E+01
     -6.253  0.1959E+01  0.8623E+01
     -6.146  0.3050E+01  0.8950E+01
     -6.039  0.3785E+01  0.9356E+01
     -5.932  0.4111E+01  0.9797E+01
     -5.824  0.4051E+01  0.1023E+02
     -5.717  0.3860E+01  0.1065E+02
     -5.610  0.4071E+01  0.1108E+02
     -5.503  0.4219E+01  0.1153E+02
     -5.396  0.4543E+01  0.1202E+02
     -5.288  0.4595E+01  0.1251E+02
     -5.181  0.4488E+01  0.1300E+02
     -5.074  0.3867E+01  0.1341E+02
     -4.967  0.3226E+01  0.1376E+02
     -4.859  0.2959E+01  0.1407E+02
     -4.752  0.2322E+01  0.1432E+02
     -4.645  0.2893E+01  0.1463E+02
     -4.538  0.3365E+01  0.1499E+02
     -4.430  0.3460E+01  0.1536E+02
     -4.323  0.3344E+01  0.1572E+02
     -4.216  0.2951E+01  0.1604E+02
     -4.109  0.2906E+01  0.1635E+02
     -4.002  0.2941E+01  0.1667E+02
     -3.894  0.2861E+01  0.1697E+02
     -3.787  0.3111E+01  0.1731E+02
     -3.680  0.2883E+01  0.1762E+02
     -3.573  0.2699E+01  0.1791E+02
     -3.465  0.3064E+01  0.1823E+02
     -3.358  0.2642E+01  0.1852E+02
     -3.251  0.2852E+01  0.1882E+02
     -3.144  0.2760E+01  0.1912E+02
     -3.037  0.2726E+01  0.1941E+02
     -2.929  0.3052E+01  0.1974E+02
     -2.822  0.2972E+01  0.2006E+02
     -2.715  0.2436E+01  0.2032E+02
     -2.608  0.2650E+01  0.2060E+02
     -2.500  0.3012E+01  0.2093E+02
     -2.393  0.2990E+01  0.2125E+02
     -2.286  0.3188E+01  0.2159E+02
     -2.179  0.4012E+01  0.2202E+02
     -2.071  0.3653E+01  0.2241E+02
     -1.964  0.3259E+01  0.2276E+02
     -1.857  0.5084E+01  0.2330E+02
     -1.750  0.5578E+01  0.2390E+02
     -1.643  0.5608E+01  0.2450E+02
     -1.535  0.6172E+01  0.2517E+02
     -1.428  0.6105E+01  0.2582E+02
     -1.321  0.5589E+01  0.2642E+02
     -1.214  0.4682E+01  0.2692E+02
     -1.106  0.6486E+01  0.2762E+02
     -0.999  0.4028E+01  0.2805E+02
     -0.892  0.2272E+01  0.2829E+02
     -0.785  0.2698E+01  0.2858E+02
     -0.677  0.2868E+01  0.2889E+02
     -0.570  0.4487E+01  0.2937E+02
     -0.463  0.6850E+01  0.3011E+02
     -0.356  0.5658E+01  0.3071E+02
     -0.249  0.6693E+01  0.3143E+02
     -0.141  0.6353E+01  0.3211E+02
     -0.034  0.6731E+01  0.3283E+02
      0.073  0.6781E+01  0.3356E+02
      0.180  0.6260E+01  0.3423E+02
      0.288  0.8774E+01  0.3517E+02
      0.395  0.8014E+01  0.3603E+02
      0.502  0.8691E+01  0.3696E+02
      0.609  0.5317E+01  0.3753E+02
      0.716  0.2958E+01  0.3785E+02
      0.824  0.3278E+01  0.3820E+02
      0.931  0.3590E+01  0.3859E+02
      1.038  0.3566E+01  0.3897E+02
      1.145  0.2788E+01  0.3927E+02
      1.253  0.3378E+01  0.3963E+02
      1.360  0.4495E+01  0.4011E+02
      1.467  0.3784E+01  0.4052E+02
      1.574  0.3707E+01  0.4092E+02
      1.682  0.4577E+01  0.4141E+02
      1.789  0.3260E+01  0.4176E+02
      1.896  0.2479E+01  0.4202E+02
      2.003  0.2660E+01  0.4231E+02
      2.110  0.2092E+01  0.4253E+02
      2.218  0.2650E+01  0.4282E+02
      2.325  0.2578E+01  0.4309E+02
      2.432  0.1949E+01  0.4330E+02
      2.539  0.8616E+00  0.4339E+02
      2.647  0.3777E+00  0.4343E+02
      2.754  0.5734E+00  0.4350E+02
      2.861  0.4186E+00  0.4354E+02
      2.968  0.3065E+00  0.4357E+02
      3.075  0.7516E+00  0.4365E+02
      3.183  0.1014E+01  0.4376E+02
      3.290  0.5468E+00  0.4382E+02
      3.397  0.1370E-01  0.4382E+02
      3.504  0.1280E+00  0.4384E+02
      3.612  0.3943E+00  0.4388E+02
      3.719  0.3329E+00  0.4391E+02
      3.826  0.3694E+00  0.4395E+02
      3.933  0.4049E+00  0.4400E+02
      4.041  0.2794E-01  0.4400E+02
      4.148  0.2761E-04  0.4400E+02
      4.255  0.3103E-01  0.4400E+02
      4.362  0.1760E+00  0.4402E+02
      4.469  0.4020E+00  0.4407E+02
      4.577  0.4696E+00  0.4412E+02
      4.684  0.6326E+00  0.4418E+02
      4.791  0.8894E+00  0.4428E+02
      4.898  0.8408E+00  0.4437E+02
      5.006  0.8550E+00  0.4446E+02
      5.113  0.1274E+01  0.4460E+02
      5.220  0.1153E+01  0.4472E+02
      5.327  0.1629E+01  0.4490E+02
      5.434  0.2189E+01  0.4513E+02
      5.542  0.2486E+01  0.4540E+02
      5.649  0.2784E+01  0.4570E+02
      5.756  0.3361E+01  0.4606E+02
      5.863  0.3224E+01  0.4640E+02
      5.971  0.4307E+01  0.4686E+02
      6.078  0.4762E+01  0.4737E+02
      6.185  0.4042E+01  0.4781E+02
      6.292  0.4619E+01  0.4830E+02
      6.400  0.4159E+01  0.4875E+02
      6.507  0.4012E+01  0.4918E+02
      6.614  0.4488E+01  0.4966E+02
      6.721  0.3226E+01  0.5001E+02
      6.828  0.4000E+01  0.5044E+02
      6.936  0.4613E+01  0.5093E+02
      7.043  0.4560E+01  0.5142E+02
      7.150  0.4342E+01  0.5188E+02
      7.257  0.5601E+01  0.5248E+02
      7.365  0.4922E+01  0.5301E+02
      7.472  0.4456E+01  0.5349E+02
      7.579  0.4186E+01  0.5394E+02
      7.686  0.3569E+01  0.5432E+02
      7.794  0.3124E+01  0.5466E+02
      7.901  0.3006E+01  0.5498E+02
      8.008  0.2983E+01  0.5530E+02
      8.115  0.4170E+01  0.5575E+02
      8.222  0.3891E+01  0.5616E+02
      8.330  0.3687E+01  0.5656E+02
      8.437  0.4003E+01  0.5699E+02
      8.544  0.4207E+01  0.5744E+02
      8.651  0.4471E+01  0.5792E+02
      8.759  0.4227E+01  0.5837E+02
      8.866  0.5289E+01  0.5894E+02
      8.973  0.4917E+01  0.5947E+02
      9.080  0.5299E+01  0.6003E+02
      9.187  0.5232E+01  0.6060E+02
      9.295  0.4967E+01  0.6113E+02
      9.402  0.4690E+01  0.6163E+02
      9.509  0.4365E+01  0.6210E+02
      9.616  0.5112E+01  0.6265E+02
      9.724  0.5017E+01  0.6318E+02
      9.831  0.5302E+01  0.6375E+02
      9.938  0.4459E+01  0.6423E+02
     10.045  0.3644E+01  0.6462E+02
     10.153  0.5204E+01  0.6518E+02
     10.260  0.4691E+01  0.6568E+02
     10.367  0.4127E+01  0.6613E+02
     10.474  0.5445E+01  0.6671E+02
     10.581  0.5767E+01  0.6733E+02
     10.689  0.4074E+01  0.6776E+02
     10.796  0.3872E+01  0.6818E+02
     10.903  0.3241E+01  0.6853E+02
     11.010  0.4701E+01  0.6903E+02
     11.118  0.5475E+01  0.6962E+02
     11.225  0.6219E+01  0.7029E+02
     11.332  0.5969E+01  0.7093E+02
     11.439  0.5272E+01  0.7149E+02
     11.546  0.4303E+01  0.7195E+02
     11.654  0.4475E+01  0.7243E+02
     11.761  0.4942E+01  0.7296E+02
     11.868  0.4818E+01  0.7348E+02
     11.975  0.6028E+01  0.7413E+02
     12.083  0.5978E+01  0.7477E+02
     12.190  0.5968E+01  0.7541E+02
     12.297  0.5622E+01  0.7601E+02
     12.404  0.4987E+01  0.7654E+02
     12.512  0.5688E+01  0.7715E+02
     12.619  0.5998E+01  0.7780E+02
     12.726  0.6008E+01  0.7844E+02
     12.833  0.5874E+01  0.7907E+02
     12.940  0.5866E+01  0.7970E+02
     13.048  0.5602E+01  0.8030E+02
     13.155  0.6352E+01  0.8098E+02
     13.262  0.6237E+01  0.8165E+02
     13.369  0.5406E+01  0.8223E+02
     13.477  0.6123E+01  0.8289E+02
     13.584  0.5342E+01  0.8346E+02
     13.691  0.4807E+01  0.8397E+02
     13.798  0.6158E+01  0.8464E+02
     13.906  0.5500E+01  0.8522E+02
     14.013  0.5351E+01  0.8580E+02
     14.120  0.5468E+01  0.8638E+02
     14.227  0.4661E+01  0.8688E+02
     14.334  0.4921E+01  0.8741E+02
     14.442  0.5011E+01  0.8795E+02
     14.549  0.4963E+01  0.8848E+02
     14.656  0.5271E+01  0.8905E+02
     14.763  0.5158E+01  0.8960E+02
     14.871  0.4083E+01  0.9004E+02
     14.978  0.5098E+01  0.9058E+02
     15.085  0.6184E+01  0.9125E+02
     15.192  0.5626E+01  0.9185E+02
     15.299  0.5705E+01  0.9246E+02
     15.407  0.6023E+01  0.9311E+02
     15.514  0.5727E+01  0.9372E+02
     15.621  0.5941E+01  0.9436E+02
     15.728  0.4568E+01  0.9485E+02
     15.836  0.2458E+01  0.9511E+02
     15.943  0.2712E+01  0.9540E+02
     16.050  0.1841E+01  0.9560E+02
     16.157  0.1142E+01  0.9572E+02
     16.265  0.8877E+00  0.9582E+02
     16.372  0.7021E+00  0.9589E+02
     16.479  0.8106E+00  0.9598E+02
     16.586  0.1759E+00  0.9600E+02
     16.693  0.1682E-02  0.9600E+02
     16.801  0.2059E-07  0.9600E+02
     16.908  0.3944E-16  0.9600E+02
     17.015  0.0000E+00  0.9600E+02
     17.122  0.0000E+00  0.9600E+02
     17.230  0.0000E+00  0.9600E+02
     17.337  0.0000E+00  0.9600E+02
     17.444  0.0000E+00  0.9600E+02
     17.551  0.0000E+00  0.9600E+02
     17.658  0.0000E+00  0.9600E+02
     17.766  0.0000E+00  0.9600E+02
     17.873  0.0000E+00  0.9600E+02
     17.980  0.0000E+00  0.9600E+02
