   14   14    1    1
  0.1021960E+02  0.5697000E-09  0.4047900E-09  0.6204200E-09  0.5000000E-15
  1.000000000000000E-004
  CAR 
 Kpoints                                 
     42    175     48
 
  0.5000000E-01  0.3571429E-01  0.0000000E+00  0.3174603E-02
      1        -12.728916   1.000000
      2        -11.583820   1.000000
      3         -8.658496   1.000000
      4         -8.422291   1.000000
      5         -6.061912   1.000000
      6         -5.126459   1.000000
      7         -4.662341   1.000000
      8         -4.265381   1.000000
      9         -4.026900   1.000000
     10         -3.538252   1.000000
     11         -2.592907   1.000000
     12         -2.324611   1.000000
     13         -1.831219   1.000000
     14         -1.088643   1.000000
     15         -0.058081   1.000000
     16         -0.028822   1.000000
     17          0.163323   1.000000
     18          0.184979   1.000000
     19          0.576024   1.000000
     20          2.034027   0.000065
     21          2.096443   0.000000
     22          2.228236   0.000000
     23          5.466357   0.000000
     24          5.757581   0.000000
     25          5.847502   0.000000
     26          5.967910   0.000000
     27          6.821122   0.000000
     28          7.553530   0.000000
     29          7.883742   0.000000
     30          8.535751   0.000000
     31          8.800233   0.000000
     32          8.946920   0.000000
     33          9.047289   0.000000
     34         10.124913   0.000000
     35         11.185946   0.000000
     36         11.352025   0.000000
     37         11.680433   0.000000
     38         11.786871   0.000000
     39         11.945233   0.000000
     40         12.410515   0.000000
     41         12.873517   0.000000
     42         13.464901   0.000000
     43         13.492984   0.000000
     44         15.392000   0.000000
     45         15.576784   0.000000
     46         16.070718   0.000000
     47         16.345844   0.000000
     48         16.368345   0.000000
 
  0.1500000E+00  0.3571429E-01  0.0000000E+00  0.3174603E-02
      1        -12.684980   1.000000
      2        -11.657396   1.000000
      3         -8.637153   1.000000
      4         -8.410564   1.000000
      5         -5.993330   1.000000
      6         -5.467185   1.000000
      7         -4.785252   1.000000
      8         -4.002546   1.000000
      9         -3.782736   1.000000
     10         -3.199993   1.000000
     11         -2.662521   1.000000
     12         -2.304822   1.000000
     13         -1.909506   1.000000
     14         -1.396279   1.000000
     15         -0.017569   1.000000
     16         -0.011107   1.000000
     17          0.103249   1.000000
     18          0.206334   1.000000
     19          0.480414   1.000000
     20          1.946516   0.088507
     21          2.019616   0.000316
     22          2.107858   0.000000
     23          5.555777   0.000000
     24          5.768287   0.000000
     25          5.874554   0.000000
     26          6.314748   0.000000
     27          6.736630   0.000000
     28          7.190538   0.000000
     29          8.092561   0.000000
     30          8.673765   0.000000
     31          9.055860   0.000000
     32          9.130930   0.000000
     33          9.202500   0.000000
     34         10.237308   0.000000
     35         10.957409   0.000000
     36         11.144671   0.000000
     37         11.259579   0.000000
     38         11.702697   0.000000
     39         12.164875   0.000000
     40         12.498148   0.000000
     41         13.134567   0.000000
     42         13.138178   0.000000
     43         14.028483   0.000000
     44         14.876695   0.000000
     45         15.759227   0.000000
     46         15.839551   0.000000
     47         16.238958   0.000000
     48         16.527598   0.000000
 
  0.2500000E+00  0.3571429E-01  0.0000000E+00  0.3174603E-02
      1        -12.599003   1.000000
      2        -11.790303   1.000000
      3         -8.593171   1.000000
      4         -8.395801   1.000000
      5         -5.971367   1.000000
      6         -5.794476   1.000000
      7         -4.738903   1.000000
      8         -3.875732   1.000000
      9         -3.269139   1.000000
     10         -2.829175   1.000000
     11         -2.707178   1.000000
     12         -2.264166   1.000000
     13         -2.019750   1.000000
     14         -1.901377   1.000000
     15         -0.213395   1.000000
     16          0.025248   1.000000
     17          0.154618   1.000000
     18          0.169005   1.000000
     19          0.448228   1.000000
     20          1.799307   0.997551
     21          1.877818   0.723430
     22          1.886745   0.633290
     23          5.677602   0.000000
     24          5.725240   0.000000
     25          6.183865   0.000000
     26          6.611791   0.000000
     27          6.772108   0.000000
     28          6.938451   0.000000
     29          8.243208   0.000000
     30          8.823811   0.000000
     31          9.001080   0.000000
     32          9.575821   0.000000
     33          9.648955   0.000000
     34         10.295152   0.000000
     35         10.492926   0.000000
     36         10.630517   0.000000
     37         11.382521   0.000000
     38         11.844028   0.000000
     39         12.401106   0.000000
     40         12.576924   0.000000
     41         12.799471   0.000000
     42         12.928457   0.000000
     43         14.651496   0.000000
     44         14.931661   0.000000
     45         15.236089   0.000000
     46         15.996449   0.000000
     47         16.015935   0.000000
     48         16.307034   0.000000
 
  0.3500000E+00  0.3571429E-01  0.0000000E+00  0.3174603E-02
      1        -12.475181   1.000000
      2        -11.960328   1.000000
      3         -8.531289   1.000000
      4         -8.392250   1.000000
      5         -6.053435   1.000000
      6         -6.028876   1.000000
      7         -4.409940   1.000000
      8         -3.707100   1.000000
      9         -3.023203   1.000000
     10         -2.884301   1.000000
     11         -2.438537   1.000000
     12         -2.244470   1.000000
     13         -2.145962   1.000000
     14         -2.119596   1.000000
     15         -0.512609   1.000000
     16         -0.235742   1.000000
     17          0.184834   1.000000
     18          0.258883   1.000000
     19          0.621649   1.000000
     20          1.542079   1.000000
     21          1.676413   1.000000
     22          1.737282   0.999998
     23          5.711013   0.000000
     24          5.765032   0.000000
     25          6.509791   0.000000
     26          6.677338   0.000000
     27          6.709062   0.000000
     28          7.425729   0.000000
     29          8.366772   0.000000
     30          8.696924   0.000000
     31          8.810405   0.000000
     32          9.551028   0.000000
     33         10.056626   0.000000
     34         10.122189   0.000000
     35         10.403432   0.000000
     36         11.149810   0.000000
     37         11.411203   0.000000
     38         11.955411   0.000000
     39         12.207969   0.000000
     40         12.281690   0.000000
     41         12.528535   0.000000
     42         13.267025   0.000000
     43         14.721489   0.000000
     44         14.987197   0.000000
     45         15.280085   0.000000
     46         15.388617   0.000000
     47         15.591147   0.000000
     48         16.390349   0.000000
 
  0.4500000E+00  0.3571429E-01  0.0000000E+00  0.3174603E-02
      1        -12.319758   1.000000
      2        -12.143490   1.000000
      3         -8.464959   1.000000
      4         -8.414313   1.000000
      5         -6.142675   1.000000
      6         -6.138404   1.000000
      7         -3.893334   1.000000
      8         -3.498872   1.000000
      9         -3.293463   1.000000
     10         -3.261569   1.000000
     11         -2.354136   1.000000
     12         -2.228463   1.000000
     13         -1.956741   1.000000
     14         -1.898634   1.000000
     15         -0.734019   1.000000
     16         -0.596830   1.000000
     17          0.267852   1.000000
     18          0.301412   1.000000
     19          0.883922   1.000000
     20          1.202080   1.000000
     21          1.594363   1.000000
     22          1.621839   1.000000
     23          5.737936   0.000000
     24          5.775342   0.000000
     25          6.486372   0.000000
     26          6.549223   0.000000
     27          7.378895   0.000000
     28          8.087856   0.000000
     29          8.105763   0.000000
     30          8.482985   0.000000
     31          8.620030   0.000000
     32          8.804961   0.000000
     33         10.505477   0.000000
     34         10.520414   0.000000
     35         10.766540   0.000000
     36         11.225630   0.000000
     37         11.409328   0.000000
     38         11.603422   0.000000
     39         11.937615   0.000000
     40         12.489107   0.000000
     41         12.722732   0.000000
     42         13.262529   0.000000
     43         14.599943   0.000000
     44         14.745596   0.000000
     45         14.879473   0.000000
     46         14.937851   0.000000
     47         16.122852   0.000000
     48         16.464025   0.000000
 
  0.5000000E-01  0.1071429E+00  0.0000000E+00  0.3174603E-02
      1        -12.705070   1.000000
      2        -11.562297   1.000000
      3         -8.640133   1.000000
      4         -8.399367   1.000000
      5         -6.035331   1.000000
      6         -5.092711   1.000000
      7         -4.640806   1.000000
      8         -4.567538   1.000000
      9         -4.170971   1.000000
     10         -3.515551   1.000000
     11         -3.287140   1.000000
     12         -1.791557   1.000000
     13         -1.084610   1.000000
     14         -1.031771   1.000000
     15         -0.294130   1.000000
     16         -0.264964   1.000000
     17          0.177558   1.000000
     18          0.255588   1.000000
     19          0.654447   1.000000
     20          1.762977   0.999939
     21          1.843204   0.942035
     22          2.279560   0.000000
     23          5.584379   0.000000
     24          5.716364   0.000000
     25          5.751125   0.000000
     26          6.016505   0.000000
     27          7.107506   0.000000
     28          7.839324   0.000000
     29          8.076517   0.000000
     30          8.194447   0.000000
     31          8.804963   0.000000
     32          9.095642   0.000000
     33          9.146944   0.000000
     34         10.579053   0.000000
     35         11.279660   0.000000
     36         11.401453   0.000000
     37         11.614194   0.000000
     38         11.889805   0.000000
     39         12.056537   0.000000
     40         12.690678   0.000000
     41         12.874245   0.000000
     42         13.202112   0.000000
     43         13.207172   0.000000
     44         15.336383   0.000000
     45         15.392318   0.000000
     46         15.870982   0.000000
     47         15.876767   0.000000
     48         16.232113   0.000000
 
  0.1500000E+00  0.1071429E+00  0.0000000E+00  0.3174603E-02
      1        -12.660965   1.000000
      2        -11.635719   1.000000
      3         -8.618008   1.000000
      4         -8.387742   1.000000
      5         -5.964573   1.000000
      6         -5.437034   1.000000
      7         -4.765142   1.000000
      8         -4.485291   1.000000
      9         -3.744221   1.000000
     10         -3.367119   1.000000
     11         -3.162090   1.000000
     12         -1.768886   1.000000
     13         -1.390351   1.000000
     14         -1.149626   1.000000
     15         -0.253934   1.000000
     16         -0.185635   1.000000
     17          0.146585   1.000000
     18          0.228505   1.000000
     19          0.551282   1.000000
     20          1.684704   1.000000
     21          1.769578   0.999871
     22          2.150484   0.000000
     23          5.660909   0.000000
     24          5.816304   0.000000
     25          5.946302   0.000000
     26          6.121776   0.000000
     27          7.025665   0.000000
     28          7.513522   0.000000
     29          8.223587   0.000000
     30          8.364987   0.000000
     31          9.127857   0.000000
     32          9.161202   0.000000
     33          9.414446   0.000000
     34         10.507001   0.000000
     35         10.888026   0.000000
     36         11.095760   0.000000
     37         11.457372   0.000000
     38         11.876130   0.000000
     39         12.278215   0.000000
     40         12.746548   0.000000
     41         12.878310   0.000000
     42         13.161795   0.000000
     43         13.743911   0.000000
     44         14.963448   0.000000
     45         15.407915   0.000000
     46         15.763075   0.000000
     47         15.806896   0.000000
     48         16.415618   0.000000
 
  0.2500000E+00  0.1071429E+00  0.0000000E+00  0.3174603E-02
      1        -12.575102   1.000000
      2        -11.768400   1.000000
      3         -8.574010   1.000000
      4         -8.373595   1.000000
      5         -5.940139   1.000000
      6         -5.764254   1.000000
      7         -4.722211   1.000000
      8         -4.377341   1.000000
      9         -3.489035   1.000000
     10         -3.216096   1.000000
     11         -2.694034   1.000000
     12         -1.896378   1.000000
     13         -1.724534   1.000000
     14         -1.310927   1.000000
     15         -0.215934   1.000000
     16         -0.205484   1.000000
     17          0.064284   1.000000
     18          0.216872   1.000000
     19          0.473730   1.000000
     20          1.549808   1.000000
     21          1.640347   1.000000
     22          1.902493   0.458245
     23          5.867505   0.000000
     24          5.944598   0.000000
     25          6.020567   0.000000
     26          6.570575   0.000000
     27          6.906063   0.000000
     28          7.286324   0.000000
     29          8.432301   0.000000
     30          8.497153   0.000000
     31          9.100825   0.000000
     32          9.613868   0.000000
     33          9.876009   0.000000
     34         10.137812   0.000000
     35         10.363247   0.000000
     36         10.825013   0.000000
     37         11.525147   0.000000
     38         12.110118   0.000000
     39         12.318738   0.000000
     40         12.564238   0.000000
     41         12.967916   0.000000
     42         13.030353   0.000000
     43         14.320430   0.000000
     44         15.097391   0.000000
     45         15.174808   0.000000
     46         15.657398   0.000000
     47         15.722681   0.000000
     48         16.435466   0.000000
 
  0.3500000E+00  0.1071429E+00  0.0000000E+00  0.3174603E-02
      1        -12.451552   1.000000
      2        -11.937664   1.000000
      3         -8.511719   1.000000
      4         -8.370864   1.000000
      5         -6.020670   1.000000
      6         -5.996821   1.000000
      7         -4.395818   1.000000
      8         -4.230545   1.000000
      9         -3.659907   1.000000
     10         -2.836866   1.000000
     11         -2.355386   1.000000
     12         -2.208943   1.000000
     13         -1.660145   1.000000
     14         -1.473260   1.000000
     15         -0.474703   1.000000
     16         -0.298112   1.000000
     17          0.096050   1.000000
     18          0.126268   1.000000
     19          0.633980   1.000000
     20          1.410061   1.000000
     21          1.493727   1.000000
     22          1.577996   1.000000
     23          5.885692   0.000000
     24          6.018514   0.000000
     25          6.527067   0.000000
     26          6.815410   0.000000
     27          6.886060   0.000000
     28          7.383194   0.000000
     29          8.425419   0.000000
     30          8.604446   0.000000
     31          8.940542   0.000000
     32          9.385167   0.000000
     33         10.078859   0.000000
     34         10.099588   0.000000
     35         10.444465   0.000000
     36         11.227093   0.000000
     37         11.371617   0.000000
     38         11.849039   0.000000
     39         12.299336   0.000000
     40         12.551576   0.000000
     41         12.728479   0.000000
     42         13.470119   0.000000
     43         14.780338   0.000000
     44         14.785427   0.000000
     45         15.170180   0.000000
     46         15.318471   0.000000
     47         15.670120   0.000000
     48         16.404662   0.000000
 
  0.4500000E+00  0.1071429E+00  0.0000000E+00  0.3174603E-02
      1        -12.296293   1.000000
      2        -12.120322   1.000000
      3         -8.444953   1.000000
      4         -8.393754   1.000000
      5         -6.110407   1.000000
      6         -6.105945   1.000000
      7         -4.051676   1.000000
      8         -3.887411   1.000000
      9         -3.848165   1.000000
     10         -3.280182   1.000000
     11         -2.096153   1.000000
     12         -1.902775   1.000000
     13         -1.590839   1.000000
     14         -1.585525   1.000000
     15         -0.695801   1.000000
     16         -0.592611   1.000000
     17          0.130201   1.000000
     18          0.161065   1.000000
     19          0.894596   1.000000
     20          1.209416   1.000000
     21          1.356036   1.000000
     22          1.380320   1.000000
     23          5.936277   0.000000
     24          6.002092   0.000000
     25          6.802566   0.000000
     26          6.852154   0.000000
     27          7.196098   0.000000
     28          7.908944   0.000000
     29          7.956593   0.000000
     30          8.638247   0.000000
     31          8.695307   0.000000
     32          8.808064   0.000000
     33         10.325891   0.000000
     34         10.571562   0.000000
     35         10.810321   0.000000
     36         10.916543   0.000000
     37         11.556086   0.000000
     38         11.663415   0.000000
     39         12.016651   0.000000
     40         12.657557   0.000000
     41         13.034053   0.000000
     42         13.495221   0.000000
     43         14.560498   0.000000
     44         14.745239   0.000000
     45         14.840898   0.000000
     46         15.059511   0.000000
     47         16.148907   0.000000
     48         16.440487   0.000000
 
  0.5000000E-01  0.1785714E+00  0.0000000E+00  0.3174603E-02
      1        -12.660491   1.000000
      2        -11.522029   1.000000
      3         -8.605619   1.000000
      4         -8.356425   1.000000
      5         -5.985755   1.000000
      6         -5.125945   1.000000
      7         -5.002689   1.000000
      8         -4.599206   1.000000
      9         -4.154713   1.000000
     10         -3.910133   1.000000
     11         -3.462755   1.000000
     12         -1.198727   1.000000
     13         -1.075087   1.000000
     14         -0.636534   1.000000
     15         -0.532884   1.000000
     16         -0.171987   1.000000
     17          0.199120   1.000000
     18          0.307970   1.000000
     19          0.733743   1.000000
     20          1.379946   1.000000
     21          1.444745   1.000000
     22          2.318760   0.000000
     23          5.297181   0.000000
     24          5.461628   0.000000
     25          6.132168   0.000000
     26          6.206170   0.000000
     27          7.543156   0.000000
     28          7.624404   0.000000
     29          8.321735   0.000000
     30          8.728760   0.000000
     31          8.887093   0.000000
     32          9.238038   0.000000
     33          9.368874   0.000000
     34         10.894211   0.000000
     35         11.327701   0.000000
     36         11.582280   0.000000
     37         11.703715   0.000000
     38         12.091288   0.000000
     39         12.273901   0.000000
     40         12.754532   0.000000
     41         12.771503   0.000000
     42         13.015123   0.000000
     43         13.231547   0.000000
     44         14.682595   0.000000
     45         15.171862   0.000000
     46         15.351390   0.000000
     47         15.438437   0.000000
     48         15.973338   0.000000
 
  0.1500000E+00  0.1785714E+00  0.0000000E+00  0.3174603E-02
      1        -12.616732   1.000000
      2        -11.595178   1.000000
      3         -8.583431   1.000000
      4         -8.345990   1.000000
      5         -5.911688   1.000000
      6         -5.389029   1.000000
      7         -5.028769   1.000000
      8         -4.727736   1.000000
      9         -3.975875   1.000000
     10         -3.703278   1.000000
     11         -3.122970   1.000000
     12         -1.382307   1.000000
     13         -1.172200   1.000000
     14         -0.744768   1.000000
     15         -0.494173   1.000000
     16         -0.089818   1.000000
     17          0.179253   1.000000
     18          0.253039   1.000000
     19          0.620391   1.000000
     20          1.301451   1.000000
     21          1.375396   1.000000
     22          2.182818   0.000000
     23          5.377618   0.000000
     24          5.808666   0.000000
     25          6.153056   0.000000
     26          6.247321   0.000000
     27          7.463607   0.000000
     28          7.781498   0.000000
     29          8.054316   0.000000
     30          8.821610   0.000000
     31          9.252127   0.000000
     32          9.290647   0.000000
     33          9.654223   0.000000
     34         10.529726   0.000000
     35         10.790064   0.000000
     36         11.280459   0.000000
     37         11.723075   0.000000
     38         12.204032   0.000000
     39         12.440878   0.000000
     40         12.508288   0.000000
     41         13.171122   0.000000
     42         13.280144   0.000000
     43         13.450043   0.000000
     44         14.695647   0.000000
     45         14.832645   0.000000
     46         15.290132   0.000000
     47         15.503060   0.000000
     48         16.001775   0.000000
 
  0.2500000E+00  0.1785714E+00  0.0000000E+00  0.3174603E-02
      1        -12.531052   1.000000
      2        -11.727553   1.000000
      3         -8.538874   1.000000
      4         -8.332839   1.000000
      5         -5.882066   1.000000
      6         -5.709432   1.000000
      7         -4.937297   1.000000
      8         -4.690962   1.000000
      9         -4.099417   1.000000
     10         -3.167454   1.000000
     11         -2.650539   1.000000
     12         -1.879939   1.000000
     13         -1.130613   1.000000
     14         -0.883921   1.000000
     15         -0.441174   1.000000
     16         -0.080995   1.000000
     17          0.024220   1.000000
     18          0.266489   1.000000
     19          0.504586   1.000000
     20          1.170505   1.000000
     21          1.258480   1.000000
     22          1.927067   0.211887
     23          5.699685   0.000000
     24          6.107715   0.000000
     25          6.286265   0.000000
     26          6.377739   0.000000
     27          7.360854   0.000000
     28          7.865049   0.000000
     29          8.017884   0.000000
     30          8.951537   0.000000
     31          9.248191   0.000000
     32          9.721253   0.000000
     33          9.867002   0.000000
     34         10.139908   0.000000
     35         10.261803   0.000000
     36         11.063740   0.000000
     37         11.594753   0.000000
     38         12.112142   0.000000
     39         12.516153   0.000000
     40         12.810004   0.000000
     41         13.052712   0.000000
     42         13.452669   0.000000
     43         13.973456   0.000000
     44         14.607022   0.000000
     45         14.882041   0.000000
     46         15.310970   0.000000
     47         15.525854   0.000000
     48         16.213101   0.000000
 
  0.3500000E+00  0.1785714E+00  0.0000000E+00  0.3174603E-02
      1        -12.407889   1.000000
      2        -11.896211   1.000000
      3         -8.476108   1.000000
      4         -8.331567   1.000000
      5         -5.959947   1.000000
      6         -5.939194   1.000000
      7         -4.802016   1.000000
      8         -4.369169   1.000000
      9         -4.263528   1.000000
     10         -2.798680   1.000000
     11         -2.313717   1.000000
     12         -2.168498   1.000000
     13         -1.074722   1.000000
     14         -1.020389   1.000000
     15         -0.445598   1.000000
     16         -0.366037   1.000000
     17          0.067354   1.000000
     18          0.070809   1.000000
     19          0.651857   1.000000
     20          1.040586   1.000000
     21          1.125123   1.000000
     22          1.591945   1.000000
     23          6.118965   0.000000
     24          6.234604   0.000000
     25          6.409365   0.000000
     26          6.812955   0.000000
     27          7.305480   0.000000
     28          7.788668   0.000000
     29          8.078411   0.000000
     30          9.051090   0.000000
     31          9.113609   0.000000
     32          9.183983   0.000000
     33          9.894808   0.000000
     34         10.188418   0.000000
     35         10.704661   0.000000
     36         11.084971   0.000000
     37         11.326965   0.000000
     38         11.956938   0.000000
     39         12.361547   0.000000
     40         12.994013   0.000000
     41         13.044177   0.000000
     42         13.800827   0.000000
     43         14.393330   0.000000
     44         14.409832   0.000000
     45         15.040264   0.000000
     46         15.138878   0.000000
     47         15.628746   0.000000
     48         16.388271   0.000000
 
  0.4500000E+00  0.1785714E+00  0.0000000E+00  0.3174603E-02
      1        -12.253594   1.000000
      2        -12.077973   1.000000
      3         -8.408998   1.000000
      4         -8.356298   1.000000
      5         -6.050792   1.000000
      6         -6.045375   1.000000
      7         -4.634843   1.000000
      8         -4.449532   1.000000
      9         -3.856003   1.000000
     10         -3.258255   1.000000
     11         -2.028577   1.000000
     12         -1.862867   1.000000
     13         -1.093027   1.000000
     14         -1.033464   1.000000
     15         -0.621492   1.000000
     16         -0.617502   1.000000
     17          0.017806   1.000000
     18          0.061363   1.000000
     19          0.910177   1.000000
     20          0.977693   1.000000
     21          1.019423   1.000000
     22          1.237775   1.000000
     23          6.210295   0.000000
     24          6.327653   0.000000
     25          6.887837   0.000000
     26          7.225188   0.000000
     27          7.283443   0.000000
     28          7.632881   0.000000
     29          7.939501   0.000000
     30          8.452381   0.000000
     31          9.105673   0.000000
     32          9.136863   0.000000
     33         10.017035   0.000000
     34         10.488027   0.000000
     35         10.711437   0.000000
     36         10.982694   0.000000
     37         11.736096   0.000000
     38         11.754239   0.000000
     39         12.137601   0.000000
     40         12.916019   0.000000
     41         13.426477   0.000000
     42         13.776178   0.000000
     43         14.239977   0.000000
     44         14.393684   0.000000
     45         15.005510   0.000000
     46         15.145011   0.000000
     47         16.008461   0.000000
     48         16.312547   0.000000
 
  0.5000000E-01  0.2500000E+00  0.0000000E+00  0.3174603E-02
      1        -12.602659   1.000000
      2        -11.469667   1.000000
      3         -8.561411   1.000000
      4         -8.301219   1.000000
      5         -5.921209   1.000000
      6         -5.608772   1.000000
      7         -4.932223   1.000000
      8         -4.542834   1.000000
      9         -4.430962   1.000000
     10         -4.115956   1.000000
     11         -3.400029   1.000000
     12         -1.209732   1.000000
     13         -1.060223   1.000000
     14         -0.991467   1.000000
     15         -0.186189   1.000000
     16          0.228560   1.000000
     17          0.352223   1.000000
     18          0.602227   1.000000
     19          0.798690   1.000000
     20          0.994126   1.000000
     21          1.010410   1.000000
     22          2.353600   0.000000
     23          4.954029   0.000000
     24          5.169456   0.000000
     25          6.368864   0.000000
     26          6.594546   0.000000
     27          7.265357   0.000000
     28          7.974876   0.000000
     29          8.701604   0.000000
     30          9.063919   0.000000
     31          9.463837   0.000000
     32          9.587485   0.000000
     33          9.652187   0.000000
     34         10.756629   0.000000
     35         11.281881   0.000000
     36         11.974378   0.000000
     37         12.021996   0.000000
     38         12.301453   0.000000
     39         12.434203   0.000000
     40         12.454510   0.000000
     41         12.573528   0.000000
     42         12.998813   0.000000
     43         13.799031   0.000000
     44         13.888299   0.000000
     45         14.425056   0.000000
     46         15.112170   0.000000
     47         15.411336   0.000000
     48         15.870934   0.000000
 
  0.1500000E+00  0.2500000E+00  0.0000000E+00  0.3174603E-02
      1        -12.559476   1.000000
      2        -11.543070   1.000000
      3         -8.539008   1.000000
      4         -8.291740   1.000000
      5         -5.843292   1.000000
      6         -5.574595   1.000000
      7         -5.270264   1.000000
      8         -4.678054   1.000000