<?xml version="1.0" encoding="ISO-8859-1"?>
<modeling>
 <generator>
  <i name="program" type="string">vasp </i>
  <i name="version" type="string">6.4.3  </i>
  <i name="subversion" type="string">19Mar24 (build May 31 2024 16:31:43) complex                          parallel </i>
  <i name="platform" type="string">LinuxIFC </i>
  <i name="date" type="string">2024 10 30 </i>
  <i name="time" type="string">19:06:52 </i>
 </generator>
 <incar>
  <i type="string" name="SYSTEM">Kpoints</i>
  <i type="int" name="ISTART">     0</i>
  <i type="string" name="PREC">Accurate</i>
  <i type="string" name="ALGO">Normal</i>
  <i type="int" name="ISPIN">     1</i>
  <i type="int" name="ICHARG">     2</i>
  <i type="int" name="NELM">   100</i>
  <i type="int" name="IBRION">    -1</i>
  <i name="EDIFF">      0.00000100</i>
  <i name="EDIFFG">     -0.00100000</i>
  <i type="int" name="NSW">     0</i>
  <i type="int" name="ISIF">     2</i>
  <i name="ENCUT">    700.00000000</i>
  <i name="POTIM">      0.50000000</i>
  <i type="int" name="ISMEAR">     0</i>
  <i name="SIGMA">      0.05000000</i>
  <i type="logical" name="LWAVE"> F  </i>
  <i type="logical" name="LCHARG"> F  </i>
  <i type="string" name="GGA">PE</i>
 </incar>
 <primitive_cell>
  <structure name="primitive_cell" >
   <crystal>
    <varray name="basis" >
     <v>       5.69700000       0.00000000       0.00000000 </v>
     <v>       0.00000000       4.04790000       0.00000000 </v>
     <v>       0.00000000       0.00000000       6.20420000 </v>
    </varray>
    <i name="volume">    143.07435078 </i>
    <varray name="rec_basis" >
     <v>       0.17553098       0.00000000       0.00000000 </v>
     <v>       0.00000000       0.24704168       0.00000000 </v>
     <v>       0.00000000       0.00000000       0.16118114 </v>
    </varray>
   </crystal>
   <varray name="positions" >
    <v>       0.52123000       0.50000000       0.63796000 </v>
    <v>       0.47877000       0.50000000       0.36204000 </v>
    <v>       0.97877000       0.50000000       0.63796000 </v>
    <v>       0.02123000       0.50000000       0.36204000 </v>
    <v>       0.60090000       0.50000000       0.89991000 </v>
    <v>       0.39910000       0.50000000       0.10009000 </v>
    <v>       0.89910000       0.50000000       0.89991000 </v>
    <v>       0.10090000       0.50000000       0.10009000 </v>
    <v>       0.75000000       0.79171000       0.72973000 </v>
    <v>       0.25000000       0.20829000       0.27027000 </v>
    <v>       0.75000000       0.20829000       0.72973000 </v>
    <v>       0.25000000       0.79171000       0.27027000 </v>
    <v>       0.25000000       0.50000000       0.52367000 </v>
    <v>       0.75000000       0.50000000       0.47633000 </v>
   </varray>
  </structure>
  <varray name="primitive_index" >
   <v type="int" >        1 </v>
   <v type="int" >        2 </v>
   <v type="int" >        3 </v>
   <v type="int" >        4 </v>
   <v type="int" >        5 </v>
   <v type="int" >        6 </v>
   <v type="int" >        7 </v>
   <v type="int" >        8 </v>
   <v type="int" >        9 </v>
   <v type="int" >       10 </v>
   <v type="int" >       11 </v>
   <v type="int" >       12 </v>
   <v type="int" >       13 </v>
   <v type="int" >       14 </v>
  </varray>
 </primitive_cell>
 <kpoints>
  <generation param="Monkhorst-Pack">
   <v type="int" name="divisions">      10       14        9 </v>
   <v name="usershift">      0.00000000       0.00000000       0.00000000 </v>
   <v name="genvec1">      0.10000000       0.00000000       0.00000000 </v>
   <v name="genvec2">      0.00000000       0.07142857       0.00000000 </v>
   <v name="genvec3">      0.00000000       0.00000000       0.11111111 </v>
   <v name="shift">      0.50000000       0.50000000       0.00000000 </v>
  </generation>
  <varray name="kpointlist" >
   <v>       0.05000000       0.03571429       0.00000000 </v>
   <v>       0.15000000       0.03571429       0.00000000 </v>
   <v>       0.25000000       0.03571429       0.00000000 </v>
   <v>       0.35000000       0.03571429       0.00000000 </v>
   <v>       0.45000000       0.03571429       0.00000000 </v>
   <v>       0.05000000       0.10714286       0.00000000 </v>
   <v>       0.15000000       0.10714286       0.00000000 </v>
   <v>       0.25000000       0.10714286       0.00000000 </v>
   <v>       0.35000000       0.10714286       0.00000000 </v>
   <v>       0.45000000       0.10714286       0.00000000 </v>
   <v>       0.05000000       0.17857143       0.00000000 </v>
   <v>       0.15000000       0.17857143       0.00000000 </v>
   <v>       0.25000000       0.17857143       0.00000000 </v>
   <v>       0.35000000       0.17857143       0.00000000 </v>
   <v>       0.45000000       0.17857143       0.00000000 </v>
   <v>       0.05000000       0.25000000       0.00000000 </v>
   <v>       0.15000000       0.25000000       0.00000000 </v>
   <v>       0.25000000       0.25000000       0.00000000 </v>
   <v>       0.35000000       0.25000000       0.00000000 </v>
   <v>       0.45000000       0.25000000       0.00000000 </v>
   <v>       0.05000000       0.32142857       0.00000000 </v>
   <v>       0.15000000       0.32142857       0.00000000 </v>
   <v>       0.25000000       0.32142857       0.00000000 </v>
   <v>       0.35000000       0.32142857       0.00000000 </v>
   <v>       0.45000000       0.32142857       0.00000000 </v>
   <v>       0.05000000       0.39285714       0.00000000 </v>
   <v>       0.15000000       0.39285714       0.00000000 </v>
   <v>       0.25000000       0.39285714       0.00000000 </v>
   <v>       0.35000000       0.39285714       0.00000000 </v>
   <v>       0.45000000       0.39285714       0.00000000 </v>
   <v>       0.05000000       0.46428571       0.00000000 </v>
   <v>       0.15000000       0.46428571       0.00000000 </v>
   <v>       0.25000000       0.46428571       0.00000000 </v>
   <v>       0.35000000       0.46428571       0.00000000 </v>
   <v>       0.45000000       0.46428571       0.00000000 </v>
   <v>       0.05000000       0.03571429       0.11111111 </v>
   <v>       0.15000000       0.03571429       0.11111111 </v>
   <v>       0.25000000       0.03571429       0.11111111 </v>
   <v>       0.35000000       0.03571429       0.11111111 </v>
   <v>       0.45000000       0.03571429       0.11111111 </v>
   <v>       0.05000000       0.10714286       0.11111111 </v>
   <v>       0.15000000       0.10714286       0.11111111 </v>
   <v>       0.25000000       0.10714286       0.11111111 </v>
   <v>       0.35000000       0.10714286       0.11111111 </v>
   <v>       0.45000000       0.10714286       0.11111111 </v>
   <v>       0.05000000       0.17857143       0.11111111 </v>
   <v>       0.15000000       0.17857143       0.11111111 </v>
   <v>       0.25000000       0.17857143       0.11111111 </v>
   <v>       0.35000000       0.17857143       0.11111111 </v>
   <v>       0.45000000       0.17857143       0.11111111 </v>
   <v>       0.05000000       0.25000000       0.11111111 </v>
   <v>       0.15000000       0.25000000       0.11111111 </v>
   <v>       0.25000000       0.25000000       0.11111111 </v>
   <v>       0.35000000       0.25000000       0.11111111 </v>
   <v>       0.45000000       0.25000000       0.11111111 </v>
   <v>       0.05000000       0.32142857       0.11111111 </v>
   <v>       0.15000000       0.32142857       0.11111111 </v>
   <v>       0.25000000       0.32142857       0.11111111 </v>
   <v>       0.35000000       0.32142857       0.11111111 </v>
   <v>       0.45000000       0.32142857       0.11111111 </v>
   <v>       0.05000000       0.39285714       0.11111111 </v>
   <v>       0.15000000       0.39285714       0.11111111 </v>
   <v>       0.25000000       0.39285714       0.11111111 </v>
   <v>       0.35000000       0.39285714       0.11111111 </v>
   <v>       0.45000000       0.39285714       0.11111111 </v>
   <v>       0.05000000       0.46428571       0.11111111 </v>
   <v>       0.15000000       0.46428571       0.11111111 </v>
   <v>       0.25000000       0.46428571       0.11111111 </v>
   <v>       0.35000000       0.46428571       0.11111111 </v>
   <v>       0.45000000       0.46428571       0.11111111 </v>
   <v>       0.05000000       0.03571429       0.22222222 </v>
   <v>       0.15000000       0.03571429       0.22222222 </v>
   <v>       0.25000000       0.03571429       0.22222222 </v>
   <v>       0.35000000       0.03571429       0.22222222 </v>
   <v>       0.45000000       0.03571429       0.22222222 </v>
   <v>       0.05000000       0.10714286       0.22222222 </v>
   <v>       0.15000000       0.10714286       0.22222222 </v>
   <v>       0.25000000       0.10714286       0.22222222 </v>
   <v>       0.35000000       0.10714286       0.22222222 </v>
   <v>       0.45000000       0.10714286       0.22222222 </v>
   <v>       0.05000000       0.17857143       0.22222222 </v>
   <v>       0.15000000       0.17857143       0.22222222 </v>
   <v>       0.25000000       0.17857143       0.22222222 </v>
   <v>       0.35000000       0.17857143       0.22222222 </v>
   <v>       0.45000000       0.17857143       0.22222222 </v>
   <v>       0.05000000       0.25000000       0.22222222 </v>
   <v>       0.15000000       0.25000000       0.22222222 </v>
   <v>       0.25000000       0.25000000       0.22222222 </v>
   <v>       0.35000000       0.25000000       0.22222222 </v>
   <v>       0.45000000       0.25000000       0.22222222 </v>
   <v>       0.05000000       0.32142857       0.22222222 </v>
   <v>       0.15000000       0.32142857       0.22222222 </v>
   <v>       0.25000000       0.32142857       0.22222222 </v>
   <v>       0.35000000       0.32142857       0.22222222 </v>
   <v>       0.45000000       0.32142857       0.22222222 </v>
   <v>       0.05000000       0.39285714       0.22222222 </v>
   <v>       0.15000000       0.39285714       0.22222222 </v>
   <v>       0.25000000       0.39285714       0.22222222 </v>
   <v>       0.35000000       0.39285714       0.22222222 </v>
   <v>       0.45000000       0.39285714       0.22222222 </v>
   <v>       0.05000000       0.46428571       0.22222222 </v>
   <v>       0.15000000       0.46428571       0.22222222 </v>
   <v>       0.25000000       0.46428571       0.22222222 </v>
   <v>       0.35000000       0.46428571       0.22222222 </v>
   <v>       0.45000000       0.46428571       0.22222222 </v>
   <v>       0.05000000       0.03571429       0.33333333 </v>
   <v>       0.15000000       0.03571429       0.33333333 </v>
   <v>       0.25000000       0.03571429       0.33333333 </v>
   <v>       0.35000000       0.03571429       0.33333333 </v>
   <v>       0.45000000       0.03571429       0.33333333 </v>
   <v>       0.05000000       0.10714286       0.33333333 </v>
   <v>       0.15000000       0.10714286       0.33333333 </v>
   <v>       0.25000000       0.10714286       0.33333333 </v>
   <v>       0.35000000       0.10714286       0.33333333 </v>
   <v>       0.45000000       0.10714286       0.33333333 </v>
   <v>       0.05000000       0.17857143       0.33333333 </v>
   <v>       0.15000000       0.17857143       0.33333333 </v>
   <v>       0.25000000       0.17857143       0.33333333 </v>
   <v>       0.35000000       0.17857143       0.33333333 </v>
   <v>       0.45000000       0.17857143       0.33333333 </v>
   <v>       0.05000000       0.25000000       0.33333333 </v>
   <v>       0.15000000       0.25000000       0.33333333 </v>
   <v>       0.25000000       0.25000000       0.33333333 </v>
   <v>       0.35000000       0.25000000       0.33333333 </v>
   <v>       0.45000000       0.25000000       0.33333333 </v>
   <v>       0.05000000       0.32142857       0.33333333 </v>
   <v>       0.15000000       0.32142857       0.33333333 </v>
   <v>       0.25000000       0.32142857       0.33333333 </v>
   <v>       0.35000000       0.32142857       0.33333333 </v>
   <v>       0.45000000       0.32142857       0.33333333 </v>
   <v>       0.05000000       0.39285714       0.33333333 </v>
   <v>       0.15000000       0.39285714       0.33333333 </v>
   <v>       0.25000000       0.39285714       0.33333333 </v>
   <v>       0.35000000       0.39285714       0.33333333 </v>
   <v>       0.45000000       0.39285714       0.33333333 </v>
   <v>       0.05000000       0.46428571       0.33333333 </v>
   <v>       0.15000000       0.46428571       0.33333333 </v>
   <v>       0.25000000       0.46428571       0.33333333 </v>
   <v>       0.35000000       0.46428571       0.33333333 </v>
   <v>       0.45000000       0.46428571       0.33333333 </v>
   <v>       0.05000000       0.03571429       0.44444444 </v>
   <v>       0.15000000       0.03571429       0.44444444 </v>
   <v>       0.25000000       0.03571429       0.44444444 </v>
   <v>       0.35000000       0.03571429       0.44444444 </v>
   <v>       0.45000000       0.03571429       0.44444444 </v>
   <v>       0.05000000       0.10714286       0.44444444 </v>
   <v>       0.15000000       0.10714286       0.44444444 </v>
   <v>       0.25000000       0.10714286       0.44444444 </v>
   <v>       0.35000000       0.10714286       0.44444444 </v>
   <v>       0.45000000       0.10714286       0.44444444 </v>
   <v>       0.05000000       0.17857143       0.44444444 </v>
   <v>       0.15000000       0.17857143       0.44444444 </v>
   <v>       0.25000000       0.17857143       0.44444444 </v>
   <v>       0.35000000       0.17857143       0.44444444 </v>
   <v>       0.45000000       0.17857143       0.44444444 </v>
   <v>       0.05000000       0.25000000       0.44444444 </v>
   <v>       0.15000000       0.25000000       0.44444444 </v>
   <v>       0.25000000       0.25000000       0.44444444 </v>
   <v>       0.35000000       0.25000000       0.44444444 </v>
   <v>       0.45000000       0.25000000       0.44444444 </v>
   <v>       0.05000000       0.32142857       0.44444444 </v>
   <v>       0.15000000       0.32142857       0.44444444 </v>
   <v>       0.25000000       0.32142857       0.44444444 </v>
   <v>       0.35000000       0.32142857       0.44444444 </v>
   <v>       0.45000000       0.32142857       0.44444444 </v>
   <v>       0.05000000       0.39285714       0.44444444 </v>
   <v>       0.15000000       0.39285714       0.44444444 </v>
   <v>       0.25000000       0.39285714       0.44444444 </v>
   <v>       0.35000000       0.39285714       0.44444444 </v>
   <v>       0.45000000       0.39285714       0.44444444 </v>
   <v>       0.05000000       0.46428571       0.44444444 </v>
   <v>       0.15000000       0.46428571       0.44444444 </v>
   <v>       0.25000000       0.46428571       0.44444444 </v>
   <v>       0.35000000       0.46428571       0.44444444 </v>
   <v>       0.45000000       0.46428571       0.44444444 </v>
  </varray>
  <varray name="weights" >
   <v>       0.00317460 </v>
   <v>       0.00317460 </v>
   <v>       0.00317460 </v>
   <v>       0.00317460 </v>
   <v>       0.00317460 </v>
   <v>       0.00317460 </v>
   <v>       0.00317460 </v>
   <v>       0.00317460 </v>
   <v>       0.00317460 </v>
   <v>       0.00317460 </v>
   <v>       0.00317460 </v>
   <v>       0.00317460 </v>
   <v>       0.00317460 </v>
   <v>       0.00317460 </v>
   <v>       0.00317460 </v>
   <v>       0.00317460 </v>
   <v>       0.00317460 </v>
   <v>       0.00317460 </v>
   <v>       0.00317460 </v>
   <v>       0.00317460 </v>
   <v>       0.00317460 </v>
   <v>       0.00317460 </v>
   <v>       0.00317460 </v>
   <v>       0.00317460 </v>
   <v>       0.00317460 </v>
   <v>       0.00317460 </v>
   <v>       0.00317460 </v>
   <v>       0.00317460 </v>
   <v>       0.00317460 </v>
   <v>       0.00317460 </v>
   <v>       0.00317460 </v>
   <v>       0.00317460 </v>
   <v>       0.00317460 </v>
   <v>       0.00317460 </v>
   <v>       0.00317460 </v>
   <v>       0.00634921 </v>
   <v>       0.00634921 </v>
   <v>       0.00634921 </v>
   <v>       0.00634921 </v>
   <v>       0.00634921 </v>
   <v>       0.00634921 </v>
   <v>       0.00634921 </v>
   <v>       0.00634921 </v>
   <v>       0.00634921 </v>
   <v>       0.00634921 </v>
   <v>       0.00634921 </v>
   <v>       0.00634921 </v>
   <v>       0.00634921 </v>
   <v>       0.00634921 </v>
   <v>       0.00634921 </v>
   <v>       0.00634921 </v>
   <v>       0.00634921 </v>
   <v>       0.00634921 </v>
   <v>       0.00634921 </v>
   <v>       0.00634921 </v>
   <v>       0.00634921 </v>
   <v>       0.00634921 </v>
   <v>       0.00634921 </v>
   <v>       0.00634921 </v>
   <v>       0.00634921 </v>
   <v>       0.00634921 </v>
   <v>       0.00634921 </v>
   <v>       0.00634921 </v>
   <v>       0.00634921 </v>
   <v>       0.00634921 </v>
   <v>       0.00634921 </v>
   <v>       0.00634921 </v>
   <v>       0.00634921 </v>
   <v>       0.00634921 </v>
   <v>       0.00634921 </v>
   <v>       0.00634921 </v>
   <v>       0.00634921 </v>
   <v>       0.00634921 </v>
   <v>       0.00634921 </v>
   <v>       0.00634921 </v>
   <v>       0.00634921 </v>
   <v>       0.00634921 </v>
   <v>       0.00634921 </v>
   <v>       0.00634921 </v>
   <v>       0.00634921 </v>
   <v>       0.00634921 </v>
   <v>       0.00634921 </v>
   <v>       0.00634921 </v>
   <v>       0.00634921 </v>
   <v>       0.00634921 </v>
   <v>       0.00634921 </v>
   <v>       0.00634921 </v>
   <v>       0.00634921 </v>
   <v>       0.00634921 </v>
   <v>       0.00634921 </v>
   <v>       0.00634921 </v>
   <v>       0.00634921 </v>
   <v>       0.00634921 </v>
   <v>       0.00634921 </v>
   <v>       0.00634921 </v>
   <v>       0.00634921 </v>
   <v>       0.00634921 </v>
   <v>       0.00634921 </v>
   <v>       0.00634921 </v>
   <v>       0.00634921 </v>
   <v>       0.00634921 </v>
   <v>       0.00634921 </v>
   <v>       0.00634921 </v>
   <v>       0.00634921 </v>
   <v>       0.00634921 </v>
   <v>       0.00634921 </v>
   <v>       0.00634921 </v>
   <v>       0.00634921 </v>
   <v>       0.00634921 </v>
   <v>       0.00634921 </v>
   <v>       0.00634921 </v>
   <v>       0.00634921 </v>
   <v>       0.00634921 </v>
   <v>       0.00634921 </v>
   <v>       0.00634921 </v>
   <v>       0.00634921 </v>
   <v>       0.00634921 </v>
   <v>       0.00634921 </v>
   <v>       0.00634921 </v>
   <v>       0.00634921 </v>
   <v>       0.00634921 </v>
   <v>       0.00634921 </v>
   <v>       0.00634921 </v>
   <v>       0.00634921 </v>
   <v>       0.00634921 </v>
   <v>       0.00634921 </v>
   <v>       0.00634921 </v>
   <v>       0.00634921 </v>
   <v>       0.00634921 </v>
   <v>       0.00634921 </v>
   <v>       0.00634921 </v>
   <v>       0.00634921 </v>
   <v>       0.00634921 </v>
   <v>       0.00634921 </v>
   <v>       0.00634921 </v>
   <v>       0.00634921 </v>
   <v>       0.00634921 </v>
   <v>       0.00634921 </v>
   <v>       0.00634921 </v>
   <v>       0.00634921 </v>
   <v>       0.00634921 </v>
   <v>       0.00634921 </v>
   <v>       0.00634921 </v>
   <v>       0.00634921 </v>
   <v>       0.00634921 </v>
   <v>       0.00634921 </v>
   <v>       0.00634921 </v>
   <v>       0.00634921 </v>
   <v>       0.00634921 </v>
   <v>       0.00634921 </v>
   <v>       0.00634921 </v>
   <v>       0.00634921 </v>
   <v>       0.00634921 </v>
   <v>       0.00634921 </v>
   <v>       0.00634921 </v>
   <v>       0.00634921 </v>
   <v>       0.00634921 </v>
   <v>       0.00634921 </v>
   <v>       0.00634921 </v>
   <v>       0.00634921 </v>
   <v>       0.00634921 </v>
   <v>       0.00634921 </v>
   <v>       0.00634921 </v>
   <v>       0.00634921 </v>
   <v>       0.00634921 </v>
   <v>       0.00634921 </v>
   <v>       0.00634921 </v>
   <v>       0.00634921 </v>
   <v>       0.00634921 </v>
   <v>       0.00634921 </v>
   <v>       0.00634921 </v>
   <v>       0.00634921 </v>
   <v>       0.00634921 </v>
   <v>       0.00634921 </v>
   <v>       0.00634921 </v>
  </varray>
 </kpoints>
 <parameters>
  <separator name="general" >
   <i type="string" name="SYSTEM">Kpoints</i>
   <i type="logical" name="LCOMPAT"> F  </i>
  </separator>
  <separator name="electronic" >
   <i type="string" name="PREC">accura</i>
   <i name="ENMAX">    700.00000000</i>
   <i name="ENAUG">    535.51400000</i>
   <i name="EDIFF">      0.00000100</i>
   <i type="int" name="IALGO">    38</i>
   <i type="int" name="IWAVPR">    10</i>
   <i type="int" name="NBANDS">    48</i>
   <i type="int" name="NBANDSLOW">    -1</i>
   <i type="int" name="NBANDSHIGH">    -1</i>
   <i name="NELECT">     42.00000000</i>
   <i type="int" name="TURBO">     0</i>
   <i type="int" name="IRESTART">     0</i>
   <i type="int" name="NREBOOT">     0</i>
   <i type="int" name="NMIN">     0</i>
   <i name="EREF">      0.00000000</i>
   <separator name="electronic smearing" >
    <i type="int" name="ISMEAR">     0</i>
    <i name="SIGMA">      0.05000000</i>
    <i name="KSPACING">      0.50000000</i>
    <i type="logical" name="KGAMMA"> T  </i>
    <i type="logical" name="KBLOWUP"> T  </i>
   </separator>
   <separator name="electronic projectors" >
    <i type="logical" name="LREAL"> F  </i>
    <v name="ROPT">      0.00000000</v>
    <i type="int" name="LMAXPAW">  -100</i>
    <i type="int" name="LMAXMIX">     2</i>
    <i type="logical" name="NLSPLINE"> F  </i>
   </separator>
   <separator name="electronic startup" >
    <i type="int" name="ISTART">     0</i>
    <i type="int" name="ICHARG">     2</i>
    <i type="int" name="INIWAV">     1</i>
   </separator>
   <separator name="electronic spin" >
    <i type="int" name="ISPIN">     1</i>
    <i type="logical" name="LNONCOLLINEAR"> F  </i>
    <v name="MAGMOM">      1.00000000      1.00000000      1.00000000      1.00000000      1.00000000      1.00000000      1.00000000      1.00000000      1.00000000      1.00000000      1.00000000      1.00000000      1.00000000      1.00000000</v>
    <i name="NUPDOWN">     -1.00000000</i>
    <i type="logical" name="LSORBIT"> F  </i>
    <v name="SAXIS">      0.00000000      0.00000000      1.00000000</v>
    <i type="logical" name="LSPIRAL"> F  </i>
    <v name="QSPIRAL">      0.00000000      0.00000000      0.00000000</v>
    <i type="logical" name="LZEROZ"> F  </i>
   </separator>
   <separator name="electronic exchange-correlation" >
    <i type="logical" name="LASPH"> F  </i>
   </separator>
   <separator name="electronic convergence" >
    <i type="int" name="NELM">   100</i>
    <i type="int" name="NELMDL">    -5</i>
    <i type="int" name="NELMIN">     2</i>
    <i name="ENINI">    700.00000000</i>
    <separator name="electronic convergence detail" >
     <i type="logical" name="LDIAG"> T  </i>
     <i type="logical" name="LSUBROT"> F  </i>
     <i name="WEIMIN">      0.00000000</i>
     <i name="EBREAK">      0.00000001</i>
     <i name="DEPER">      0.30000000</i>
     <i type="int" name="NRMM">     4</i>
     <i name="TIME">      0.40000000</i>
    </separator>
   </separator>
   <separator name="electronic mixer" >
    <i name="AMIX">      0.40000000</i>
    <i name="BMIX">      1.00000000</i>
    <i name="AMIN">      0.10000000</i>
    <i name="AMIX_MAG">      1.60000000</i>
    <i name="BMIX_MAG">      1.00000000</i>
    <separator name="electronic mixer details" >
     <i type="int" name="IMIX">     4</i>
     <i type="logical" name="MIXFIRST"> F  </i>
     <i type="int" name="MAXMIX">   -45</i>
     <i name="WC">    100.00000000</i>
     <i type="int" name="INIMIX">     1</i>
     <i type="int" name="MIXPRE">     1</i>
     <i type="int" name="MREMOVE">     5</i>
    </separator>
   </separator>
   <separator name="electronic dipolcorrection" >
    <i type="logical" name="LDIPOL"> F  </i>
    <i type="logical" name="LMONO"> F  </i>
    <i type="int" name="IDIPOL">     0</i>
    <i name="EPSILON">      1.00000000</i>
    <v name="DIPOL">   -100.00000000   -100.00000000   -100.00000000</v>
    <i name="EFIELD">      0.00000000</i>
    <i type="logical" name="LVACPOTAV"> F  </i>
   </separator>
  </separator>
  <separator name="grids" >
   <i type="int" name="NGX">    50</i>
   <i type="int" name="NGY">    36</i>
   <i type="int" name="NGZ">    54</i>
   <i type="int" name="NGXF">   100</i>
   <i type="int" name="NGYF">    72</i>
   <i type="int" name="NGZF">   108</i>
   <i type="logical" name="ADDGRID"> F  </i>
  </separator>
  <separator name="ionic" >
   <i type="int" name="NSW">     0</i>
   <i type="int" name="IBRION">    -1</i>
   <i type="int" name="MDALGO">     0</i>
   <i type="int" name="ISIF">     2</i>
   <i name="PSTRESS">      0.00000000</i>
   <i name="EDIFFG">     -0.00100000</i>
   <i type="int" name="NFREE">     0</i>
   <i name="POTIM">      0.50000000</i>
   <i name="SMASS">     -3.00000000</i>
   <i name="SCALEE">      1.00000000</i>
  </separator>
  <separator name="ionic md" >
   <i name="TEBEG">      0.00010000</i>
   <i name="TEEND">      0.00010000</i>
   <i type="int" name="NBLOCK">     1</i>
   <i type="int" name="KBLOCK">     1</i>
   <i type="int" name="NPACO">   256</i>
   <i name="APACO">     10.00000000</i>
  </separator>
  <separator name="symmetry" >
   <i type="int" name="ISYM">     2</i>
   <i name="SYMPREC">      0.00001000</i>
  </separator>
  <separator name="dos" >
   <i type="int" name="LORBIT">     0</i>
   <v name="RWIGS">     -1.00000000</v>
   <i type="int" name="NEDOS">   301</i>
   <i name="EMIN">     10.00000000</i>
   <i name="EMAX">    -10.00000000</i>
   <i name="EFERMI">      0.00000000</i>
  </separator>
  <separator name="writing" >
   <i type="int" name="NWRITE">     2</i>
   <i type="logical" name="LWAVE"> F  </i>
   <i type="logical" name="LDOWNSAMPLE"> F  </i>
   <i type="logical" name="LCHARG"> F  </i>
   <i type="logical" name="LPARD"> F  </i>
   <i type="logical" name="LVTOT"> F  </i>
   <i type="logical" name="LVHAR"> F  </i>
   <i type="logical" name="LELF"> F  </i>
   <i type="logical" name="LOPTICS"> F  </i>
   <v name="STM">      0.00000000      0.00000000      0.00000000      0.00000000      0.00000000      0.00000000      0.00000000</v>
  </separator>
  <separator name="performance" >
   <i type="int" name="NPAR">    24</i>
   <i type="int" name="NSIM">     4</i>
   <i type="int" name="NBLK">    -1</i>
   <i type="logical" name="LPLANE"> T  </i>
   <i type="logical" name="LSCALAPACK"> T  </i>
   <i type="logical" name="LSCAAWARE"> F  </i>
   <i type="logical" name="LSCALU"> F  </i>
   <i type="logical" name="LASYNC"> F  </i>
   <i type="logical" name="LORBITALREAL"> F  </i>
  </separator>
  <separator name="miscellaneous" >
   <i type="int" name="IDIOT">     3</i>
   <i type="int" name="PHON_NSTRUCT">    -1</i>
   <i type="logical" name="LMUSIC"> F  </i>
   <v name="POMASS">     10.81100000</v>
   <v name="DARWINR">      0.00000000</v>
   <v name="DARWINV">      1.00000000</v>
   <i type="logical" name="LCORR"> T  </i>
  </separator>
  <i type="logical" name="GGA_COMPAT"> T  </i>
  <i type="logical" name="LBERRY"> F  </i>
  <i type="int" name="ICORELEVEL">     0</i>
  <i type="logical" name="LDAU"> F  </i>
  <i type="int" name="I_CONSTRAINED_M">     0</i>
  <separator name="electronic exchange-correlation" >
   <i type="string" name="GGA    ">PE</i>
   <i type="string" name="XC_C">1</i>
   <i type="int" name="VOSKOWN">     0</i>
   <i type="logical" name="LHFCALC"> F  </i>
   <i type="string" name="PRECFOCK"></i>
   <i type="logical" name="LSYMGRAD"> F  </i>
   <i type="logical" name="LHFONE"> F  </i>
   <i type="logical" name="LRHFCALC"> F  </i>
   <i type="logical" name="LTHOMAS"> F  </i>
   <i type="logical" name="LMODELHF"> F  </i>
   <i type="logical" name="LFOCKACE"> F  </i>
   <i name="ENCUT4O">     -1.00000000</i>
   <i type="int" name="EXXOEP">     0</i>
   <i type="int" name="FOURORBIT">     0</i>
   <i name="AEXX">      0.00000000</i>
   <i name="HFALPHA">      0.00000000</i>
   <i name="MCALPHA">      0.00000000</i>
   <i name="ALDAX">      1.00000000</i>
   <i name="AGGAX">      1.00000000</i>
   <i name="AMGGAX">      1.00000000</i>
   <i name="ALDAC">      1.00000000</i>
   <i name="AGGAC">      1.00000000</i>
   <i name="AMGGAC">      1.00000000</i>
   <i type="int" name="NKREDX">     1</i>
   <i type="int" name="NKREDY">     1</i>
   <i type="int" name="NKREDZ">     1</i>
   <i type="logical" name="SHIFTRED"> F  </i>
   <i type="logical" name="ODDONLY"> F  </i>
   <i type="logical" name="EVENONLY"> F  </i>
   <i type="int" name="LMAXFOCK">     0</i>
   <i type="int" name="NMAXFOCKAE">     0</i>
   <i type="logical" name="LFOCKAEDFT"> F  </i>
   <i name="HFSCREEN">      0.00000000</i>
   <i name="HFSCREENC">      0.00000000</i>
   <i type="int" name="NBANDSGWLOW">     0</i>
  </separator>
  <separator name="vdW DFT" >
   <i type="logical" name="LUSE_VDW"> F  </i>
   <i type="int" name="IVDW_NL">    -1</i>
   <i type="logical" name="LSPIN_VDW"> F  </i>
   <i name="ZAB_VDW">     -0.84910000</i>
   <i name="GAMMA_VDW">      1.39626340</i>
   <i name="ALPHA_VDW">      0.00000000</i>
   <i name="PARAM1">      0.12340000</i>
   <i name="PARAM2">      1.00000000</i>
   <i name="BPARAM">      6.30000000</i>
   <i name="CPARAM">      0.00930000</i>
  </separator>
  <separator name="model GW" >
   <i type="int" name="MODEL_GW">     0</i>
   <i name="MODEL_EPS0">      6.13175789</i>
   <i name="MODEL_ALPHA">      1.00000000</i>
  </separator>
  <separator name="linear response parameters" >
   <i type="logical" name="LEPSILON"> F  </i>
   <i type="logical" name="LRPA"> F  </i>
   <i type="logical" name="LNABLA"> F  </i>
   <i type="logical" name="LVEL"> F  </i>
   <i name="CSHIFT">      0.10000000</i>
   <i name="OMEGAMAX">     -1.00000000</i>
   <i name="DEG_THRESHOLD">      0.00200000</i>
   <i name="RTIME">     -0.10000000</i>
   <i name="WPLASMAI">      0.00000000</i>
   <v name="DFIELD">      0.00000000      0.00000000      0.00000000</v>
   <v name="WPLASMA">      0.00000000      0.00000000      0.00000000      0.00000000      0.00000000      0.00000000      0.00000000      0.00000000      0.00000000</v>
  </separator>
  <separator name="orbital magnetization" >
   <i type="logical" name="NUCIND"> F  </i>
   <v name="MAGPOS">      0.00000000      0.00000000      0.00000000</v>
   <i type="logical" name="LNICSALL"> T  </i>
   <i type="logical" name="ORBITALMAG"> F  </i>
   <i type="logical" name="LMAGBLOCH"> F  </i>
   <i type="logical" name="LCHIMAG"> F  </i>
   <i type="logical" name="LGAUGE"> T  </i>
   <i type="int" name="MAGATOM">     0</i>
   <v name="MAGDIPOL">      0.00000000      0.00000000      0.00000000</v>
   <v name="AVECCONST">      0.00000000      0.00000000      0.00000000</v>
  </separator>
  <separator name="response functions" >
   <i type="logical" name="LALL_IN_ONE"> F  </i>
   <i type="int" name="IALL_IN_ONE">    -1</i>
   <i type="int" name="NBANDS_WAVE">    -1</i>
   <i type="logical" name="LFINITE_TEMPERATURE"> F  </i>
   <i type="logical" name="LADDER"> F  </i>
   <i type="logical" name="LRPAFORCE"> F  </i>
   <i type="logical" name="LFXC"> F  </i>
   <i type="logical" name="LHARTREE"> T  </i>
   <i type="int" name="IBSE">     0</i>
   <v type="int" name="KPOINT">    -1     0     0     0</v>
   <i type="logical" name="LTCTC"> F  </i>
   <i type="logical" name="LTCTE"> F  </i>
   <i type="logical" name="LTETE"> F  </i>
   <i type="logical" name="LTRIPLET"> F  </i>
   <i type="logical" name="LFXCEPS"> F  </i>
   <i type="logical" name="LFXHEG"> F  </i>
   <i type="int" name="NATURALO">     2</i>
   <i type="logical" name="LHOLEGF"> F  </i>
   <i type="logical" name="L2ORDER"> F  </i>
   <i type="logical" name="LDMP1"> F  </i>
   <i type="logical" name="LMP2LT"> F  </i>
   <i type="logical" name="LSMP2LT"> F  </i>
   <i type="logical" name="LGWLF"> F  </i>
   <i name="ENCUTGW">     -1.60000002</i>
   <i name="ENCUTGWSOFT">     -1.60000002</i>
   <i name="ENCUTLF">     -1.00000000</i>
   <i type="logical" name="ESF_SPLINES"> F  </i>
   <i name="ESF_CONV">      0.01000000</i>
   <i type="int" name="ESF_NINTER">    15</i>
   <i type="int" name="LMAXMP2">    -1</i>
   <i name="SCISSOR">      0.00000000</i>
   <i type="int" name="NOMEGA">     0</i>
   <i type="int" name="NOMEGAR">     0</i>
   <i type="int" name="NBANDSGW">    -1</i>
   <i type="int" name="NBANDSO">    -1</i>
   <i type="int" name="NBANDSV">    -1</i>
   <i type="int" name="NELMGW">     1</i>
   <i type="int" name="NELMHF">     1</i>
   <i type="int" name="DIM">     3</i>
   <i type="int" name="IESPILON">     4</i>
   <i type="int" name="ANTIRES">     0</i>
   <i name="OMEGAMAX">    -30.00000000</i>
   <i name="OMEGAMIN">    -30.00000000</i>
   <i name="OMEGATL">   -200.00000000</i>
   <i type="int" name="OMEGAGRID">     0</i>
   <i name="CSHIFT">     -0.10000000</i>
   <i type="logical" name="LSELFENERGY"> F  </i>
   <i type="logical" name="LSPECTRAL"> F  </i>
   <i type="logical" name="LSPECTRALGW"> F  </i>
   <i type="logical" name="LSINGLES"> F  </i>
   <i type="logical" name="LFERMIGW"> F  </i>
   <i type="logical" name="ODDONLYGW"> F  </i>
   <i type="logical" name="EVENONLYGW"> F  </i>
   <i type="int" name="NKREDLFX">     1</i>
   <i type="int" name="NKREDLFY">     1</i>
   <i type="int" name="NKREDLFZ">     1</i>
   <i type="int" name="MAXMEM">  2800</i>
   <i type="int" name="TELESCOPE">     0</i>
   <i type="int" name="NTAUPAR">    -1</i>
   <i type="int" name="NOMEGAPAR">    -1</i>
   <i name="DAMP_NEWTON">      0.80000001</i>
   <i name="LAMBDA">      1.00000000</i>
  </separator>
  <separator name="External order field" >
   <i name="OFIELD_KAPPA">      0.00000000</i>
   <v name="OFIELD_K">      0.00000000      0.00000000      0.00000000</v>
   <i name="OFIELD_Q6_NEAR">      0.00000000</i>
   <i name="OFIELD_Q6_FAR">      0.00000000</i>
   <i name="OFIELD_A">      0.00000000</i>
  </separator>
  <separator name="optional k-points parameters" >
   <i type="int" name="KPOINTS_OPT_MODE">     1</i>
   <i type="logical" name="LKPOINTS_OPT"> F  </i>
  </separator>
 </parameters>
 <atominfo>
  <atoms>      14 </atoms>
  <types>       1 </types>
  <array name="atoms" >
   <dimension dim="1">ion</dimension>
   <field type="string">element</field>
   <field type="int">atomtype</field>
   <set>
    <rc><c>B </c><c>   1</c></rc>
    <rc><c>B </c><c>   1</c></rc>
    <rc><c>B </c><c>   1</c></rc>
    <rc><c>B </c><c>   1</c></rc>
    <rc><c>B </c><c>   1</c></rc>
    <rc><c>B </c><c>   1</c></rc>
    <rc><c>B </c><c>   1</c></rc>
    <rc><c>B </c><c>   1</c></rc>
    <rc><c>B </c><c>   1</c></rc>
    <rc><c>B </c><c>   1</c></rc>
    <rc><c>B </c><c>   1</c></rc>
    <rc><c>B </c><c>   1</c></rc>
    <rc><c>B </c><c>   1</c></rc>
    <rc><c>B </c><c>   1</c></rc>
   </set>
  </array>
  <array name="atomtypes" >
   <dimension dim="1">type</dimension>
   <field type="int">atomspertype</field>
   <field type="string">element</field>
   <field>mass</field>
   <field>valence</field>
   <field type="string">pseudopotential</field>
   <set>
    <rc><c>  14</c><c>B </c><c>     10.81100000</c><c>      3.00000000</c><c>  PAW_PBE B 06Sep2000                   </c></rc>
   </set>
  </array>
 </atominfo>
 <structure name="initialpos" >
  <crystal>
   <varray name="basis" >
    <v>       5.69700000       0.00000000       0.00000000 </v>
    <v>       0.00000000       4.04790000       0.00000000 </v>
    <v>       0.00000000       0.00000000       6.20420000 </v>
   </varray>
   <i name="volume">    143.07435078 </i>
   <varray name="rec_basis" >
    <v>       0.17553098       0.00000000       0.00000000 </v>
    <v>       0.00000000       0.24704168       0.00000000 </v>
    <v>       0.00000000       0.00000000       0.16118114 </v>
   </varray>
  </crystal>
  <varray name="positions" >
   <v>       0.52123000       0.50000000       0.63796000 </v>
   <v>       0.47877000       0.50000000       0.36204000 </v>
   <v>       0.97877000       0.50000000       0.63796000 </v>
   <v>       0.02123000       0.50000000       0.36204000 </v>
   <v>       0.60090000       0.50000000       0.89991000 </v>
   <v>       0.39910000       0.50000000       0.10009000 </v>
   <v>       0.89910000       0.50000000       0.89991000 </v>
   <v>       0.10090000       0.50000000       0.10009000 </v>
   <v>       0.75000000       0.79171000       0.72973000 </v>
   <v>       0.25000000       0.20829000       0.27027000 </v>
   <v>       0.75000000       0.20829000       0.72973000 </v>
   <v>       0.25000000       0.79171000       0.27027000 </v>
   <v>       0.25000000       0.50000000       0.52367000 </v>
   <v>       0.75000000       0.50000000       0.47633000 </v>
  </varray>
 </structure>
 <calculation>
  <scstep>
   <time name="dav">    7.00    7.67</time>
   <time name="total">    7.04    7.80</time>
   <energy>
    <i name="alphaZ">     94.24357992 </i>
    <i name="ewald">   -795.76658092 </i>
    <i name="hartreedc">   -271.33601302 </i>
    <i name="XCdc">     97.50108032 </i>
    <i name="pawpsdc">    608.99811708 </i>
    <i name="pawaedc">   -597.02363782 </i>
    <i name="eentropy">     -0.00199639 </i>
    <i name="bandstr">    -34.79602528 </i>
    <i name="atom">    996.37866305 </i>
    <i name="e_fr_energy">     98.19718694 </i>
    <i name="e_wo_entrp">     98.19918333 </i>
    <i name="e_0_energy">     98.19818513 </i>
   </energy>
  </scstep>
  <scstep>
   <time name="dav">    8.92    9.24</time>
   <time name="total">    8.92    9.24</time>
   <energy>
    <i name="e_fr_energy">    -90.91349354 </i>
    <i name="e_wo_entrp">    -90.90960396 </i>
    <i name="e_0_energy">    -90.91154875 </i>
   </energy>
  </scstep>
  <scstep>
   <time name="dav">   10.07   10.22</time>
   <time name="total">   10.07   10.22</time>
   <energy>
    <i name="e_fr_energy">    -97.61340157 </i>
    <i name="e_wo_entrp">    -97.60974325 </i>
    <i name="e_0_energy">    -97.61157241 </i>
   </energy>
  </scstep>
  <scstep>
   <time name="dav">    7.97    8.11</time>
   <time name="total">    7.97    8.11</time>
   <energy>
    <i name="e_fr_energy">    -97.65330844 </i>
    <i name="e_wo_entrp">    -97.64965300 </i>
    <i name="e_0_energy">    -97.65148072 </i>
   </energy>
  </scstep>
  <scstep>
   <time name="dav">    9.76    9.86</time>
   <time name="total">    9.93   10.04</time>
   <energy>
    <i name="e_fr_energy">    -97.65373727 </i>
    <i name="e_wo_entrp">    -97.65008178 </i>
    <i name="e_0_energy">    -97.65190952 </i>
   </energy>
  </scstep>
  <scstep>
   <time name="dav">    9.49    9.60</time>
   <time name="total">    9.67    9.77</time>
   <energy>
    <i name="e_fr_energy">    -92.23784388 </i>
    <i name="e_wo_entrp">    -92.23441226 </i>
    <i name="e_0_energy">    -92.23612807 </i>
   </energy>
  </scstep>
  <scstep>
   <time name="dav">   10.25   10.51</time>
   <time name="total">   10.49   10.75</time>
   <energy>
    <i name="e_fr_energy">    -90.58631825 </i>
    <i name="e_wo_entrp">    -90.58318358 </i>
    <i name="e_0_energy">    -90.58475092 </i>
   </energy>
  </scstep>
  <scstep>
   <time name="dav">    7.48    7.98</time>
   <time name="total">    7.66    8.17</time>
   <energy>
    <i name="e_fr_energy">    -90.59871497 </i>
    <i name="e_wo_entrp">    -90.59553721 </i>
    <i name="e_0_energy">    -90.59712609 </i>
   </energy>
  </scstep>
  <scstep>
   <time name="dav">    9.36    9.73</time>
   <time name="total">    9.57    9.95</time>
   <energy>
    <i name="e_fr_energy">    -90.61288575 </i>
    <i name="e_wo_entrp">    -90.60962217 </i>
    <i name="e_0_energy">    -90.61125396 </i>
   </energy>
  </scstep>
  <scstep>
   <time name="dav">    7.98    8.27</time>
   <time name="total">    8.15    8.45</time>
   <energy>
    <i name="e_fr_energy">    -90.61694298 </i>
    <i name="e_wo_entrp">    -90.61372539 </i>
    <i name="e_0_energy">    -90.61533419 </i>
   </energy>
  </scstep>
  <scstep>
   <time name="dav">    8.74    8.92</time>
   <time name="total">    8.91    9.09</time>
   <energy>
    <i name="e_fr_energy">    -90.61801379 </i>
    <i name="e_wo_entrp">    -90.61480700 </i>
    <i name="e_0_energy">    -90.61641039 </i>
   </energy>
  </scstep>
  <scstep>
   <time name="dav">    8.43    8.54</time>
   <time name="total">    8.64    9.00</time>
   <energy>
    <i name="e_fr_energy">    -90.61812932 </i>
    <i name="e_wo_entrp">    -90.61491634 </i>
    <i name="e_0_energy">    -90.61652283 </i>
   </energy>
  </scstep>
  <scstep>
   <time name="dav">    9.33    9.43</time>
   <time name="total">    9.50    9.61</time>
   <energy>
    <i name="e_fr_energy">    -90.61813417 </i>
    <i name="e_wo_entrp">    -90.61492090 </i>
    <i name="e_0_energy">    -90.61652753 </i>
   </energy>
  </scstep>
  <scstep>
   <time name="dav">    8.21    8.29</time>
   <time name="total">    8.22    8.30</time>
   <energy>
    <i name="alphaZ">     94.24357992 </i>
    <i name="ewald">   -795.76658092 </i>
    <i name="hartreedc">   -349.11947810 </i>
    <i name="XCdc">    101.59779367 </i>
    <i name="pawpsdc">   3730.64584091 </i>
    <i name="pawaedc">  -3719.83182523 </i>
    <i name="eentropy">     -0.00321339 </i>
    <i name="bandstr">   -148.76291477 </i>
    <i name="atom">    996.37866305 </i>
    <i name="e_fr_energy">    -90.61813485 </i>
    <i name="e_wo_entrp">    -90.61492147 </i>
    <i name="e_0_energy">    -90.61652816 </i>
   </energy>
  </scstep>
  <structure>
   <crystal>
    <varray name="basis" >
     <v>       5.69700000       0.00000000       0.00000000 </v>
     <v>       0.00000000       4.04790000       0.00000000 </v>
     <v>       0.00000000       0.00000000       6.20420000 </v>
    </varray>
    <i name="volume">    143.07435078 </i>
    <varray name="rec_basis" >
     <v>       0.17553098       0.00000000       0.00000000 </v>
     <v>       0.00000000       0.24704168       0.00000000 </v>
     <v>       0.00000000       0.00000000       0.16118114 </v>
    </varray>
   </crystal>
   <varray name="positions" >
    <v>       0.52123000       0.50000000       0.63796000 </v>
    <v>       0.47877000       0.50000000       0.36204000 </v>
    <v>       0.97877000       0.50000000       0.63796000 </v>
    <v>       0.02123000       0.50000000       0.36204000 </v>
    <v>       0.60090000       0.50000000       0.89991000 </v>
    <v>       0.39910000       0.50000000       0.10009000 </v>
    <v>       0.89910000       0.50000000       0.89991000 </v>
    <v>       0.10090000       0.50000000       0.10009000 </v>
    <v>       0.75000000       0.79171000       0.72973000 </v>
    <v>       0.25000000       0.20829000       0.27027000 </v>
    <v>       0.75000000       0.20829000       0.72973000 </v>
    <v>       0.25000000       0.79171000       0.27027000 </v>
    <v>       0.25000000       0.50000000       0.52367000 </v>
    <v>       0.75000000       0.50000000       0.47633000 </v>
   </varray>
  </structure>
  <varray name="forces" >
   <v>      -0.00266177      -0.00000000       0.05125669 </v>
   <v>       0.00266177      -0.00000000      -0.05125669 </v>
   <v>       0.00266177      -0.00000000       0.05125669 </v>
   <v>      -0.00266177      -0.00000000      -0.05125669 </v>
   <v>      -0.83211372      -0.00000000       0.27670451 </v>
   <v>       0.83211372      -0.00000000      -0.27670451 </v>
   <v>       0.83211372      -0.00000000       0.27670451 </v>
   <v>      -0.83211372      -0.00000000      -0.27670451 </v>
   <v>       0.00000000       0.06025010      -0.07904821 </v>
   <v>       0.00000000      -0.06025010       0.07904821 </v>
   <v>      -0.00000000      -0.06025010      -0.07904821 </v>
   <v>       0.00000000       0.06025010       0.07904821 </v>
   <v>      -0.00000000      -0.00000000       0.06967609 </v>
   <v>       0.00000000      -0.00000000      -0.06967609 </v>
  </varray>
  <varray name="stress" >
   <v>      14.44174910       0.00000000       0.00000000 </v>
   <v>       0.00000000       1.06861577       0.00000000 </v>
   <v>       0.00000000       0.00000000      -6.70807014 </v>
  </varray>
  <energy>
   <i name="e_fr_energy">    -90.61813485 </i>
   <i name="e_wo_entrp">    -90.61492147 </i>
   <i name="e_0_energy">    -90.61652816 </i>
  </energy>
  <time name="totalsc">  130.77  137.38</time>
  <eigenvalues>
   <array>
    <dimension dim="1">band</dimension>
    <dimension dim="2">kpoint</dimension>
    <dimension dim="3">spin</dimension>
    <field>eigene</field>
    <field>occ</field>
    <set>
     <set comment="spin 1">
      <set comment="kpoint 1">
       <r>  -12.7248    1.0000 </r>
       <r>  -11.5829    1.0000 </r>
       <r>   -8.6580    1.0000 </r>
       <r>   -8.4212    1.0000 </r>
       <r>   -6.0638    1.0000 </r>
       <r>   -5.1301    1.0000 </r>
       <r>   -4.6658    1.0000 </r>
       <r>   -4.2750    1.0000 </r>
       <r>   -4.0330    1.0000 </r>
       <r>   -3.5439    1.0000 </r>
       <r>   -2.5936    1.0000 </r>
       <r>   -2.3246    1.0000 </r>
       <r>   -1.8336    1.0000 </r>
       <r>   -1.0961    1.0000 </r>
       <r>   -0.0699    1.0000 </r>
       <r>   -0.0398    1.0000 </r>
       <r>    0.1561    1.0000 </r>
       <r>    0.1777    1.0000 </r>
       <r>    0.5655    1.0000 </r>
       <r>    2.0186    0.0001 </r>
       <r>    2.0816    0.0000 </r>
       <r>    2.2168    0.0000 </r>
       <r>    5.4575    0.0000 </r>
       <r>    5.7487    0.0000 </r>
       <r>    5.8378    0.0000 </r>
       <r>    5.9588    0.0000 </r>
       <r>    6.8140    0.0000 </r>
       <r>    7.5481    0.0000 </r>
       <r>    7.8773    0.0000 </r>
       <r>    8.5350    0.0000 </r>
       <r>    8.8017    0.0000 </r>
       <r>    8.9492    0.0000 </r>
       <r>    9.0514    0.0000 </r>
       <r>   10.1229    0.0000 </r>
       <r>   11.1837    0.0000 </r>
       <r>   11.3337    0.0000 </r>
       <r>   11.6640    0.0000 </r>
       <r>   11.7811    0.0000 </r>
       <r>   11.9404    0.0000 </r>
       <r>   12.4028    0.0000 </r>
       <r>   12.8678    0.0000 </r>
       <r>   13.4514    0.0000 </r>
       <r>   13.4787    0.0000 </r>
       <r>   15.3806    0.0000 </r>
       <r>   15.5701    0.0000 </r>
       <r>   16.0606    0.0000 </r>
       <r>   16.3320    0.0000 </r>
       <r>   16.3550    0.0000 </r>
      </set>
      <set comment="kpoint 2">
       <r>  -12.6811    1.0000 </r>
       <r>  -11.6567    1.0000 </r>
       <r>   -8.6369    1.0000 </r>
       <r>   -8.4097    1.0000 </r>
       <r>   -5.9956    1.0000 </r>
       <r>   -5.4711    1.0000 </r>
       <r>   -4.7884    1.0000 </r>
       <r>   -4.0096    1.0000 </r>
       <r>   -3.7921    1.0000 </r>
       <r>   -3.2063    1.0000 </r>
       <r>   -2.6639    1.0000 </r>
       <r>   -2.3045    1.0000 </r>
       <r>   -1.9122    1.0000 </r>
       <r>   -1.4030    1.0000 </r>
       <r>   -0.0296    1.0000 </r>
       <r>   -0.0184    1.0000 </r>
       <r>    0.0937    1.0000 </r>
       <r>    0.1980    1.0000 </r>
       <r>    0.4705    1.0000 </r>
       <r>    1.9323    0.0842 </r>
       <r>    2.0037    0.0003 </r>
       <r>    2.0956    0.0000 </r>
       <r>    5.5463    0.0000 </r>
       <r>    5.7572    0.0000 </r>
       <r>    5.8655    0.0000 </r>
       <r>    6.3044    0.0000 </r>
       <r>    6.7285    0.0000 </r>
       <r>    7.1863    0.0000 </r>
       <r>    8.0872    0.0000 </r>
       <r>    8.6714    0.0000 </r>
       <r>    9.0586    0.0000 </r>
       <r>    9.1309    0.0000 </r>
       <r>    9.2037    0.0000 </r>
       <r>   10.2356    0.0000 </r>
       <r>   10.9414    0.0000 </r>
       <r>   11.1297    0.0000 </r>
       <r>   11.2567    0.0000 </r>
       <r>   11.6983    0.0000 </r>
       <r>   12.1576    0.0000 </r>
       <r>   12.4922    0.0000 </r>
       <r>   13.1203    0.0000 </r>
       <r>   13.1270    0.0000 </r>
       <r>   14.0102    0.0000 </r>
       <r>   14.8689    0.0000 </r>
       <r>   15.7495    0.0000 </r>
       <r>   15.8284    0.0000 </r>
       <r>   16.2257    0.0000 </r>
       <r>   16.5123    0.0000 </r>
      </set>
      <set comment="kpoint 3">
       <r>  -12.5954    1.0000 </r>
       <r>  -11.7896    1.0000 </r>
       <r>   -8.5933    1.0000 </r>
       <r>   -8.3950    1.0000 </r>
       <r>   -5.9740    1.0000 </r>
       <r>   -5.7977    1.0000 </r>
       <r>   -4.7425    1.0000 </r>
       <r>   -3.8822    1.0000 </r>
       <r>   -3.2811    1.0000 </r>
       <r>   -2.8327    1.0000 </r>
       <r>   -2.7140    1.0000 </r>
       <r>   -2.2641    1.0000 </r>
       <r>   -2.0229    1.0000 </r>
       <r>   -1.9073    1.0000 </r>
       <r>   -0.2193    1.0000 </r>
       <r>    0.0139    1.0000 </r>
       <r>    0.1436    1.0000 </r>
       <r>    0.1570    1.0000 </r>
       <r>    0.4403    1.0000 </r>
       <r>    1.7847    0.9974 </r>
       <r>    1.8660    0.6916 </r>
       <r>    1.8709    0.6406 </r>
       <r>    5.6671    0.0000 </r>
       <r>    5.7137    0.0000 </r>
       <r>    6.1746    0.0000 </r>
       <r>    6.6025    0.0000 </r>
       <r>    6.7629    0.0000 </r>
       <r>    6.9317    0.0000 </r>
       <r>    8.2382    0.0000 </r>
       <r>    8.8198    0.0000 </r>
       <r>    8.9999    0.0000 </r>
       <r>    9.5750    0.0000 </r>
       <r>    9.6476    0.0000 </r>
       <r>   10.2801    0.0000 </r>
       <r>   10.4854    0.0000 </r>
       <r>   10.6253    0.0000 </r>
       <r>   11.3769    0.0000 </r>
       <r>   11.8404    0.0000 </r>
       <r>   12.3925    0.0000 </r>
       <r>   12.5652    0.0000 </r>
       <r>   12.7926    0.0000 </r>
       <r>   12.9176    0.0000 </r>
       <r>   14.6360    0.0000 </r>
       <r>   14.9175    0.0000 </r>
       <r>   15.2252    0.0000 </r>
       <r>   15.9824    0.0000 </r>
       <r>   16.0014    0.0000 </r>
       <r>   16.2901    0.0000 </r>
      </set>
      <set comment="kpoint 4">
       <r>  -12.4719    1.0000 </r>
       <r>  -11.9590    1.0000 </r>
       <r>   -8.5315    1.0000 </r>
       <r>   -8.3918    1.0000 </r>
       <r>   -6.0547    1.0000 </r>
       <r>   -6.0308    1.0000 </r>
       <r>   -4.4150    1.0000 </r>
       <r>   -3.7132    1.0000 </r>
       <r>   -3.0268    1.0000 </r>
       <r>   -2.8966    1.0000 </r>
       <r>   -2.4440    1.0000 </r>
       <r>   -2.2527    1.0000 </r>
       <r>   -2.1456    1.0000 </r>
       <r>   -2.1240    1.0000 </r>
       <r>   -0.5184    1.0000 </r>
       <r>   -0.2452    1.0000 </r>
       <r>    0.1726    1.0000 </r>
       <r>    0.2481    1.0000 </r>
       <r>    0.6134    1.0000 </r>
       <r>    1.5302    1.0000 </r>
       <r>    1.6619    1.0000 </r>
       <r>    1.7226    1.0000 </r>
       <r>    5.6984    0.0000 </r>
       <r>    5.7524    0.0000 </r>
       <r>    6.5012    0.0000 </r>
       <r>    6.6728    0.0000 </r>
       <r>    6.6986    0.0000 </r>
       <r>    7.4126    0.0000 </r>
       <r>    8.3626    0.0000 </r>
       <r>    8.6885    0.0000 </r>
       <r>    8.8090    0.0000 </r>
       <r>    9.5345    0.0000 </r>
       <r>   10.0557    0.0000 </r>
       <r>   10.1181    0.0000 </r>
       <r>   10.3981    0.0000 </r>
       <r>   11.1486    0.0000 </r>
       <r>   11.4043    0.0000 </r>
       <r>   11.9454    0.0000 </r>
       <r>   12.2039    0.0000 </r>
       <r>   12.2750    0.0000 </r>
       <r>   12.5209    0.0000 </r>
       <r>   13.2569    0.0000 </r>
       <r>   14.7128    0.0000 </r>
       <r>   14.9765    0.0000 </r>
       <r>   15.2628    0.0000 </r>
       <r>   15.3742    0.0000 </r>
       <r>   15.5724    0.0000 </r>
       <r>   16.3768    0.0000 </r>
      </set>
      <set comment="kpoint 5">
       <r>  -12.3172    1.0000 </r>
       <r>  -12.1413    1.0000 </r>
       <r>   -8.4654    1.0000 </r>
       <r>   -8.4144    1.0000 </r>
       <r>   -6.1444    1.0000 </r>
       <r>   -6.1400    1.0000 </r>
       <r>   -3.8997    1.0000 </r>
       <r>   -3.5039    1.0000 </r>
       <r>   -3.3003    1.0000 </r>
       <r>   -3.2659    1.0000 </r>
       <r>   -2.3616    1.0000 </r>
       <r>   -2.2331    1.0000 </r>
       <r>   -1.9614    1.0000 </r>
       <r>   -1.9084    1.0000 </r>
       <r>   -0.7389    1.0000 </r>
       <r>   -0.6034    1.0000 </r>
       <r>    0.2559    1.0000 </r>
       <r>    0.2895    1.0000 </r>
       <r>    0.8741    1.0000 </r>
       <r>    1.1915    1.0000 </r>
       <r>    1.5814    1.0000 </r>
       <r>    1.6088    1.0000 </r>
       <r>    5.7264    0.0000 </r>
       <r>    5.7638    0.0000 </r>
       <r>    6.4797    0.0000 </r>
       <r>    6.5437    0.0000 </r>
       <r>    7.3677    0.0000 </r>
       <r>    8.0736    0.0000 </r>
       <r>    8.0952    0.0000 </r>
       <r>    8.4804    0.0000 </r>
       <r>    8.6191    0.0000 </r>
       <r>    8.7892    0.0000 </r>
       <r>   10.5011    0.0000 </r>
       <r>   10.5174    0.0000 </r>
       <r>   10.7608    0.0000 </r>
       <r>   11.2188    0.0000 </r>
       <r>   11.4033    0.0000 </r>
       <r>   11.5995    0.0000 </r>
       <r>   11.9332    0.0000 </r>
       <r>   12.4823    0.0000 </r>
       <r>   12.7163    0.0000 </r>
       <r>   13.2524    0.0000 </r>
       <r>   14.5904    0.0000 </r>
       <r>   14.7347    0.0000 </r>
       <r>   14.8690    0.0000 </r>
       <r>   14.9278    0.0000 </r>
       <r>   16.1014    0.0000 </r>
       <r>   16.4460    0.0000 </r>
      </set>
      <set comment="kpoint 6">
       <r>  -12.7008    1.0000 </r>
       <r>  -11.5613    1.0000 </r>
       <r>   -8.6392    1.0000 </r>
       <r>   -8.3981    1.0000 </r>
       <r>   -6.0370    1.0000 </r>
       <r>   -5.0963    1.0000 </r>
       <r>   -4.6437    1.0000 </r>
       <r>   -4.5732    1.0000 </r>
       <r>   -4.1770    1.0000 </r>
       <r>   -3.5210    1.0000 </r>
       <r>   -3.2869    1.0000 </r>
       <r>   -1.7938    1.0000 </r>
       <r>   -1.0915    1.0000 </r>
       <r>   -1.0348    1.0000 </r>
       <r>   -0.3037    1.0000 </r>
       <r>   -0.2757    1.0000 </r>
       <r>    0.1696    1.0000 </r>
       <r>    0.2479    1.0000 </r>
       <r>    0.6439    1.0000 </r>
       <r>    1.7508    0.9999 </r>
       <r>    1.8307    0.9329 </r>
       <r>    2.2690    0.0000 </r>
       <r>    5.5758    0.0000 </r>
       <r>    5.7075    0.0000 </r>
       <r>    5.7412    0.0000 </r>
       <r>    6.0065    0.0000 </r>
       <r>    7.1000    0.0000 </r>
       <r>    7.8336    0.0000 </r>
       <r>    8.0768    0.0000 </r>
       <r>    8.1874    0.0000 </r>
       <r>    8.8059    0.0000 </r>
       <r>    9.0987    0.0000 </r>
       <r>    9.1499    0.0000 </r>
       <r>   10.5750    0.0000 </r>
       <r>   11.2652    0.0000 </r>
       <r>   11.3988    0.0000 </r>
       <r>   11.5979    0.0000 </r>
       <r>   11.8839    0.0000 </r>
       <r>   12.0510    0.0000 </r>
       <r>   12.6830    0.0000 </r>
       <r>   12.8679    0.0000 </r>
       <r>   13.1882    0.0000 </r>
       <r>   13.1944    0.0000 </r>
       <r>   15.3304    0.0000 </r>
       <r>   15.3799    0.0000 </r>
       <r>   15.8572    0.0000 </r>
       <r>   15.8681    0.0000 </r>
       <r>   16.2193    0.0000 </r>
      </set>
      <set comment="kpoint 7">
       <r>  -12.6571    1.0000 </r>
       <r>  -11.6350    1.0000 </r>
       <r>   -8.6180    1.0000 </r>
       <r>   -8.3870    1.0000 </r>
       <r>   -5.9670    1.0000 </r>
       <r>   -5.4410    1.0000 </r>
       <r>   -4.7683    1.0000 </r>
       <r>   -4.4903    1.0000 </r>
       <r>   -3.7527    1.0000 </r>
       <r>   -3.3677    1.0000 </r>
       <r>   -3.1682    1.0000 </r>
       <r>   -1.7721    1.0000 </r>
       <r>   -1.3976    1.0000 </r>
       <r>   -1.1540    1.0000 </r>
       <r>   -0.2648    1.0000 </r>
       <r>   -0.1950    1.0000 </r>
       <r>    0.1371    1.0000 </r>
       <r>    0.2194    1.0000 </r>
       <r>    0.5412    1.0000 </r>
       <r>    1.6703    1.0000 </r>
       <r>    1.7543    0.9999 </r>
       <r>    2.1382    0.0000 </r>
       <r>    5.6517    0.0000 </r>
       <r>    5.8061    0.0000 </r>
       <r>    5.9347    0.0000 </r>
       <r>    6.1113    0.0000 </r>
       <r>    7.0166    0.0000 </r>
       <r>    7.5085    0.0000 </r>
       <r>    8.2226    0.0000 </r>
       <r>    8.3581    0.0000 </r>
       <r>    9.1297    0.0000 </r>
       <r>    9.1601    0.0000 </r>
       <r>    9.4157    0.0000 </r>
       <r>   10.5000    0.0000 </r>
       <r>   10.8726    0.0000 </r>
       <r>   11.0824    0.0000 </r>
       <r>   11.4533    0.0000 </r>
       <r>   11.8711    0.0000 </r>
       <r>   12.2707    0.0000 </r>
       <r>   12.7380    0.0000 </r>
       <r>   12.8661    0.0000 </r>
       <r>   13.1510    0.0000 </r>
       <r>   13.7276    0.0000 </r>
       <r>   14.9540    0.0000 </r>
       <r>   15.3975    0.0000 </r>
       <r>   15.7493    0.0000 </r>
       <r>   15.7950    0.0000 </r>
       <r>   16.3995    0.0000 </r>
      </set>
      <set comment="kpoint 8">
       <r>  -12.5717    1.0000 </r>
       <r>  -11.7676    1.0000 </r>
       <r>   -8.5742    1.0000 </r>
       <r>   -8.3730    1.0000 </r>
       <r>   -5.9427    1.0000 </r>
       <r>   -5.7673    1.0000 </r>
       <r>   -4.7258    1.0000 </r>
       <r>   -4.3817    1.0000 </r>
       <r>   -3.4897    1.0000 </r>
       <r>   -3.2268    1.0000 </r>
       <r>   -2.7018    1.0000 </r>
       <r>   -1.9027    1.0000 </r>
       <r>   -1.7277    1.0000 </r>
       <r>   -1.3172    1.0000 </r>
       <r>   -0.2216    1.0000 </r>
       <r>   -0.2176    1.0000 </r>
       <r>    0.0525    1.0000 </r>
       <r>    0.2066    1.0000 </r>
       <r>    0.4648    1.0000 </r>
       <r>    1.5353    1.0000 </r>
       <r>    1.6242    1.0000 </r>
       <r>    1.8899    0.4294 </r>
       <r>    5.8553    0.0000 </r>
       <r>    5.9337    0.0000 </r>
       <r>    6.0115    0.0000 </r>
       <r>    6.5601    0.0000 </r>
       <r>    6.8959    0.0000 </r>
       <r>    7.2806    0.0000 </r>
       <r>    8.4288    0.0000 </r>
       <r>    8.4912    0.0000 </r>
       <r>    9.1001    0.0000 </r>
       <r>    9.6127    0.0000 </r>
       <r>    9.8733    0.0000 </r>
       <r>   10.1240    0.0000 </r>
       <r>   10.3526    0.0000 </r>
       <r>   10.8227    0.0000 </r>
       <r>   11.5190    0.0000 </r>
       <r>   12.1056    0.0000 </r>
       <r>   12.3076    0.0000 </r>
       <r>   12.5545    0.0000 </r>
       <r>   12.9572    0.0000 </r>
       <r>   13.0226    0.0000 </r>
       <r>   14.3046    0.0000 </r>
       <r>   15.0855    0.0000 </r>
       <r>   15.1612    0.0000 </r>
       <r>   15.6448    0.0000 </r>
       <r>   15.7081    0.0000 </r>
       <r>   16.4198    0.0000 </r>
      </set>
      <set comment="kpoint 9">
       <r>  -12.4485    1.0000 </r>
       <r>  -11.9366    1.0000 </r>
       <r>   -8.5121    1.0000 </r>
       <r>   -8.3707    1.0000 </r>
       <r>   -6.0222    1.0000 </r>
       <r>   -5.9995    1.0000 </r>
       <r>   -4.4005    1.0000 </r>
       <r>   -4.2345    1.0000 </r>
       <r>   -3.6614    1.0000 </r>
       <r>   -2.8471    1.0000 </r>
       <r>   -2.3624    1.0000 </r>
       <r>   -2.2186    1.0000 </r>
       <r>   -1.6635    1.0000 </r>
       <r>   -1.4805    1.0000 </r>
       <r>   -0.4798    1.0000 </r>
       <r>   -0.3082    1.0000 </r>
       <r>    0.0845    1.0000 </r>
       <r>    0.1144    1.0000 </r>
       <r>    0.6241    1.0000 </r>
       <r>    1.3957    1.0000 </r>
       <r>    1.4787    1.0000 </r>
       <r>    1.5659    1.0000 </r>
       <r>    5.8733    0.0000 </r>
       <r>    6.0073    0.0000 </r>
       <r>    6.5167    0.0000 </r>
       <r>    6.8063    0.0000 </r>
       <r>    6.8791    0.0000 </r>
       <r>    7.3715    0.0000 </r>
       <r>    8.4173    0.0000 </r>
       <r>    8.5991    0.0000 </r>
       <r>    8.9389    0.0000 </r>
       <r>    9.3699    0.0000 </r>
       <r>   10.0716    0.0000 </r>
       <r>   10.0981    0.0000 </r>
       <r>   10.4409    0.0000 </r>
       <r>   11.2258    0.0000 </r>
       <r>   11.3634    0.0000 </r>
       <r>   11.8409    0.0000 </r>
       <r>   12.2924    0.0000 </r>
       <r>   12.5450    0.0000 </r>
       <r>   12.7210    0.0000 </r>
       <r>   13.4594    0.0000 </r>
       <r>   14.7650    0.0000 </r>
       <r>   14.7725    0.0000 </r>
       <r>   15.1533    0.0000 </r>
       <r>   15.3070    0.0000 </r>
       <r>   15.6512    0.0000 </r>
       <r>   16.3898    0.0000 </r>
      </set>
      <set comment="kpoint 10">
       <r>  -12.2941    1.0000 </r>
       <r>  -12.1186    1.0000 </r>
       <r>   -8.4457    1.0000 </r>
       <r>   -8.3941    1.0000 </r>
       <r>   -6.1123    1.0000 </r>
       <r>   -6.1075    1.0000 </r>
       <r>   -4.0554    1.0000 </r>
       <r>   -3.8924    1.0000 </r>
       <r>   -3.8512    1.0000 </r>
       <r>   -3.2875    1.0000 </r>
       <r>   -2.1083    1.0000 </r>
       <r>   -1.9144    1.0000 </r>
       <r>   -1.5953    1.0000 </r>
       <r>   -1.5926    1.0000 </r>
       <r>   -0.7006    1.0000 </r>
       <r>   -0.5997    1.0000 </r>
       <r>    0.1174    1.0000 </r>
       <r>    0.1486    1.0000 </r>
       <r>    0.8835    1.0000 </r>
       <r>    1.1978    1.0000 </r>
       <r>    1.3421    1.0000 </r>
       <r>    1.3663    1.0000 </r>
       <r>    5.9244    0.0000 </r>
       <r>    5.9901    0.0000 </r>
       <r>    6.7952    0.0000 </r>
       <r>    6.8457    0.0000 </r>
       <r>    7.1843    0.0000 </r>
       <r>    7.8968    0.0000 </r>
       <r>    7.9420    0.0000 </r>
       <r>    8.6245    0.0000 </r>
       <r>    8.6918    0.0000 </r>
       <r>    8.8047    0.0000 </r>
       <r>   10.3197    0.0000 </r>
       <r>   10.5680    0.0000 </r>
       <r>   10.8047    0.0000 </r>
       <r>   10.9092    0.0000 </r>
       <r>   11.5505    0.0000 </r>
       <r>   11.6587    0.0000 </r>
       <r>   12.0124    0.0000 </r>
       <r>   12.6515    0.0000 </r>
       <r>   13.0248    0.0000 </r>
       <r>   13.4837    0.0000 </r>
       <r>   14.5482    0.0000 </r>
       <r>   14.7328    0.0000 </r>
       <r>   14.8298    0.0000 </r>
       <r>   15.0474    0.0000 </r>
       <r>   16.1257    0.0000 </r>
       <r>   16.4202    0.0000 </r>
      </set>
      <set comment="kpoint 11">
       <r>  -12.6564    1.0000 </r>
       <r>  -11.5216    1.0000 </r>
       <r>   -8.6048    1.0000 </r>
       <r>   -8.3554    1.0000 </r>
       <r>   -5.9875    1.0000 </r>
       <r>   -5.1301    1.0000 </r>
       <r>   -5.0055    1.0000 </r>
       <r>   -4.6019    1.0000 </r>
       <r>   -4.1608    1.0000 </r>
       <r>   -3.9090    1.0000 </r>
       <r>   -3.4678    1.0000 </r>
       <r>   -1.2047    1.0000 </r>
       <r>   -1.0822    1.0000 </r>
       <r>   -0.6478    1.0000 </r>
       <r>   -0.5418    1.0000 </r>
       <r>   -0.1763    1.0000 </r>
       <r>    0.1908    1.0000 </r>
       <r>    0.3009    1.0000 </r>
       <r>    0.7223    1.0000 </r>
       <r>    1.3679    1.0000 </r>
       <r>    1.4316    1.0000 </r>
       <r>    2.3071    0.0000 </r>
       <r>    5.2865    0.0000 </r>
       <r>    5.4521    0.0000 </r>
       <r>    6.1225    0.0000 </r>
       <r>    6.1949    0.0000 </r>
       <r>    7.5355    0.0000 </r>
       <r>    7.6245    0.0000 </r>
       <r>    8.3162    0.0000 </r>
       <r>    8.7257    0.0000 </r>
       <r>    8.8817    0.0000 </r>
       <r>    9.2405    0.0000 </r>
       <r>    9.3704    0.0000 </r>
       <r>   10.8802    0.0000 </r>
       <r>   11.3171    0.0000 </r>
       <r>   11.5710    0.0000 </r>
       <r>   11.6999    0.0000 </r>
       <r>   12.0846    0.0000 </r>
       <r>   12.2673    0.0000 </r>
       <r>   12.7447    0.0000 </r>
       <r>   12.7581    0.0000 </r>
       <r>   13.0048    0.0000 </r>
       <r>   13.2231    0.0000 </r>
       <r>   14.6743    0.0000 </r>
       <r>   15.1595    0.0000 </r>
       <r>   15.3414    0.0000 </r>
       <r>   15.4290    0.0000 </r>
       <r>   15.9600    0.0000 </r>
      </set>
      <set comment="kpoint 12">
       <r>  -12.6130    1.0000 </r>
       <r>  -11.5949    1.0000 </r>
       <r>   -8.5833    1.0000 </r>
       <r>   -8.3450    1.0000 </r>
       <r>   -5.9141    1.0000 </r>
       <r>   -5.3929    1.0000 </r>
       <r>   -5.0314    1.0000 </r>
       <r>   -4.7306    1.0000 </r>
       <r>   -3.9752    1.0000 </r>
       <r>   -3.7106    1.0000 </r>
       <r>   -3.1288    1.0000 </r>
       <r>   -1.3893    1.0000 </r>
       <r>   -1.1783    1.0000 </r>
       <r>   -0.7550    1.0000 </r>
       <r>   -0.5038    1.0000 </r>
       <r>   -0.0953    1.0000 </r>
       <r>    0.1714    1.0000 </r>
       <r>    0.2446    1.0000 </r>
       <r>    0.6099    1.0000 </r>
       <r>    1.2888    1.0000 </r>
       <r>    1.3619    1.0000 </r>
       <r>    2.1713    0.0000 </r>
       <r>    5.3668    0.0000 </r>
       <r>    5.7981    0.0000 </r>
       <r>    6.1410    0.0000 </r>
       <r>    6.2369    0.0000 </r>
       <r>    7.4548    0.0000 </r>
       <r>    7.7810    0.0000 </r>
       <r>    8.0485    0.0000 </r>
       <r>    8.8165    0.0000 </r>
       <r>    9.2523    0.0000 </r>
       <r>    9.2854    0.0000 </r>
       <r>    9.6551    0.0000 </r>
       <r>   10.5157    0.0000 </r>
       <r>   10.7780    0.0000 </r>
       <r>   11.2749    0.0000 </r>
       <r>   11.7179    0.0000 </r>
       <r>   12.1968    0.0000 </r>
       <r>   12.4296    0.0000 </r>
       <r>   12.4994    0.0000 </r>
       <r>   13.1610    0.0000 </r>
       <r>   13.2715    0.0000 </r>
       <r>   13.4358    0.0000 </r>
       <r>   14.6845    0.0000 </r>
       <r>   14.8210    0.0000 </r>
       <r>   15.2824    0.0000 </r>
       <r>   15.4928    0.0000 </r>
       <r>   15.9861    0.0000 </r>
      </set>
      <set comment="kpoint 13">
       <r>  -12.5279    1.0000 </r>
       <r>  -11.7271    1.0000 </r>
       <r>   -8.5391    1.0000 </r>
       <r>   -8.3323    1.0000 </r>
       <r>   -5.8843    1.0000 </r>
       <r>   -5.7125    1.0000 </r>
       <r>   -4.9397    1.0000 </r>
       <r>   -4.6947    1.0000 </r>
       <r>   -4.0989    1.0000 </r>
       <r>   -3.1765    1.0000 </r>
       <r>   -2.6578    1.0000 </r>
       <r>   -1.8863    1.0000 </r>
       <r>   -1.1376    1.0000 </r>
       <r>   -0.8938    1.0000 </r>
       <r>   -0.4509    1.0000 </r>
       <r>   -0.0861    1.0000 </r>
       <r>    0.0134    1.0000 </r>
       <r>    0.2565    1.0000 </r>
       <r>    0.4948    1.0000 </r>
       <r>    1.1573    1.0000 </r>
       <r>    1.2436    1.0000 </r>
       <r>    1.9147    0.1897 </r>
       <r>    5.6880    0.0000 </r>
       <r>    6.0960    0.0000 </r>
       <r>    6.2744    0.0000 </r>
       <r>    6.3667    0.0000 </r>
       <r>    7.3524    0.0000 </r>
       <r>    7.8592    0.0000 </r>
       <r>    8.0149    0.0000 </r>
       <r>    8.9451    0.0000 </r>
       <r>    9.2459    0.0000 </r>
       <r>    9.7185    0.0000 </r>
       <r>    9.8507    0.0000 </r>
       <r>   10.1371    0.0000 </r>
       <r>   10.2530    0.0000 </r>
       <r>   11.0616    0.0000 </r>
       <r>   11.5857    0.0000 </r>
       <r>   12.1039    0.0000 </r>
       <r>   12.5081    0.0000 </r>
       <r>   12.8002    0.0000 </r>
       <r>   13.0432    0.0000 </r>
       <r>   13.4454    0.0000 </r>
       <r>   13.9584    0.0000 </r>
       <r>   14.5931    0.0000 </r>
       <r>   14.8707    0.0000 </r>
       <r>   15.3026    0.0000 </r>
       <r>   15.5119    0.0000 </r>
       <r>   16.1968    0.0000 </r>
      </set>
      <set comment="kpoint 14">
       <r>  -12.4052    1.0000 </r>
       <r>  -11.8954    1.0000 </r>
       <r>   -8.4766    1.0000 </r>
       <r>   -8.3317    1.0000 </r>
       <r>   -5.9616    1.0000 </r>
       <r>   -5.9418    1.0000 </r>
       <r>   -4.8038    1.0000 </r>
       <r>   -4.3738    1.0000 </r>
       <r>   -4.2636    1.0000 </r>
       <r>   -2.8084    1.0000 </r>
       <r>   -2.3214    1.0000 </r>
       <r>   -2.1774    1.0000 </r>
       <r>   -1.0811    1.0000 </r>
       <r>   -1.0306    1.0000 </r>
       <r>   -0.4562    1.0000 </r>
       <r>   -0.3721    1.0000 </r>
       <r>    0.0573    1.0000 </r>
       <r>    0.0611    1.0000 </r>
       <r>    0.6417    1.0000 </r>
       <r>    1.0277    1.0000 </r>
       <r>    1.1108    1.0000 </r>
       <r>    1.5798    1.0000 </r>
       <r>    6.1073    0.0000 </r>
       <r>    6.2233    0.0000 </r>
       <r>    6.3983    0.0000 </r>
       <r>    6.8015    0.0000 </r>
       <r>    7.2964    0.0000 </r>
       <r>    7.7805    0.0000 </r>
       <r>    8.0699    0.0000 </r>
       <r>    9.0447    0.0000 </r>
       <r>    9.1030    0.0000 </r>
       <r>    9.1755    0.0000 </r>
       <r>    9.8871    0.0000 </r>
       <r>   10.1860    0.0000 </r>
       <r>   10.7005    0.0000 </r>
       <r>   11.0770    0.0000 </r>
       <r>   11.3249    0.0000 </r>
       <r>   11.9499    0.0000 </r>
       <r>   12.3549    0.0000 </r>
       <r>   12.9846    0.0000 </r>
       <r>   13.0357    0.0000 </r>
       <r>   13.7895    0.0000 </r>
       <r>   14.3796    0.0000 </r>
       <r>   14.3955    0.0000 </r>
       <r>   15.0294    0.0000 </r>
       <r>   15.1226    0.0000 </r>
       <r>   15.6132    0.0000 </r>
       <r>   16.3741    0.0000 </r>
      </set>
      <set comment="kpoint 15">
       <r>  -12.2514    1.0000 </r>
       <r>  -12.0766    1.0000 </r>
       <r>   -8.4095    1.0000 </r>
       <r>   -8.3568    1.0000 </r>
       <r>   -6.0527    1.0000 </r>
       <r>   -6.0468    1.0000 </r>
       <r>   -4.6358    1.0000 </r>
       <r>   -4.4500    1.0000 </r>
       <r>   -3.8611    1.0000 </r>
       <r>   -3.2649    1.0000 </r>
       <r>   -2.0394    1.0000 </r>
       <r>   -1.8738    1.0000 </r>
       <r>   -1.1022    1.0000 </r>
       <r>   -1.0406    1.0000 </r>
       <r>   -0.6296    1.0000 </r>
       <r>   -0.6229    1.0000 </r>
       <r>    0.0076    1.0000 </r>
       <r>    0.0512    1.0000 </r>
       <r>    0.8992    1.0000 </r>
       <r>    0.9654    1.0000 </r>
       <r>    1.0062    1.0000 </r>
       <r>    1.2263    1.0000 </r>
       <r>    6.1989    0.0000 </r>
       <r>    6.3171    0.0000 </r>
       <r>    6.8761    0.0000 </r>
       <r>    7.2157    0.0000 </r>
       <r>    7.2743    0.0000 </r>
       <r>    7.6207    0.0000 </r>
       <r>    7.9275    0.0000 </r>
       <r>    8.4390    0.0000 </r>
       <r>    9.1007    0.0000 </r>
       <r>    9.1330    0.0000 </r>
       <r>   10.0110    0.0000 </r>
       <r>   10.4830    0.0000 </r>
       <r>   10.7071    0.0000 </r>
       <r>   10.9774    0.0000 </r>
       <r>   11.7307    0.0000 </r>
       <r>   11.7490    0.0000 </r>
       <r>   12.1333    0.0000 </r>
       <r>   12.9089    0.0000 </r>
       <r>   13.4147    0.0000 </r>
       <r>   13.7621    0.0000 </r>
       <r>   14.2272    0.0000 </r>
       <r>   14.3818    0.0000 </r>
       <r>   14.9922    0.0000 </r>
       <r>   15.1322    0.0000 </r>
       <r>   15.9895    0.0000 </r>
       <r>   16.2934    0.0000 </r>
      </set>
      <set comment="kpoint 16">
       <r>  -12.5989    1.0000 </r>
       <r>  -11.4702    1.0000 </r>
       <r>   -8.5609    1.0000 </r>
       <r>   -8.3002    1.0000 </r>
       <r>   -5.9233    1.0000 </r>
       <r>   -5.6111    1.0000 </r>
       <r>   -4.9352    1.0000 </r>
       <r>   -4.5457    1.0000 </r>
       <r>   -4.4293    1.0000 </r>
       <r>   -4.1215    1.0000 </r>
       <r>   -3.4058    1.0000 </r>
       <r>   -1.2203    1.0000 </r>
       <r>   -1.0679    1.0000 </r>
       <r>   -1.0025    1.0000 </r>
       <r>   -0.1946    1.0000 </r>
       <r>    0.2191    1.0000 </r>
       <r>    0.3443    1.0000 </r>
       <r>    0.5945    1.0000 </r>
       <r>    0.7861    1.0000 </r>
       <r>    0.9828    1.0000 </r>
       <r>    0.9969    1.0000 </r>
       <r>    2.3414    0.0000 </r>
       <r>    4.9429    0.0000 </r>
       <r>    5.1585    0.0000 </r>
       <r>    6.3553    0.0000 </r>
       <r>    6.5848    0.0000 </r>
       <r>    7.2660    0.0000 </r>
       <r>    7.9666    0.0000 </r>
       <r>    8.7000    0.0000 </r>
       <r>    9.0573    0.0000 </r>
       <r>    9.4634    0.0000 </r>
       <r>    9.5782    0.0000 </r>
       <r>    9.6516    0.0000 </r>
       <r>   10.7417    0.0000 </r>
       <r>   11.2675    0.0000 </r>
       <r>   11.9647    0.0000 </r>
       <r>   12.0163    0.0000 </r>
       <r>   12.2934    0.0000 </r>
       <r>   12.4219    0.0000 </r>
       <r>   12.4464    0.0000 </r>
       <r>   12.5634    0.0000 </r>
       <r>   12.9902    0.0000 </r>
       <r>   13.7920    0.0000 </r>
       <r>   13.8786    0.0000 </r>
       <r>   14.4163    0.0000 </r>
       <r>   15.1010    0.0000 </r>
       <r>   15.4016    0.0000 </r>
       <r>   15.8584    0.0000 </r>
      </set>
      <set comment="kpoint 17">
       <r>  -12.5557    1.0000 </r>
       <r>  -11.5432    1.0000 </r>
       <r>   -8.5389    1.0000 </r>
       <r>   -8.2907    1.0000 </r>
       <r>   -5.8452    1.0000 </r>
       <r>   -5.5763    1.0000 </r>
       <r>   -5.2724    1.0000 </r>
       <r>   -4.6806    1.0000 </r>
       <r>   -4.4948    1.0000 </r>
       <r>   -3.6567    1.0000 </r>
       <r>   -3.0672    1.0000 </r>
       <r>   -1.3833    1.0000 </r>
       <r>   -1.1628    1.0000 </r>
       <r>   -1.0172    1.0000 </r>
       <r>   -0.1960    1.0000 </r>
       <r>    0.2042    1.0000 </r>
       <r>    0.2762    1.0000 </r>
       <r>    0.5739    1.0000 </r>
       <r>    0.6647    1.0000 </r>
       <r>    0.9174    1.0000 </r>
       <r>    0.9555    1.0000 </r>
       <r>    2.2036    0.0000 </r>
       <r>    5.0389    0.0000 </r>
       <r>    5.4902    0.0000 </r>
       <r>    6.3015    0.0000 </r>
       <r>    6.7165    0.0000 </r>
       <r>    7.4016    0.0000 </r>
       <r>    7.9241    0.0000 </r>
       <r>    8.6329    0.0000 </r>
       <r>    9.1735    0.0000 </r>
       <r>    9.4272    0.0000 </r>
       <r>    9.7883    0.0000 </r>
       <r>    9.8958    0.0000 </r>
       <r>   10.3339    0.0000 </r>
       <r>   10.7054    0.0000 </r>
       <r>   11.7041    0.0000 </r>
       <r>   11.8840    0.0000 </r>
       <r>   12.2437    0.0000 </r>
       <r>   12.4770    0.0000 </r>
       <r>   12.6407    0.0000 </r>
       <r>   12.9593    0.0000 </r>
       <r>   13.3898    0.0000 </r>
       <r>   13.7897    0.0000 </r>
       <r>   13.9225    0.0000 </r>
       <r>   14.2530    0.0000 </r>
       <r>   15.0759    0.0000 </r>
       <r>   15.4306    0.0000 </r>
       <r>   15.7294    0.0000 </r>
      </set>
      <set comment="kpoint 18">
       <r>  -12.4711    1.0000 </r>
       <r>  -11.6747    1.0000 </r>
       <r>   -8.4942    1.0000 </r>
       <r>   -8.2799    1.0000 </r>
       <r>   -5.8079    1.0000 </r>
       <r>   -5.6605    1.0000 </r>
       <r>   -5.4207    1.0000 </r>
       <r>   -4.6549    1.0000 </r>
       <r>   -4.6172    1.0000 </r>
       <r>   -3.1172    1.0000 </r>
       <r>   -2.5974    1.0000 </r>
       <r>   -1.8674    1.0000 </r>
       <r>   -1.1022    1.0000 </r>
       <r>   -1.0360    1.0000 </r>
       <r>   -0.2143    1.0000 </r>
       <r>   -0.0501    1.0000 </r>
       <r>    0.3145    1.0000 </r>
       <r>    0.5059    1.0000 </r>
       <r>    0.5222    1.0000 </r>
       <r>    0.8290    1.0000 </r>
       <r>    0.8885    1.0000 </r>
       <r>    1.9433    0.0458 </r>
       <r>    5.3646    0.0000 </r>
       <r>    5.9649    0.0000 </r>
       <r>    6.2742    0.0000 </r>
       <r>    6.8294    0.0000 </r>
       <r>    7.5691    0.0000 </r>
       <r>    7.9443    0.0000 </r>
       <r>    8.5585    0.0000 </r>
       <r>    9.3626    0.0000 </r>
       <r>    9.3931    0.0000 </r>
       <r>    9.5905    0.0000 </r>
       <r>   10.0417    0.0000 </r>
       <r>   10.1107    0.0000 </r>
       <r>   10.5585    0.0000 </r>
       <r>   11.3858    0.0000 </r>
       <r>   11.3962    0.0000 </r>
       <r>   12.2370    0.0000 </r>
       <r>   12.7392    0.0000 </r>
       <r>   12.9547    0.0000 </r>
       <r>   13.1783    0.0000 </r>
       <r>   13.5203    0.0000 </r>
       <r>   13.7634    0.0000 </r>
       <r>   14.0148    0.0000 </r>
       <r>   14.3886    0.0000 </r>
       <r>   15.1674    0.0000 </r>
       <r>   15.3568    0.0000 </r>
       <r>   15.9906    0.0000 </r>
      </set>
      <set comment="kpoint 19">
       <r>  -12.3491    1.0000 </r>
       <r>  -11.8421    1.0000 </r>
       <r>   -8.4310    1.0000 </r>
       <r>   -8.2816    1.0000 </r>
       <r>   -5.8820    1.0000 </r>
       <r>   -5.8692    1.0000 </r>
       <r>   -5.3076    1.0000 </r>
       <r>   -4.7816    1.0000 </r>
       <r>   -4.3380    1.0000 </r>
       <r>   -2.7636    1.0000 </r>
       <r>   -2.2788    1.0000 </r>
       <r>   -2.1217    1.0000 </r>
       <r>   -1.0441    1.0000 </r>
       <r>   -1.0175    1.0000 </r>
       <r>   -0.3743    1.0000 </r>
       <r>   -0.3296    1.0000 </r>
       <r>    0.1513    1.0000 </r>
       <r>    0.3753    1.0000 </r>
       <r>    0.6617    1.0000 </r>
       <r>    0.7731    1.0000 </r>
       <r>    0.8222    1.0000 </r>
       <r>    1.6045    1.0000 </r>
       <r>    5.8921    0.0000 </r>
       <r>    6.3064    0.0000 </r>
       <r>    6.5440    0.0000 </r>
       <r>    6.7815    0.0000 </r>
       <r>    7.5685    0.0000 </r>
       <r>    8.0025    0.0000 </r>
       <r>    8.5124    0.0000 </r>
       <r>    8.9138    0.0000 </r>
       <r>    9.2701    0.0000 </r>
       <r>    9.5812    0.0000 </r>
       <r>    9.9030    0.0000 </r>
       <r>   10.3435    0.0000 </r>
       <r>   10.7931    0.0000 </r>
       <r>   11.0917    0.0000 </r>
       <r>   11.4418    0.0000 </r>
       <r>   12.1664    0.0000 </r>
       <r>   12.4205    0.0000 </r>
       <r>   13.1574    0.0000 </r>
       <r>   13.2786    0.0000 </r>
       <r>   13.6584    0.0000 </r>
       <r>   13.8993    0.0000 </r>
       <r>   14.1500    0.0000 </r>
       <r>   14.7563    0.0000 </r>
       <r>   14.9904    0.0000 </r>
       <r>   15.4326    0.0000 </r>
       <r>   16.3262    0.0000 </r>
      </set>
      <set comment="kpoint 20">
       <r>  -12.1962    1.0000 </r>
       <r>  -12.0224    1.0000 </r>
       <r>   -8.3630    1.0000 </r>
       <r>   -8.3088    1.0000 </r>
       <r>   -5.9753    1.0000 </r>
       <r>   -5.9674    1.0000 </r>
       <r>   -5.1462    1.0000 </r>
       <r>   -4.9646    1.0000 </r>
       <r>   -3.8290    1.0000 </r>
       <r>   -3.2347    1.0000 </r>
       <r>   -1.9825    1.0000 </r>
       <r>   -1.8278    1.0000 </r>
       <r>   -0.9809    1.0000 </r>
       <r>   -0.9215    1.0000 </r>
       <r>   -0.6719    1.0000 </r>
       <r>   -0.6289    1.0000 </r>
       <r>    0.1270    1.0000 </r>
       <r>    0.2275    1.0000 </r>
       <r>    0.7576    1.0000 </r>
       <r>    0.7734    1.0000 </r>
       <r>    0.9250    1.0000 </r>
       <r>    1.2480    1.0000 </r>
       <r>    6.4396    0.0000 </r>
       <r>    6.5531    0.0000 </r>
       <r>    6.6188    0.0000 </r>
       <r>    7.1340    0.0000 </r>
       <r>    7.2044    0.0000 </r>
       <r>    7.6912    0.0000 </r>
       <r>    8.5011    0.0000 </r>
       <r>    8.5653    0.0000 </r>
       <r>    9.4643    0.0000 </r>
       <r>    9.6371    0.0000 </r>
       <r>    9.8430    0.0000 </r>
       <r>   10.1401    0.0000 </r>
       <r>   10.8573    0.0000 </r>
       <r>   11.2317    0.0000 </r>
       <r>   11.8680    0.0000 </r>
       <r>   11.9430    0.0000 </r>
       <r>   12.2549    0.0000 </r>
       <r>   13.1455    0.0000 </r>
       <r>   13.4361    0.0000 </r>
       <r>   13.6220    0.0000 </r>
       <r>   13.8373    0.0000 </r>
       <r>   13.9461    0.0000 </r>
       <r>   15.0985    0.0000 </r>
       <r>   15.1161    0.0000 </r>
       <r>   15.6658    0.0000 </r>
       <r>   15.9679    0.0000 </r>
      </set>
      <set comment="kpoint 21">
       <r>  -12.5388    1.0000 </r>
[...]
       <r>   -2.3160    1.0000 </r>
       <r>   -2.1475    1.0000 </r>
       <r>   -1.9836    1.0000 </r>
       <r>   -1.4915    1.0000 </r>
       <r>   -0.7386    1.0000 </r>
       <r>   -0.2027    1.0000 </r>
       <r>    0.1651    1.0000 </r>
       <r>    0.3844    1.0000 </r>
       <r>    0.5122    1.0000 </r>
       <r>    1.5878    1.0000 </r>
       <r>    1.6151    1.0000 </r>
       <r>    1.8704    0.6457 </r>
       <r>    5.5108    0.0000 </r>
       <r>    6.1454    0.0000 </r>
       <r>    6.6660    0.0000 </r>
       <r>    7.2162    0.0000 </r>
       <r>    7.7802    0.0000 </r>
       <r>    8.2233    0.0000 </r>
       <r>    8.9898    0.0000 </r>
       <r>    9.1490    0.0000 </r>
       <r>    9.7185    0.0000 </r>
       <r>    9.9540    0.0000 </r>
       <r>   10.5848    0.0000 </r>
       <r>   11.0294    0.0000 </r>
       <r>   11.2042    0.0000 </r>
       <r>   11.4760    0.0000 </r>
       <r>   11.5647    0.0000 </r>
       <r>   11.9476    0.0000 </r>
       <r>   12.8352    0.0000 </r>
       <r>   13.1423    0.0000 </r>
       <r>   13.3657    0.0000 </r>
       <r>   13.7458    0.0000 </r>
       <r>   13.8699    0.0000 </r>
       <r>   14.1530    0.0000 </r>
       <r>   14.4741    0.0000 </r>
       <r>   14.9645    0.0000 </r>
       <r>   15.0914    0.0000 </r>
       <r>   15.3919    0.0000 </r>
      </set>
      <set comment="kpoint 175">
       <r>  -12.0208    1.0000 </r>
       <r>  -11.8817    1.0000 </r>
       <r>   -8.5472    1.0000 </r>
       <r>   -8.4349    1.0000 </r>
       <r>   -5.9267    1.0000 </r>
       <r>   -5.8205    1.0000 </r>
       <r>   -4.8923    1.0000 </r>
       <r>   -4.5687    1.0000 </r>
       <r>   -4.4140    1.0000 </r>
       <r>   -3.9759    1.0000 </r>
       <r>   -2.1997    1.0000 </r>
       <r>   -2.1381    1.0000 </r>
       <r>   -2.0583    1.0000 </r>
       <r>   -1.7740    1.0000 </r>
       <r>   -0.2204    1.0000 </r>
       <r>   -0.0068    1.0000 </r>
       <r>    0.3873    1.0000 </r>
       <r>    0.4752    1.0000 </r>
       <r>    0.5471    1.0000 </r>
       <r>    0.8733    1.0000 </r>
       <r>    1.6292    1.0000 </r>
       <r>    1.7288    1.0000 </r>
       <r>    5.8578    0.0000 </r>
       <r>    6.0433    0.0000 </r>
       <r>    6.8682    0.0000 </r>
       <r>    7.4050    0.0000 </r>
       <r>    7.4721    0.0000 </r>
       <r>    7.5748    0.0000 </r>
       <r>    9.3945    0.0000 </r>
       <r>    9.5783    0.0000 </r>
       <r>    9.7871    0.0000 </r>
       <r>    9.9647    0.0000 </r>
       <r>   10.4613    0.0000 </r>
       <r>   10.8112    0.0000 </r>
       <r>   11.2337    0.0000 </r>
       <r>   11.5068    0.0000 </r>
       <r>   11.5171    0.0000 </r>
       <r>   11.6103    0.0000 </r>
       <r>   13.0796    0.0000 </r>
       <r>   13.1857    0.0000 </r>
       <r>   13.7187    0.0000 </r>
       <r>   14.0514    0.0000 </r>
       <r>   14.1856    0.0000 </r>
       <r>   14.2884    0.0000 </r>
       <r>   14.5904    0.0000 </r>
       <r>   14.7345    0.0000 </r>
       <r>   14.8829    0.0000 </r>
       <r>   15.0440    0.0000 </r>
      </set>
     </set>
    </set>
   </array>
  </eigenvalues>
  <separator name="orbital magnetization" >
   <v name="MAGDIPOLOUT">      0.00000000      0.00000000      0.00000000</v>
  </separator>
  <dos>
   <i name="efermi">      1.88365178 </i>
   <total>
    <array>
     <dimension dim="1">gridpoints</dimension>
     <dimension dim="2">spin</dimension>
     <field>energy</field>
     <field>total</field>
     <field>integrated</field>
     <set>
      <set comment="spin 1">
       <r>   -14.1867     0.0000     0.0000 </r>
       <r>   -14.0795     0.0000     0.0000 </r>
       <r>   -13.9723     0.0000     0.0000 </r>
       <r>   -13.8650     0.0000     0.0000 </r>
       <r>   -13.7578     0.0000     0.0000 </r>
       <r>   -13.6506     0.0000     0.0000 </r>
       <r>   -13.5434     0.0000     0.0000 </r>
       <r>   -13.4362     0.0000     0.0000 </r>
       <r>   -13.3290     0.0000     0.0000 </r>
       <r>   -13.2218     0.0000     0.0000 </r>
       <r>   -13.1146     0.0000     0.0000 </r>
       <r>   -13.0074     0.0000     0.0000 </r>
       <r>   -12.9002     0.0000     0.0000 </r>
       <r>   -12.7930     0.0038     0.0004 </r>
       <r>   -12.6858     0.5087     0.0549 </r>
       <r>   -12.5786     2.3905     0.3112 </r>
       <r>   -12.4714     3.5641     0.6933 </r>
       <r>   -12.3642     4.3713     1.1619 </r>
       <r>   -12.2570     3.5390     1.5413 </r>
       <r>   -12.1498     2.7351     1.8345 </r>
       <r>   -12.0426     2.7511     2.1294 </r>
       <r>   -11.9354     2.5050     2.3980 </r>
       <r>   -11.8282     2.7711     2.6951 </r>
       <r>   -11.7210     3.4272     3.0625 </r>
       <r>   -11.6138     3.5354     3.4415 </r>
       <r>   -11.5066     3.1148     3.7754 </r>
       <r>   -11.3994     1.6673     3.9541 </r>
       <r>   -11.2922     0.4208     3.9992 </r>
       <r>   -11.1850     0.0072     4.0000 </r>
       <r>   -11.0778     0.0000     4.0000 </r>
       <r>   -10.9706     0.0000     4.0000 </r>
       <r>   -10.8634     0.0000     4.0000 </r>
       <r>   -10.7562     0.0000     4.0000 </r>
       <r>   -10.6490     0.0000     4.0000 </r>
       <r>   -10.5418     0.0000     4.0000 </r>
       <r>   -10.4346     0.0000     4.0000 </r>
       <r>   -10.3274     0.0000     4.0000 </r>
       <r>   -10.2202     0.0000     4.0000 </r>
       <r>   -10.1129     0.0000     4.0000 </r>
       <r>   -10.0057     0.0000     4.0000 </r>
       <r>    -9.8985     0.0000     4.0000 </r>
       <r>    -9.7913     0.0000     4.0000 </r>
       <r>    -9.6841     0.0000     4.0000 </r>
       <r>    -9.5769     0.0000     4.0000 </r>
       <r>    -9.4697     0.0000     4.0000 </r>
       <r>    -9.3625     0.0000     4.0000 </r>
       <r>    -9.2553     0.0000     4.0000 </r>
       <r>    -9.1481     0.0000     4.0000 </r>
       <r>    -9.0409     0.0000     4.0000 </r>
       <r>    -8.9337     0.0006     4.0001 </r>
       <r>    -8.8265     0.2765     4.0297 </r>
       <r>    -8.7193     2.0918     4.2540 </r>
       <r>    -8.6121     5.3338     4.8258 </r>
       <r>    -8.5049     6.9890     5.5750 </r>
       <r>    -8.3977     6.2964     6.2500 </r>
       <r>    -8.2905     5.3253     6.8209 </r>
       <r>    -8.1833     4.8352     7.3392 </r>
       <r>    -8.0761     3.8713     7.7542 </r>
       <r>    -7.9689     1.6646     7.9327 </r>
       <r>    -7.8617     0.5762     7.9945 </r>
       <r>    -7.7545     0.0516     8.0000 </r>
       <r>    -7.6473     0.0000     8.0000 </r>
       <r>    -7.5401     0.0000     8.0000 </r>
       <r>    -7.4329     0.0000     8.0000 </r>
       <r>    -7.3257     0.0000     8.0000 </r>
       <r>    -7.2185     0.0000     8.0000 </r>
       <r>    -7.1113     0.0000     8.0000 </r>
       <r>    -7.0041     0.0004     8.0000 </r>
       <r>    -6.8969     0.1131     8.0122 </r>
       <r>    -6.7897     0.2577     8.0398 </r>
       <r>    -6.6825     0.4263     8.0855 </r>
       <r>    -6.5753     0.7663     8.1676 </r>
       <r>    -6.4681     0.8510     8.2589 </r>
       <r>    -6.3608     1.4448     8.4138 </r>
       <r>    -6.2536     1.9633     8.6242 </r>
       <r>    -6.1464     3.0573     8.9520 </r>
       <r>    -6.0392     3.7837     9.3576 </r>
       <r>    -5.9320     4.1147     9.7987 </r>
       <r>    -5.8248     4.0450    10.2324 </r>
       <r>    -5.7176     3.8619    10.6464 </r>
       <r>    -5.6104     4.0727    11.0830 </r>
       <r>    -5.5032     4.2205    11.5354 </r>
       <r>    -5.3960     4.5455    12.0227 </r>
       <r>    -5.2888     4.5994    12.5158 </r>
       <r>    -5.1816     4.4909    12.9972 </r>
       <r>    -5.0744     3.8690    13.4120 </r>
       <r>    -4.9672     3.2276    13.7580 </r>
       <r>    -4.8600     2.9523    14.0745 </r>
       <r>    -4.7528     2.3370    14.3250 </r>
       <r>    -4.6456     2.8965    14.6355 </r>
       <r>    -4.5384     3.3692    14.9967 </r>
       <r>    -4.4312     3.4719    15.3689 </r>
       <r>    -4.3240     3.3317    15.7261 </r>
       <r>    -4.2168     2.9543    16.0428 </r>
       <r>    -4.1096     2.9075    16.3545 </r>
       <r>    -4.0024     2.9455    16.6703 </r>
       <r>    -3.8952     2.8603    16.9769 </r>
       <r>    -3.7880     3.1201    17.3114 </r>
       <r>    -3.6808     2.8742    17.6195 </r>
       <r>    -3.5736     2.7054    17.9095 </r>
       <r>    -3.4664     3.0652    18.2381 </r>
       <r>    -3.3592     2.6379    18.5209 </r>
       <r>    -3.2520     2.8621    18.8277 </r>
       <r>    -3.1448     2.7436    19.1219 </r>
       <r>    -3.0376     2.7403    19.4156 </r>
       <r>    -2.9304     3.0453    19.7421 </r>
       <r>    -2.8232     2.9748    20.0610 </r>
       <r>    -2.7160     2.4301    20.3215 </r>
       <r>    -2.6087     2.6574    20.6064 </r>
       <r>    -2.5015     3.0216    20.9303 </r>
       <r>    -2.3943     2.9851    21.2503 </r>
       <r>    -2.2871     3.1930    21.5926 </r>
       <r>    -2.1799     4.0094    22.0224 </r>
       <r>    -2.0727     3.6563    22.4144 </r>
       <r>    -1.9655     3.2745    22.7654 </r>
       <r>    -1.8583     5.1298    23.3154 </r>
       <r>    -1.7511     5.5775    23.9133 </r>
       <r>    -1.6439     5.6043    24.5141 </r>
       <r>    -1.5367     6.1841    25.1770 </r>
       <r>    -1.4295     6.1106    25.8321 </r>
       <r>    -1.3223     5.5672    26.4289 </r>
       <r>    -1.2151     4.6831    26.9310 </r>
       <r>    -1.1079     6.4980    27.6276 </r>
       <r>    -1.0007     3.9748    28.0537 </r>
       <r>    -0.8935     2.2703    28.2971 </r>
       <r>    -0.7863     2.6992    28.5865 </r>
       <r>    -0.6791     2.8801    28.8952 </r>
       <r>    -0.5719     4.5244    29.3802 </r>
       <r>    -0.4647     6.8637    30.1161 </r>
       <r>    -0.3575     5.6583    30.7226 </r>
       <r>    -0.2503     6.7060    31.4415 </r>
       <r>    -0.1431     6.3605    32.1234 </r>
       <r>    -0.0359     6.7467    32.8467 </r>
       <r>     0.0713     6.7553    33.5709 </r>
       <r>     0.1785     6.3005    34.2463 </r>
       <r>     0.2857     8.8054    35.1903 </r>
       <r>     0.3929     7.9832    36.0461 </r>
       <r>     0.5001     8.6976    36.9785 </r>
       <r>     0.6073     5.2405    37.5403 </r>
       <r>     0.7145     2.9333    37.8547 </r>
       <r>     0.8217     3.2943    38.2079 </r>
       <r>     0.9289     3.5872    38.5925 </r>
       <r>     1.0362     3.5602    38.9741 </r>
       <r>     1.1434     2.7912    39.2734 </r>
       <r>     1.2506     3.3930    39.6371 </r>
       <r>     1.3578     4.4988    40.1194 </r>
       <r>     1.4650     3.7772    40.5243 </r>
       <r>     1.5722     3.7250    40.9236 </r>
       <r>     1.6794     4.5767    41.4143 </r>
       <r>     1.7866     3.2269    41.7602 </r>
       <r>     1.8938     2.4806    42.0261 </r>
       <r>     2.0010     2.6594    42.3112 </r>
       <r>     2.1082     2.0925    42.5356 </r>
       <r>     2.2154     2.6528    42.8199 </r>
       <r>     2.3226     2.5696    43.0954 </r>
       <r>     2.4298     1.9340    43.3027 </r>
       <r>     2.5370     0.8488    43.3937 </r>
       <r>     2.6442     0.3783    43.4343 </r>
       <r>     2.7514     0.5723    43.4956 </r>
       <r>     2.8586     0.4196    43.5406 </r>
       <r>     2.9658     0.3056    43.5734 </r>
       <r>     3.0730     0.7602    43.6549 </r>
       <r>     3.1802     1.0136    43.7635 </r>
       <r>     3.2874     0.5351    43.8209 </r>
       <r>     3.3946     0.0128    43.8223 </r>
       <r>     3.5018     0.1322    43.8365 </r>
       <r>     3.6090     0.3961    43.8789 </r>
       <r>     3.7162     0.3293    43.9142 </r>
       <r>     3.8234     0.3731    43.9542 </r>
       <r>     3.9306     0.4010    43.9972 </r>
       <r>     4.0378     0.0261    44.0000 </r>
       <r>     4.1450     0.0000    44.0000 </r>
       <r>     4.2522     0.0313    44.0034 </r>
       <r>     4.3594     0.1762    44.0222 </r>
       <r>     4.4666     0.4025    44.0654 </r>
       <r>     4.5738     0.4710    44.1159 </r>
       <r>     4.6810     0.6340    44.1838 </r>
       <r>     4.7883     0.8890    44.2791 </r>
       <r>     4.8955     0.8414    44.3693 </r>
       <r>     5.0027     0.8574    44.4613 </r>
       <r>     5.1099     1.2772    44.5982 </r>
       <r>     5.2171     1.1524    44.7217 </r>
       <r>     5.3243     1.6333    44.8968 </r>
       <r>     5.4315     2.1915    45.1317 </r>
       <r>     5.5387     2.4872    45.3984 </r>
       <r>     5.6459     2.7890    45.6974 </r>
       <r>     5.7531     3.3687    46.0585 </r>
       <r>     5.8603     3.2186    46.4035 </r>
       <r>     5.9675     4.3142    46.8660 </r>
       <r>     6.0747     4.7578    47.3761 </r>
       <r>     6.1819     4.0453    47.8097 </r>
       <r>     6.2891     4.6238    48.3054 </r>
       <r>     6.3963     4.1515    48.7505 </r>
       <r>     6.5035     4.0186    49.1813 </r>
       <r>     6.6107     4.4789    49.6614 </r>
       <r>     6.7179     3.2272    50.0074 </r>
       <r>     6.8251     3.9982    50.4360 </r>
       <r>     6.9323     4.6134    50.9306 </r>
       <r>     7.0395     4.5506    51.4184 </r>
       <r>     7.1467     4.3411    51.8838 </r>
       <r>     7.2539     5.6007    52.4842 </r>
       <r>     7.3611     4.9218    53.0118 </r>
       <r>     7.4683     4.4533    53.4892 </r>
       <r>     7.5755     4.1905    53.9385 </r>
       <r>     7.6827     3.5662    54.3208 </r>
       <r>     7.7899     3.1247    54.6558 </r>
       <r>     7.8971     3.0095    54.9784 </r>
       <r>     8.0043     2.9786    55.2977 </r>
       <r>     8.1115     4.1687    55.7446 </r>
       <r>     8.2187     3.8870    56.1613 </r>
       <r>     8.3259     3.6901    56.5569 </r>
       <r>     8.4331     3.9908    56.9847 </r>
       <r>     8.5404     4.2156    57.4367 </r>
       <r>     8.6476     4.4584    57.9146 </r>
       <r>     8.7548     4.2209    58.3671 </r>
       <r>     8.8620     5.2655    58.9316 </r>
       <r>     8.9692     4.9424    59.4614 </r>
       <r>     9.0764     5.2923    60.0288 </r>
       <r>     9.1836     5.2370    60.5902 </r>
       <r>     9.2908     4.9703    61.1230 </r>
       <r>     9.3980     4.6895    61.6257 </r>
       <r>     9.5052     4.3700    62.0942 </r>
       <r>     9.6124     5.1052    62.6415 </r>
       <r>     9.7196     5.0267    63.1804 </r>
       <r>     9.8268     5.3002    63.7486 </r>
       <r>     9.9340     4.4799    64.2288 </r>
       <r>    10.0412     3.6354    64.6186 </r>
       <r>    10.1484     5.1772    65.1736 </r>
       <r>    10.2556     4.7141    65.6789 </r>
       <r>    10.3628     4.1177    66.1204 </r>
       <r>    10.4700     5.4165    66.7010 </r>
       <r>    10.5772     5.8097    67.3239 </r>
       <r>    10.6844     4.0654    67.7597 </r>
       <r>    10.7916     3.8848    68.1761 </r>
       <r>    10.8988     3.2365    68.5231 </r>
       <r>    11.0060     4.6663    69.0233 </r>
       <r>    11.1132     5.4833    69.6112 </r>
       <r>    11.2204     6.1889    70.2746 </r>
       <r>    11.3276     5.9941    70.9172 </r>
       <r>    11.4348     5.2849    71.4838 </r>
       <r>    11.5420     4.3016    71.9449 </r>
       <r>    11.6492     4.4736    72.4245 </r>
       <r>    11.7564     4.9327    72.9533 </r>
       <r>    11.8636     4.8050    73.4684 </r>
       <r>    11.9708     6.0354    74.1154 </r>
       <r>    12.0780     5.9597    74.7543 </r>
       <r>    12.1852     5.9921    75.3967 </r>
       <r>    12.2925     5.6160    75.9987 </r>
       <r>    12.3997     5.0081    76.5356 </r>
       <r>    12.5069     5.6880    77.1454 </r>
       <r>    12.6141     5.9882    77.7873 </r>
       <r>    12.7213     6.0212    78.4328 </r>
       <r>    12.8285     5.8894    79.0642 </r>
       <r>    12.9357     5.8637    79.6928 </r>
       <r>    13.0429     5.5952    80.2926 </r>
       <r>    13.1501     6.3481    80.9731 </r>
       <r>    13.2573     6.2661    81.6449 </r>
       <r>    13.3645     5.3853    82.2222 </r>
       <r>    13.4717     6.1338    82.8798 </r>
       <r>    13.5789     5.3427    83.4525 </r>
       <r>    13.6861     4.8109    83.9683 </r>
       <r>    13.7933     6.1268    84.6251 </r>
       <r>    13.9005     5.5267    85.2175 </r>
       <r>    14.0077     5.3443    85.7905 </r>
       <r>    14.1149     5.4758    86.3775 </r>
       <r>    14.2221     4.6870    86.8799 </r>
       <r>    14.3293     4.9047    87.4057 </r>
       <r>    14.4365     5.0187    87.9438 </r>
       <r>    14.5437     4.9610    88.4756 </r>
       <r>    14.6509     5.2722    89.0408 </r>
       <r>    14.7581     5.1680    89.5948 </r>
       <r>    14.8653     4.0930    90.0336 </r>
       <r>    14.9725     5.0780    90.5780 </r>
       <r>    15.0797     6.1853    91.2410 </r>
       <r>    15.1869     5.6418    91.8459 </r>
       <r>    15.2941     5.6717    92.4539 </r>
       <r>    15.4013     6.0290    93.1002 </r>
       <r>    15.5085     5.7361    93.7151 </r>
       <r>    15.6157     5.9513    94.3531 </r>
       <r>    15.7229     4.5960    94.8458 </r>
       <r>    15.8301     2.4713    95.1108 </r>
       <r>    15.9373     2.7056    95.4008 </r>
       <r>    16.0446     1.8627    95.6005 </r>
       <r>    16.1518     1.1456    95.7233 </r>
       <r>    16.2590     0.8900    95.8187 </r>
       <r>    16.3662     0.6983    95.8936 </r>
       <r>    16.4734     0.8142    95.9809 </r>
       <r>    16.5806     0.1768    95.9998 </r>
       <r>    16.6878     0.0017    96.0000 </r>
       <r>    16.7950     0.0000    96.0000 </r>
       <r>    16.9022     0.0000    96.0000 </r>
       <r>    17.0094     0.0000    96.0000 </r>
       <r>    17.1166     0.0000    96.0000 </r>
       <r>    17.2238     0.0000    96.0000 </r>
       <r>    17.3310     0.0000    96.0000 </r>
       <r>    17.4382     0.0000    96.0000 </r>
       <r>    17.5454     0.0000    96.0000 </r>
       <r>    17.6526     0.0000    96.0000 </r>
       <r>    17.7598     0.0000    96.0000 </r>
       <r>    17.8670     0.0000    96.0000 </r>
       <r>    17.9742     0.0000    96.0000 </r>
      </set>
     </set>
    </array>
   </total>
  </dos>
 </calculation>
 <structure name="finalpos" >
  <crystal>
   <varray name="basis" >
    <v>       5.69700000       0.00000000       0.00000000 </v>
    <v>       0.00000000       4.04790000       0.00000000 </v>
    <v>       0.00000000       0.00000000       6.20420000 </v>
   </varray>
   <i name="volume">    143.07435078 </i>
   <varray name="rec_basis" >
    <v>       0.17553098       0.00000000       0.00000000 </v>
    <v>       0.00000000       0.24704168       0.00000000 </v>
    <v>       0.00000000       0.00000000       0.16118114 </v>
   </varray>
  </crystal>
  <varray name="positions" >
   <v>       0.52123000       0.50000000       0.63796000 </v>
   <v>       0.47877000       0.50000000       0.36204000 </v>
   <v>       0.97877000       0.50000000       0.63796000 </v>
   <v>       0.02123000       0.50000000       0.36204000 </v>
   <v>       0.60090000       0.50000000       0.89991000 </v>
   <v>       0.39910000       0.50000000       0.10009000 </v>
   <v>       0.89910000       0.50000000       0.89991000 </v>
   <v>       0.10090000       0.50000000       0.10009000 </v>
   <v>       0.75000000       0.79171000       0.72973000 </v>
   <v>       0.25000000       0.20829000       0.27027000 </v>
   <v>       0.75000000       0.20829000       0.72973000 </v>
   <v>       0.25000000       0.79171000       0.27027000 </v>
   <v>       0.25000000       0.50000000       0.52367000 </v>
   <v>       0.75000000       0.50000000       0.47633000 </v>
  </varray>
 </structure>
</modeling>
