<?xml version="1.0" encoding="ISO-8859-1"?>
<modeling>
 <generator>
  <i name="program" type="string">vasp </i>
  <i name="version" type="string">6.4.3  </i>
  <i name="subversion" type="string">19Mar24 (build May 31 2024 16:31:43) complex                          parallel </i>
  <i name="platform" type="string">LinuxIFC </i>
  <i name="date" type="string">2024 10 30 </i>
  <i name="time" type="string">19:25:16 </i>
 </generator>
 <incar>
  <i type="string" name="SYSTEM">Kpoints</i>
  <i type="int" name="ISTART">     0</i>
  <i type="string" name="PREC">Accurate</i>
  <i type="string" name="ALGO">Normal</i>
  <i type="int" name="ISPIN">     1</i>
  <i type="int" name="ICHARG">     2</i>
  <i type="int" name="NELM">   100</i>
  <i type="int" name="IBRION">    -1</i>
  <i name="EDIFF">      0.00000100</i>
  <i name="EDIFFG">     -0.00100000</i>
  <i type="int" name="NSW">     0</i>
  <i type="int" name="ISIF">     2</i>
  <i name="ENCUT">    380.00000000</i>
  <i name="POTIM">      0.50000000</i>
  <i type="int" name="ISMEAR">     0</i>
  <i name="SIGMA">      0.05000000</i>
  <i type="logical" name="LWAVE"> F  </i>
  <i type="logical" name="LCHARG"> F  </i>
  <i type="string" name="GGA">PE</i>
 </incar>
 <primitive_cell>
  <structure name="primitive_cell" >
   <crystal>
    <varray name="basis" >
     <v>       5.69700000       0.00000000       0.00000000 </v>
     <v>       0.00000000       4.04790000       0.00000000 </v>
     <v>       0.00000000       0.00000000       6.20420000 </v>
    </varray>
    <i name="volume">    143.07435078 </i>
    <varray name="rec_basis" >
     <v>       0.17553098       0.00000000       0.00000000 </v>
     <v>       0.00000000       0.24704168       0.00000000 </v>
     <v>       0.00000000       0.00000000       0.16118114 </v>
    </varray>
   </crystal>
   <varray name="positions" >
    <v>       0.52123000       0.50000000       0.63796000 </v>
    <v>       0.47877000       0.50000000       0.36204000 </v>
    <v>       0.97877000       0.50000000       0.63796000 </v>
    <v>       0.02123000       0.50000000       0.36204000 </v>
    <v>       0.60090000       0.50000000       0.89991000 </v>
    <v>       0.39910000       0.50000000       0.10009000 </v>
    <v>       0.89910000       0.50000000       0.89991000 </v>
    <v>       0.10090000       0.50000000       0.10009000 </v>
    <v>       0.75000000       0.79171000       0.72973000 </v>
    <v>       0.25000000       0.20829000       0.27027000 </v>
    <v>       0.75000000       0.20829000       0.72973000 </v>
    <v>       0.25000000       0.79171000       0.27027000 </v>
    <v>       0.25000000       0.50000000       0.52367000 </v>
    <v>       0.75000000       0.50000000       0.47633000 </v>
   </varray>
  </structure>
  <varray name="primitive_index" >
   <v type="int" >        1 </v>
   <v type="int" >        2 </v>
   <v type="int" >        3 </v>
   <v type="int" >        4 </v>
   <v type="int" >        5 </v>
   <v type="int" >        6 </v>
   <v type="int" >        7 </v>
   <v type="int" >        8 </v>
   <v type="int" >        9 </v>
   <v type="int" >       10 </v>
   <v type="int" >       11 </v>
   <v type="int" >       12 </v>
   <v type="int" >       13 </v>
   <v type="int" >       14 </v>
  </varray>
 </primitive_cell>
 <kpoints>
  <generation param="Monkhorst-Pack">
   <v type="int" name="divisions">      10       14        9 </v>
   <v name="usershift">      0.00000000       0.00000000       0.00000000 </v>
   <v name="genvec1">      0.10000000       0.00000000       0.00000000 </v>
   <v name="genvec2">      0.00000000       0.07142857       0.00000000 </v>
   <v name="genvec3">      0.00000000       0.00000000       0.11111111 </v>
   <v name="shift">      0.50000000       0.50000000       0.00000000 </v>
  </generation>
  <varray name="kpointlist" >
   <v>       0.05000000       0.03571429       0.00000000 </v>
   <v>       0.15000000       0.03571429       0.00000000 </v>
   <v>       0.25000000       0.03571429       0.00000000 </v>
   <v>       0.35000000       0.03571429       0.00000000 </v>
   <v>       0.45000000       0.03571429       0.00000000 </v>
   <v>       0.05000000       0.10714286       0.00000000 </v>
   <v>       0.15000000       0.10714286       0.00000000 </v>
   <v>       0.25000000       0.10714286       0.00000000 </v>
   <v>       0.35000000       0.10714286       0.00000000 </v>
   <v>       0.45000000       0.10714286       0.00000000 </v>
   <v>       0.05000000       0.17857143       0.00000000 </v>
   <v>       0.15000000       0.17857143       0.00000000 </v>
   <v>       0.25000000       0.17857143       0.00000000 </v>
   <v>       0.35000000       0.17857143       0.00000000 </v>
   <v>       0.45000000       0.17857143       0.00000000 </v>
   <v>       0.05000000       0.25000000       0.00000000 </v>
   <v>       0.15000000       0.25000000       0.00000000 </v>
   <v>       0.25000000       0.25000000       0.00000000 </v>
   <v>       0.35000000       0.25000000       0.00000000 </v>
   <v>       0.45000000       0.25000000       0.00000000 </v>
   <v>       0.05000000       0.32142857       0.00000000 </v>
   <v>       0.15000000       0.32142857       0.00000000 </v>
   <v>       0.25000000       0.32142857       0.00000000 </v>
   <v>       0.35000000       0.32142857       0.00000000 </v>
   <v>       0.45000000       0.32142857       0.00000000 </v>
   <v>       0.05000000       0.39285714       0.00000000 </v>
   <v>       0.15000000       0.39285714       0.00000000 </v>
   <v>       0.25000000       0.39285714       0.00000000 </v>
   <v>       0.35000000       0.39285714       0.00000000 </v>
   <v>       0.45000000       0.39285714       0.00000000 </v>
   <v>       0.05000000       0.46428571       0.00000000 </v>
   <v>       0.15000000       0.46428571       0.00000000 </v>
   <v>       0.25000000       0.46428571       0.00000000 </v>
   <v>       0.35000000       0.46428571       0.00000000 </v>
   <v>       0.45000000       0.46428571       0.00000000 </v>
   <v>       0.05000000       0.03571429       0.11111111 </v>
   <v>       0.15000000       0.03571429       0.11111111 </v>
   <v>       0.25000000       0.03571429       0.11111111 </v>
   <v>       0.35000000       0.03571429       0.11111111 </v>
   <v>       0.45000000       0.03571429       0.11111111 </v>
   <v>       0.05000000       0.10714286       0.11111111 </v>
   <v>       0.15000000       0.10714286       0.11111111 </v>
   <v>       0.25000000       0.10714286       0.11111111 </v>
   <v>       0.35000000       0.10714286       0.11111111 </v>
   <v>       0.45000000       0.10714286       0.11111111 </v>
   <v>       0.05000000       0.17857143       0.11111111 </v>
   <v>       0.15000000       0.17857143       0.11111111 </v>
   <v>       0.25000000       0.17857143       0.11111111 </v>
   <v>       0.35000000       0.17857143       0.11111111 </v>
   <v>       0.45000000       0.17857143       0.11111111 </v>
   <v>       0.05000000       0.25000000       0.11111111 </v>
   <v>       0.15000000       0.25000000       0.11111111 </v>
   <v>       0.25000000       0.25000000       0.11111111 </v>
   <v>       0.35000000       0.25000000       0.11111111 </v>
   <v>       0.45000000       0.25000000       0.11111111 </v>
   <v>       0.05000000       0.32142857       0.11111111 </v>
   <v>       0.15000000       0.32142857       0.11111111 </v>
   <v>       0.25000000       0.32142857       0.11111111 </v>
   <v>       0.35000000       0.32142857       0.11111111 </v>
   <v>       0.45000000       0.32142857       0.11111111 </v>
   <v>       0.05000000       0.39285714       0.11111111 </v>
   <v>       0.15000000       0.39285714       0.11111111 </v>
   <v>       0.25000000       0.39285714       0.11111111 </v>
   <v>       0.35000000       0.39285714       0.11111111 </v>
   <v>       0.45000000       0.39285714       0.11111111 </v>
   <v>       0.05000000       0.46428571       0.11111111 </v>
   <v>       0.15000000       0.46428571       0.11111111 </v>
   <v>       0.25000000       0.46428571       0.11111111 </v>
   <v>       0.35000000       0.46428571       0.11111111 </v>
   <v>       0.45000000       0.46428571       0.11111111 </v>
   <v>       0.05000000       0.03571429       0.22222222 </v>
   <v>       0.15000000       0.03571429       0.22222222 </v>
   <v>       0.25000000       0.03571429       0.22222222 </v>
   <v>       0.35000000       0.03571429       0.22222222 </v>
   <v>       0.45000000       0.03571429       0.22222222 </v>
   <v>       0.05000000       0.10714286       0.22222222 </v>
   <v>       0.15000000       0.10714286       0.22222222 </v>
   <v>       0.25000000       0.10714286       0.22222222 </v>
   <v>       0.35000000       0.10714286       0.22222222 </v>
   <v>       0.45000000       0.10714286       0.22222222 </v>
   <v>       0.05000000       0.17857143       0.22222222 </v>
   <v>       0.15000000       0.17857143       0.22222222 </v>
   <v>       0.25000000       0.17857143       0.22222222 </v>
   <v>       0.35000000       0.17857143       0.22222222 </v>
   <v>       0.45000000       0.17857143       0.22222222 </v>
   <v>       0.05000000       0.25000000       0.22222222 </v>
   <v>       0.15000000       0.25000000       0.22222222 </v>
   <v>       0.25000000       0.25000000       0.22222222 </v>
   <v>       0.35000000       0.25000000       0.22222222 </v>
   <v>       0.45000000       0.25000000       0.22222222 </v>
   <v>       0.05000000       0.32142857       0.22222222 </v>
   <v>       0.15000000       0.32142857       0.22222222 </v>
   <v>       0.25000000       0.32142857       0.22222222 </v>
   <v>       0.35000000       0.32142857       0.22222222 </v>
   <v>       0.45000000       0.32142857       0.22222222 </v>
   <v>       0.05000000       0.39285714       0.22222222 </v>
   <v>       0.15000000       0.39285714       0.22222222 </v>
   <v>       0.25000000       0.39285714       0.22222222 </v>
   <v>       0.35000000       0.39285714       0.22222222 </v>
   <v>       0.45000000       0.39285714       0.22222222 </v>
   <v>       0.05000000       0.46428571       0.22222222 </v>
   <v>       0.15000000       0.46428571       0.22222222 </v>
   <v>       0.25000000       0.46428571       0.22222222 </v>
   <v>       0.35000000       0.46428571       0.22222222 </v>
   <v>       0.45000000       0.46428571       0.22222222 </v>
   <v>       0.05000000       0.03571429       0.33333333 </v>
   <v>       0.15000000       0.03571429       0.33333333 </v>
   <v>       0.25000000       0.03571429       0.33333333 </v>
   <v>       0.35000000       0.03571429       0.33333333 </v>
   <v>       0.45000000       0.03571429       0.33333333 </v>
   <v>       0.05000000       0.10714286       0.33333333 </v>
   <v>       0.15000000       0.10714286       0.33333333 </v>
   <v>       0.25000000       0.10714286       0.33333333 </v>
   <v>       0.35000000       0.10714286       0.33333333 </v>
   <v>       0.45000000       0.10714286       0.33333333 </v>
   <v>       0.05000000       0.17857143       0.33333333 </v>
   <v>       0.15000000       0.17857143       0.33333333 </v>
   <v>       0.25000000       0.17857143       0.33333333 </v>
   <v>       0.35000000       0.17857143       0.33333333 </v>
   <v>       0.45000000       0.17857143       0.33333333 </v>
   <v>       0.05000000       0.25000000       0.33333333 </v>
   <v>       0.15000000       0.25000000       0.33333333 </v>
   <v>       0.25000000       0.25000000       0.33333333 </v>
   <v>       0.35000000       0.25000000       0.33333333 </v>
   <v>       0.45000000       0.25000000       0.33333333 </v>
   <v>       0.05000000       0.32142857       0.33333333 </v>
   <v>       0.15000000       0.32142857       0.33333333 </v>
   <v>       0.25000000       0.32142857       0.33333333 </v>
   <v>       0.35000000       0.32142857       0.33333333 </v>
   <v>       0.45000000       0.32142857       0.33333333 </v>
   <v>       0.05000000       0.39285714       0.33333333 </v>
   <v>       0.15000000       0.39285714       0.33333333 </v>
   <v>       0.25000000       0.39285714       0.33333333 </v>
   <v>       0.35000000       0.39285714       0.33333333 </v>
   <v>       0.45000000       0.39285714       0.33333333 </v>
   <v>       0.05000000       0.46428571       0.33333333 </v>
   <v>       0.15000000       0.46428571       0.33333333 </v>
   <v>       0.25000000       0.46428571       0.33333333 </v>
   <v>       0.35000000       0.46428571       0.33333333 </v>
   <v>       0.45000000       0.46428571       0.33333333 </v>
   <v>       0.05000000       0.03571429       0.44444444 </v>
   <v>       0.15000000       0.03571429       0.44444444 </v>
   <v>       0.25000000       0.03571429       0.44444444 </v>
   <v>       0.35000000       0.03571429       0.44444444 </v>
   <v>       0.45000000       0.03571429       0.44444444 </v>
   <v>       0.05000000       0.10714286       0.44444444 </v>
   <v>       0.15000000       0.10714286       0.44444444 </v>
   <v>       0.25000000       0.10714286       0.44444444 </v>
   <v>       0.35000000       0.10714286       0.44444444 </v>
   <v>       0.45000000       0.10714286       0.44444444 </v>
   <v>       0.05000000       0.17857143       0.44444444 </v>
   <v>       0.15000000       0.17857143       0.44444444 </v>
   <v>       0.25000000       0.17857143       0.44444444 </v>
   <v>       0.35000000       0.17857143       0.44444444 </v>
   <v>       0.45000000       0.17857143       0.44444444 </v>
   <v>       0.05000000       0.25000000       0.44444444 </v>
   <v>       0.15000000       0.25000000       0.44444444 </v>
   <v>       0.25000000       0.25000000       0.44444444 </v>
   <v>       0.35000000       0.25000000       0.44444444 </v>
   <v>       0.45000000       0.25000000       0.44444444 </v>
   <v>       0.05000000       0.32142857       0.44444444 </v>
   <v>       0.15000000       0.32142857       0.44444444 </v>
   <v>       0.25000000       0.32142857       0.44444444 </v>
   <v>       0.35000000       0.32142857       0.44444444 </v>
   <v>       0.45000000       0.32142857       0.44444444 </v>
   <v>       0.05000000       0.39285714       0.44444444 </v>
   <v>       0.15000000       0.39285714       0.44444444 </v>
   <v>       0.25000000       0.39285714       0.44444444 </v>
   <v>       0.35000000       0.39285714       0.44444444 </v>
   <v>       0.45000000       0.39285714       0.44444444 </v>
   <v>       0.05000000       0.46428571       0.44444444 </v>
   <v>       0.15000000       0.46428571       0.44444444 </v>
   <v>       0.25000000       0.46428571       0.44444444 </v>
   <v>       0.35000000       0.46428571       0.44444444 </v>
   <v>       0.45000000       0.46428571       0.44444444 </v>
  </varray>
  <varray name="weights" >
   <v>       0.00317460 </v>
   <v>       0.00317460 </v>
   <v>       0.00317460 </v>
   <v>       0.00317460 </v>
   <v>       0.00317460 </v>
   <v>       0.00317460 </v>
   <v>       0.00317460 </v>
   <v>       0.00317460 </v>
   <v>       0.00317460 </v>
   <v>       0.00317460 </v>
   <v>       0.00317460 </v>
   <v>       0.00317460 </v>
   <v>       0.00317460 </v>
   <v>       0.00317460 </v>
   <v>       0.00317460 </v>
   <v>       0.00317460 </v>
   <v>       0.00317460 </v>
   <v>       0.00317460 </v>
   <v>       0.00317460 </v>
   <v>       0.00317460 </v>
   <v>       0.00317460 </v>
   <v>       0.00317460 </v>
   <v>       0.00317460 </v>
   <v>       0.00317460 </v>
   <v>       0.00317460 </v>
   <v>       0.00317460 </v>
   <v>       0.00317460 </v>
   <v>       0.00317460 </v>
   <v>       0.00317460 </v>
   <v>       0.00317460 </v>
   <v>       0.00317460 </v>
   <v>       0.00317460 </v>
   <v>       0.00317460 </v>
   <v>       0.00317460 </v>
   <v>       0.00317460 </v>
   <v>       0.00634921 </v>
   <v>       0.00634921 </v>
   <v>       0.00634921 </v>
   <v>       0.00634921 </v>
   <v>       0.00634921 </v>
   <v>       0.00634921 </v>
   <v>       0.00634921 </v>
   <v>       0.00634921 </v>
   <v>       0.00634921 </v>
   <v>       0.00634921 </v>
   <v>       0.00634921 </v>
   <v>       0.00634921 </v>
   <v>       0.00634921 </v>
   <v>       0.00634921 </v>
   <v>       0.00634921 </v>
   <v>       0.00634921 </v>
   <v>       0.00634921 </v>
   <v>       0.00634921 </v>
   <v>       0.00634921 </v>
   <v>       0.00634921 </v>
   <v>       0.00634921 </v>
   <v>       0.00634921 </v>
   <v>       0.00634921 </v>
   <v>       0.00634921 </v>
   <v>       0.00634921 </v>
   <v>       0.00634921 </v>
   <v>       0.00634921 </v>
   <v>       0.00634921 </v>
   <v>       0.00634921 </v>
   <v>       0.00634921 </v>
   <v>       0.00634921 </v>
   <v>       0.00634921 </v>
   <v>       0.00634921 </v>
   <v>       0.00634921 </v>
   <v>       0.00634921 </v>
   <v>       0.00634921 </v>
   <v>       0.00634921 </v>
   <v>       0.00634921 </v>
   <v>       0.00634921 </v>
   <v>       0.00634921 </v>
   <v>       0.00634921 </v>
   <v>       0.00634921 </v>
   <v>       0.00634921 </v>
   <v>       0.00634921 </v>
   <v>       0.00634921 </v>
   <v>       0.00634921 </v>
   <v>       0.00634921 </v>
   <v>       0.00634921 </v>
   <v>       0.00634921 </v>
   <v>       0.00634921 </v>
   <v>       0.00634921 </v>
   <v>       0.00634921 </v>
   <v>       0.00634921 </v>
   <v>       0.00634921 </v>
   <v>       0.00634921 </v>
   <v>       0.00634921 </v>
   <v>       0.00634921 </v>
   <v>       0.00634921 </v>
   <v>       0.00634921 </v>
   <v>       0.00634921 </v>
   <v>       0.00634921 </v>
   <v>       0.00634921 </v>
   <v>       0.00634921 </v>
   <v>       0.00634921 </v>
   <v>       0.00634921 </v>
   <v>       0.00634921 </v>
   <v>       0.00634921 </v>
   <v>       0.00634921 </v>
   <v>       0.00634921 </v>
   <v>       0.00634921 </v>
   <v>       0.00634921 </v>
   <v>       0.00634921 </v>
   <v>       0.00634921 </v>
   <v>       0.00634921 </v>
   <v>       0.00634921 </v>
   <v>       0.00634921 </v>
   <v>       0.00634921 </v>
   <v>       0.00634921 </v>
   <v>       0.00634921 </v>
   <v>       0.00634921 </v>
   <v>       0.00634921 </v>
   <v>       0.00634921 </v>
   <v>       0.00634921 </v>
   <v>       0.00634921 </v>
   <v>       0.00634921 </v>
   <v>       0.00634921 </v>
   <v>       0.00634921 </v>
   <v>       0.00634921 </v>
   <v>       0.00634921 </v>
   <v>       0.00634921 </v>
   <v>       0.00634921 </v>
   <v>       0.00634921 </v>
   <v>       0.00634921 </v>
   <v>       0.00634921 </v>
   <v>       0.00634921 </v>
   <v>       0.00634921 </v>
   <v>       0.00634921 </v>
   <v>       0.00634921 </v>
   <v>       0.00634921 </v>
   <v>       0.00634921 </v>
   <v>       0.00634921 </v>
   <v>       0.00634921 </v>
   <v>       0.00634921 </v>
   <v>       0.00634921 </v>
   <v>       0.00634921 </v>
   <v>       0.00634921 </v>
   <v>       0.00634921 </v>
   <v>       0.00634921 </v>
   <v>       0.00634921 </v>
   <v>       0.00634921 </v>
   <v>       0.00634921 </v>
   <v>       0.00634921 </v>
   <v>       0.00634921 </v>
   <v>       0.00634921 </v>
   <v>       0.00634921 </v>
   <v>       0.00634921 </v>
   <v>       0.00634921 </v>
   <v>       0.00634921 </v>
   <v>       0.00634921 </v>
   <v>       0.00634921 </v>
   <v>       0.00634921 </v>
   <v>       0.00634921 </v>
   <v>       0.00634921 </v>
   <v>       0.00634921 </v>
   <v>       0.00634921 </v>
   <v>       0.00634921 </v>
   <v>       0.00634921 </v>
   <v>       0.00634921 </v>
   <v>       0.00634921 </v>
   <v>       0.00634921 </v>
   <v>       0.00634921 </v>
   <v>       0.00634921 </v>
   <v>       0.00634921 </v>
   <v>       0.00634921 </v>
   <v>       0.00634921 </v>
   <v>       0.00634921 </v>
   <v>       0.00634921 </v>
   <v>       0.00634921 </v>
   <v>       0.00634921 </v>
   <v>       0.00634921 </v>
  </varray>
 </kpoints>
 <parameters>
  <separator name="general" >
   <i type="string" name="SYSTEM">Kpoints</i>
   <i type="logical" name="LCOMPAT"> F  </i>
  </separator>
  <separator name="electronic" >
   <i type="string" name="PREC">accura</i>
   <i name="ENMAX">    380.00000000</i>
   <i name="ENAUG">    535.51400000</i>
   <i name="EDIFF">      0.00000100</i>
   <i type="int" name="IALGO">    38</i>
   <i type="int" name="IWAVPR">    10</i>
   <i type="int" name="NBANDS">    48</i>
   <i type="int" name="NBANDSLOW">    -1</i>
   <i type="int" name="NBANDSHIGH">    -1</i>
   <i name="NELECT">     42.00000000</i>
   <i type="int" name="TURBO">     0</i>
   <i type="int" name="IRESTART">     0</i>
   <i type="int" name="NREBOOT">     0</i>
   <i type="int" name="NMIN">     0</i>
   <i name="EREF">      0.00000000</i>
   <separator name="electronic smearing" >
    <i type="int" name="ISMEAR">     0</i>
    <i name="SIGMA">      0.05000000</i>
    <i name="KSPACING">      0.50000000</i>
    <i type="logical" name="KGAMMA"> T  </i>
    <i type="logical" name="KBLOWUP"> T  </i>
   </separator>
   <separator name="electronic projectors" >
    <i type="logical" name="LREAL"> F  </i>
    <v name="ROPT">      0.00000000</v>
    <i type="int" name="LMAXPAW">  -100</i>
    <i type="int" name="LMAXMIX">     2</i>
    <i type="logical" name="NLSPLINE"> F  </i>
   </separator>
   <separator name="electronic startup" >
    <i type="int" name="ISTART">     0</i>
    <i type="int" name="ICHARG">     2</i>
    <i type="int" name="INIWAV">     1</i>
   </separator>
   <separator name="electronic spin" >
    <i type="int" name="ISPIN">     1</i>
    <i type="logical" name="LNONCOLLINEAR"> F  </i>
    <v name="MAGMOM">      1.00000000      1.00000000      1.00000000      1.00000000      1.00000000      1.00000000      1.00000000      1.00000000      1.00000000      1.00000000      1.00000000      1.00000000      1.00000000      1.00000000</v>
    <i name="NUPDOWN">     -1.00000000</i>
    <i type="logical" name="LSORBIT"> F  </i>
    <v name="SAXIS">      0.00000000      0.00000000      1.00000000</v>
    <i type="logical" name="LSPIRAL"> F  </i>
    <v name="QSPIRAL">      0.00000000      0.00000000      0.00000000</v>
    <i type="logical" name="LZEROZ"> F  </i>
   </separator>
   <separator name="electronic exchange-correlation" >
    <i type="logical" name="LASPH"> F  </i>
   </separator>
   <separator name="electronic convergence" >
    <i type="int" name="NELM">   100</i>
    <i type="int" name="NELMDL">    -5</i>
    <i type="int" name="NELMIN">     2</i>
    <i name="ENINI">    380.00000000</i>
    <separator name="electronic convergence detail" >
     <i type="logical" name="LDIAG"> T  </i>
     <i type="logical" name="LSUBROT"> F  </i>
     <i name="WEIMIN">      0.00000000</i>
     <i name="EBREAK">      0.00000001</i>
     <i name="DEPER">      0.30000000</i>
     <i type="int" name="NRMM">     4</i>
     <i name="TIME">      0.40000000</i>
    </separator>
   </separator>
   <separator name="electronic mixer" >
    <i name="AMIX">      0.40000000</i>
    <i name="BMIX">      1.00000000</i>
    <i name="AMIN">      0.10000000</i>
    <i name="AMIX_MAG">      1.60000000</i>
    <i name="BMIX_MAG">      1.00000000</i>
    <separator name="electronic mixer details" >
     <i type="int" name="IMIX">     4</i>
     <i type="logical" name="MIXFIRST"> F  </i>
     <i type="int" name="MAXMIX">   -45</i>
     <i name="WC">    100.00000000</i>
     <i type="int" name="INIMIX">     1</i>
     <i type="int" name="MIXPRE">     1</i>
     <i type="int" name="MREMOVE">     5</i>
    </separator>
   </separator>
   <separator name="electronic dipolcorrection" >
    <i type="logical" name="LDIPOL"> F  </i>
    <i type="logical" name="LMONO"> F  </i>
    <i type="int" name="IDIPOL">     0</i>
    <i name="EPSILON">      1.00000000</i>
    <v name="DIPOL">   -100.00000000   -100.00000000   -100.00000000</v>
    <i name="EFIELD">      0.00000000</i>
    <i type="logical" name="LVACPOTAV"> F  </i>
   </separator>
  </separator>
  <separator name="grids" >
   <i type="int" name="NGX">    36</i>
   <i type="int" name="NGY">    28</i>
   <i type="int" name="NGZ">    40</i>
   <i type="int" name="NGXF">    72</i>
   <i type="int" name="NGYF">    56</i>
   <i type="int" name="NGZF">    80</i>
   <i type="logical" name="ADDGRID"> F  </i>
  </separator>
  <separator name="ionic" >
   <i type="int" name="NSW">     0</i>
   <i type="int" name="IBRION">    -1</i>
   <i type="int" name="MDALGO">     0</i>
   <i type="int" name="ISIF">     2</i>
   <i name="PSTRESS">      0.00000000</i>
   <i name="EDIFFG">     -0.00100000</i>
   <i type="int" name="NFREE">     0</i>
   <i name="POTIM">      0.50000000</i>
   <i name="SMASS">     -3.00000000</i>
   <i name="SCALEE">      1.00000000</i>
  </separator>
  <separator name="ionic md" >
   <i name="TEBEG">      0.00010000</i>
   <i name="TEEND">      0.00010000</i>
   <i type="int" name="NBLOCK">     1</i>
   <i type="int" name="KBLOCK">     1</i>
   <i type="int" name="NPACO">   256</i>
   <i name="APACO">     10.00000000</i>
  </separator>
  <separator name="symmetry" >
   <i type="int" name="ISYM">     2</i>
   <i name="SYMPREC">      0.00001000</i>
  </separator>
  <separator name="dos" >
   <i type="int" name="LORBIT">     0</i>
   <v name="RWIGS">     -1.00000000</v>
   <i type="int" name="NEDOS">   301</i>
   <i name="EMIN">     10.00000000</i>
   <i name="EMAX">    -10.00000000</i>
   <i name="EFERMI">      0.00000000</i>
  </separator>
  <separator name="writing" >
   <i type="int" name="NWRITE">     2</i>
   <i type="logical" name="LWAVE"> F  </i>
   <i type="logical" name="LDOWNSAMPLE"> F  </i>
   <i type="logical" name="LCHARG"> F  </i>
   <i type="logical" name="LPARD"> F  </i>
   <i type="logical" name="LVTOT"> F  </i>
   <i type="logical" name="LVHAR"> F  </i>
   <i type="logical" name="LELF"> F  </i>
   <i type="logical" name="LOPTICS"> F  </i>
   <v name="STM">      0.00000000      0.00000000      0.00000000      0.00000000      0.00000000      0.00000000      0.00000000</v>
  </separator>
  <separator name="performance" >
   <i type="int" name="NPAR">    24</i>
   <i type="int" name="NSIM">     4</i>
   <i type="int" name="NBLK">    -1</i>
   <i type="logical" name="LPLANE"> T  </i>
   <i type="logical" name="LSCALAPACK"> T  </i>
   <i type="logical" name="LSCAAWARE"> F  </i>
   <i type="logical" name="LSCALU"> F  </i>
   <i type="logical" name="LASYNC"> F  </i>
   <i type="logical" name="LORBITALREAL"> F  </i>
  </separator>
  <separator name="miscellaneous" >
   <i type="int" name="IDIOT">     3</i>
   <i type="int" name="PHON_NSTRUCT">    -1</i>
   <i type="logical" name="LMUSIC"> F  </i>
   <v name="POMASS">     10.81100000</v>
   <v name="DARWINR">      0.00000000</v>
   <v name="DARWINV">      1.00000000</v>
   <i type="logical" name="LCORR"> T  </i>
  </separator>
  <i type="logical" name="GGA_COMPAT"> T  </i>
  <i type="logical" name="LBERRY"> F  </i>
  <i type="int" name="ICORELEVEL">     0</i>
  <i type="logical" name="LDAU"> F  </i>
  <i type="int" name="I_CONSTRAINED_M">     0</i>
  <separator name="electronic exchange-correlation" >
   <i type="string" name="GGA    ">PE</i>
   <i type="string" name="XC_C">1</i>
   <i type="int" name="VOSKOWN">     0</i>
   <i type="logical" name="LHFCALC"> F  </i>
   <i type="string" name="PRECFOCK"></i>
   <i type="logical" name="LSYMGRAD"> F  </i>
   <i type="logical" name="LHFONE"> F  </i>
   <i type="logical" name="LRHFCALC"> F  </i>
   <i type="logical" name="LTHOMAS"> F  </i>
   <i type="logical" name="LMODELHF"> F  </i>
   <i type="logical" name="LFOCKACE"> F  </i>
   <i name="ENCUT4O">     -1.00000000</i>
   <i type="int" name="EXXOEP">     0</i>
   <i type="int" name="FOURORBIT">     0</i>
   <i name="AEXX">      0.00000000</i>
   <i name="HFALPHA">      0.00000000</i>
   <i name="MCALPHA">      0.00000000</i>
   <i name="ALDAX">      1.00000000</i>
   <i name="AGGAX">      1.00000000</i>
   <i name="AMGGAX">      1.00000000</i>
   <i name="ALDAC">      1.00000000</i>
   <i name="AGGAC">      1.00000000</i>
   <i name="AMGGAC">      1.00000000</i>
   <i type="int" name="NKREDX">     1</i>
   <i type="int" name="NKREDY">     1</i>
   <i type="int" name="NKREDZ">     1</i>
   <i type="logical" name="SHIFTRED"> F  </i>
   <i type="logical" name="ODDONLY"> F  </i>
   <i type="logical" name="EVENONLY"> F  </i>
   <i type="int" name="LMAXFOCK">     0</i>
   <i type="int" name="NMAXFOCKAE">     0</i>
   <i type="logical" name="LFOCKAEDFT"> F  </i>
   <i name="HFSCREEN">      0.00000000</i>
   <i name="HFSCREENC">      0.00000000</i>
   <i type="int" name="NBANDSGWLOW">     0</i>
  </separator>
  <separator name="vdW DFT" >
   <i type="logical" name="LUSE_VDW"> F  </i>
   <i type="int" name="IVDW_NL">    -1</i>
   <i type="logical" name="LSPIN_VDW"> F  </i>
   <i name="ZAB_VDW">     -0.84910000</i>
   <i name="GAMMA_VDW">      1.39626340</i>
   <i name="ALPHA_VDW">      0.00000000</i>
   <i name="PARAM1">      0.12340000</i>
   <i name="PARAM2">      1.00000000</i>
   <i name="BPARAM">      6.30000000</i>
   <i name="CPARAM">      0.00930000</i>
  </separator>
  <separator name="model GW" >
   <i type="int" name="MODEL_GW">     0</i>
   <i name="MODEL_EPS0">      6.13175789</i>
   <i name="MODEL_ALPHA">      1.00000000</i>
  </separator>
  <separator name="linear response parameters" >
   <i type="logical" name="LEPSILON"> F  </i>
   <i type="logical" name="LRPA"> F  </i>
   <i type="logical" name="LNABLA"> F  </i>
   <i type="logical" name="LVEL"> F  </i>
   <i name="CSHIFT">      0.10000000</i>
   <i name="OMEGAMAX">     -1.00000000</i>
   <i name="DEG_THRESHOLD">      0.00200000</i>
   <i name="RTIME">     -0.10000000</i>
   <i name="WPLASMAI">      0.00000000</i>
   <v name="DFIELD">      0.00000000      0.00000000      0.00000000</v>
   <v name="WPLASMA">      0.00000000      0.00000000      0.00000000      0.00000000      0.00000000      0.00000000      0.00000000      0.00000000      0.00000000</v>
  </separator>
  <separator name="orbital magnetization" >
   <i type="logical" name="NUCIND"> F  </i>
   <v name="MAGPOS">      0.00000000      0.00000000      0.00000000</v>
   <i type="logical" name="LNICSALL"> T  </i>
   <i type="logical" name="ORBITALMAG"> F  </i>
   <i type="logical" name="LMAGBLOCH"> F  </i>
   <i type="logical" name="LCHIMAG"> F  </i>
   <i type="logical" name="LGAUGE"> T  </i>
   <i type="int" name="MAGATOM">     0</i>
   <v name="MAGDIPOL">      0.00000000      0.00000000      0.00000000</v>
   <v name="AVECCONST">      0.00000000      0.00000000      0.00000000</v>
  </separator>
  <separator name="response functions" >
   <i type="logical" name="LALL_IN_ONE"> F  </i>
   <i type="int" name="IALL_IN_ONE">    -1</i>
   <i type="int" name="NBANDS_WAVE">    -1</i>
   <i type="logical" name="LFINITE_TEMPERATURE"> F  </i>
   <i type="logical" name="LADDER"> F  </i>
   <i type="logical" name="LRPAFORCE"> F  </i>
   <i type="logical" name="LFXC"> F  </i>
   <i type="logical" name="LHARTREE"> T  </i>
   <i type="int" name="IBSE">     0</i>
   <v type="int" name="KPOINT">    -1     0     0     0</v>
   <i type="logical" name="LTCTC"> F  </i>
   <i type="logical" name="LTCTE"> F  </i>
   <i type="logical" name="LTETE"> F  </i>
   <i type="logical" name="LTRIPLET"> F  </i>
   <i type="logical" name="LFXCEPS"> F  </i>
   <i type="logical" name="LFXHEG"> F  </i>
   <i type="int" name="NATURALO">     2</i>
   <i type="logical" name="LHOLEGF"> F  </i>
   <i type="logical" name="L2ORDER"> F  </i>
   <i type="logical" name="LDMP1"> F  </i>
   <i type="logical" name="LMP2LT"> F  </i>
   <i type="logical" name="LSMP2LT"> F  </i>
   <i type="logical" name="LGWLF"> F  </i>
   <i name="ENCUTGW">     -1.60000002</i>
   <i name="ENCUTGWSOFT">     -1.60000002</i>
   <i name="ENCUTLF">     -1.00000000</i>
   <i type="logical" name="ESF_SPLINES"> F  </i>
   <i name="ESF_CONV">      0.01000000</i>
   <i type="int" name="ESF_NINTER">    15</i>
   <i type="int" name="LMAXMP2">    -1</i>
   <i name="SCISSOR">      0.00000000</i>
   <i type="int" name="NOMEGA">     0</i>
   <i type="int" name="NOMEGAR">     0</i>
   <i type="int" name="NBANDSGW">    -1</i>
   <i type="int" name="NBANDSO">    -1</i>
   <i type="int" name="NBANDSV">    -1</i>
   <i type="int" name="NELMGW">     1</i>
   <i type="int" name="NELMHF">     1</i>
   <i type="int" name="DIM">     3</i>
   <i type="int" name="IESPILON">     4</i>
   <i type="int" name="ANTIRES">     0</i>
   <i name="OMEGAMAX">    -30.00000000</i>
   <i name="OMEGAMIN">    -30.00000000</i>
   <i name="OMEGATL">   -200.00000000</i>
   <i type="int" name="OMEGAGRID">     0</i>
   <i name="CSHIFT">     -0.10000000</i>
   <i type="logical" name="LSELFENERGY"> F  </i>
   <i type="logical" name="LSPECTRAL"> F  </i>
   <i type="logical" name="LSPECTRALGW"> F  </i>
   <i type="logical" name="LSINGLES"> F  </i>
   <i type="logical" name="LFERMIGW"> F  </i>
   <i type="logical" name="ODDONLYGW"> F  </i>
   <i type="logical" name="EVENONLYGW"> F  </i>
   <i type="int" name="NKREDLFX">     1</i>
   <i type="int" name="NKREDLFY">     1</i>
   <i type="int" name="NKREDLFZ">     1</i>
   <i type="int" name="MAXMEM">  2800</i>
   <i type="int" name="TELESCOPE">     0</i>
   <i type="int" name="NTAUPAR">    -1</i>
   <i type="int" name="NOMEGAPAR">    -1</i>
   <i name="DAMP_NEWTON">      0.80000001</i>
   <i name="LAMBDA">      1.00000000</i>
  </separator>
  <separator name="External order field" >
   <i name="OFIELD_KAPPA">      0.00000000</i>
   <v name="OFIELD_K">      0.00000000      0.00000000      0.00000000</v>
   <i name="OFIELD_Q6_NEAR">      0.00000000</i>
   <i name="OFIELD_Q6_FAR">      0.00000000</i>
   <i name="OFIELD_A">      0.00000000</i>
  </separator>
  <separator name="optional k-points parameters" >
   <i type="int" name="KPOINTS_OPT_MODE">     1</i>
   <i type="logical" name="LKPOINTS_OPT"> F  </i>
  </separator>
 </parameters>
 <atominfo>
  <atoms>      14 </atoms>
  <types>       1 </types>
  <array name="atoms" >
   <dimension dim="1">ion</dimension>
   <field type="string">element</field>
   <field type="int">atomtype</field>
   <set>
    <rc><c>B </c><c>   1</c></rc>
    <rc><c>B </c><c>   1</c></rc>
    <rc><c>B </c><c>   1</c></rc>
    <rc><c>B </c><c>   1</c></rc>
    <rc><c>B </c><c>   1</c></rc>
    <rc><c>B </c><c>   1</c></rc>
    <rc><c>B </c><c>   1</c></rc>
    <rc><c>B </c><c>   1</c></rc>
    <rc><c>B </c><c>   1</c></rc>
    <rc><c>B </c><c>   1</c></rc>
    <rc><c>B </c><c>   1</c></rc>
    <rc><c>B </c><c>   1</c></rc>
    <rc><c>B </c><c>   1</c></rc>
    <rc><c>B </c><c>   1</c></rc>
   </set>
  </array>
  <array name="atomtypes" >
   <dimension dim="1">type</dimension>
   <field type="int">atomspertype</field>
   <field type="string">element</field>
   <field>mass</field>
   <field>valence</field>
   <field type="string">pseudopotential</field>
   <set>
    <rc><c>  14</c><c>B </c><c>     10.81100000</c><c>      3.00000000</c><c>  PAW_PBE B 06Sep2000                   </c></rc>
   </set>
  </array>
 </atominfo>
 <structure name="initialpos" >
  <crystal>
   <varray name="basis" >
    <v>       5.69700000       0.00000000       0.00000000 </v>
    <v>       0.00000000       4.04790000       0.00000000 </v>
    <v>       0.00000000       0.00000000       6.20420000 </v>
   </varray>
   <i name="volume">    143.07435078 </i>
   <varray name="rec_basis" >
    <v>       0.17553098       0.00000000       0.00000000 </v>
    <v>       0.00000000       0.24704168       0.00000000 </v>
    <v>       0.00000000       0.00000000       0.16118114 </v>
   </varray>
  </crystal>
  <varray name="positions" >
   <v>       0.52123000       0.50000000       0.63796000 </v>
   <v>       0.47877000       0.50000000       0.36204000 </v>
   <v>       0.97877000       0.50000000       0.63796000 </v>
   <v>       0.02123000       0.50000000       0.36204000 </v>
   <v>       0.60090000       0.50000000       0.89991000 </v>
   <v>       0.39910000       0.50000000       0.10009000 </v>
   <v>       0.89910000       0.50000000       0.89991000 </v>
   <v>       0.10090000       0.50000000       0.10009000 </v>
   <v>       0.75000000       0.79171000       0.72973000 </v>
   <v>       0.25000000       0.20829000       0.27027000 </v>
   <v>       0.75000000       0.20829000       0.72973000 </v>
   <v>       0.25000000       0.79171000       0.27027000 </v>
   <v>       0.25000000       0.50000000       0.52367000 </v>
   <v>       0.75000000       0.50000000       0.47633000 </v>
  </varray>
 </structure>
 <calculation>
  <scstep>
   <time name="dav">    4.25    4.28</time>
   <time name="total">    4.27    4.30</time>
   <energy>
    <i name="alphaZ">     94.24357992 </i>
    <i name="ewald">   -795.76658092 </i>
    <i name="hartreedc">   -271.33601302 </i>
    <i name="XCdc">     97.50108156 </i>
    <i name="pawpsdc">    608.99811708 </i>
    <i name="pawaedc">   -597.02363782 </i>
    <i name="eentropy">     -0.00215886 </i>
    <i name="bandstr">   -101.76604584 </i>
    <i name="atom">    996.35055902 </i>
    <i name="e_fr_energy">     31.19890112 </i>
    <i name="e_wo_entrp">     31.20105998 </i>
    <i name="e_0_energy">     31.19998055 </i>
   </energy>
  </scstep>
  <scstep>
   <time name="dav">    5.66    5.67</time>
   <time name="total">    5.67    5.67</time>
   <energy>
    <i name="e_fr_energy">    -93.85326905 </i>
    <i name="e_wo_entrp">    -93.84923537 </i>
    <i name="e_0_energy">    -93.85125221 </i>
   </energy>
  </scstep>
  <scstep>
   <time name="dav">    5.68    5.68</time>
   <time name="total">    5.68    5.68</time>
   <energy>
    <i name="e_fr_energy">    -97.59697257 </i>
    <i name="e_wo_entrp">    -97.59331167 </i>
    <i name="e_0_energy">    -97.59514212 </i>
   </energy>
  </scstep>
  <scstep>
   <time name="dav">    5.35    5.35</time>
   <time name="total">    5.35    5.35</time>
   <energy>
    <i name="e_fr_energy">    -97.61844800 </i>
    <i name="e_wo_entrp">    -97.61479412 </i>
    <i name="e_0_energy">    -97.61662106 </i>
   </energy>
  </scstep>
  <scstep>
   <time name="dav">    5.15    5.15</time>
   <time name="total">    5.20    5.20</time>
   <energy>
    <i name="e_fr_energy">    -97.61869996 </i>
    <i name="e_wo_entrp">    -97.61504616 </i>
    <i name="e_0_energy">    -97.61687306 </i>
   </energy>
  </scstep>
  <scstep>
   <time name="dav">    4.99    4.99</time>
   <time name="total">    5.05    5.06</time>
   <energy>
    <i name="e_fr_energy">    -92.20510039 </i>
    <i name="e_wo_entrp">    -92.20167033 </i>
    <i name="e_0_energy">    -92.20338536 </i>
   </energy>
  </scstep>
  <scstep>
   <time name="dav">    4.95    4.95</time>
   <time name="total">    5.01    5.02</time>
   <energy>
    <i name="e_fr_energy">    -90.55439091 </i>
    <i name="e_wo_entrp">    -90.55125594 </i>
    <i name="e_0_energy">    -90.55282342 </i>
   </energy>
  </scstep>
  <scstep>
   <time name="dav">    3.54    3.54</time>
   <time name="total">    3.60    3.60</time>
   <energy>
    <i name="e_fr_energy">    -90.56656045 </i>
    <i name="e_wo_entrp">    -90.56338293 </i>
    <i name="e_0_energy">    -90.56497169 </i>
   </energy>
  </scstep>
  <scstep>
   <time name="dav">    4.38    4.38</time>
   <time name="total">    4.44    4.44</time>
   <energy>
    <i name="e_fr_energy">    -90.58076212 </i>
    <i name="e_wo_entrp">    -90.57749823 </i>
    <i name="e_0_energy">    -90.57913017 </i>
   </energy>
  </scstep>
  <scstep>
   <time name="dav">    3.82    3.82</time>
   <time name="total">    3.88    3.88</time>
   <energy>
    <i name="e_fr_energy">    -90.58475772 </i>
    <i name="e_wo_entrp">    -90.58153996 </i>
    <i name="e_0_energy">    -90.58314884 </i>
   </energy>
  </scstep>
  <scstep>
   <time name="dav">    3.94    3.94</time>
   <time name="total">    3.99    3.99</time>
   <energy>
    <i name="e_fr_energy">    -90.58584464 </i>
    <i name="e_wo_entrp">    -90.58263781 </i>
    <i name="e_0_energy">    -90.58424122 </i>
   </energy>
  </scstep>
  <scstep>
   <time name="dav">    4.11    4.11</time>
   <time name="total">    4.16    4.17</time>
   <energy>
    <i name="e_fr_energy">    -90.58595892 </i>
    <i name="e_wo_entrp">    -90.58274594 </i>
    <i name="e_0_energy">    -90.58435243 </i>
   </energy>
  </scstep>
  <scstep>
   <time name="dav">    4.50    4.50</time>
   <time name="total">    4.56    4.56</time>
   <energy>
    <i name="e_fr_energy">    -90.58596359 </i>
    <i name="e_wo_entrp">    -90.58275032 </i>
    <i name="e_0_energy">    -90.58435695 </i>
   </energy>
  </scstep>
  <scstep>
   <time name="dav">    4.01    4.01</time>
   <time name="total">    4.02    4.02</time>
   <energy>
    <i name="alphaZ">     94.24357992 </i>
    <i name="ewald">   -795.76658092 </i>
    <i name="hartreedc">   -349.08596985 </i>
    <i name="XCdc">    101.59180338 </i>
    <i name="pawpsdc">   3735.31815480 </i>
    <i name="pawaedc">  -3724.51114681 </i>
    <i name="eentropy">     -0.00321339 </i>
    <i name="bandstr">   -148.72315040 </i>
    <i name="atom">    996.35055902 </i>
    <i name="e_fr_energy">    -90.58596424 </i>
    <i name="e_wo_entrp">    -90.58275085 </i>
    <i name="e_0_energy">    -90.58435754 </i>
   </energy>
  </scstep>
  <structure>
   <crystal>
    <varray name="basis" >
     <v>       5.69700000       0.00000000       0.00000000 </v>
     <v>       0.00000000       4.04790000       0.00000000 </v>
     <v>       0.00000000       0.00000000       6.20420000 </v>
    </varray>
    <i name="volume">    143.07435078 </i>
    <varray name="rec_basis" >
     <v>       0.17553098       0.00000000       0.00000000 </v>
     <v>       0.00000000       0.24704168       0.00000000 </v>
     <v>       0.00000000       0.00000000       0.16118114 </v>
    </varray>
   </crystal>
   <varray name="positions" >
    <v>       0.52123000       0.50000000       0.63796000 </v>
    <v>       0.47877000       0.50000000       0.36204000 </v>
    <v>       0.97877000       0.50000000       0.63796000 </v>
    <v>       0.02123000       0.50000000       0.36204000 </v>
    <v>       0.60090000       0.50000000       0.89991000 </v>
    <v>       0.39910000       0.50000000       0.10009000 </v>
    <v>       0.89910000       0.50000000       0.89991000 </v>
    <v>       0.10090000       0.50000000       0.10009000 </v>
    <v>       0.75000000       0.79171000       0.72973000 </v>
    <v>       0.25000000       0.20829000       0.27027000 </v>
    <v>       0.75000000       0.20829000       0.72973000 </v>
    <v>       0.25000000       0.79171000       0.27027000 </v>
    <v>       0.25000000       0.50000000       0.52367000 </v>
    <v>       0.75000000       0.50000000       0.47633000 </v>
   </varray>
  </structure>
  <varray name="forces" >
   <v>      -0.00617891      -0.00000000       0.05369994 </v>
   <v>       0.00617891      -0.00000000      -0.05369994 </v>
   <v>       0.00617891      -0.00000000       0.05369994 </v>
   <v>      -0.00617891      -0.00000000      -0.05369994 </v>
   <v>      -0.83372536      -0.00000000       0.27935902 </v>
   <v>       0.83372536      -0.00000000      -0.27935902 </v>
   <v>       0.83372536      -0.00000000       0.27935902 </v>
   <v>      -0.83372536      -0.00000000      -0.27935902 </v>
   <v>       0.00000000       0.05962908      -0.07912076 </v>
   <v>       0.00000000      -0.05962908       0.07912076 </v>
   <v>       0.00000000      -0.05962908      -0.07912076 </v>
   <v>       0.00000000       0.05962908       0.07912076 </v>
   <v>       0.00000000      -0.00000000       0.07539151 </v>
   <v>       0.00000000      -0.00000000      -0.07539151 </v>
  </varray>
  <varray name="stress" >
   <v>      13.87610127       0.00000000      -0.00000000 </v>
   <v>       0.00000000       0.13340741       0.00000000 </v>
   <v>       0.00000000       0.00000000      -7.26567753 </v>
  </varray>
  <energy>
   <i name="e_fr_energy">    -90.58596424 </i>
   <i name="e_wo_entrp">    -90.58275085 </i>
   <i name="e_0_energy">    -90.58435754 </i>
  </energy>
  <time name="totalsc">   67.33   67.39</time>
  <eigenvalues>
   <array>
    <dimension dim="1">band</dimension>
    <dimension dim="2">kpoint</dimension>
    <dimension dim="3">spin</dimension>
    <field>eigene</field>
    <field>occ</field>
    <set>
     <set comment="spin 1">
      <set comment="kpoint 1">
       <r>  -12.7247    1.0000 </r>
       <r>  -11.5828    1.0000 </r>
       <r>   -8.6575    1.0000 </r>
       <r>   -8.4208    1.0000 </r>
       <r>   -6.0630    1.0000 </r>
       <r>   -5.1293    1.0000 </r>
       <r>   -4.6650    1.0000 </r>
       <r>   -4.2742    1.0000 </r>
       <r>   -4.0322    1.0000 </r>
       <r>   -3.5430    1.0000 </r>
       <r>   -2.5927    1.0000 </r>
       <r>   -2.3237    1.0000 </r>
       <r>   -1.8325    1.0000 </r>
       <r>   -1.0947    1.0000 </r>
       <r>   -0.0687    1.0000 </r>
       <r>   -0.0385    1.0000 </r>
       <r>    0.1575    1.0000 </r>
       <r>    0.1789    1.0000 </r>
       <r>    0.5669    1.0000 </r>
       <r>    2.0200    0.0001 </r>
       <r>    2.0831    0.0000 </r>
       <r>    2.2183    0.0000 </r>
       <r>    5.4593    0.0000 </r>
       <r>    5.7503    0.0000 </r>
       <r>    5.8395    0.0000 </r>
       <r>    5.9604    0.0000 </r>
       <r>    6.8157    0.0000 </r>
       <r>    7.5499    0.0000 </r>
       <r>    7.8793    0.0000 </r>
       <r>    8.5368    0.0000 </r>
       <r>    8.8037    0.0000 </r>
       <r>    8.9510    0.0000 </r>
       <r>    9.0535    0.0000 </r>
       <r>   10.1243    0.0000 </r>
       <r>   11.1850    0.0000 </r>
       <r>   11.3358    0.0000 </r>
       <r>   11.6661    0.0000 </r>
       <r>   11.7832    0.0000 </r>
       <r>   11.9423    0.0000 </r>
       <r>   12.4044    0.0000 </r>
       <r>   12.8697    0.0000 </r>
       <r>   13.4537    0.0000 </r>
       <r>   13.4810    0.0000 </r>
       <r>   15.3828    0.0000 </r>
       <r>   15.5720    0.0000 </r>
       <r>   16.0627    0.0000 </r>
       <r>   16.3345    0.0000 </r>
       <r>   16.3575    0.0000 </r>
      </set>
      <set comment="kpoint 2">
       <r>  -12.6810    1.0000 </r>
       <r>  -11.6565    1.0000 </r>
       <r>   -8.6364    1.0000 </r>
       <r>   -8.4093    1.0000 </r>
       <r>   -5.9948    1.0000 </r>
       <r>   -5.4704    1.0000 </r>
       <r>   -4.7875    1.0000 </r>
       <r>   -4.0088    1.0000 </r>
       <r>   -3.7912    1.0000 </r>
       <r>   -3.2053    1.0000 </r>
       <r>   -2.6629    1.0000 </r>
       <r>   -2.3036    1.0000 </r>
       <r>   -1.9112    1.0000 </r>
       <r>   -1.4016    1.0000 </r>
       <r>   -0.0284    1.0000 </r>
       <r>   -0.0172    1.0000 </r>
       <r>    0.0950    1.0000 </r>
       <r>    0.1994    1.0000 </r>
       <r>    0.4719    1.0000 </r>
       <r>    1.9338    0.0846 </r>
       <r>    2.0051    0.0003 </r>
       <r>    2.0972    0.0000 </r>
       <r>    5.5481    0.0000 </r>
       <r>    5.7590    0.0000 </r>
       <r>    5.8671    0.0000 </r>
       <r>    6.3060    0.0000 </r>
       <r>    6.7302    0.0000 </r>
       <r>    7.1881    0.0000 </r>
       <r>    8.0893    0.0000 </r>
       <r>    8.6731    0.0000 </r>
       <r>    9.0607    0.0000 </r>
       <r>    9.1328    0.0000 </r>
       <r>    9.2055    0.0000 </r>
       <r>   10.2372    0.0000 </r>
       <r>   10.9435    0.0000 </r>
       <r>   11.1318    0.0000 </r>
       <r>   11.2580    0.0000 </r>
       <r>   11.7003    0.0000 </r>
       <r>   12.1596    0.0000 </r>
       <r>   12.4939    0.0000 </r>
       <r>   13.1226    0.0000 </r>
       <r>   13.1292    0.0000 </r>
       <r>   14.0126    0.0000 </r>
       <r>   14.8709    0.0000 </r>
       <r>   15.7515    0.0000 </r>
       <r>   15.8306    0.0000 </r>
       <r>   16.2279    0.0000 </r>
       <r>   16.5148    0.0000 </r>
      </set>
      <set comment="kpoint 3">
       <r>  -12.5953    1.0000 </r>
       <r>  -11.7895    1.0000 </r>
       <r>   -8.5928    1.0000 </r>
       <r>   -8.3946    1.0000 </r>
       <r>   -5.9733    1.0000 </r>
       <r>   -5.7970    1.0000 </r>
       <r>   -4.7416    1.0000 </r>
       <r>   -3.8813    1.0000 </r>
       <r>   -3.2802    1.0000 </r>
       <r>   -2.8318    1.0000 </r>
       <r>   -2.7130    1.0000 </r>
       <r>   -2.2632    1.0000 </r>
       <r>   -2.0219    1.0000 </r>
       <r>   -1.9060    1.0000 </r>
       <r>   -0.2180    1.0000 </r>
       <r>    0.0152    1.0000 </r>
       <r>    0.1449    1.0000 </r>
       <r>    0.1583    1.0000 </r>
       <r>    0.4417    1.0000 </r>
       <r>    1.7861    0.9975 </r>
       <r>    1.8675    0.6915 </r>
       <r>    1.8724    0.6417 </r>
       <r>    5.6688    0.0000 </r>
       <r>    5.7154    0.0000 </r>
       <r>    6.1761    0.0000 </r>
       <r>    6.6042    0.0000 </r>
       <r>    6.7646    0.0000 </r>
       <r>    6.9334    0.0000 </r>
       <r>    8.2402    0.0000 </r>
       <r>    8.8216    0.0000 </r>
       <r>    9.0019    0.0000 </r>
       <r>    9.5769    0.0000 </r>
       <r>    9.6495    0.0000 </r>
       <r>   10.2822    0.0000 </r>
       <r>   10.4873    0.0000 </r>
       <r>   10.6271    0.0000 </r>
       <r>   11.3784    0.0000 </r>
       <r>   11.8423    0.0000 </r>
       <r>   12.3944    0.0000 </r>
       <r>   12.5674    0.0000 </r>
       <r>   12.7944    0.0000 </r>
       <r>   12.9201    0.0000 </r>
       <r>   14.6381    0.0000 </r>
       <r>   14.9195    0.0000 </r>
       <r>   15.2273    0.0000 </r>
       <r>   15.9845    0.0000 </r>
       <r>   16.0036    0.0000 </r>
       <r>   16.2926    0.0000 </r>
      </set>
      <set comment="kpoint 4">
       <r>  -12.4718    1.0000 </r>
       <r>  -11.9589    1.0000 </r>
       <r>   -8.5310    1.0000 </r>
       <r>   -8.3914    1.0000 </r>
       <r>   -6.0541    1.0000 </r>
       <r>   -6.0302    1.0000 </r>
       <r>   -4.4141    1.0000 </r>
       <r>   -3.7123    1.0000 </r>
       <r>   -3.0259    1.0000 </r>
       <r>   -2.8956    1.0000 </r>
       <r>   -2.4429    1.0000 </r>
       <r>   -2.2516    1.0000 </r>
       <r>   -2.1447    1.0000 </r>
       <r>   -2.1230    1.0000 </r>
       <r>   -0.5171    1.0000 </r>
       <r>   -0.2439    1.0000 </r>
       <r>    0.1739    1.0000 </r>
       <r>    0.2494    1.0000 </r>
       <r>    0.6148    1.0000 </r>
       <r>    1.5318    1.0000 </r>
       <r>    1.6633    1.0000 </r>
       <r>    1.7241    1.0000 </r>
       <r>    5.7002    0.0000 </r>
       <r>    5.7541    0.0000 </r>
       <r>    6.5029    0.0000 </r>
       <r>    6.6744    0.0000 </r>
       <r>    6.7002    0.0000 </r>
       <r>    7.4145    0.0000 </r>
       <r>    8.3646    0.0000 </r>
       <r>    8.6904    0.0000 </r>
       <r>    8.8110    0.0000 </r>
       <r>    9.5365    0.0000 </r>
       <r>   10.0576    0.0000 </r>
       <r>   10.1201    0.0000 </r>
       <r>   10.4000    0.0000 </r>
       <r>   11.1505    0.0000 </r>
       <r>   11.4061    0.0000 </r>
       <r>   11.9476    0.0000 </r>
       <r>   12.2058    0.0000 </r>
       <r>   12.2773    0.0000 </r>
       <r>   12.5226    0.0000 </r>
       <r>   13.2588    0.0000 </r>
       <r>   14.7148    0.0000 </r>
       <r>   14.9784    0.0000 </r>
       <r>   15.2656    0.0000 </r>
       <r>   15.3763    0.0000 </r>
       <r>   15.5748    0.0000 </r>
       <r>   16.3787    0.0000 </r>
      </set>
      <set comment="kpoint 5">
       <r>  -12.3171    1.0000 </r>
       <r>  -12.1412    1.0000 </r>
       <r>   -8.4649    1.0000 </r>
       <r>   -8.4140    1.0000 </r>
       <r>   -6.1438    1.0000 </r>
       <r>   -6.1394    1.0000 </r>
       <r>   -3.8987    1.0000 </r>
       <r>   -3.5031    1.0000 </r>
       <r>   -3.2993    1.0000 </r>
       <r>   -3.2650    1.0000 </r>
       <r>   -2.3607    1.0000 </r>
       <r>   -2.2321    1.0000 </r>
       <r>   -1.9604    1.0000 </r>
       <r>   -1.9073    1.0000 </r>
       <r>   -0.7377    1.0000 </r>
       <r>   -0.6022    1.0000 </r>
       <r>    0.2572    1.0000 </r>
       <r>    0.2908    1.0000 </r>
       <r>    0.8756    1.0000 </r>
       <r>    1.1930    1.0000 </r>
       <r>    1.5828    1.0000 </r>
       <r>    1.6102    1.0000 </r>
       <r>    5.7281    0.0000 </r>
       <r>    5.7655    0.0000 </r>
       <r>    6.4814    0.0000 </r>
       <r>    6.5453    0.0000 </r>
       <r>    7.3694    0.0000 </r>
       <r>    8.0755    0.0000 </r>
       <r>    8.0970    0.0000 </r>
       <r>    8.4823    0.0000 </r>
       <r>    8.6210    0.0000 </r>
       <r>    8.7912    0.0000 </r>
       <r>   10.5031    0.0000 </r>
       <r>   10.5194    0.0000 </r>
       <r>   10.7627    0.0000 </r>
       <r>   11.2208    0.0000 </r>
       <r>   11.4054    0.0000 </r>
       <r>   11.6016    0.0000 </r>
       <r>   11.9352    0.0000 </r>
       <r>   12.4840    0.0000 </r>
       <r>   12.7182    0.0000 </r>
       <r>   13.2543    0.0000 </r>
       <r>   14.5923    0.0000 </r>
       <r>   14.7372    0.0000 </r>
       <r>   14.8711    0.0000 </r>
       <r>   14.9297    0.0000 </r>
       <r>   16.1039    0.0000 </r>
       <r>   16.4483    0.0000 </r>
      </set>
      <set comment="kpoint 6">
       <r>  -12.7007    1.0000 </r>
       <r>  -11.5612    1.0000 </r>
       <r>   -8.6387    1.0000 </r>
       <r>   -8.3976    1.0000 </r>
       <r>   -6.0362    1.0000 </r>
       <r>   -5.0956    1.0000 </r>
       <r>   -4.6429    1.0000 </r>
       <r>   -4.5724    1.0000 </r>
       <r>   -4.1762    1.0000 </r>
       <r>   -3.5201    1.0000 </r>
       <r>   -3.2860    1.0000 </r>
       <r>   -1.7927    1.0000 </r>
       <r>   -1.0901    1.0000 </r>
       <r>   -1.0336    1.0000 </r>
       <r>   -0.3025    1.0000 </r>
       <r>   -0.2745    1.0000 </r>
       <r>    0.1710    1.0000 </r>
       <r>    0.2492    1.0000 </r>
       <r>    0.6453    1.0000 </r>
       <r>    1.7522    0.9999 </r>
       <r>    1.8322    0.9329 </r>
       <r>    2.2706    0.0000 </r>
       <r>    5.5774    0.0000 </r>
       <r>    5.7092    0.0000 </r>
       <r>    5.7428    0.0000 </r>
       <r>    6.0084    0.0000 </r>
       <r>    7.1018    0.0000 </r>
       <r>    7.8355    0.0000 </r>
       <r>    8.0784    0.0000 </r>
       <r>    8.1895    0.0000 </r>
       <r>    8.8078    0.0000 </r>
       <r>    9.1007    0.0000 </r>
       <r>    9.1517    0.0000 </r>
       <r>   10.5767    0.0000 </r>
       <r>   11.2672    0.0000 </r>
       <r>   11.4001    0.0000 </r>
       <r>   11.6001    0.0000 </r>
       <r>   11.8861    0.0000 </r>
       <r>   12.0529    0.0000 </r>
       <r>   12.6847    0.0000 </r>
       <r>   12.8699    0.0000 </r>
       <r>   13.1904    0.0000 </r>
       <r>   13.1966    0.0000 </r>
       <r>   15.3324    0.0000 </r>
       <r>   15.3821    0.0000 </r>
       <r>   15.8597    0.0000 </r>
       <r>   15.8702    0.0000 </r>
       <r>   16.2217    0.0000 </r>
      </set>
      <set comment="kpoint 7">
       <r>  -12.6570    1.0000 </r>
       <r>  -11.6348    1.0000 </r>
       <r>   -8.6175    1.0000 </r>
       <r>   -8.3865    1.0000 </r>
       <r>   -5.9662    1.0000 </r>
       <r>   -5.4403    1.0000 </r>
       <r>   -4.7675    1.0000 </r>
       <r>   -4.4896    1.0000 </r>
       <r>   -3.7519    1.0000 </r>
       <r>   -3.3668    1.0000 </r>
       <r>   -3.1672    1.0000 </r>
       <r>   -1.7710    1.0000 </r>
       <r>   -1.3962    1.0000 </r>
       <r>   -1.1529    1.0000 </r>
       <r>   -0.2635    1.0000 </r>
       <r>   -0.1938    1.0000 </r>
       <r>    0.1385    1.0000 </r>
       <r>    0.2208    1.0000 </r>
       <r>    0.5426    1.0000 </r>
       <r>    1.6717    1.0000 </r>
       <r>    1.7557    0.9999 </r>
       <r>    2.1398    0.0000 </r>
       <r>    5.6533    0.0000 </r>
       <r>    5.8079    0.0000 </r>
       <r>    5.9366    0.0000 </r>
       <r>    6.1129    0.0000 </r>
       <r>    7.0183    0.0000 </r>
       <r>    7.5103    0.0000 </r>
       <r>    8.2243    0.0000 </r>
       <r>    8.3602    0.0000 </r>
       <r>    9.1318    0.0000 </r>
       <r>    9.1620    0.0000 </r>
       <r>    9.4175    0.0000 </r>
       <r>   10.5018    0.0000 </r>
       <r>   10.8747    0.0000 </r>
       <r>   11.0844    0.0000 </r>
       <r>   11.4547    0.0000 </r>
       <r>   11.8731    0.0000 </r>
       <r>   12.2726    0.0000 </r>
       <r>   12.7398    0.0000 </r>
       <r>   12.8682    0.0000 </r>
       <r>   13.1533    0.0000 </r>
       <r>   13.7298    0.0000 </r>
       <r>   14.9561    0.0000 </r>
       <r>   15.3998    0.0000 </r>
       <r>   15.7515    0.0000 </r>
       <r>   15.7972    0.0000 </r>
       <r>   16.4018    0.0000 </r>
      </set>
      <set comment="kpoint 8">
       <r>  -12.5716    1.0000 </r>
       <r>  -11.7675    1.0000 </r>
       <r>   -8.5737    1.0000 </r>
       <r>   -8.3725    1.0000 </r>
       <r>   -5.9419    1.0000 </r>
       <r>   -5.7666    1.0000 </r>
       <r>   -4.7249    1.0000 </r>
       <r>   -4.3809    1.0000 </r>
       <r>   -3.4888    1.0000 </r>
       <r>   -3.2259    1.0000 </r>
       <r>   -2.7007    1.0000 </r>
       <r>   -1.9014    1.0000 </r>
       <r>   -1.7266    1.0000 </r>
       <r>   -1.3161    1.0000 </r>
       <r>   -0.2203    1.0000 </r>
       <r>   -0.2163    1.0000 </r>
       <r>    0.0538    1.0000 </r>
       <r>    0.2080    1.0000 </r>
       <r>    0.4662    1.0000 </r>
       <r>    1.5367    1.0000 </r>
       <r>    1.6256    1.0000 </r>
       <r>    1.8915    0.4290 </r>
       <r>    5.8571    0.0000 </r>
       <r>    5.9355    0.0000 </r>
       <r>    6.0131    0.0000 </r>
       <r>    6.5618    0.0000 </r>
       <r>    6.8976    0.0000 </r>
       <r>    7.2823    0.0000 </r>
       <r>    8.4305    0.0000 </r>
       <r>    8.4933    0.0000 </r>
       <r>    9.1022    0.0000 </r>
       <r>    9.6147    0.0000 </r>
       <r>    9.8753    0.0000 </r>
       <r>   10.1260    0.0000 </r>
       <r>   10.3546    0.0000 </r>
       <r>   10.8245    0.0000 </r>
       <r>   11.5206    0.0000 </r>
       <r>   12.1076    0.0000 </r>
       <r>   12.3098    0.0000 </r>
       <r>   12.5565    0.0000 </r>
       <r>   12.9598    0.0000 </r>
       <r>   13.0245    0.0000 </r>
       <r>   14.3069    0.0000 </r>
       <r>   15.0875    0.0000 </r>
       <r>   15.1636    0.0000 </r>
       <r>   15.6469    0.0000 </r>
       <r>   15.7103    0.0000 </r>
       <r>   16.4221    0.0000 </r>
      </set>
      <set comment="kpoint 9">
       <r>  -12.4484    1.0000 </r>
       <r>  -11.9365    1.0000 </r>
       <r>   -8.5116    1.0000 </r>
       <r>   -8.3702    1.0000 </r>
       <r>   -6.0215    1.0000 </r>
       <r>   -5.9989    1.0000 </r>
       <r>   -4.3996    1.0000 </r>
       <r>   -4.2338    1.0000 </r>
       <r>   -3.6605    1.0000 </r>
       <r>   -2.8461    1.0000 </r>
       <r>   -2.3612    1.0000 </r>
       <r>   -2.2175    1.0000 </r>
       <r>   -1.6624    1.0000 </r>
       <r>   -1.4794    1.0000 </r>
       <r>   -0.4786    1.0000 </r>
       <r>   -0.3069    1.0000 </r>
       <r>    0.0858    1.0000 </r>
       <r>    0.1157    1.0000 </r>
       <r>    0.6255    1.0000 </r>
       <r>    1.3971    1.0000 </r>
       <r>    1.4801    1.0000 </r>
       <r>    1.5675    1.0000 </r>
       <r>    5.8751    0.0000 </r>
       <r>    6.0090    0.0000 </r>
       <r>    6.5183    0.0000 </r>
       <r>    6.8080    0.0000 </r>
       <r>    6.8809    0.0000 </r>
       <r>    7.3732    0.0000 </r>
       <r>    8.4191    0.0000 </r>
       <r>    8.6012    0.0000 </r>
       <r>    8.9409    0.0000 </r>
       <r>    9.3719    0.0000 </r>
       <r>   10.0736    0.0000 </r>
       <r>   10.1001    0.0000 </r>
       <r>   10.4429    0.0000 </r>
       <r>   11.2277    0.0000 </r>
       <r>   11.3652    0.0000 </r>
       <r>   11.8429    0.0000 </r>
       <r>   12.2946    0.0000 </r>
       <r>   12.5471    0.0000 </r>
       <r>   12.7227    0.0000 </r>
       <r>   13.4613    0.0000 </r>
       <r>   14.7672    0.0000 </r>
       <r>   14.7749    0.0000 </r>
       <r>   15.1558    0.0000 </r>
       <r>   15.3089    0.0000 </r>
       <r>   15.6535    0.0000 </r>
       <r>   16.3919    0.0000 </r>
      </set>
      <set comment="kpoint 10">
       <r>  -12.2940    1.0000 </r>
       <r>  -12.1185    1.0000 </r>
       <r>   -8.4452    1.0000 </r>
       <r>   -8.3936    1.0000 </r>
       <r>   -6.1117    1.0000 </r>
       <r>   -6.1068    1.0000 </r>
       <r>   -4.0546    1.0000 </r>
       <r>   -3.8914    1.0000 </r>
       <r>   -3.8504    1.0000 </r>
       <r>   -3.2864    1.0000 </r>
       <r>   -2.1072    1.0000 </r>
       <r>   -1.9133    1.0000 </r>
       <r>   -1.5943    1.0000 </r>
       <r>   -1.5915    1.0000 </r>
       <r>   -0.6994    1.0000 </r>
       <r>   -0.5985    1.0000 </r>
       <r>    0.1187    1.0000 </r>
       <r>    0.1499    1.0000 </r>
       <r>    0.8850    1.0000 </r>
       <r>    1.1994    1.0000 </r>
       <r>    1.3435    1.0000 </r>
       <r>    1.3676    1.0000 </r>
       <r>    5.9261    0.0000 </r>
       <r>    5.9919    0.0000 </r>
       <r>    6.7969    0.0000 </r>
       <r>    6.8474    0.0000 </r>
       <r>    7.1860    0.0000 </r>
       <r>    7.8986    0.0000 </r>
       <r>    7.9438    0.0000 </r>
       <r>    8.6264    0.0000 </r>
       <r>    8.6938    0.0000 </r>
       <r>    8.8066    0.0000 </r>
       <r>   10.3217    0.0000 </r>
       <r>   10.5701    0.0000 </r>
       <r>   10.8068    0.0000 </r>
       <r>   10.9111    0.0000 </r>
       <r>   11.5525    0.0000 </r>
       <r>   11.6608    0.0000 </r>
       <r>   12.0144    0.0000 </r>
       <r>   12.6533    0.0000 </r>
       <r>   13.0269    0.0000 </r>
       <r>   13.4858    0.0000 </r>
       <r>   14.5504    0.0000 </r>
       <r>   14.7350    0.0000 </r>
       <r>   14.8320    0.0000 </r>
       <r>   15.0493    0.0000 </r>
       <r>   16.1282    0.0000 </r>
       <r>   16.4226    0.0000 </r>
      </set>
      <set comment="kpoint 11">
       <r>  -12.6563    1.0000 </r>
       <r>  -11.5214    1.0000 </r>
       <r>   -8.6043    1.0000 </r>
       <r>   -8.3550    1.0000 </r>
       <r>   -5.9867    1.0000 </r>
       <r>   -5.1294    1.0000 </r>
       <r>   -5.0047    1.0000 </r>
       <r>   -4.6011    1.0000 </r>
       <r>   -4.1601    1.0000 </r>
       <r>   -3.9082    1.0000 </r>
       <r>   -3.4668    1.0000 </r>
       <r>   -1.2035    1.0000 </r>
       <r>   -1.0807    1.0000 </r>
       <r>   -0.6466    1.0000 </r>
       <r>   -0.5406    1.0000 </r>
       <r>   -0.1750    1.0000 </r>
       <r>    0.1922    1.0000 </r>
       <r>    0.3022    1.0000 </r>
       <r>    0.7238    1.0000 </r>
       <r>    1.3693    1.0000 </r>
       <r>    1.4330    1.0000 </r>
       <r>    2.3087    0.0000 </r>
       <r>    5.2880    0.0000 </r>
       <r>    5.4537    0.0000 </r>
       <r>    6.1243    0.0000 </r>
       <r>    6.1969    0.0000 </r>
       <r>    7.5374    0.0000 </r>
       <r>    7.6261    0.0000 </r>
       <r>    8.3181    0.0000 </r>
       <r>    8.7278    0.0000 </r>
       <r>    8.8837    0.0000 </r>
       <r>    9.2426    0.0000 </r>
       <r>    9.3722    0.0000 </r>
       <r>   10.8822    0.0000 </r>
       <r>   11.3190    0.0000 </r>
       <r>   11.5730    0.0000 </r>
       <r>   11.7014    0.0000 </r>
       <r>   12.0867    0.0000 </r>
       <r>   12.2690    0.0000 </r>
       <r>   12.7467    0.0000 </r>
       <r>   12.7602    0.0000 </r>
       <r>   13.0070    0.0000 </r>
       <r>   13.2249    0.0000 </r>
       <r>   14.6767    0.0000 </r>
       <r>   15.1616    0.0000 </r>
       <r>   15.3435    0.0000 </r>
       <r>   15.4309    0.0000 </r>
       <r>   15.9624    0.0000 </r>
      </set>
      <set comment="kpoint 12">
       <r>  -12.6129    1.0000 </r>
       <r>  -11.5948    1.0000 </r>
       <r>   -8.5828    1.0000 </r>
       <r>   -8.3445    1.0000 </r>
       <r>   -5.9133    1.0000 </r>
       <r>   -5.3922    1.0000 </r>
       <r>   -5.0307    1.0000 </r>
       <r>   -4.7297    1.0000 </r>
       <r>   -3.9744    1.0000 </r>
       <r>   -3.7097    1.0000 </r>
       <r>   -3.1278    1.0000 </r>
       <r>   -1.3880    1.0000 </r>
       <r>   -1.1772    1.0000 </r>
       <r>   -0.7538    1.0000 </r>
       <r>   -0.5026    1.0000 </r>
       <r>   -0.0940    1.0000 </r>
       <r>    0.1727    1.0000 </r>
       <r>    0.2460    1.0000 </r>
       <r>    0.6114    1.0000 </r>
       <r>    1.2902    1.0000 </r>
       <r>    1.3633    1.0000 </r>
       <r>    2.1729    0.0000 </r>
       <r>    5.3683    0.0000 </r>
       <r>    5.7997    0.0000 </r>
       <r>    6.1429    0.0000 </r>
       <r>    6.2388    0.0000 </r>
       <r>    7.4566    0.0000 </r>
       <r>    7.7826    0.0000 </r>
       <r>    8.0503    0.0000 </r>
       <r>    8.8187    0.0000 </r>
       <r>    9.2544    0.0000 </r>
       <r>    9.2874    0.0000 </r>
       <r>    9.6569    0.0000 </r>
       <r>   10.5176    0.0000 </r>
       <r>   10.7800    0.0000 </r>
       <r>   11.2768    0.0000 </r>
       <r>   11.7194    0.0000 </r>
       <r>   12.1989    0.0000 </r>
       <r>   12.4317    0.0000 </r>
       <r>   12.5012    0.0000 </r>
       <r>   13.1632    0.0000 </r>
       <r>   13.2734    0.0000 </r>
       <r>   13.4381    0.0000 </r>
       <r>   14.6869    0.0000 </r>
       <r>   14.8231    0.0000 </r>
       <r>   15.2844    0.0000 </r>
       <r>   15.4948    0.0000 </r>
       <r>   15.9883    0.0000 </r>
      </set>
      <set comment="kpoint 13">
       <r>  -12.5278    1.0000 </r>
       <r>  -11.7269    1.0000 </r>
       <r>   -8.5386    1.0000 </r>
       <r>   -8.3319    1.0000 </r>
       <r>   -5.8836    1.0000 </r>
       <r>   -5.7118    1.0000 </r>
       <r>   -4.9390    1.0000 </r>
       <r>   -4.6938    1.0000 </r>
       <r>   -4.0981    1.0000 </r>
       <r>   -3.1756    1.0000 </r>
       <r>   -2.6567    1.0000 </r>
       <r>   -1.8850    1.0000 </r>
       <r>   -1.1365    1.0000 </r>
       <r>   -0.8926    1.0000 </r>
       <r>   -0.4497    1.0000 </r>
       <r>   -0.0848    1.0000 </r>
       <r>    0.0147    1.0000 </r>
       <r>    0.2579    1.0000 </r>
       <r>    0.4962    1.0000 </r>
       <r>    1.1587    1.0000 </r>
       <r>    1.2449    1.0000 </r>
       <r>    1.9163    0.1893 </r>
       <r>    5.6896    0.0000 </r>
       <r>    6.0979    0.0000 </r>
       <r>    6.2761    0.0000 </r>
       <r>    6.3685    0.0000 </r>
       <r>    7.3542    0.0000 </r>
       <r>    7.8610    0.0000 </r>
       <r>    8.0165    0.0000 </r>
       <r>    8.9473    0.0000 </r>
       <r>    9.2480    0.0000 </r>
       <r>    9.7204    0.0000 </r>
       <r>    9.8527    0.0000 </r>
       <r>   10.1390    0.0000 </r>
       <r>   10.2550    0.0000 </r>
       <r>   11.0634    0.0000 </r>
       <r>   11.5875    0.0000 </r>
       <r>   12.1059    0.0000 </r>
       <r>   12.5101    0.0000 </r>
       <r>   12.8021    0.0000 </r>
       <r>   13.0458    0.0000 </r>
       <r>   13.4473    0.0000 </r>
       <r>   13.9605    0.0000 </r>
       <r>   14.5955    0.0000 </r>
       <r>   14.8728    0.0000 </r>
       <r>   15.3044    0.0000 </r>
       <r>   15.5140    0.0000 </r>
       <r>   16.1988    0.0000 </r>
      </set>
      <set comment="kpoint 14">
       <r>  -12.4051    1.0000 </r>
       <r>  -11.8953    1.0000 </r>
       <r>   -8.4761    1.0000 </r>
       <r>   -8.3312    1.0000 </r>
       <r>   -5.9609    1.0000 </r>
       <r>   -5.9411    1.0000 </r>
       <r>   -4.8031    1.0000 </r>
       <r>   -4.3728    1.0000 </r>
       <r>   -4.2628    1.0000 </r>
       <r>   -2.8074    1.0000 </r>
       <r>   -2.3202    1.0000 </r>
       <r>   -2.1763    1.0000 </r>
       <r>   -1.0800    1.0000 </r>
       <r>   -1.0294    1.0000 </r>
       <r>   -0.4549    1.0000 </r>
       <r>   -0.3709    1.0000 </r>
       <r>    0.0585    1.0000 </r>
       <r>    0.0625    1.0000 </r>
       <r>    0.6432    1.0000 </r>
       <r>    1.0291    1.0000 </r>
       <r>    1.1122    1.0000 </r>
       <r>    1.5813    1.0000 </r>
       <r>    6.1091    0.0000 </r>
       <r>    6.2248    0.0000 </r>
       <r>    6.4001    0.0000 </r>
       <r>    6.8032    0.0000 </r>
       <r>    7.2983    0.0000 </r>
       <r>    7.7822    0.0000 </r>
       <r>    8.0715    0.0000 </r>
       <r>    9.0468    0.0000 </r>
       <r>    9.1049    0.0000 </r>
       <r>    9.1775    0.0000 </r>
       <r>    9.8891    0.0000 </r>
       <r>   10.1880    0.0000 </r>
       <r>   10.7025    0.0000 </r>
       <r>   11.0789    0.0000 </r>
       <r>   11.3268    0.0000 </r>
       <r>   11.9520    0.0000 </r>
       <r>   12.3572    0.0000 </r>
       <r>   12.9868    0.0000 </r>
       <r>   13.0374    0.0000 </r>
       <r>   13.7915    0.0000 </r>
       <r>   14.3819    0.0000 </r>
       <r>   14.3976    0.0000 </r>
       <r>   15.0314    0.0000 </r>
       <r>   15.1251    0.0000 </r>
       <r>   15.6152    0.0000 </r>
       <r>   16.3762    0.0000 </r>
      </set>
      <set comment="kpoint 15">
       <r>  -12.2513    1.0000 </r>
       <r>  -12.0765    1.0000 </r>
       <r>   -8.4090    1.0000 </r>
       <r>   -8.3563    1.0000 </r>
       <r>   -6.0521    1.0000 </r>
       <r>   -6.0462    1.0000 </r>
       <r>   -4.6352    1.0000 </r>
       <r>   -4.4493    1.0000 </r>
       <r>   -3.8602    1.0000 </r>
       <r>   -3.2638    1.0000 </r>
       <r>   -2.0384    1.0000 </r>
       <r>   -1.8727    1.0000 </r>
       <r>   -1.1011    1.0000 </r>
       <r>   -1.0394    1.0000 </r>
       <r>   -0.6284    1.0000 </r>
       <r>   -0.6218    1.0000 </r>
       <r>    0.0089    1.0000 </r>
       <r>    0.0525    1.0000 </r>
       <r>    0.9007    1.0000 </r>
       <r>    0.9667    1.0000 </r>
       <r>    1.0076    1.0000 </r>
       <r>    1.2279    1.0000 </r>
       <r>    6.2007    0.0000 </r>
       <r>    6.3188    0.0000 </r>
       <r>    6.8778    0.0000 </r>
       <r>    7.2175    0.0000 </r>
       <r>    7.2761    0.0000 </r>
       <r>    7.6224    0.0000 </r>
       <r>    7.9293    0.0000 </r>
       <r>    8.4408    0.0000 </r>
       <r>    9.1028    0.0000 </r>
       <r>    9.1349    0.0000 </r>
       <r>   10.0129    0.0000 </r>
       <r>   10.4849    0.0000 </r>
       <r>   10.7091    0.0000 </r>
       <r>   10.9795    0.0000 </r>
       <r>   11.7328    0.0000 </r>
       <r>   11.7511    0.0000 </r>
       <r>   12.1354    0.0000 </r>
       <r>   12.9108    0.0000 </r>
       <r>   13.4169    0.0000 </r>
       <r>   13.7643    0.0000 </r>
       <r>   14.2294    0.0000 </r>
       <r>   14.3839    0.0000 </r>
       <r>   14.9944    0.0000 </r>
       <r>   15.1342    0.0000 </r>
       <r>   15.9918    0.0000 </r>
       <r>   16.2959    0.0000 </r>
      </set>
      <set comment="kpoint 16">
       <r>  -12.5989    1.0000 </r>
       <r>  -11.4700    1.0000 </r>
       <r>   -8.5604    1.0000 </r>
       <r>   -8.2997    1.0000 </r>
       <r>   -5.9224    1.0000 </r>
       <r>   -5.6104    1.0000 </r>
       <r>   -4.9344    1.0000 </r>
       <r>   -4.5448    1.0000 </r>
       <r>   -4.4285    1.0000 </r>
       <r>   -4.1207    1.0000 </r>
       <r>   -3.4048    1.0000 </r>
       <r>   -1.2192    1.0000 </r>
       <r>   -1.0665    1.0000 </r>
       <r>   -1.0013    1.0000 </r>
       <r>   -0.1933    1.0000 </r>
       <r>    0.2205    1.0000 </r>
       <r>    0.3457    1.0000 </r>
       <r>    0.5959    1.0000 </r>
       <r>    0.7876    1.0000 </r>
       <r>    0.9841    1.0000 </r>
       <r>    0.9983    1.0000 </r>
       <r>    2.3430    0.0000 </r>
       <r>    4.9443    0.0000 </r>
       <r>    5.1600    0.0000 </r>
       <r>    6.3574    0.0000 </r>
       <r>    6.5867    0.0000 </r>
       <r>    7.2675    0.0000 </r>
       <r>    7.9686    0.0000 </r>
       <r>    8.7020    0.0000 </r>
       <r>    9.0592    0.0000 </r>
       <r>    9.4654    0.0000 </r>
       <r>    9.5804    0.0000 </r>
       <r>    9.6534    0.0000 </r>
       <r>   10.7437    0.0000 </r>
       <r>   11.2695    0.0000 </r>
       <r>   11.9665    0.0000 </r>
       <r>   12.0179    0.0000 </r>
       <r>   12.2956    0.0000 </r>
       <r>   12.4240    0.0000 </r>
       <r>   12.4482    0.0000 </r>
       <r>   12.5655    0.0000 </r>
       <r>   12.9923    0.0000 </r>
       <r>   13.7942    0.0000 </r>
       <r>   13.8806    0.0000 </r>
       <r>   14.4182    0.0000 </r>
       <r>   15.1030    0.0000 </r>
       <r>   15.4035    0.0000 </r>
       <r>   15.8608    0.0000 </r>
      </set>
      <set comment="kpoint 17">
       <r>  -12.5556    1.0000 </r>
       <r>  -11.5430    1.0000 </r>
       <r>   -8.5384    1.0000 </r>
       <r>   -8.2902    1.0000 </r>
       <r>   -5.8444    1.0000 </r>
       <r>   -5.5757    1.0000 </r>
       <r>   -5.2717    1.0000 </r>
       <r>   -4.6798    1.0000 </r>
       <r>   -4.4940    1.0000 </r>
       <r>   -3.6558    1.0000 </r>
       <r>   -3.0662    1.0000 </r>
       <r>   -1.3819    1.0000 </r>
       <r>   -1.1617    1.0000 </r>
       <r>   -1.0161    1.0000 </r>
       <r>   -0.1947    1.0000 </r>
       <r>    0.2055    1.0000 </r>
       <r>    0.2776    1.0000 </r>
       <r>    0.5752    1.0000 </r>
       <r>    0.6662    1.0000 </r>
       <r>    0.9188    1.0000 </r>
       <r>    0.9569    1.0000 </r>
       <r>    2.2052    0.0000 </r>
       <r>    5.0403    0.0000 </r>
       <r>    5.4917    0.0000 </r>
       <r>    6.3035    0.0000 </r>
       <r>    6.7184    0.0000 </r>
       <r>    7.4031    0.0000 </r>
       <r>    7.9260    0.0000 </r>
       <r>    8.6348    0.0000 </r>
       <r>    9.1756    0.0000 </r>
       <r>    9.4293    0.0000 </r>
       <r>    9.7905    0.0000 </r>
       <r>    9.8977    0.0000 </r>
       <r>   10.3359    0.0000 </r>
       <r>   10.7074    0.0000 </r>
       <r>   11.7060    0.0000 </r>
       <r>   11.8858    0.0000 </r>
       <r>   12.2456    0.0000 </r>
       <r>   12.4791    0.0000 </r>
       <r>   12.6425    0.0000 </r>
       <r>   12.9614    0.0000 </r>
       <r>   13.3922    0.0000 </r>
       <r>   13.7919    0.0000 </r>
       <r>   13.9246    0.0000 </r>
       <r>   14.2549    0.0000 </r>
       <r>   15.0779    0.0000 </r>
       <r>   15.4325    0.0000 </r>
       <r>   15.7315    0.0000 </r>
      </set>
      <set comment="kpoint 18">
       <r>  -12.4710    1.0000 </r>
       <r>  -11.6745    1.0000 </r>
       <r>   -8.4937    1.0000 </r>
       <r>   -8.2794    1.0000 </r>
       <r>   -5.8072    1.0000 </r>
       <r>   -5.6598    1.0000 </r>
       <r>   -5.4201    1.0000 </r>
       <r>   -4.6540    1.0000 </r>
       <r>   -4.6164    1.0000 </r>
       <r>   -3.1163    1.0000 </r>
       <r>   -2.5963    1.0000 </r>
       <r>   -1.8661    1.0000 </r>
       <r>   -1.1010    1.0000 </r>
       <r>   -1.0348    1.0000 </r>
       <r>   -0.2130    1.0000 </r>
       <r>   -0.0488    1.0000 </r>
       <r>    0.3159    1.0000 </r>
       <r>    0.5072    1.0000 </r>
       <r>    0.5236    1.0000 </r>
       <r>    0.8304    1.0000 </r>
       <r>    0.8899    1.0000 </r>
       <r>    1.9449    0.0456 </r>
       <r>    5.3661    0.0000 </r>
       <r>    5.9666    0.0000 </r>
       <r>    6.2762    0.0000 </r>
       <r>    6.8313    0.0000 </r>
       <r>    7.5707    0.0000 </r>
       <r>    7.9462    0.0000 </r>
       <r>    8.5603    0.0000 </r>
       <r>    9.3646    0.0000 </r>
       <r>    9.3954    0.0000 </r>
       <r>    9.5924    0.0000 </r>
       <r>   10.0438    0.0000 </r>
       <r>   10.1128    0.0000 </r>
       <r>   10.5604    0.0000 </r>
       <r>   11.3876    0.0000 </r>
       <r>   11.3980    0.0000 </r>
       <r>   12.2389    0.0000 </r>
       <r>   12.7413    0.0000 </r>
       <r>   12.9566    0.0000 </r>
       <r>   13.1808    0.0000 </r>
       <r>   13.5224    0.0000 </r>
       <r>   13.7656    0.0000 </r>
       <r>   14.0168    0.0000 </r>
       <r>   14.3906    0.0000 </r>
       <r>   15.1693    0.0000 </r>
       <r>   15.3589    0.0000 </r>
       <r>   15.9924    0.0000 </r>
      </set>
      <set comment="kpoint 19">
       <r>  -12.3490    1.0000 </r>
       <r>  -11.8420    1.0000 </r>
       <r>   -8.4305    1.0000 </r>
       <r>   -8.2811    1.0000 </r>
       <r>   -5.8812    1.0000 </r>
       <r>   -5.8685    1.0000 </r>
       <r>   -5.3069    1.0000 </r>
       <r>   -4.7809    1.0000 </r>
       <r>   -4.3371    1.0000 </r>
       <r>   -2.7626    1.0000 </r>
       <r>   -2.2777    1.0000 </r>
       <r>   -2.1206    1.0000 </r>
       <r>   -1.0429    1.0000 </r>
       <r>   -1.0164    1.0000 </r>
       <r>   -0.3730    1.0000 </r>
       <r>   -0.3283    1.0000 </r>
       <r>    0.1526    1.0000 </r>
       <r>    0.3766    1.0000 </r>
       <r>    0.6632    1.0000 </r>
       <r>    0.7744    1.0000 </r>
       <r>    0.8236    1.0000 </r>
       <r>    1.6060    1.0000 </r>
       <r>    5.8936    0.0000 </r>
       <r>    6.3082    0.0000 </r>
       <r>    6.5457    0.0000 </r>
       <r>    6.7833    0.0000 </r>
       <r>    7.5702    0.0000 </r>
       <r>    8.0043    0.0000 </r>
       <r>    8.5142    0.0000 </r>
       <r>    8.9157    0.0000 </r>
       <r>    9.2719    0.0000 </r>
       <r>    9.5835    0.0000 </r>
       <r>    9.9053    0.0000 </r>
       <r>   10.3455    0.0000 </r>
       <r>   10.7948    0.0000 </r>
       <r>   11.0937    0.0000 </r>
       <r>   11.4437    0.0000 </r>
       <r>   12.1684    0.0000 </r>
       <r>   12.4228    0.0000 </r>
       <r>   13.1596    0.0000 </r>
       <r>   13.2804    0.0000 </r>
       <r>   13.6606    0.0000 </r>
       <r>   13.9013    0.0000 </r>
       <r>   14.1521    0.0000 </r>
       <r>   14.7583    0.0000 </r>
       <r>   14.9929    0.0000 </r>
       <r>   15.4346    0.0000 </r>
       <r>   16.3283    0.0000 </r>
      </set>
      <set comment="kpoint 20">
       <r>  -12.1960    1.0000 </r>
       <r>  -12.0223    1.0000 </r>
       <r>   -8.3625    1.0000 </r>
       <r>   -8.3083    1.0000 </r>
       <r>   -5.9746    1.0000 </r>
       <r>   -5.9667    1.0000 </r>
       <r>   -5.1456    1.0000 </r>
       <r>   -4.9639    1.0000 </r>
       <r>   -3.8280    1.0000 </r>
       <r>   -3.2336    1.0000 </r>
       <r>   -1.9814    1.0000 </r>
       <r>   -1.8267    1.0000 </r>
       <r>   -0.9797    1.0000 </r>
       <r>   -0.9204    1.0000 </r>
       <r>   -0.6707    1.0000 </r>
       <r>   -0.6276    1.0000 </r>
       <r>    0.1282    1.0000 </r>
       <r>    0.2287    1.0000 </r>
       <r>    0.7589    1.0000 </r>
       <r>    0.7748    1.0000 </r>
       <r>    0.9265    1.0000 </r>
       <r>    1.2495    1.0000 </r>
       <r>    6.4414    0.0000 </r>
       <r>    6.5547    0.0000 </r>
       <r>    6.6205    0.0000 </r>
       <r>    7.1358    0.0000 </r>
       <r>    7.2061    0.0000 </r>
       <r>    7.6929    0.0000 </r>
       <r>    8.5030    0.0000 </r>
       <r>    8.5673    0.0000 </r>
       <r>    9.4661    0.0000 </r>
       <r>    9.6393    0.0000 </r>
       <r>    9.8452    0.0000 </r>
       <r>   10.1419    0.0000 </r>
       <r>   10.8592    0.0000 </r>
       <r>   11.2337    0.0000 </r>
       <r>   11.8701    0.0000 </r>
       <r>   11.9451    0.0000 </r>
       <r>   12.2571    0.0000 </r>
       <r>   13.1476    0.0000 </r>
       <r>   13.4383    0.0000 </r>
       <r>   13.6240    0.0000 </r>
       <r>   13.8395    0.0000 </r>
       <r>   13.9480    0.0000 </r>
       <r>   15.1006    0.0000 </r>
       <r>   15.1181    0.0000 </r>
       <r>   15.6679    0.0000 </r>
       <r>   15.9700    0.0000 </r>
      </set>
      <set comment="kpoint 21">
       <r>  -12.5388    1.0000 </r>
[...]
       <r>   -2.3149    1.0000 </r>
       <r>   -2.1465    1.0000 </r>
       <r>   -1.9826    1.0000 </r>
       <r>   -1.4902    1.0000 </r>
       <r>   -0.7374    1.0000 </r>
       <r>   -0.2014    1.0000 </r>
       <r>    0.1663    1.0000 </r>
       <r>    0.3856    1.0000 </r>
       <r>    0.5137    1.0000 </r>
       <r>    1.5894    1.0000 </r>
       <r>    1.6165    1.0000 </r>
       <r>    1.8720    0.6454 </r>
       <r>    5.5123    0.0000 </r>
       <r>    6.1470    0.0000 </r>
       <r>    6.6676    0.0000 </r>
       <r>    7.2183    0.0000 </r>
       <r>    7.7822    0.0000 </r>
       <r>    8.2250    0.0000 </r>
       <r>    8.9916    0.0000 </r>
       <r>    9.1512    0.0000 </r>
       <r>    9.7204    0.0000 </r>
       <r>    9.9560    0.0000 </r>
       <r>   10.5871    0.0000 </r>
       <r>   11.0309    0.0000 </r>
       <r>   11.2064    0.0000 </r>
       <r>   11.4778    0.0000 </r>
       <r>   11.5667    0.0000 </r>
       <r>   11.9496    0.0000 </r>
       <r>   12.8371    0.0000 </r>
       <r>   13.1443    0.0000 </r>
       <r>   13.3675    0.0000 </r>
       <r>   13.7481    0.0000 </r>
       <r>   13.8723    0.0000 </r>
       <r>   14.1552    0.0000 </r>
       <r>   14.4765    0.0000 </r>
       <r>   14.9664    0.0000 </r>
       <r>   15.0936    0.0000 </r>
       <r>   15.3939    0.0000 </r>
      </set>
      <set comment="kpoint 175">
       <r>  -12.0207    1.0000 </r>
       <r>  -11.8815    1.0000 </r>
       <r>   -8.5467    1.0000 </r>
       <r>   -8.4344    1.0000 </r>
       <r>   -5.9262    1.0000 </r>
       <r>   -5.8200    1.0000 </r>
       <r>   -4.8914    1.0000 </r>
       <r>   -4.5677    1.0000 </r>
       <r>   -4.4131    1.0000 </r>
       <r>   -3.9749    1.0000 </r>
       <r>   -2.1987    1.0000 </r>
       <r>   -2.1371    1.0000 </r>
       <r>   -2.0572    1.0000 </r>
       <r>   -1.7728    1.0000 </r>
       <r>   -0.2191    1.0000 </r>
       <r>   -0.0055    1.0000 </r>
       <r>    0.3885    1.0000 </r>
       <r>    0.4765    1.0000 </r>
       <r>    0.5486    1.0000 </r>
       <r>    0.8749    1.0000 </r>
       <r>    1.6306    1.0000 </r>
       <r>    1.7303    1.0000 </r>
       <r>    5.8593    0.0000 </r>
       <r>    6.0449    0.0000 </r>
       <r>    6.8698    0.0000 </r>
       <r>    7.4070    0.0000 </r>
       <r>    7.4738    0.0000 </r>
       <r>    7.5768    0.0000 </r>
       <r>    9.3962    0.0000 </r>
       <r>    9.5803    0.0000 </r>
       <r>    9.7892    0.0000 </r>
       <r>    9.9667    0.0000 </r>
       <r>   10.4638    0.0000 </r>
       <r>   10.8137    0.0000 </r>
       <r>   11.2353    0.0000 </r>
       <r>   11.5085    0.0000 </r>
       <r>   11.5190    0.0000 </r>
       <r>   11.6121    0.0000 </r>
       <r>   13.0815    0.0000 </r>
       <r>   13.1875    0.0000 </r>
       <r>   13.7207    0.0000 </r>
       <r>   14.0536    0.0000 </r>
       <r>   14.1879    0.0000 </r>
       <r>   14.2905    0.0000 </r>
       <r>   14.5928    0.0000 </r>
       <r>   14.7365    0.0000 </r>
       <r>   14.8848    0.0000 </r>
       <r>   15.0468    0.0000 </r>
      </set>
     </set>
    </set>
   </array>
  </eigenvalues>
  <separator name="orbital magnetization" >
   <v name="MAGDIPOLOUT">      0.00000000      0.00000000      0.00000000</v>
  </separator>
  <dos>
   <i name="efermi">      1.88518342 </i>
   <total>
    <array>
     <dimension dim="1">gridpoints</dimension>
     <dimension dim="2">spin</dimension>
     <field>energy</field>
     <field>total</field>
     <field>integrated</field>
     <set>
      <set comment="spin 1">
       <r>   -14.1867     0.0000     0.0000 </r>
       <r>   -14.0795     0.0000     0.0000 </r>
       <r>   -13.9723     0.0000     0.0000 </r>
       <r>   -13.8650     0.0000     0.0000 </r>
       <r>   -13.7578     0.0000     0.0000 </r>
       <r>   -13.6506     0.0000     0.0000 </r>
       <r>   -13.5434     0.0000     0.0000 </r>
       <r>   -13.4362     0.0000     0.0000 </r>
       <r>   -13.3290     0.0000     0.0000 </r>
       <r>   -13.2218     0.0000     0.0000 </r>
       <r>   -13.1146     0.0000     0.0000 </r>
       <r>   -13.0074     0.0000     0.0000 </r>
       <r>   -12.9001     0.0000     0.0000 </r>
       <r>   -12.7929     0.0038     0.0004 </r>
       <r>   -12.6857     0.5086     0.0549 </r>
       <r>   -12.5785     2.3911     0.3113 </r>
       <r>   -12.4713     3.5648     0.6935 </r>
       <r>   -12.3641     4.3713     1.1621 </r>
       <r>   -12.2569     3.5381     1.5415 </r>
       <r>   -12.1497     2.7345     1.8346 </r>
       <r>   -12.0425     2.7507     2.1295 </r>
       <r>   -11.9352     2.5048     2.3981 </r>
       <r>   -11.8280     2.7706     2.6951 </r>
       <r>   -11.7208     3.4268     3.0625 </r>
       <r>   -11.6136     3.5353     3.4415 </r>
       <r>   -11.5064     3.1143     3.7754 </r>
       <r>   -11.3992     1.6671     3.9542 </r>
       <r>   -11.2920     0.4205     3.9992 </r>
       <r>   -11.1848     0.0072     4.0000 </r>
       <r>   -11.0776     0.0000     4.0000 </r>
       <r>   -10.9703     0.0000     4.0000 </r>
       <r>   -10.8631     0.0000     4.0000 </r>
       <r>   -10.7559     0.0000     4.0000 </r>
       <r>   -10.6487     0.0000     4.0000 </r>
       <r>   -10.5415     0.0000     4.0000 </r>
       <r>   -10.4343     0.0000     4.0000 </r>
       <r>   -10.3271     0.0000     4.0000 </r>
       <r>   -10.2199     0.0000     4.0000 </r>
       <r>   -10.1126     0.0000     4.0000 </r>
       <r>   -10.0054     0.0000     4.0000 </r>
       <r>    -9.8982     0.0000     4.0000 </r>
       <r>    -9.7910     0.0000     4.0000 </r>
       <r>    -9.6838     0.0000     4.0000 </r>
       <r>    -9.5766     0.0000     4.0000 </r>
       <r>    -9.4694     0.0000     4.0000 </r>
       <r>    -9.3622     0.0000     4.0000 </r>
       <r>    -9.2550     0.0000     4.0000 </r>
       <r>    -9.1477     0.0000     4.0000 </r>
       <r>    -9.0405     0.0000     4.0000 </r>
       <r>    -8.9333     0.0006     4.0001 </r>
       <r>    -8.8261     0.2759     4.0297 </r>
       <r>    -8.7189     2.0900     4.2537 </r>
       <r>    -8.6117     5.3305     4.8252 </r>
       <r>    -8.5045     6.9876     5.5744 </r>
       <r>    -8.3973     6.2982     6.2496 </r>
       <r>    -8.2901     5.3252     6.8205 </r>
       <r>    -8.1828     4.8346     7.3389 </r>
       <r>    -8.0756     3.8721     7.7540 </r>
       <r>    -7.9684     1.6655     7.9325 </r>
       <r>    -7.8612     0.5772     7.9944 </r>
       <r>    -7.7540     0.0520     8.0000 </r>
       <r>    -7.6468     0.0000     8.0000 </r>
       <r>    -7.5396     0.0000     8.0000 </r>
       <r>    -7.4324     0.0000     8.0000 </r>
       <r>    -7.3252     0.0000     8.0000 </r>
       <r>    -7.2179     0.0000     8.0000 </r>
       <r>    -7.1107     0.0000     8.0000 </r>
       <r>    -7.0035     0.0004     8.0000 </r>
       <r>    -6.8963     0.1128     8.0121 </r>
       <r>    -6.7891     0.2576     8.0398 </r>
       <r>    -6.6819     0.4259     8.0854 </r>
       <r>    -6.5747     0.7660     8.1675 </r>
       <r>    -6.4675     0.8507     8.2587 </r>
       <r>    -6.3603     1.4448     8.4136 </r>
       <r>    -6.2530     1.9635     8.6242 </r>
       <r>    -6.1458     3.0561     8.9518 </r>
       <r>    -6.0386     3.7834     9.3574 </r>
       <r>    -5.9314     4.1136     9.7985 </r>
       <r>    -5.8242     4.0455    10.2322 </r>
       <r>    -5.7170     3.8618    10.6462 </r>
       <r>    -5.6098     4.0726    11.0828 </r>
       <r>    -5.5026     4.2203    11.5353 </r>
       <r>    -5.3953     4.5445    12.0225 </r>
       <r>    -5.2881     4.5983    12.5155 </r>
       <r>    -5.1809     4.4905    12.9969 </r>
       <r>    -5.0737     3.8690    13.4117 </r>
       <r>    -4.9665     3.2276    13.7578 </r>
       <r>    -4.8593     2.9530    14.0744 </r>
       <r>    -4.7521     2.3359    14.3248 </r>
       <r>    -4.6449     2.8960    14.6353 </r>
       <r>    -4.5377     3.3685    14.9964 </r>
       <r>    -4.4304     3.4713    15.3686 </r>
       <r>    -4.3232     3.3321    15.7258 </r>
       <r>    -4.2160     2.9539    16.0425 </r>
       <r>    -4.1088     2.9073    16.3542 </r>
       <r>    -4.0016     2.9452    16.6700 </r>
       <r>    -3.8944     2.8600    16.9766 </r>
       <r>    -3.7872     3.1183    17.3109 </r>
       <r>    -3.6800     2.8759    17.6192 </r>
       <r>    -3.5728     2.7044    17.9092 </r>
       <r>    -3.4655     3.0646    18.2377 </r>
       <r>    -3.3583     2.6378    18.5205 </r>
       <r>    -3.2511     2.8606    18.8272 </r>
       <r>    -3.1439     2.7453    19.1216 </r>
       <r>    -3.0367     2.7386    19.4152 </r>
       <r>    -2.9295     3.0454    19.7417 </r>
       <r>    -2.8223     2.9743    20.0605 </r>
       <r>    -2.7151     2.4306    20.3211 </r>
       <r>    -2.6079     2.6568    20.6060 </r>
       <r>    -2.5006     3.0201    20.9297 </r>
       <r>    -2.3934     2.9856    21.2498 </r>
       <r>    -2.2862     3.1930    21.5922 </r>
       <r>    -2.1790     4.0097    22.0221 </r>
       <r>    -2.0718     3.6562    22.4140 </r>
       <r>    -1.9646     3.2733    22.7650 </r>
       <r>    -1.8574     5.1250    23.3144 </r>
       <r>    -1.7502     5.5782    23.9125 </r>
       <r>    -1.6429     5.6041    24.5133 </r>
       <r>    -1.5357     6.1812    25.1760 </r>
       <r>    -1.4285     6.1088    25.8309 </r>
       <r>    -1.3213     5.5700    26.4281 </r>
       <r>    -1.2141     4.6830    26.9302 </r>
       <r>    -1.1069     6.4961    27.6266 </r>
       <r>    -0.9997     3.9804    28.0534 </r>
       <r>    -0.8925     2.2699    28.2967 </r>
       <r>    -0.7853     2.6983    28.5860 </r>
       <r>    -0.6780     2.8794    28.8947 </r>
       <r>    -0.5708     4.5198    29.3793 </r>
       <r>    -0.4636     6.8622    30.1150 </r>
       <r>    -0.3564     5.6581    30.7216 </r>
       <r>    -0.2492     6.7051    31.4405 </r>
       <r>    -0.1420     6.3585    32.1222 </r>
       <r>    -0.0348     6.7456    32.8454 </r>
       <r>     0.0724     6.7574    33.5699 </r>
       <r>     0.1796     6.2962    34.2449 </r>
       <r>     0.2869     8.7999    35.1883 </r>
       <r>     0.3941     7.9829    36.0442 </r>
       <r>     0.5013     8.6968    36.9766 </r>
       <r>     0.6085     5.2493    37.5394 </r>
       <r>     0.7157     2.9358    37.8541 </r>
       <r>     0.8229     3.2917    38.2070 </r>
       <r>     0.9301     3.5881    38.5917 </r>
       <r>     1.0373     3.5612    38.9735 </r>
       <r>     1.1445     2.7902    39.2727 </r>
       <r>     1.2518     3.3904    39.6362 </r>
       <r>     1.3590     4.4972    40.1183 </r>
       <r>     1.4662     3.7791    40.5235 </r>
       <r>     1.5734     3.7213    40.9224 </r>
       <r>     1.6806     4.5765    41.4131 </r>
       <r>     1.7878     3.2318    41.7596 </r>
       <r>     1.8950     2.4794    42.0254 </r>
       <r>     2.0022     2.6596    42.3105 </r>
       <r>     2.1094     2.0920    42.5348 </r>
       <r>     2.2167     2.6508    42.8190 </r>
       <r>     2.3239     2.5701    43.0946 </r>
       <r>     2.4311     1.9371    43.3023 </r>
       <r>     2.5383     0.8519    43.3936 </r>
       <r>     2.6455     0.3778    43.4341 </r>
       <r>     2.7527     0.5726    43.4955 </r>
       <r>     2.8599     0.4194    43.5405 </r>
       <r>     2.9671     0.3056    43.5732 </r>
       <r>     3.0744     0.7575    43.6544 </r>
       <r>     3.1816     1.0140    43.7631 </r>
       <r>     3.2888     0.5385    43.8209 </r>
       <r>     3.3960     0.0131    43.8223 </r>
       <r>     3.5032     0.1308    43.8363 </r>
       <r>     3.6104     0.3953    43.8787 </r>
       <r>     3.7176     0.3304    43.9141 </r>
       <r>     3.8248     0.3718    43.9540 </r>
       <r>     3.9320     0.4025    43.9971 </r>
       <r>     4.0393     0.0268    44.0000 </r>
       <r>     4.1465     0.0000    44.0000 </r>
       <r>     4.2537     0.0314    44.0034 </r>
       <r>     4.3609     0.1763    44.0223 </r>
       <r>     4.4681     0.4025    44.0654 </r>
       <r>     4.5753     0.4711    44.1159 </r>
       <r>     4.6825     0.6340    44.1839 </r>
       <r>     4.7897     0.8890    44.2792 </r>
       <r>     4.8969     0.8412    44.3694 </r>
       <r>     5.0042     0.8569    44.4613 </r>
       <r>     5.1114     1.2768    44.5982 </r>
       <r>     5.2186     1.1519    44.7217 </r>
       <r>     5.3258     1.6326    44.8967 </r>
       <r>     5.4330     2.1900    45.1315 </r>
       <r>     5.5402     2.4876    45.3982 </r>
       <r>     5.6474     2.7872    45.6970 </r>
       <r>     5.7546     3.3668    46.0579 </r>
       <r>     5.8618     3.2207    46.4032 </r>
       <r>     5.9691     4.3116    46.8655 </r>
       <r>     6.0763     4.7577    47.3756 </r>
       <r>     6.1835     4.0429    47.8090 </r>
       <r>     6.2907     4.6240    48.3048 </r>
       <r>     6.3979     4.1514    48.7498 </r>
       <r>     6.5051     4.0169    49.1805 </r>
       <r>     6.6123     4.4807    49.6609 </r>
       <r>     6.7195     3.2278    50.0069 </r>
       <r>     6.8268     3.9972    50.4355 </r>
       <r>     6.9340     4.6122    50.9300 </r>
       <r>     7.0412     4.5536    51.4182 </r>
       <r>     7.1484     4.3384    51.8833 </r>
       <r>     7.2556     5.5989    52.4836 </r>
       <r>     7.3628     4.9233    53.0114 </r>
       <r>     7.4700     4.4513    53.4886 </r>
       <r>     7.5772     4.1920    53.9381 </r>
       <r>     7.6844     3.5658    54.3203 </r>
       <r>     7.7917     3.1251    54.6554 </r>
       <r>     7.8989     3.0102    54.9781 </r>
       <r>     8.0061     2.9773    55.2973 </r>
       <r>     8.1133     4.1675    55.7441 </r>
       <r>     8.2205     3.8882    56.1610 </r>
       <r>     8.3277     3.6875    56.5563 </r>
       <r>     8.4349     3.9889    56.9840 </r>
       <r>     8.5421     4.2163    57.4360 </r>
       <r>     8.6493     4.4544    57.9136 </r>
       <r>     8.7566     4.2208    58.3661 </r>
       <r>     8.8638     5.2627    58.9303 </r>
       <r>     8.9710     4.9472    59.4607 </r>
       <r>     9.0782     5.2922    60.0281 </r>
       <r>     9.1854     5.2381    60.5897 </r>
       <r>     9.2926     4.9697    61.1225 </r>
       <r>     9.3998     4.6912    61.6254 </r>
       <r>     9.5070     4.3674    62.0937 </r>
       <r>     9.6142     5.1043    62.6409 </r>
       <r>     9.7215     5.0280    63.1800 </r>
       <r>     9.8287     5.2999    63.7482 </r>
       <r>     9.9359     4.4816    64.2287 </r>
       <r>    10.0431     3.6340    64.6183 </r>
       <r>    10.1503     5.1728    65.1728 </r>
       <r>    10.2575     4.7193    65.6788 </r>
       <r>    10.3647     4.1155    66.1200 </r>
       <r>    10.4719     5.4117    66.7002 </r>
       <r>    10.5791     5.8151    67.3237 </r>
       <r>    10.6864     4.0651    67.7595 </r>
       <r>    10.7936     3.8863    68.1762 </r>
       <r>    10.9008     3.2345    68.5229 </r>
       <r>    11.0080     4.6682    69.0234 </r>
       <r>    11.1152     5.4848    69.6114 </r>
       <r>    11.2224     6.1887    70.2749 </r>
       <r>    11.3296     5.9944    70.9176 </r>
       <r>    11.4368     5.2872    71.4845 </r>
       <r>    11.5441     4.3001    71.9455 </r>
       <r>    11.6513     4.4736    72.4251 </r>
       <r>    11.7585     4.9314    72.9538 </r>
       <r>    11.8657     4.8056    73.4690 </r>
       <r>    11.9729     6.0349    74.1160 </r>
       <r>    12.0801     5.9580    74.7548 </r>
       <r>    12.1873     5.9894    75.3969 </r>
       <r>    12.2945     5.6164    75.9991 </r>
       <r>    12.4017     5.0074    76.5359 </r>
       <r>    12.5090     5.6859    77.1455 </r>
       <r>    12.6162     5.9900    77.7877 </r>
       <r>    12.7234     6.0235    78.4335 </r>
       <r>    12.8306     5.8866    79.0646 </r>
       <r>    12.9378     5.8613    79.6930 </r>
       <r>    13.0450     5.5966    80.2930 </r>
       <r>    13.1522     6.3478    80.9736 </r>
       <r>    13.2594     6.2611    81.6448 </r>
       <r>    13.3666     5.3883    82.2225 </r>
       <r>    13.4739     6.1333    82.8801 </r>
       <r>    13.5811     5.3415    83.4528 </r>
       <r>    13.6883     4.8099    83.9684 </r>
       <r>    13.7955     6.1311    84.6258 </r>
       <r>    13.9027     5.5240    85.2180 </r>
       <r>    14.0099     5.3435    85.7909 </r>
       <r>    14.1171     5.4761    86.3780 </r>
       <r>    14.2243     4.6839    86.8801 </r>
       <r>    14.3315     4.9055    87.4061 </r>
       <r>    14.4388     5.0206    87.9443 </r>
       <r>    14.5460     4.9618    88.4763 </r>
       <r>    14.6532     5.2725    89.0416 </r>
       <r>    14.7604     5.1656    89.5954 </r>
       <r>    14.8676     4.0925    90.0341 </r>
       <r>    14.9748     5.0827    90.5791 </r>
       <r>    15.0820     6.1885    91.2426 </r>
       <r>    15.1892     5.6380    91.8470 </r>
       <r>    15.2965     5.6762    92.4556 </r>
       <r>    15.4037     6.0287    93.1019 </r>
       <r>    15.5109     5.7313    93.7164 </r>
       <r>    15.6181     5.9511    94.3544 </r>
       <r>    15.7253     4.5914    94.8466 </r>
       <r>    15.8325     2.4676    95.1112 </r>
       <r>    15.9397     2.7061    95.4013 </r>
       <r>    16.0469     1.8600    95.6007 </r>
       <r>    16.1541     1.1445    95.7234 </r>
       <r>    16.2614     0.8899    95.8188 </r>
       <r>    16.3686     0.6978    95.8937 </r>
       <r>    16.4758     0.8003    95.9795 </r>
       <r>    16.5830     0.1899    95.9998 </r>
       <r>    16.6902     0.0017    96.0000 </r>
       <r>    16.7974     0.0000    96.0000 </r>
       <r>    16.9046     0.0000    96.0000 </r>
       <r>    17.0118     0.0000    96.0000 </r>
       <r>    17.1190     0.0000    96.0000 </r>
       <r>    17.2263     0.0000    96.0000 </r>
       <r>    17.3335     0.0000    96.0000 </r>
       <r>    17.4407     0.0000    96.0000 </r>
       <r>    17.5479     0.0000    96.0000 </r>
       <r>    17.6551     0.0000    96.0000 </r>
       <r>    17.7623     0.0000    96.0000 </r>
       <r>    17.8695     0.0000    96.0000 </r>
       <r>    17.9767     0.0000    96.0000 </r>
      </set>
     </set>
    </array>
   </total>
  </dos>
 </calculation>
 <structure name="finalpos" >
  <crystal>
   <varray name="basis" >
    <v>       5.69700000       0.00000000       0.00000000 </v>
    <v>       0.00000000       4.04790000       0.00000000 </v>
    <v>       0.00000000       0.00000000       6.20420000 </v>
   </varray>
   <i name="volume">    143.07435078 </i>
   <varray name="rec_basis" >
    <v>       0.17553098       0.00000000       0.00000000 </v>
    <v>       0.00000000       0.24704168       0.00000000 </v>
    <v>       0.00000000       0.00000000       0.16118114 </v>
   </varray>
  </crystal>
  <varray name="positions" >
   <v>       0.52123000       0.50000000       0.63796000 </v>
   <v>       0.47877000       0.50000000       0.36204000 </v>
   <v>       0.97877000       0.50000000       0.63796000 </v>
   <v>       0.02123000       0.50000000       0.36204000 </v>
   <v>       0.60090000       0.50000000       0.89991000 </v>
   <v>       0.39910000       0.50000000       0.10009000 </v>
   <v>       0.89910000       0.50000000       0.89991000 </v>
   <v>       0.10090000       0.50000000       0.10009000 </v>
   <v>       0.75000000       0.79171000       0.72973000 </v>
   <v>       0.25000000       0.20829000       0.27027000 </v>
   <v>       0.75000000       0.20829000       0.72973000 </v>
   <v>       0.25000000       0.79171000       0.27027000 </v>
   <v>       0.25000000       0.50000000       0.52367000 </v>
   <v>       0.75000000       0.50000000       0.47633000 </v>
  </varray>
 </structure>
</modeling>
