       N       E                     dE             d eps       ncg     rms          rms(c)
DAV:   1     0.311989011225E+02    0.31199E+02   -0.15422E+04 16800   0.602E+02
DAV:   2    -0.938532690473E+02   -0.12505E+03   -0.11806E+03 23664   0.132E+02
DAV:   3    -0.975969725739E+02   -0.37437E+01   -0.37271E+01 23976   0.209E+01
DAV:   4    -0.976184479952E+02   -0.21475E-01   -0.21474E-01 21672   0.176E+00
DAV:   5    -0.976186999582E+02   -0.25196E-03   -0.25196E-03 23664   0.188E-01    0.123E+01
DAV:   6    -0.922051003870E+02    0.54136E+01   -0.39490E+00 24192   0.655E+00    0.679E+00
DAV:   7    -0.905543909051E+02    0.16507E+01   -0.32117E+00 25176   0.583E+00    0.171E+00
DAV:   8    -0.905665604506E+02   -0.12170E-01   -0.23090E-01 18648   0.162E+00    0.710E-01
DAV:   9    -0.905807621176E+02   -0.14202E-01   -0.16883E-02 23448   0.432E-01    0.199E-01
DAV:  10    -0.905847577243E+02   -0.39956E-02   -0.20594E-03 19368   0.158E-01    0.612E-02
DAV:  11    -0.905858446403E+02   -0.10869E-02   -0.63931E-04 21192   0.851E-02    0.323E-02
DAV:  12    -0.905859589170E+02   -0.11428E-03   -0.89498E-05 21072   0.344E-02    0.431E-03
DAV:  13    -0.905859635919E+02   -0.46749E-05   -0.38321E-06 23400   0.778E-03    0.185E-03
DAV:  14    -0.905859642370E+02   -0.64511E-06   -0.25915E-07 20640   0.197E-03
   1 F= -.90585964E+02 E0= -.90584358E+02  d E =-.321339E-02
