   14   14    1    1
  0.1021960E+02  0.5697000E-09  0.4047900E-09  0.6204200E-09  0.5000000E-15
  1.000000000000000E-004
  CAR 
 Kpoints                                 
     42    864     48
 
  0.0000000E+00  0.2083333E-01  0.3125000E-01  0.6127451E-03
      1        -12.731674   1.000000
      2        -11.576631   1.000000
      3         -8.662312   1.000000
      4         -8.422336   1.000000
      5         -6.088904   1.000000
      6         -5.080576   1.000000
      7         -4.615049   1.000000
      8         -4.343221   1.000000
      9         -3.995486   1.000000
     10         -3.591839   1.000000
     11         -2.431399   1.000000
     12         -2.381518   1.000000
     13         -1.984917   1.000000
     14         -1.059934   1.000000
     15         -0.041162   1.000000
     16         -0.015890   1.000000
     17          0.128523   1.000000
     18          0.181040   1.000000
     19          0.547174   1.000000
     20          2.061176   0.000001
     21          2.109215   0.000000
     22          2.245959   0.000000
     23          5.424174   0.000000
     24          5.776963   0.000000
     25          5.840424   0.000000
     26          5.899209   0.000000
     27          6.811670   0.000000
     28          7.684428   0.000000
     29          7.713010   0.000000
     30          8.596905   0.000000
     31          8.745358   0.000000
     32          8.906701   0.000000
     33          9.048216   0.000000
     34         10.067380   0.000000
     35         11.154627   0.000000
     36         11.392894   0.000000
     37         11.726845   0.000000
     38         11.809451   0.000000
     39         11.895582   0.000000
     40         12.375091   0.000000
     41         12.820039   0.000000
     42         13.366575   0.000000
     43         13.597456   0.000000
     44         15.532540   0.000000
     45         15.565642   0.000000
     46         15.902871   0.000000
     47         16.354017   0.000000
     48         16.496367   0.000000
 
  0.5882353E-01  0.2083333E-01  0.3125000E-01  0.1225490E-02
      1        -12.724056   1.000000
      2        -11.589843   1.000000
      3         -8.659357   1.000000
      4         -8.419729   1.000000
      5         -6.073666   1.000000
      6         -5.169877   1.000000
      7         -4.663961   1.000000
      8         -4.226975   1.000000
      9         -3.983357   1.000000
     10         -3.517938   1.000000
     11         -2.443252   1.000000
     12         -2.378182   1.000000
     13         -1.999936   1.000000
     14         -1.117287   1.000000
     15         -0.045679   1.000000
     16          0.006993   1.000000
     17          0.132422   1.000000
     18          0.164594   1.000000
     19          0.530118   1.000000
     20          2.033850   0.000037
     21          2.106827   0.000000
     22          2.224452   0.000000
     23          5.440280   0.000000
     24          5.767339   0.000000
     25          5.815300   0.000000
     26          6.001947   0.000000
     27          6.794717   0.000000
     28          7.486480   0.000000
     29          7.874518   0.000000
     30          8.623704   0.000000
     31          8.806947   0.000000
     32          8.954514   0.000000
     33          9.057149   0.000000
     34         10.087827   0.000000
     35         11.166702   0.000000
     36         11.318721   0.000000
     37         11.601163   0.000000
     38         11.766034   0.000000
     39         11.936051   0.000000
     40         12.390242   0.000000
     41         12.906467   0.000000
     42         13.466474   0.000000
     43         13.557536   0.000000
     44         15.308144   0.000000
     45         15.605069   0.000000
     46         16.056473   0.000000
     47         16.300103   0.000000
     48         16.376971   0.000000
 
  0.1176471E+00  0.2083333E-01  0.3125000E-01  0.1225490E-02
      1        -12.701296   1.000000
      2        -11.628496   1.000000
      3         -8.650026   1.000000
      4         -8.412632   1.000000
      5         -6.036472   1.000000
      6         -5.353790   1.000000
      7         -4.751308   1.000000
      8         -4.001997   1.000000
      9         -3.927184   1.000000
     10         -3.330044   1.000000
     11         -2.480635   1.000000
     12         -2.368055   1.000000
     13         -2.039982   1.000000
     14         -1.280653   1.000000
     15         -0.038522   1.000000
     16          0.038575   1.000000
     17          0.099059   1.000000
     18          0.172580   1.000000
     19          0.479282   1.000000
     20          1.970447   0.015051
     21          2.084048   0.000000
     22          2.160190   0.000000
     23          5.483571   0.000000
     24          5.761209   0.000000
     25          5.832875   0.000000
     26          6.195156   0.000000
     27          6.747038   0.000000
     28          7.268581   0.000000
     29          8.005438   0.000000
     30          8.697720   0.000000
     31          8.955838   0.000000
     32          9.055066   0.000000
     33          9.126369   0.000000
     34         10.151655   0.000000
     35         11.107938   0.000000
     36         11.204515   0.000000
     37         11.304147   0.000000
     38         11.700188   0.000000
     39         12.050435   0.000000
     40         12.435818   0.000000
     41         13.080286   0.000000
     42         13.317864   0.000000
     43         13.824066   0.000000
     44         14.979016   0.000000
     45         15.707704   0.000000
     46         15.982964   0.000000
     47         16.228913   0.000000
     48         16.446694   0.000000
 
  0.1764706E+00  0.2083333E-01  0.3125000E-01  0.1225490E-02
      1        -12.663731   1.000000
      2        -11.689846   1.000000
      3         -8.633355   1.000000
      4         -8.403101   1.000000
      5         -6.002291   1.000000
      6         -5.548199   1.000000
      7         -4.805162   1.000000
      8         -3.911707   1.000000
      9         -3.671242   1.000000
     10         -3.080568   1.000000
     11         -2.547404   1.000000
     12         -2.350713   1.000000
     13         -2.092732   1.000000
     14         -1.528074   1.000000
     15         -0.046350   1.000000
     16         -0.008518   1.000000
     17          0.128816   1.000000
     18          0.196809   1.000000
     19          0.409218   1.000000
     20          1.887413   0.571349
     21          2.029763   0.000060
     22          2.058288   0.000002
     23          5.540175   0.000000
     24          5.747515   0.000000
     25          5.940601   0.000000
     26          6.443917   0.000000
     27          6.677361   0.000000
     28          7.070102   0.000000
     29          8.108611   0.000000
     30          8.799525   0.000000
     31          9.023426   0.000000
     32          9.201049   0.000000
     33          9.351320   0.000000
     34         10.269641   0.000000
     35         10.792918   0.000000
     36         10.949751   0.000000
     37         11.264853   0.000000
     38         11.694105   0.000000
     39         12.207250   0.000000
     40         12.526247   0.000000
     41         13.039559   0.000000
     42         13.170519   0.000000
     43         14.208545   0.000000
     44         14.766100   0.000000
     45         15.648768   0.000000
     46         15.850899   0.000000
     47         16.257120   0.000000
     48         16.516556   0.000000
 
  0.2352941E+00  0.2083333E-01  0.3125000E-01  0.1225490E-02
      1        -12.611937   1.000000
      2        -11.769831   1.000000
      3         -8.608717   1.000000
      4         -8.394103   1.000000
      5         -6.002335   1.000000
      6         -5.722686   1.000000
      7         -4.773032   1.000000
      8         -3.837054   1.000000
      9         -3.369233   1.000000
     10         -2.806928   1.000000
     11         -2.641769   1.000000
     12         -2.325904   1.000000
     13         -2.145860   1.000000
     14         -1.830548   1.000000
     15         -0.187512   1.000000
     16          0.024227   1.000000
     17          0.142965   1.000000
     18          0.193069   1.000000
     19          0.398778   1.000000
     20          1.796014   0.997153
     21          1.901787   0.410312
     22          1.968884   0.016812
     23          5.590930   0.000000
     24          5.743909   0.000000
     25          6.134162   0.000000
     26          6.597638   0.000000
     27          6.730651   0.000000
     28          6.909229   0.000000
     29          8.197503   0.000000
     30          8.882745   0.000000
     31          8.992606   0.000000
     32          9.435989   0.000000
     33          9.637763   0.000000
     34         10.388182   0.000000
     35         10.470483   0.000000
     36         10.631667   0.000000
     37         11.335429   0.000000
     38         11.778960   0.000000
     39         12.331676   0.000000
     40         12.693933   0.000000
     41         12.722393   0.000000
     42         13.041714   0.000000
     43         14.596360   0.000000
     44         14.792546   0.000000
     45         15.314536   0.000000
     46         15.987440   0.000000
     47         16.096604   0.000000
     48         16.304978   0.000000
 
  0.2941176E+00  0.2083333E-01  0.3125000E-01  0.1225490E-02
      1        -12.546741   1.000000
      2        -11.863662   1.000000
      3         -8.576564   1.000000
      4         -8.389136   1.000000
      5         -6.044767   1.000000
      6         -5.867645   1.000000
      7         -4.635586   1.000000
      8         -3.745398   1.000000
      9         -3.084965   1.000000
     10         -2.779718   1.000000
     11         -2.514274   1.000000
     12         -2.310728   1.000000
     13         -2.195900   1.000000
     14         -2.128153   1.000000
     15         -0.359158   1.000000
     16         -0.039285   1.000000
     17          0.099540   1.000000
     18          0.249082   1.000000
     19          0.478607   1.000000
     20          1.702537   1.000000
     21          1.732151   0.999998
     22          1.881573   0.634945
     23          5.623583   0.000000
     24          5.759614   0.000000
     25          6.402899   0.000000
     26          6.523603   0.000000
     27          6.755168   0.000000
     28          7.077582   0.000000
     29          8.276633   0.000000
     30          8.860544   0.000000
     31          8.933247   0.000000
     32          9.688532   0.000000
     33          9.940220   0.000000
     34          9.972101   0.000000
     35         10.409390   0.000000
     36         10.771805   0.000000
     37         11.382652   0.000000
     38         11.948819   0.000000
     39         12.340346   0.000000
     40         12.393831   0.000000
     41         12.729080   0.000000
     42         13.002297   0.000000
     43         14.796103   0.000000
     44         15.022358   0.000000
     45         15.108545   0.000000
     46         15.743527   0.000000
     47         15.811796   0.000000
     48         16.205504   0.000000
 
  0.3529412E+00  0.2083333E-01  0.3125000E-01  0.1225490E-02
      1        -12.469278   1.000000
      2        -11.966402   1.000000
      3         -8.538759   1.000000
      4         -8.391645   1.000000
      5         -6.103551   1.000000
      6         -5.984105   1.000000
      7         -4.408653   1.000000
      8         -3.636634   1.000000
      9         -2.921994   1.000000
     10         -2.910100   1.000000
     11         -2.482838   1.000000
     12         -2.284962   1.000000
     13         -2.218819   1.000000
     14         -2.144195   1.000000
     15         -0.539219   1.000000
     16         -0.241092   1.000000
     17          0.154396   1.000000
     18          0.291951   1.000000
     19          0.600578   1.000000
     20          1.523436   1.000000
     21          1.644358   1.000000
     22          1.790645   0.998232
     23          5.648621   0.000000
     24          5.776574   0.000000
     25          6.470107   0.000000
     26          6.649764   0.000000
     27          6.735194   0.000000
     28          7.431898   0.000000
     29          8.348476   0.000000
     30          8.720988   0.000000
     31          8.789405   0.000000
     32          9.515966   0.000000
     33          9.952152   0.000000
     34         10.246405   0.000000
     35         10.419439   0.000000
     36         11.158200   0.000000
     37         11.372177   0.000000
     38         11.965675   0.000000
     39         12.175944   0.000000
     40         12.256631   0.000000
     41         12.565938   0.000000
     42         13.256161   0.000000
     43         14.641867   0.000000
     44         15.026809   0.000000
     45         15.243238   0.000000
     46         15.400033   0.000000
     47         15.522180   0.000000
     48         16.342503   0.000000
 
  0.4117647E+00  0.2083333E-01  0.3125000E-01  0.1225490E-02
      1        -12.381045   1.000000
      2        -12.073374   1.000000
      3         -8.498522   1.000000
      4         -8.404160   1.000000
      5         -6.147250   1.000000
      6         -6.073885   1.000000
      7         -4.118390   1.000000
      8         -3.512378   1.000000
      9         -3.089226   1.000000
     10         -3.073702   1.000000
     11         -2.480367   1.000000
     12         -2.291871   1.000000
     13         -2.088740   1.000000
     14         -1.981094   1.000000
     15         -0.690569   1.000000
     16         -0.460357   1.000000
     17          0.214901   1.000000
     18          0.311455   1.000000
     19          0.750396   1.000000
     20          1.317678   1.000000
     21          1.604968   1.000000
     22          1.706377   1.000000
     23          5.678926   0.000000
     24          5.774682   0.000000
     25          6.448630   0.000000
     26          6.565450   0.000000
     27          7.117220   0.000000
     28          7.807442   0.000000
     29          8.395087   0.000000
     30          8.418141   0.000000
     31          8.675002   0.000000
     32          9.074221   0.000000
     33         10.219203   0.000000
     34         10.492208   0.000000
     35         10.610136   0.000000
     36         11.303926   0.000000
     37         11.588310   0.000000
     38         11.624043   0.000000
     39         11.898008   0.000000
     40         12.436152   0.000000
     41         12.589189   0.000000
     42         13.341092   0.000000
     43         14.519395   0.000000
     44         14.806845   0.000000
     45         15.032623   0.000000
     46         15.098683   0.000000
     47         15.854038   0.000000
     48         16.423350   0.000000
 
  0.4705882E+00  0.2083333E-01  0.3125000E-01  0.1225490E-02
      1        -12.283957   1.000000
      2        -12.180410   1.000000
      3         -8.459993   1.000000
      4         -8.427425   1.000000
      5         -6.158883   1.000000
      6         -6.133753   1.000000
      7         -3.786815   1.000000
      8         -3.434686   1.000000
      9         -3.372915   1.000000
     10         -3.226850   1.000000
     11         -2.397664   1.000000
     12         -2.337484   1.000000
     13         -1.945958   1.000000
     14         -1.887473   1.000000
     15         -0.744295   1.000000
     16         -0.651280   1.000000
     17          0.267820   1.000000
     18          0.302704   1.000000
     19          0.923184   1.000000
     20          1.114428   1.000000
     21          1.603971   1.000000
     22          1.640396   1.000000
     23          5.715448   0.000000
     24          5.751152   0.000000
     25          6.461094   0.000000
     26          6.501930   0.000000
     27          7.532328   0.000000
     28          7.946137   0.000000
     29          8.244101   0.000000
     30          8.492485   0.000000
     31          8.575399   0.000000
     32          8.646231   0.000000
     33         10.463682   0.000000
     34         10.598390   0.000000
     35         10.881458   0.000000
     36         11.203517   0.000000
     37         11.353820   0.000000
     38         11.563786   0.000000
     39         12.074957   0.000000
     40         12.395768   0.000000
     41         12.814621   0.000000
     42         13.136831   0.000000
     43         14.566064   0.000000
     44         14.650831   0.000000
     45         14.869335   0.000000
     46         14.921004   0.000000
     47         16.164039   0.000000
     48         16.371751   0.000000
 
  0.0000000E+00  0.6250000E-01  0.3125000E-01  0.6127451E-03
      1        -12.723343   1.000000
      2        -11.569146   1.000000
      3         -8.655784   1.000000
      4         -8.414293   1.000000
      5         -6.079706   1.000000
      6         -5.067877   1.000000
      7         -4.607170   1.000000
      8         -4.382731   1.000000
      9         -4.147795   1.000000
     10         -3.583118   1.000000
     11         -2.853590   1.000000
     12         -2.158743   1.000000
     13         -1.525268   1.000000
     14         -1.058329   1.000000
     15         -0.135558   1.000000
     16         -0.118211   1.000000
     17          0.133530   1.000000
     18          0.221522   1.000000
     19          0.583654   1.000000
     20          1.950815   0.053320
     21          2.017606   0.000230
     22          2.278233   0.000000
     23          5.513266   0.000000
     24          5.720879   0.000000
     25          5.818637   0.000000
     26          5.898578   0.000000
     27          6.917183   0.000000
     28          7.785244   0.000000
     29          7.821254   0.000000
     30          8.367901   0.000000
     31          8.752009   0.000000
     32          9.001269   0.000000
     33          9.068973   0.000000
     34         10.265995   0.000000
     35         11.232033   0.000000
     36         11.367897   0.000000
     37         11.701948   0.000000
     38         11.843558   0.000000
     39         11.932956   0.000000
     40         12.474790   0.000000
     41         12.822278   0.000000
     42         13.259691   0.000000
     43         13.484700   0.000000
     44         15.489623   0.000000
     45         15.521178   0.000000
     46         15.915157   0.000000
     47         16.288823   0.000000
     48         16.292871   0.000000
 
  0.5882353E-01  0.6250000E-01  0.3125000E-01  0.1225490E-02
      1        -12.715727   1.000000
      2        -11.582348   1.000000
      3         -8.652814   1.000000
      4         -8.411713   1.000000
      5         -6.064365   1.000000
      6         -5.158205   1.000000
      7         -4.656589   1.000000
      8         -4.296466   1.000000
      9         -4.104629   1.000000
     10         -3.509413   1.000000
     11         -2.865206   1.000000
     12         -2.155128   1.000000
     13         -1.542139   1.000000
     14         -1.115653   1.000000
     15         -0.141879   1.000000
     16         -0.094217   1.000000
     17          0.141359   1.000000
     18          0.203532   1.000000
     19          0.566443   1.000000
     20          1.927061   0.173197
     21          2.012289   0.000401
     22          2.255796   0.000000
     23          5.529779   0.000000
     24          5.703840   0.000000
     25          5.854793   0.000000
     26          5.947086   0.000000
     27          6.900328   0.000000
     28          7.594132   0.000000
     29          7.975245   0.000000
     30          8.395211   0.000000
     31          8.817260   0.000000
     32          9.047782   0.000000
     33          9.081456   0.000000
     34         10.275724   0.000000
     35         11.238391   0.000000
     36         11.298215   0.000000
     37         11.575257   0.000000
     38         11.801619   0.000000
     39         11.973708   0.000000
     40         12.489179   0.000000
     41         12.909661   0.000000
     42         13.356648   0.000000
     43         13.450108   0.000000
     44         15.322525   0.000000
     45         15.524520   0.000000
     46         16.005845   0.000000
     47         16.194165   0.000000
     48         16.335487   0.000000
 
  0.1176471E+00  0.6250000E-01  0.3125000E-01  0.1225490E-02
      1        -12.692984   1.000000
      2        -11.620979   1.000000
      3         -8.643442   1.000000
      4         -8.404701   1.000000
      5         -6.026845   1.000000
      6         -5.343003   1.000000
      7         -4.744193   1.000000
      8         -4.198947   1.000000
      9         -3.921260   1.000000
     10         -3.322617   1.000000
     11         -2.899359   1.000000
     12         -2.144248   1.000000
     13         -1.588913   1.000000
     14         -1.278797   1.000000
     15         -0.135596   1.000000
     16         -0.059028   1.000000
     17          0.136112   1.000000
     18          0.184924   1.000000
     19          0.515095   1.000000
     20          1.867590   0.770498
     21          1.987545   0.003997
     22          2.188782   0.000000
     23          5.573654   0.000000
     24          5.729183   0.000000
     25          5.856326   0.000000
     26          6.123962   0.000000
     27          6.852974   0.000000
     28          7.382160   0.000000
     29          8.100728   0.000000
     30          8.471496   0.000000
     31          8.969434   0.000000
     32          9.118816   0.000000
     33          9.192409   0.000000
     34         10.305608   0.000000
     35         11.078358   0.000000
     36         11.276212   0.000000
     37         11.281550   0.000000
     38         11.747678   0.000000
     39         12.088739   0.000000
     40         12.532788   0.000000
     41         13.086775   0.000000
     42         13.207196   0.000000
     43         13.714213   0.000000
     44         15.015694   0.000000
     45         15.607120   0.000000
     46         15.950604   0.000000
     47         16.095369   0.000000
     48         16.442876   0.000000
 
  0.1764706E+00  0.6250000E-01  0.3125000E-01  0.1225490E-02
      1        -12.655445   1.000000
      2        -11.682284   1.000000
      3         -8.626715   1.000000
      4         -8.395288   1.000000
      5         -5.992127   1.000000
      6         -5.537655   1.000000
      7         -4.798576   1.000000
      8         -4.133714   1.000000
      9         -3.641500   1.000000
     10         -3.083986   1.000000
     11         -2.946272   1.000000
     12         -2.126030   1.000000
     13         -1.656562   1.000000
     14         -1.525459   1.000000
     15         -0.119105   1.000000
     16         -0.067121   1.000000
     17          0.107379   1.000000
     18          0.212797   1.000000
     19          0.441019   1.000000
     20          1.787238   0.998707
     21          1.937241   0.109432
     22          2.079141   0.000000
     23          5.629223   0.000000
     24          5.787733   0.000000
     25          5.898554   0.000000
     26          6.364081   0.000000
     27          6.783980   0.000000
     28          7.194028   0.000000
     29          8.199644   0.000000
     30          8.579662   0.000000
     31          9.055205   0.000000
     32          9.264647   0.000000
     33          9.419661   0.000000
     34         10.359686   0.000000
     35         10.765193   0.000000
     36         10.930186   0.000000
     37         11.334910   0.000000
     38         11.762080   0.000000
     39         12.248826   0.000000
     40         12.616832   0.000000
     41         12.934289   0.000000
     42         13.181589   0.000000
     43         14.072146   0.000000
     44         14.836708   0.000000
     45         15.601987   0.000000
     46         15.788074   0.000000
     47         16.084922   0.000000
     48         16.540861   0.000000
 
  0.2352941E+00  0.6250000E-01  0.3125000E-01  0.1225490E-02
      1        -12.603692   1.000000
      2        -11.762209   1.000000
      3         -8.602013   1.000000
      4         -8.386441   1.000000
      5         -5.991613   1.000000
      6         -5.712086   1.000000
      7         -4.767110   1.000000
      8         -4.062067   1.000000
      9         -3.337600   1.000000
     10         -3.053019   1.000000
     11         -2.778363   1.000000
     12         -2.101430   1.000000
     13         -1.829204   1.000000
     14         -1.732101   1.000000
     15         -0.192699   1.000000
     16         -0.080656   1.000000
     17          0.133370   1.000000
     18          0.197654   1.000000
     19          0.412905   1.000000
     20          1.697652   1.000000
     21          1.861460   0.819609
     22          1.934581   0.124186
     23          5.674319   0.000000
     24          5.812852   0.000000
     25          6.073070   0.000000
     26          6.630876   0.000000
     27          6.708510   0.000000
     28          7.053647   0.000000
     29          8.285431   0.000000
     30          8.684220   0.000000
     31          9.041171   0.000000
     32          9.492284   0.000000
     33          9.707279   0.000000
     34         10.313063   0.000000
     35         10.467530   0.000000
     36         10.691257   0.000000
     37         11.395023   0.000000
     38         11.868432   0.000000
     39         12.383698   0.000000
     40         12.596764   0.000000
     41         12.800561   0.000000
     42         13.055126   0.000000
     43         14.414091   0.000000
     44         14.919131   0.000000
     45         15.331540   0.000000
     46         15.812982   0.000000
     47         16.003549   0.000000
     48         16.379905   0.000000
 
  0.2941176E+00  0.6250000E-01  0.3125000E-01  0.1225490E-02
      1        -12.538547   1.000000
      2        -11.855977   1.000000
      3         -8.569810   1.000000
      4         -8.381653   1.000000
      5         -6.033733   1.000000
      6         -5.856872   1.000000
      7         -4.630207   1.000000
      8         -3.976712   1.000000
      9         -3.149154   1.000000
     10         -3.047288   1.000000
     11         -2.498025   1.000000
     12         -2.171151   1.000000
     13         -2.045166   1.000000
     14         -1.812970   1.000000
     15         -0.352741   1.000000
     16         -0.106577   1.000000
     17          0.104585   1.000000
     18          0.201565   1.000000
     19          0.484397   1.000000
     20          1.609571   1.000000
     21          1.734462   0.999997
     22          1.798201   0.996565
     23          5.700052   0.000000
     24          5.841760   0.000000
     25          6.338208   0.000000
     26          6.631008   0.000000
     27          6.798001   0.000000
     28          7.088131   0.000000
     29          8.361459   0.000000
     30          8.721051   0.000000
     31          8.967813   0.000000
     32          9.731558   0.000000
     33          9.891717   0.000000
     34         10.025252   0.000000
     35         10.331882   0.000000
     36         10.840480   0.000000
     37         11.424578   0.000000
     38         12.052600   0.000000
     39         12.243847   0.000000
     40         12.457786   0.000000
     41         12.757236   0.000000
     42         13.071311   0.000000
     43         14.686275   0.000000
     44         15.029133   0.000000
     45         15.207669   0.000000
     46         15.613046   0.000000
     47         15.775880   0.000000
     48         16.268655   0.000000
 
  0.3529412E+00  0.6250000E-01  0.3125000E-01  0.1225490E-02
      1        -12.461141   1.000000
      2        -11.958642   1.000000
      3         -8.531958   1.000000
      4         -8.384336   1.000000
      5         -6.092403   1.000000
      6         -5.973128   1.000000
      7         -4.403633   1.000000
      8         -3.877404   1.000000
      9         -3.263482   1.000000
     10         -2.878413   1.000000
     11         -2.422425   1.000000
     12         -2.209784   1.000000
     13         -2.001308   1.000000
     14         -1.892100   1.000000
     15         -0.528265   1.000000
     16         -0.258509   1.000000
     17          0.115164   1.000000
     18          0.239160   1.000000
     19          0.604463   1.000000
     20          1.508970   1.000000
     21          1.573438   1.000000
     22          1.701228   1.000000
     23          5.722990   0.000000
     24          5.862901   0.000000
     25          6.580293   0.000000
     26          6.669305   0.000000
     27          6.743947   0.000000
     28          7.393361   0.000000
     29          8.429476   0.000000
     30          8.609945   0.000000
     31          8.842145   0.000000
     32          9.454136   0.000000
     33          9.979490   0.000000
     34         10.227111   0.000000
     35         10.419572   0.000000
     36         11.189679   0.000000
     37         11.384350   0.000000
     38         11.884821   0.000000
     39         12.255086   0.000000
     40         12.331768   0.000000
     41         12.629822   0.000000
     42         13.328598   0.000000
     43         14.684653   0.000000
     44         14.976677   0.000000
     45         15.169361   0.000000
     46         15.343655   0.000000
     47         15.629115   0.000000
     48         16.351939   0.000000
 
  0.4117647E+00  0.6250000E-01  0.3125000E-01  0.1225490E-02
      1        -12.372973   1.000000
      2        -12.065529   1.000000
      3         -8.491669   1.000000
      4         -8.397007   1.000000
      5         -6.136060   1.000000
      6         -6.062765   1.000000
      7         -4.113688   1.000000
      8         -3.765864   1.000000