  14  14   0   0
  0.7335012E+02  0.5700971E-09  0.6201871E-09  0.2904406E-08  0.5000000E-15
  1.000000000000000E-004
  CAR 
 Convergence                             
      5.71073590    -20.65374582  301     -4.84865229      1.00000000
    -20.654  0.0000E+00  0.0000E+00
    -20.566  0.0000E+00  0.0000E+00
    -20.478  0.0000E+00  0.0000E+00
    -20.390  0.0000E+00  0.0000E+00
    -20.302  0.0000E+00  0.0000E+00
    -20.214  0.0000E+00  0.0000E+00
    -20.126  0.0000E+00  0.0000E+00
    -20.039  0.0000E+00  0.0000E+00
    -19.951  0.0000E+00  0.0000E+00
    -19.863  0.0000E+00  0.0000E+00
    -19.775  0.0000E+00  0.0000E+00
    -19.687  0.1806E-10  0.1588E-11
    -19.599  0.1873E-04  0.1646E-05
    -19.511  0.6601E-01  0.5803E-02
    -19.423  0.2264E+01  0.2048E+00
    -19.336  0.5875E+01  0.7211E+00
    -19.248  0.4738E+01  0.1137E+01
    -19.160  0.3678E+01  0.1461E+01
    -19.072  0.2501E+01  0.1681E+01
    -18.984  0.3313E+01  0.1972E+01
    -18.896  0.2207E+01  0.2166E+01
    -18.808  0.2743E+01  0.2407E+01
    -18.720  0.2972E+01  0.2668E+01
    -18.632  0.2754E+01  0.2910E+01
    -18.545  0.4335E+01  0.3291E+01
    -18.457  0.4357E+01  0.3674E+01
    -18.369  0.2978E+01  0.3935E+01
    -18.281  0.7275E+00  0.3999E+01
    -18.193  0.7801E-02  0.4000E+01
    -18.105  0.4863E-06  0.4000E+01
    -18.017  0.9377E-13  0.4000E+01
    -17.929  0.0000E+00  0.4000E+01
    -17.842  0.0000E+00  0.4000E+01
    -17.754  0.0000E+00  0.4000E+01
    -17.666  0.0000E+00  0.4000E+01
    -17.578  0.0000E+00  0.4000E+01
    -17.490  0.0000E+00  0.4000E+01
    -17.402  0.0000E+00  0.4000E+01
    -17.314  0.0000E+00  0.4000E+01
    -17.226  0.0000E+00  0.4000E+01
    -17.138  0.0000E+00  0.4000E+01
    -17.051  0.0000E+00  0.4000E+01
    -16.963  0.0000E+00  0.4000E+01
    -16.875  0.0000E+00  0.4000E+01
    -16.787  0.0000E+00  0.4000E+01
    -16.699  0.0000E+00  0.4000E+01
    -16.611  0.0000E+00  0.4000E+01
    -16.523  0.0000E+00  0.4000E+01
    -16.435  0.0000E+00  0.4000E+01
    -16.348  0.0000E+00  0.4000E+01
    -16.260  0.0000E+00  0.4000E+01
    -16.172  0.0000E+00  0.4000E+01
    -16.084  0.0000E+00  0.4000E+01
    -15.996  0.0000E+00  0.4000E+01
    -15.908  0.0000E+00  0.4000E+01
    -15.820  0.1286E-13  0.4000E+01
    -15.732  0.1449E-06  0.4000E+01
    -15.644  0.4469E-02  0.4000E+01
    -15.557  0.8206E+00  0.4073E+01
    -15.469  0.4831E+01  0.4497E+01
    -15.381  0.8871E+01  0.5277E+01
    -15.293  0.7911E+01  0.5972E+01
    -15.205  0.4003E+01  0.6324E+01
    -15.117  0.4910E+01  0.6755E+01
    -15.029  0.7249E+01  0.7392E+01
    -14.941  0.3549E+01  0.7704E+01
    -14.854  0.2361E+01  0.7912E+01
    -14.766  0.9385E+00  0.7994E+01
    -14.678  0.6741E-01  0.8000E+01
    -14.590  0.3379E-04  0.8000E+01
    -14.502  0.4857E-10  0.8000E+01
    -14.414  0.0000E+00  0.8000E+01
    -14.326  0.0000E+00  0.8000E+01
    -14.238  0.0000E+00  0.8000E+01
    -14.151  0.0000E+00  0.8000E+01
    -14.063  0.0000E+00  0.8000E+01
    -13.975  0.0000E+00  0.8000E+01
    -13.887  0.1123E-15  0.8000E+01
    -13.799  0.4722E-08  0.8000E+01
    -13.711  0.5700E-03  0.8000E+01
    -13.623  0.2223E+00  0.8020E+01
    -13.535  0.7458E+00  0.8085E+01
    -13.447  0.3098E+00  0.8112E+01
    -13.360  0.1033E+01  0.8203E+01
    -13.272  0.1109E+01  0.8301E+01
    -13.184  0.8182E+00  0.8372E+01
    -13.096  0.1221E+01  0.8480E+01
    -13.008  0.1076E+01  0.8574E+01
    -12.920  0.2313E+01  0.8778E+01
    -12.832  0.5303E+01  0.9244E+01
    -12.744  0.2934E+01  0.9501E+01
    -12.657  0.2683E+01  0.9737E+01
    -12.569  0.2063E+01  0.9919E+01
    -12.481  0.1706E+01  0.1007E+02
    -12.393  0.3184E+01  0.1035E+02
    -12.305  0.2715E+01  0.1059E+02
    -12.217  0.3070E+01  0.1086E+02
    -12.129  0.2582E+01  0.1108E+02
    -12.041  0.2857E+01  0.1133E+02
    -11.953  0.3595E+01  0.1165E+02
    -11.866  0.1899E+01  0.1182E+02
    -11.778  0.3033E+01  0.1208E+02
    -11.690  0.3543E+01  0.1240E+02
    -11.602  0.4882E+01  0.1282E+02
    -11.514  0.6306E+01  0.1338E+02
    -11.426  0.6028E+01  0.1391E+02
    -11.338  0.3394E+01  0.1421E+02
    -11.250  0.4193E+01  0.1458E+02
    -11.163  0.6107E+01  0.1511E+02
    -11.075  0.2481E+01  0.1533E+02
    -10.987  0.4188E+01  0.1570E+02
    -10.899  0.3668E+01  0.1602E+02
    -10.811  0.6321E+01  0.1658E+02
    -10.723  0.4637E+01  0.1698E+02
    -10.635  0.3951E+01  0.1733E+02
    -10.547  0.5894E+01  0.1785E+02
    -10.459  0.3315E+01  0.1814E+02
    -10.372  0.2705E+01  0.1838E+02
    -10.284  0.3922E+01  0.1872E+02
    -10.196  0.1507E+01  0.1885E+02
    -10.108  0.2059E+01  0.1904E+02
    -10.020  0.3806E+01  0.1937E+02
     -9.932  0.1975E+01  0.1954E+02
     -9.844  0.9659E+00  0.1963E+02
     -9.756  0.3686E+01  0.1995E+02
     -9.669  0.3105E+01  0.2023E+02
     -9.581  0.1432E+01  0.2035E+02
     -9.493  0.4967E+00  0.2039E+02
     -9.405  0.2866E+01  0.2065E+02
     -9.317  0.3302E+01  0.2094E+02
     -9.229  0.4781E+01  0.2136E+02
     -9.141  0.1559E+01  0.2149E+02
     -9.053  0.7504E+00  0.2156E+02
     -8.965  0.3194E+01  0.2184E+02
     -8.878  0.1644E+01  0.2199E+02
     -8.790  0.8145E+00  0.2206E+02
     -8.702  0.2768E+01  0.2230E+02
     -8.614  0.3970E+01  0.2265E+02
     -8.526  0.2863E+01  0.2290E+02
     -8.438  0.2781E+01  0.2315E+02
     -8.350  0.3835E+01  0.2348E+02
     -8.262  0.2702E+01  0.2372E+02
     -8.175  0.2508E+01  0.2394E+02
     -8.087  0.4577E+01  0.2434E+02
     -7.999  0.5312E+01  0.2481E+02
     -7.911  0.5606E+01  0.2530E+02
     -7.823  0.5866E+01  0.2582E+02
     -7.735  0.6735E+01  0.2641E+02
     -7.647  0.7782E+01  0.2709E+02
     -7.559  0.5992E+01  0.2762E+02
     -7.472  0.8072E+01  0.2833E+02
     -7.384  0.9904E+01  0.2920E+02
     -7.296  0.6067E+01  0.2973E+02
     -7.208  0.5134E+01  0.3018E+02
     -7.120  0.5111E+01  0.3063E+02
     -7.032  0.3342E+01  0.3093E+02
     -6.944  0.4437E+01  0.3132E+02
     -6.856  0.2150E+01  0.3151E+02
     -6.768  0.2112E+01  0.3169E+02
     -6.681  0.5448E+01  0.3217E+02
     -6.593  0.1028E+02  0.3307E+02
     -6.505  0.3420E+01  0.3337E+02
     -6.417  0.3201E+01  0.3366E+02
     -6.329  0.6846E+01  0.3426E+02
     -6.241  0.5465E+01  0.3474E+02
     -6.153  0.5063E+01  0.3518E+02
     -6.065  0.4546E+01  0.3558E+02
     -5.978  0.4250E+01  0.3596E+02
     -5.890  0.4736E+01  0.3637E+02
     -5.802  0.3826E+01  0.3671E+02
     -5.714  0.4699E+01  0.3712E+02
     -5.626  0.5996E+01  0.3765E+02
     -5.538  0.3140E+01  0.3792E+02
     -5.450  0.3267E+01  0.3821E+02
     -5.362  0.3165E+01  0.3849E+02
     -5.274  0.2272E+01  0.3869E+02
     -5.187  0.7012E+01  0.3930E+02
     -5.099  0.7643E+01  0.3998E+02
     -5.011  0.6288E+01  0.4053E+02
     -4.923  0.7118E+01  0.4115E+02
     -4.835  0.1158E+02  0.4217E+02
     -4.747  0.8096E+01  0.4288E+02
     -4.659  0.8149E+00  0.4296E+02
     -4.571  0.1302E+01  0.4307E+02
     -4.484  0.2216E+01  0.4326E+02
     -4.396  0.1063E+01  0.4336E+02
     -4.308  0.2296E+00  0.4338E+02
     -4.220  0.4906E+00  0.4342E+02
     -4.132  0.5136E+00  0.4347E+02
     -4.044  0.4768E+00  0.4351E+02
     -3.956  0.5283E+00  0.4355E+02
     -3.868  0.1974E-01  0.4356E+02
     -3.780  0.5876E+00  0.4361E+02
     -3.693  0.1264E+01  0.4372E+02
     -3.605  0.1147E+01  0.4382E+02
     -3.517  0.2399E-01  0.4382E+02
     -3.429  0.2374E-05  0.4382E+02
     -3.341  0.1857E-03  0.4382E+02
     -3.253  0.1422E+00  0.4383E+02
     -3.165  0.7887E+00  0.4390E+02
     -3.077  0.8097E-01  0.4391E+02
     -2.990  0.2330E+00  0.4393E+02
     -2.902  0.7373E+00  0.4400E+02
     -2.814  0.5165E-01  0.4400E+02
     -2.726  0.8416E+00  0.4407E+02
     -2.638  0.3018E+01  0.4434E+02
     -2.550  0.4010E+01  0.4469E+02
     -2.462  0.5231E+01  0.4515E+02
     -2.374  0.5754E+01  0.4566E+02
     -2.286  0.4240E+01  0.4603E+02
     -2.199  0.3267E+01  0.4632E+02
     -2.111  0.4556E+01  0.4672E+02
     -2.023  0.4965E+01  0.4715E+02
     -1.935  0.3899E+01  0.4750E+02
     -1.847  0.3451E+01  0.4780E+02
     -1.759  0.2567E+01  0.4803E+02
     -1.671  0.1723E+01  0.4818E+02
     -1.583  0.2471E+01  0.4839E+02
     -1.496  0.2830E+01  0.4864E+02
     -1.408  0.2693E+01  0.4888E+02
     -1.320  0.2962E+01  0.4914E+02
     -1.232  0.2376E+01  0.4935E+02
     -1.144  0.1961E+01  0.4952E+02
     -1.056  0.2877E+01  0.4977E+02
     -0.968  0.2777E+01  0.5002E+02
     -0.880  0.1340E+01  0.5014E+02
     -0.793  0.4867E+01  0.5056E+02
     -0.705  0.4902E+01  0.5099E+02
     -0.617  0.4429E+01  0.5138E+02
     -0.529  0.4492E+01  0.5178E+02
     -0.441  0.4513E+01  0.5217E+02
     -0.353  0.4428E+01  0.5256E+02
     -0.265  0.6091E+01  0.5310E+02
     -0.177  0.7225E+01  0.5373E+02
     -0.089  0.5552E+01  0.5422E+02
     -0.002  0.2905E+01  0.5448E+02
      0.086  0.4002E+01  0.5483E+02
      0.174  0.3853E+01  0.5517E+02
      0.262  0.3027E+01  0.5543E+02
      0.350  0.4485E+01  0.5583E+02
      0.438  0.3724E+01  0.5616E+02
      0.526  0.3061E+01  0.5642E+02
      0.614  0.4285E+01  0.5680E+02
      0.701  0.4083E+01  0.5716E+02
      0.789  0.5660E+01  0.5766E+02
      0.877  0.9739E+01  0.5851E+02
      0.965  0.5441E+01  0.5899E+02
      1.053  0.9429E+01  0.5982E+02
      1.141  0.9906E+01  0.6069E+02
      1.229  0.7853E+01  0.6138E+02
      1.317  0.6228E+01  0.6193E+02
      1.405  0.6002E+01  0.6246E+02
      1.492  0.7529E+01  0.6312E+02
      1.580  0.9049E+01  0.6391E+02
      1.668  0.8364E+01  0.6465E+02
      1.756  0.7443E+01  0.6530E+02
      1.844  0.8835E+01  0.6608E+02
      1.932  0.1345E+02  0.6726E+02
      2.020  0.1122E+02  0.6825E+02
      2.108  0.1334E+02  0.6942E+02
      2.195  0.1284E+02  0.7055E+02
      2.283  0.1528E+02  0.7189E+02
      2.371  0.1398E+02  0.7312E+02
      2.459  0.1525E+02  0.7446E+02
      2.547  0.1487E+02  0.7576E+02
      2.635  0.1544E+02  0.7712E+02
      2.723  0.1385E+02  0.7834E+02
      2.811  0.1055E+02  0.7927E+02
      2.899  0.1434E+02  0.8053E+02
      2.986  0.1324E+02  0.8169E+02
      3.074  0.1706E+02  0.8319E+02
      3.162  0.1496E+02  0.8450E+02
      3.250  0.1183E+02  0.8554E+02
      3.338  0.1222E+02  0.8662E+02
      3.426  0.1854E+02  0.8825E+02
      3.514  0.1982E+02  0.8999E+02
      3.602  0.1607E+02  0.9140E+02
      3.689  0.1535E+02  0.9275E+02
      3.777  0.1167E+02  0.9378E+02
      3.865  0.8495E+01  0.9452E+02
      3.953  0.5190E+01  0.9498E+02
      4.041  0.3258E+01  0.9526E+02
      4.129  0.2482E+01  0.9548E+02
      4.217  0.1146E+01  0.9558E+02
      4.305  0.2586E+01  0.9581E+02
      4.393  0.1303E+01  0.9593E+02
      4.480  0.4270E+00  0.9596E+02
      4.568  0.3934E+00  0.9600E+02
      4.656  0.2874E-01  0.9600E+02
      4.744  0.1202E-04  0.9600E+02
      4.832  0.1425E-10  0.9600E+02
      4.920  0.0000E+00  0.9600E+02
      5.008  0.0000E+00  0.9600E+02
      5.096  0.0000E+00  0.9600E+02
      5.183  0.0000E+00  0.9600E+02
      5.271  0.0000E+00  0.9600E+02
      5.359  0.0000E+00  0.9600E+02
      5.447  0.0000E+00  0.9600E+02
      5.535  0.0000E+00  0.9600E+02
      5.623  0.0000E+00  0.9600E+02
      5.711  0.0000E+00  0.9600E+02
