   14   14    1    1
  0.7335012E+02  0.5700971E-09  0.6201871E-09  0.2904406E-08  0.5000000E-15
  1.000000000000000E-004
  CAR 
 Convergence                             
     42     25     48
 
  0.5000000E-01  0.0000000E+00  0.0000000E+00  0.2222222E-01
      1        -19.455360   1.000000
      2        -18.362227   1.000000
      3        -15.383103   1.000000
      4        -15.124973   1.000000
      5        -12.737163   1.000000
      6        -11.860542   1.000000
      7        -11.840125   1.000000
      8        -11.454391   1.000000
      9        -11.050909   1.000000
     10        -10.259081   1.000000
     11        -10.203375   1.000000
     12         -7.916351   1.000000
     13         -7.770469   1.000000
     14         -7.754859   1.000000
     15         -6.783851   1.000000
     16         -6.723310   1.000000
     17         -6.134255   1.000000
     18         -5.801876   1.000000
     19         -5.722247   1.000000
     20         -5.232871   1.000000
     21         -4.799896   0.083942
     22         -4.508571   0.000000
     23         -2.738503   0.000000
     24         -1.793166   0.000000
     25         -1.774354   0.000000
     26         -1.634366   0.000000
     27         -0.616216   0.000000
     28         -0.256947   0.000000
     29          0.264248   0.000000
     30          0.890467   0.000000
     31          0.948990   0.000000
     32          1.243321   0.000000
     33          1.268109   0.000000
     34          1.830404   0.000000
     35          1.896104   0.000000
     36          2.093945   0.000000
     37          2.104011   0.000000
     38          2.495449   0.000000
     39          2.610367   0.000000
     40          2.630903   0.000000
     41          2.930137   0.000000
     42          3.336155   0.000000
     43          3.677308   0.000000
     44          4.080826   0.000000
     45          4.092287   0.000000
     46          4.195610   0.000000
     47          4.290637   0.000000
     48          4.512350   0.000000
 
  0.1500000E+00  0.0000000E+00  0.0000000E+00  0.2222222E-01
      1        -19.413067   1.000000
      2        -18.431886   1.000000
      3        -15.362730   1.000000
      4        -15.115308   1.000000
      5        -12.668754   1.000000
      6        -12.210870   1.000000
      7        -11.782281   1.000000
      8        -11.568802   1.000000
      9        -10.584309   1.000000
     10        -10.369698   1.000000
     11         -9.872376   1.000000
     12         -8.212288   1.000000
     13         -7.724655   1.000000
     14         -7.700341   1.000000
     15         -6.925117   1.000000
     16         -6.677497   1.000000
     17         -6.247525   1.000000
     18         -5.890593   1.000000
     19         -5.825373   1.000000
     20         -5.209406   1.000000
     21         -4.808969   0.130845
     22         -4.650846   0.000000
     23         -2.686552   0.000000
     24         -1.839453   0.000000
     25         -1.679458   0.000000
     26         -1.288473   0.000000
     27         -0.659094   0.000000
     28         -0.142113   0.000000
     29          0.412026   0.000000
     30          0.842362   0.000000
     31          1.032109   0.000000
     32          1.333051   0.000000
     33          1.359636   0.000000
     34          1.660158   0.000000
     35          1.910598   0.000000
     36          2.174623   0.000000
     37          2.290489   0.000000
     38          2.667333   0.000000
     39          2.761325   0.000000
     40          2.764266   0.000000
     41          2.980950   0.000000
     42          3.328533   0.000000
     43          3.403926   0.000000
     44          3.659723   0.000000
     45          3.721914   0.000000
     46          4.050350   0.000000
     47          4.205484   0.000000
     48          4.405991   0.000000
 
  0.2500000E+00  0.0000000E+00  0.0000000E+00  0.2222222E-01
      1        -19.330351   1.000000
      2        -18.557867   1.000000
      3        -15.320001   1.000000
      4        -15.104290   1.000000
      5        -12.655065   1.000000
      6        -12.534883   1.000000
      7        -11.668742   1.000000
      8        -11.515663   1.000000
      9        -10.563945   1.000000
     10        -10.038117   1.000000
     11         -9.398353   1.000000
     12         -8.705741   1.000000
     13         -7.640501   1.000000
     14         -7.607619   1.000000
     15         -7.184823   1.000000
     16         -6.705716   1.000000
     17         -6.357966   1.000000
     18         -6.039030   1.000000
     19         -5.997678   1.000000
     20         -5.162803   1.000000
     21         -4.921739   0.980642
     22         -4.829455   0.293569
     23         -2.591096   0.000000
     24         -1.918917   0.000000
     25         -1.350269   0.000000
     26         -0.799852   0.000000
     27         -0.679467   0.000000
     28         -0.064630   0.000000
     29          0.656390   0.000000
     30          0.842567   0.000000
     31          1.199168   0.000000
     32          1.453476   0.000000
     33          1.495132   0.000000
     34          1.537885   0.000000
     35          2.049115   0.000000
     36          2.315525   0.000000
     37          2.508358   0.000000
     38          2.648145   0.000000
     39          2.798852   0.000000
     40          2.851180   0.000000
     41          2.938810   0.000000
     42          3.083673   0.000000
     43          3.175037   0.000000
     44          3.322357   0.000000
     45          3.605449   0.000000
     46          3.682997   0.000000
     47          3.954915   0.000000
     48          4.033103   0.000000
 
  0.3500000E+00  0.0000000E+00  0.0000000E+00  0.2222222E-01
      1        -19.211205   1.000000
      2        -18.719080   1.000000
      3        -15.258119   1.000000
      4        -15.106349   1.000000
      5        -12.760267   1.000000
      6        -12.750564   1.000000
      7        -11.504133   1.000000
      8        -11.181044   1.000000
      9        -10.804325   1.000000
     10         -9.633370   1.000000
     11         -9.153456   1.000000
     12         -8.903256   1.000000
     13         -7.537146   1.000000
     14         -7.513196   1.000000
     15         -7.505964   1.000000
     16         -7.027120   1.000000
     17         -6.221079   1.000000
     18         -6.198941   1.000000
     19         -6.181211   1.000000
     20         -5.265193   1.000000
     21         -5.096840   1.000000
     22         -4.877293   0.791053
     23         -2.464410   0.000000
     24         -2.033049   0.000000
     25         -0.819560   0.000000
     26         -0.627142   0.000000
     27         -0.214016   0.000000
     28         -0.146976   0.000000
     29          0.825145   0.000000
     30          0.949884   0.000000
     31          1.301349   0.000000
     32          1.447571   0.000000
     33          1.639792   0.000000
     34          1.801374   0.000000
     35          1.894952   0.000000
     36          2.185145   0.000000
     37          2.450061   0.000000
     38          2.476463   0.000000
     39          2.684339   0.000000
     40          2.739911   0.000000
     41          2.840629   0.000000
     42          2.969366   0.000000
     43          3.146219   0.000000
     44          3.438614   0.000000
     45          3.463140   0.000000
     46          3.516815   0.000000
     47          3.542355   0.000000
     48          3.890271   0.000000
 
  0.4500000E+00  0.0000000E+00  0.0000000E+00  0.2222222E-01
      1        -19.062244   1.000000
      2        -18.893465   1.000000
      3        -15.189966   1.000000
      4        -15.134631   1.000000
      5        -12.863790   1.000000
      6        -12.848356   1.000000
      7        -11.296194   1.000000
      8        -11.056954   1.000000
      9        -10.665241   1.000000
     10        -10.070290   1.000000
     11         -8.840463   1.000000
     12         -8.598983   1.000000
     13         -7.720741   1.000000
     14         -7.454328   1.000000
     15         -7.453331   1.000000
     16         -7.439849   1.000000
     17         -6.308241   1.000000
     18         -6.304689   1.000000
     19         -5.958486   1.000000
     20         -5.628306   1.000000
     21         -5.019899   0.999999
     22         -4.943027   0.996200
     23         -2.319735   0.000000
     24         -2.171118   0.000000
     25         -0.498708   0.000000
     26         -0.321617   0.000000
     27         -0.157338   0.000000
     28          0.437538   0.000000
     29          0.505536   0.000000
     30          1.080806   0.000000
     31          1.140683   0.000000
     32          1.189357   0.000000
     33          1.767031   0.000000
     34          1.834875   0.000000
     35          2.126873   0.000000
     36          2.147514   0.000000
     37          2.221356   0.000000
     38          2.472133   0.000000
     39          2.560862   0.000000
     40          2.630422   0.000000
     41          2.827109   0.000000
     42          2.927622   0.000000
     43          2.993999   0.000000
     44          3.177266   0.000000
     45          3.426689   0.000000
     46          3.439389   0.000000
     47          3.665121   0.000000
     48          3.876729   0.000000
 
  0.5000000E-01  0.1111111E+00  0.0000000E+00  0.4444444E-01
      1        -19.444954   1.000000
      2        -18.381039   1.000000
      3        -15.381418   1.000000
      4        -15.092819   1.000000
      5        -12.873880   1.000000
      6        -11.998800   1.000000
      7        -11.818303   1.000000
      8        -11.271933   1.000000
      9        -10.907306   1.000000
     10        -10.316832   1.000000
     11        -10.086127   1.000000
     12         -7.970076   1.000000
     13         -7.775071   1.000000
     14         -7.645830   1.000000
     15         -6.945563   1.000000
     16         -6.761916   1.000000
     17         -6.360850   1.000000
     18         -5.923716   1.000000
     19         -5.735294   1.000000
     20         -5.241126   1.000000
     21         -4.788417   0.044218
     22         -4.219048   0.000000
     23         -2.714995   0.000000
     24         -1.808075   0.000000
     25         -1.719322   0.000000
     26         -1.530687   0.000000
     27         -0.800447   0.000000
     28         -0.259497   0.000000
     29          0.367649   0.000000
     30          0.937374   0.000000
     31          1.135960   0.000000
     32          1.295029   0.000000
     33          1.311639   0.000000
     34          1.876832   0.000000
     35          1.912618   0.000000
     36          2.040452   0.000000
     37          2.196896   0.000000
     38          2.386843   0.000000
     39          2.675112   0.000000
     40          2.789086   0.000000
     41          2.967139   0.000000
     42          3.392867   0.000000
     43          3.511120   0.000000
     44          3.611978   0.000000
     45          3.872349   0.000000
     46          4.017274   0.000000
     47          4.266440   0.000000
     48          4.314657   0.000000
 
  0.1500000E+00  0.1111111E+00  0.0000000E+00  0.4444444E-01
      1        -19.403111   1.000000
      2        -18.446938   1.000000
      3        -15.385506   1.000000
      4        -15.074842   1.000000
      5        -12.844899   1.000000
      6        -12.104966   1.000000
      7        -11.761172   1.000000
      8        -11.518412   1.000000
      9        -10.523993   1.000000
     10        -10.413265   1.000000
     11         -9.746063   1.000000
     12         -8.262383   1.000000
     13         -7.842005   1.000000
     14         -7.503071   1.000000
     15         -7.006348   1.000000
     16         -6.784130   1.000000
     17         -6.435651   1.000000
     18         -6.116577   1.000000
     19         -5.686417   1.000000
     20         -5.214006   1.000000
     21         -4.802699   0.096844
     22         -4.422829   0.000000
     23         -2.672052   0.000000
     24         -1.853067   0.000000
     25         -1.618858   0.000000
     26         -1.245778   0.000000
     27         -0.810036   0.000000
     28         -0.070627   0.000000
     29          0.533827   0.000000
     30          0.918328   0.000000
     31          1.117211   0.000000
     32          1.386514   0.000000
     33          1.401199   0.000000
     34          1.642947   0.000000
     35          1.956123   0.000000
     36          2.135935   0.000000
     37          2.258102   0.000000
     38          2.580908   0.000000
     39          2.870441   0.000000
     40          2.974408   0.000000
     41          3.024743   0.000000
     42          3.118052   0.000000
     43          3.437547   0.000000
     44          3.452792   0.000000
     45          3.614474   0.000000
     46          3.955000   0.000000
     47          4.100529   0.000000
     48          4.275181   0.000000
 
  0.2500000E+00  0.1111111E+00  0.0000000E+00  0.4444444E-01
      1        -19.321361   1.000000
      2        -18.567146   1.000000
      3        -15.369459   1.000000
      4        -15.068406   1.000000
      5        -12.859621   1.000000
      6        -12.246277   1.000000
      7        -11.649221   1.000000
      8        -11.551668   1.000000
      9        -10.588185   1.000000
     10        -10.041295   1.000000
     11         -9.301805   1.000000
     12         -8.725993   1.000000
     13         -7.837068   1.000000
     14         -7.391063   1.000000
     15         -7.259446   1.000000
     16         -6.673676   1.000000
     17         -6.602978   1.000000
     18         -6.289239   1.000000
     19         -5.745366   1.000000
     20         -5.166284   1.000000
     21         -4.833659   0.335752
     22         -4.781302   0.028393
     23         -2.585786   0.000000
     24         -1.933550   0.000000
     25         -1.301904   0.000000
     26         -0.830512   0.000000
     27         -0.753511   0.000000
     28          0.096087   0.000000
     29          0.808544   0.000000
     30          0.836100   0.000000
     31          1.220762   0.000000
     32          1.431621   0.000000
     33          1.548694   0.000000
     34          1.603327   0.000000
     35          2.083022   0.000000
     36          2.327143   0.000000
     37          2.355510   0.000000
     38          2.430586   0.000000
     39          2.638899   0.000000
     40          2.931241   0.000000
     41          3.133066   0.000000
     42          3.170479   0.000000
     43          3.265497   0.000000
     44          3.316306   0.000000
     45          3.622024   0.000000
     46          3.746169   0.000000
     47          3.797402   0.000000
     48          4.003958   0.000000
 
  0.3500000E+00  0.1111111E+00  0.0000000E+00  0.4444444E-01
      1        -19.203826   1.000000
      2        -18.722531   1.000000
      3        -15.320213   1.000000
      4        -15.096486   1.000000
      5        -12.881818   1.000000
      6        -12.474920   1.000000
      7        -11.487443   1.000000
      8        -11.232546   1.000000
      9        -10.811841   1.000000
     10         -9.674870   1.000000
     11         -9.263152   1.000000
     12         -8.750439   1.000000
     13         -7.760706   1.000000
     14         -7.565528   1.000000
     15         -7.379036   1.000000
     16         -6.951606   1.000000
     17         -6.405087   1.000000
     18         -6.346597   1.000000
     19         -5.893454   1.000000
     20         -5.247326   1.000000
     21         -5.078819   1.000000
     22         -4.878770   0.802852
     23         -2.464510   0.000000
     24         -2.044388   0.000000
     25         -0.790501   0.000000
     26         -0.616057   0.000000
     27         -0.334826   0.000000
     28          0.036671   0.000000
     29          0.881242   0.000000
     30          1.010101   0.000000
     31          1.201829   0.000000
     32          1.546840   0.000000
     33          1.648898   0.000000
     34          1.754260   0.000000
     35          1.858837   0.000000
     36          2.218360   0.000000
     37          2.391485   0.000000
     38          2.558626   0.000000
     39          2.658596   0.000000
     40          2.704441   0.000000
     41          2.756503   0.000000
     42          3.035469   0.000000
     43          3.214207   0.000000
     44          3.439983   0.000000
     45          3.445700   0.000000
     46          3.486008   0.000000
     47          3.811089   0.000000
     48          3.839498   0.000000
 
  0.4500000E+00  0.1111111E+00  0.0000000E+00  0.4444444E-01
      1        -19.057326   1.000000
      2        -18.892104   1.000000
      3        -15.244037   1.000000
      4        -15.160975   1.000000
      5        -12.832214   1.000000
      6        -12.690014   1.000000
      7        -11.284230   1.000000
      8        -11.052632   1.000000
      9        -10.720385   1.000000
     10        -10.129322   1.000000
     11         -8.918990   1.000000
     12         -8.601360   1.000000
     13         -7.658931   1.000000
     14         -7.630639   1.000000
     15         -7.482120   1.000000
     16         -7.343581   1.000000
     17         -6.256892   1.000000
     18         -6.083250   1.000000
     19         -6.082613   1.000000
     20         -5.684976   1.000000
     21         -5.014470   0.999999
     22         -4.941808   0.995791
     23         -2.323392   0.000000
     24         -2.178407   0.000000
     25         -0.413808   0.000000
     26         -0.177320   0.000000
     27         -0.166907   0.000000
     28          0.127159   0.000000
     29          0.778093   0.000000
     30          0.997519   0.000000
     31          1.049471   0.000000
     32          1.103047   0.000000
     33          1.846442   0.000000
     34          1.877195   0.000000
     35          2.164469   0.000000
     36          2.217726   0.000000
     37          2.266751   0.000000
     38          2.524445   0.000000
     39          2.606803   0.000000
     40          2.660464   0.000000
     41          2.819004   0.000000
     42          2.977442   0.000000
     43          3.057737   0.000000
     44          3.082093   0.000000
     45          3.362894   0.000000
     46          3.522461   0.000000
     47          3.649081   0.000000
     48          3.711331   0.000000
 
  0.5000000E-01  0.2222222E+00  0.0000000E+00  0.4444444E-01
      1        -19.417077   1.000000
      2        -18.429891   1.000000
      3        -15.373732   1.000000
      4        -15.008489   1.000000
      5        -13.153835   1.000000
      6        -12.224425   1.000000
      7        -11.757109   1.000000
      8        -10.918347   1.000000
      9        -10.589435   1.000000
     10        -10.462097   1.000000
     11         -9.762086   1.000000
     12         -8.111641   1.000000
     13         -7.707388   1.000000
     14         -7.487186   1.000000
     15         -7.431672   1.000000
     16         -6.849546   1.000000
     17         -6.679552   1.000000
     18         -6.158659   1.000000
     19         -5.856792   1.000000
     20         -5.226047   1.000000
     21         -4.795384   0.065951
     22         -3.680098   0.000000
     23         -2.646738   0.000000
     24         -1.883551   0.000000
     25         -1.633893   0.000000
     26         -1.140206   0.000000
     27         -1.121374   0.000000
     28         -0.293112   0.000000
     29          0.647653   0.000000
     30          1.030682   0.000000
     31          1.426279   0.000000
     32          1.451592   0.000000
     33          1.516578   0.000000
     34          1.809655   0.000000
     35          2.014705   0.000000
     36          2.118821   0.000000
     37          2.323240   0.000000
     38          2.412989   0.000000
     39          2.814014   0.000000
     40          2.858882   0.000000
     41          2.926579   0.000000
     42          2.988253   0.000000
     43          3.101238   0.000000
     44          3.468416   0.000000
     45          3.582542   0.000000
     46          3.590005   0.000000
     47          3.729372   0.000000
     48          3.862290   0.000000
 
  0.1500000E+00  0.2222222E+00  0.0000000E+00  0.4444444E-01
      1        -19.376474   1.000000
      2        -18.486489   1.000000
      3        -15.418215   1.000000
      4        -14.998628   1.000000
      5        -13.091229   1.000000
      6        -12.147803   1.000000
      7        -11.702066   1.000000
      8        -11.238163   1.000000
      9        -10.527550   1.000000
     10        -10.332602   1.000000
     11         -9.458256   1.000000
     12         -8.386465   1.000000
     13         -7.873209   1.000000
     14         -7.410047   1.000000
     15         -7.272694   1.000000
     16         -7.033987   1.000000
     17         -6.612139   1.000000
     18         -6.367388   1.000000
     19         -5.659176   1.000000
     20         -5.198994   1.000000
     21         -4.812223   0.151419
     22         -4.041432   0.000000
     23         -2.621312   0.000000
     24         -1.914108   0.000000
     25         -1.491301   0.000000
     26         -1.037506   0.000000
     27         -0.980667   0.000000
     28         -0.042055   0.000000
     29          0.848758   0.000000
     30          1.012193   0.000000
     31          1.379904   0.000000
     32          1.481853   0.000000
     33          1.548931   0.000000
     34          1.639624   0.000000
     35          2.079911   0.000000
     36          2.085270   0.000000
     37          2.343907   0.000000
     38          2.395032   0.000000
     39          2.536458   0.000000
     40          2.986576   0.000000
     41          3.045271   0.000000
     42          3.173485   0.000000
     43          3.360382   0.000000
     44          3.459669   0.000000
     45          3.567918   0.000000
     46          3.635617   0.000000
     47          3.806905   0.000000
     48          3.809991   0.000000
 
  0.2500000E+00  0.2222222E+00  0.0000000E+00  0.4444444E-01
      1        -19.297376   1.000000
      2        -18.592046   1.000000
      3        -15.446472   1.000000
      4        -15.033602   1.000000
      5        -12.983822   1.000000
      6        -11.990835   1.000000
      7        -11.594787   1.000000
      8        -11.533351   1.000000
      9        -10.655993   1.000000
     10         -9.969194   1.000000
     11         -9.246043   1.000000
     12         -8.661719   1.000000
     13         -7.968590   1.000000
     14         -7.411644   1.000000
     15         -7.286822   1.000000
     16         -7.126155   1.000000
     17         -6.621306   1.000000
     18         -6.388168   1.000000
     19         -5.570203   1.000000
     20         -5.152232   1.000000
     21         -4.847224   0.483888
     22         -4.599808   0.000000
     23         -2.561315   0.000000
     24         -1.981823   0.000000
     25         -1.179987   0.000000
     26         -0.822166   0.000000
     27         -0.750088   0.000000
     28          0.263423   0.000000
     29          0.852295   0.000000
     30          1.155848   0.000000
     31          1.254787   0.000000
     32          1.493614   0.000000
     33          1.652315   0.000000
     34          1.758624   0.000000
     35          1.908191   0.000000
     36          2.076324   0.000000
     37          2.263457   0.000000
     38          2.459371   0.000000
     39          2.685582   0.000000
     40          2.876696   0.000000
     41          2.980602   0.000000
     42          3.304733   0.000000
     43          3.362148   0.000000
     44          3.489008   0.000000
     45          3.608997   0.000000
     46          3.684870   0.000000
     47          3.788402   0.000000
     48          3.926004   0.000000
 
  0.3500000E+00  0.2222222E+00  0.0000000E+00  0.4444444E-01
      1        -19.184261   1.000000
      2        -18.732201   1.000000
      3        -15.425117   1.000000
      4        -15.124085   1.000000
      5        -12.833876   1.000000
      6        -12.098163   1.000000
      7        -11.441350   1.000000
      8        -11.380410   1.000000
      9        -10.835353   1.000000
     10         -9.791679   1.000000
     11         -9.383095   1.000000
     12         -8.546830   1.000000
     13         -7.964634   1.000000
     14         -7.574182   1.000000
     15         -7.473577   1.000000
     16         -6.995066   1.000000
     17         -6.649311   1.000000
     18         -6.215006   1.000000
     19         -5.615542   1.000000
     20         -5.269090   1.000000
     21         -5.055260   1.000000
     22         -4.880744   0.817976
     23         -2.462088   0.000000
     24         -2.080776   0.000000
     25         -0.710209   0.000000
     26         -0.509140   0.000000
     27         -0.476624   0.000000
     28          0.353530   0.000000
     29          0.733716   0.000000
     30          1.090560   0.000000
     31          1.165752   0.000000
     32          1.511657   0.000000
     33          1.710186   0.000000
     34          1.809810   0.000000
     35          2.017566   0.000000
     36          2.173827   0.000000
     37          2.326350   0.000000
     38          2.520194   0.000000
     39          2.689766   0.000000
     40          2.824674   0.000000
     41          2.851289   0.000000
     42          3.086086   0.000000
     43          3.355043   0.000000
     44          3.413525   0.000000
     45          3.502161   0.000000
     46          3.506447   0.000000
     47          3.722273   0.000000
     48          3.778152   0.000000
 
  0.4500000E+00  0.2222222E+00  0.0000000E+00  0.4444444E-01
      1        -19.044493   1.000000
      2        -18.888916   1.000000
      3        -15.351689   1.000000
      4        -15.241986   1.000000
      5        -12.632010   1.000000
      6        -12.378544   1.000000
      7        -11.252062   1.000000
      8        -11.042725   1.000000
      9        -10.890480   1.000000
     10        -10.312715   1.000000
     11         -9.009269   1.000000
     12         -8.649191   1.000000
     13         -7.865169   1.000000
     14         -7.690225   1.000000
     15         -7.456934   1.000000
     16         -7.163524   1.000000
     17         -6.348621   1.000000
     18         -5.984358   1.000000
     19         -5.846695   1.000000
     20         -5.768751   1.000000
     21         -5.002917   0.999994
     22         -4.938712   0.994572
     23         -2.335861   0.000000
     24         -2.202863   0.000000
     25         -0.207933   0.000000
     26         -0.179487   0.000000
     27         -0.175592   0.000000
     28          0.121170   0.000000
     29          0.816077   0.000000
     30          0.822925   0.000000
     31          0.948028   0.000000
     32          1.047704   0.000000
     33          1.995545   0.000000
     34          2.015502   0.000000
     35          2.243040   0.000000
     36          2.352308   0.000000
     37          2.368882   0.000000
     38          2.527665   0.000000
     39          2.667028   0.000000
     40          2.667304   0.000000
     41          2.850874   0.000000
     42          3.066664   0.000000
     43          3.078300   0.000000
     44          3.248724   0.000000
     45          3.367620   0.000000
     46          3.566399   0.000000
     47          3.591972   0.000000
     48          3.673040   0.000000
 
  0.5000000E-01  0.3333333E+00  0.0000000E+00  0.4444444E-01
      1        -19.382160   1.000000
      2        -18.488151   1.000000
      3        -15.360918   1.000000
      4        -14.901212   1.000000
      5        -13.424979   1.000000
      6        -12.408905   1.000000
      7        -11.672638   1.000000
      8        -10.632542   1.000000
      9        -10.571262   1.000000
     10        -10.178616   1.000000
     11         -9.316104   1.000000
     12         -8.284751   1.000000
     13         -8.123152   1.000000
     14         -7.592587   1.000000
     15         -7.350377   1.000000
     16         -7.167727   1.000000
     17         -6.666908   1.000000
     18         -6.400293   1.000000
     19         -6.074665   1.000000
     20         -5.188849   1.000000
     21         -4.823525   0.238637
     22         -3.215111   0.000000
     23         -2.546640   0.000000
     24         -1.991013   0.000000
     25         -1.544845   0.000000
     26         -1.363213   0.000000
     27         -0.535400   0.000000
     28         -0.348485   0.000000
     29          1.032022   0.000000
     30          1.130656   0.000000
     31          1.591318   0.000000
     32          1.707152   0.000000
     33          1.745189   0.000000
     34          1.837292   0.000000
     35          1.943073   0.000000
     36          2.225422   0.000000
     37          2.243426   0.000000
     38          2.444396   0.000000
     39          2.457184   0.000000
     40          2.531270   0.000000
     41          2.830446   0.000000
     42          2.972261   0.000000
     43          3.081041   0.000000
     44          3.159727   0.000000
     45          3.228787   0.000000
     46          3.465843   0.000000
     47          3.474249   0.000000
     48          3.885501   0.000000
 
  0.1500000E+00  0.3333333E+00  0.0000000E+00  0.4444444E-01
      1        -19.343175   1.000000
      2        -18.534487   1.000000
      3        -15.433414   1.000000
      4        -14.937456   1.000000
      5        -13.263052   1.000000
      6        -12.299508   1.000000
      7        -11.620700   1.000000
      8        -10.846564   1.000000