Automatically generated mesh
      25
Reciprocal lattice
    0.05000000000000    0.00000000000000    0.00000000000000             2
    0.15000000000000    0.00000000000000    0.00000000000000             2
    0.25000000000000    0.00000000000000    0.00000000000000             2
    0.35000000000000    0.00000000000000    0.00000000000000             2
    0.45000000000000    0.00000000000000    0.00000000000000             2
    0.05000000000000    0.11111111111111    0.00000000000000             4
    0.15000000000000    0.11111111111111    0.00000000000000             4
    0.25000000000000    0.11111111111111    0.00000000000000             4
    0.35000000000000    0.11111111111111    0.00000000000000             4
    0.45000000000000    0.11111111111111    0.00000000000000             4
    0.05000000000000    0.22222222222222    0.00000000000000             4
    0.15000000000000    0.22222222222222    0.00000000000000             4
    0.25000000000000    0.22222222222222    0.00000000000000             4
    0.35000000000000    0.22222222222222    0.00000000000000             4
    0.45000000000000    0.22222222222222    0.00000000000000             4
    0.05000000000000    0.33333333333334    0.00000000000000             4
    0.15000000000000    0.33333333333334    0.00000000000000             4
    0.25000000000000    0.33333333333334    0.00000000000000             4
    0.35000000000000    0.33333333333334    0.00000000000000             4
    0.45000000000000    0.33333333333334    0.00000000000000             4
    0.05000000000000    0.44444444444444    0.00000000000000             4
    0.15000000000000    0.44444444444444    0.00000000000000             4
    0.25000000000000    0.44444444444444    0.00000000000000             4
    0.35000000000000    0.44444444444444    0.00000000000000             4
    0.45000000000000    0.44444444444444    0.00000000000000             4
