<?xml version="1.0" encoding="ISO-8859-1"?>
<modeling>
 <generator>
  <i name="program" type="string">vasp </i>
  <i name="version" type="string">6.4.3  </i>
  <i name="subversion" type="string">19Mar24 (build May 31 2024 16:31:43) complex                          parallel </i>
  <i name="platform" type="string">LinuxIFC </i>
  <i name="date" type="string">2025 02 13 </i>
  <i name="time" type="string">15:48:43 </i>
 </generator>
 <incar>
  <i type="string" name="SYSTEM">Convergence</i>
  <i type="int" name="ISTART">     0</i>
  <i type="string" name="PREC">Accurate</i>
  <i type="string" name="ALGO">Normal</i>
  <i type="int" name="ISPIN">     1</i>
  <i type="int" name="ICHARG">     2</i>
  <i type="int" name="NELM">   200</i>
  <i type="int" name="IBRION">    -1</i>
  <i name="EDIFF">      0.00000100</i>
  <i name="EDIFFG">     -0.00100000</i>
  <i type="int" name="NSW">     0</i>
  <i type="int" name="ISIF">     2</i>
  <i name="ENCUT">    600.00000000</i>
  <i name="POTIM">      0.50000000</i>
  <i type="int" name="ISMEAR">     0</i>
  <i name="SIGMA">      0.05000000</i>
  <i type="logical" name="LWAVE"> F  </i>
  <i type="logical" name="LCHARG"> F  </i>
  <i type="string" name="GGA">PE</i>
  <i type="logical" name="LDIPOL"> T  </i>
  <i type="int" name="IDIPOL">     3</i>
  <v name="DIPOL">      0.50000000      0.50000000      0.06960000</v>
 </incar>
 <primitive_cell>
  <structure name="primitive_cell" >
   <crystal>
    <varray name="basis" >
     <v>       5.70097065       0.00000000       0.00000000 </v>
     <v>       0.00000000       6.20187140       0.00000000 </v>
     <v>       0.00000000       0.00000000      29.04405832 </v>
    </varray>
    <i name="volume">   1026.90167343 </i>
    <varray name="rec_basis" >
     <v>       0.17540873       0.00000000       0.00000000 </v>
     <v>       0.00000000       0.16124165       0.00000000 </v>
     <v>       0.00000000       0.00000000       0.03443045 </v>
    </varray>
   </crystal>
   <varray name="positions" >
    <v>       0.52128989       0.63795769       0.06961937 </v>
    <v>       0.47871011       0.36204231       0.06961937 </v>
    <v>       0.97871011       0.63795769       0.06961937 </v>
    <v>       0.02128989       0.36204231       0.06961937 </v>
    <v>       0.59744966       0.89986831       0.06961937 </v>
    <v>       0.40255034       0.10013168       0.06961937 </v>
    <v>       0.90255034       0.89986831       0.06961937 </v>
    <v>       0.09744966       0.10013168       0.06961937 </v>
    <v>       0.75000000       0.72957939       0.11021651 </v>
    <v>       0.25000000       0.27042061       0.02902224 </v>
    <v>       0.75000000       0.72957939       0.02902224 </v>
    <v>       0.25000000       0.27042061       0.11021651 </v>
    <v>       0.25000000       0.52399302       0.06961937 </v>
    <v>       0.75000000       0.47600695       0.06961937 </v>
   </varray>
  </structure>
  <varray name="primitive_index" >
   <v type="int" >        1 </v>
   <v type="int" >        2 </v>
   <v type="int" >        3 </v>
   <v type="int" >        4 </v>
   <v type="int" >        5 </v>
   <v type="int" >        6 </v>
   <v type="int" >        7 </v>
   <v type="int" >        8 </v>
   <v type="int" >        9 </v>
   <v type="int" >       10 </v>
   <v type="int" >       11 </v>
   <v type="int" >       12 </v>
   <v type="int" >       13 </v>
   <v type="int" >       14 </v>
  </varray>
 </primitive_cell>
 <kpoints>
  <generation param="Monkhorst-Pack">
   <v type="int" name="divisions">      10        9        1 </v>
   <v name="usershift">      0.00000000       0.00000000       0.00000000 </v>
   <v name="genvec1">      0.10000000       0.00000000       0.00000000 </v>
   <v name="genvec2">      0.00000000       0.11111111       0.00000000 </v>
   <v name="genvec3">      0.00000000       0.00000000       1.00000000 </v>
   <v name="shift">      0.50000000       0.00000000       0.00000000 </v>
  </generation>
  <varray name="kpointlist" >
   <v>       0.05000000       0.00000000       0.00000000 </v>
   <v>       0.15000000       0.00000000       0.00000000 </v>
   <v>       0.25000000       0.00000000       0.00000000 </v>
   <v>       0.35000000       0.00000000       0.00000000 </v>
   <v>       0.45000000       0.00000000       0.00000000 </v>
   <v>       0.05000000       0.11111111       0.00000000 </v>
   <v>       0.15000000       0.11111111       0.00000000 </v>
   <v>       0.25000000       0.11111111       0.00000000 </v>
   <v>       0.35000000       0.11111111       0.00000000 </v>
   <v>       0.45000000       0.11111111       0.00000000 </v>
   <v>       0.05000000       0.22222222       0.00000000 </v>
   <v>       0.15000000       0.22222222       0.00000000 </v>
   <v>       0.25000000       0.22222222       0.00000000 </v>
   <v>       0.35000000       0.22222222       0.00000000 </v>
   <v>       0.45000000       0.22222222       0.00000000 </v>
   <v>       0.05000000       0.33333333       0.00000000 </v>
   <v>       0.15000000       0.33333333       0.00000000 </v>
   <v>       0.25000000       0.33333333       0.00000000 </v>
   <v>       0.35000000       0.33333333       0.00000000 </v>
   <v>       0.45000000       0.33333333       0.00000000 </v>
   <v>       0.05000000       0.44444444       0.00000000 </v>
   <v>       0.15000000       0.44444444       0.00000000 </v>
   <v>       0.25000000       0.44444444       0.00000000 </v>
   <v>       0.35000000       0.44444444       0.00000000 </v>
   <v>       0.45000000       0.44444444       0.00000000 </v>
  </varray>
  <varray name="weights" >
   <v>       0.02222222 </v>
   <v>       0.02222222 </v>
   <v>       0.02222222 </v>
   <v>       0.02222222 </v>
   <v>       0.02222222 </v>
   <v>       0.04444444 </v>
   <v>       0.04444444 </v>
   <v>       0.04444444 </v>
   <v>       0.04444444 </v>
   <v>       0.04444444 </v>
   <v>       0.04444444 </v>
   <v>       0.04444444 </v>
   <v>       0.04444444 </v>
   <v>       0.04444444 </v>
   <v>       0.04444444 </v>
   <v>       0.04444444 </v>
   <v>       0.04444444 </v>
   <v>       0.04444444 </v>
   <v>       0.04444444 </v>
   <v>       0.04444444 </v>
   <v>       0.04444444 </v>
   <v>       0.04444444 </v>
   <v>       0.04444444 </v>
   <v>       0.04444444 </v>
   <v>       0.04444444 </v>
  </varray>
 </kpoints>
 <parameters>
  <separator name="general" >
   <i type="string" name="SYSTEM">Convergence</i>
   <i type="logical" name="LCOMPAT"> F  </i>
  </separator>
  <separator name="electronic" >
   <i type="string" name="PREC">accura</i>
   <i name="ENMAX">    600.00000000</i>
   <i name="ENAUG">    535.51400000</i>
   <i name="EDIFF">      0.00000100</i>
   <i type="int" name="IALGO">    38</i>
   <i type="int" name="IWAVPR">    10</i>
   <i type="int" name="NBANDS">    48</i>
   <i type="int" name="NBANDSLOW">    -1</i>
   <i type="int" name="NBANDSHIGH">    -1</i>
   <i name="NELECT">     42.00000000</i>
   <i type="int" name="TURBO">     0</i>
   <i type="int" name="IRESTART">     0</i>
   <i type="int" name="NREBOOT">     0</i>
   <i type="int" name="NMIN">     0</i>
   <i name="EREF">      0.00000000</i>
   <separator name="electronic smearing" >
    <i type="int" name="ISMEAR">     0</i>
    <i name="SIGMA">      0.05000000</i>
    <i name="KSPACING">      0.50000000</i>
    <i type="logical" name="KGAMMA"> T  </i>
    <i type="logical" name="KBLOWUP"> T  </i>
   </separator>
   <separator name="electronic projectors" >
    <i type="logical" name="LREAL"> F  </i>
    <v name="ROPT">      0.00000000</v>
    <i type="int" name="LMAXPAW">  -100</i>
    <i type="int" name="LMAXMIX">     2</i>
    <i type="logical" name="NLSPLINE"> F  </i>
   </separator>
   <separator name="electronic startup" >
    <i type="int" name="ISTART">     0</i>
    <i type="int" name="ICHARG">     2</i>
    <i type="int" name="INIWAV">     1</i>
   </separator>
   <separator name="electronic spin" >
    <i type="int" name="ISPIN">     1</i>
    <i type="logical" name="LNONCOLLINEAR"> F  </i>
    <v name="MAGMOM">      1.00000000      1.00000000      1.00000000      1.00000000      1.00000000      1.00000000      1.00000000      1.00000000      1.00000000      1.00000000      1.00000000      1.00000000      1.00000000      1.00000000</v>
    <i name="NUPDOWN">     -1.00000000</i>
    <i type="logical" name="LSORBIT"> F  </i>
    <v name="SAXIS">      0.00000000      0.00000000      1.00000000</v>
    <i type="logical" name="LSPIRAL"> F  </i>
    <v name="QSPIRAL">      0.00000000      0.00000000      0.00000000</v>
    <i type="logical" name="LZEROZ"> F  </i>
   </separator>
   <separator name="electronic exchange-correlation" >
    <i type="logical" name="LASPH"> F  </i>
   </separator>
   <separator name="electronic convergence" >
    <i type="int" name="NELM">   200</i>
    <i type="int" name="NELMDL">    -5</i>
    <i type="int" name="NELMIN">     2</i>
    <i name="ENINI">    600.00000000</i>
    <separator name="electronic convergence detail" >
     <i type="logical" name="LDIAG"> T  </i>
     <i type="logical" name="LSUBROT"> F  </i>
     <i name="WEIMIN">      0.00000000</i>
     <i name="EBREAK">      0.00000001</i>
     <i name="DEPER">      0.30000000</i>
     <i type="int" name="NRMM">     4</i>
     <i name="TIME">      0.40000000</i>
    </separator>
   </separator>
   <separator name="electronic mixer" >
    <i name="AMIX">      0.40000000</i>
    <i name="BMIX">      1.00000000</i>
    <i name="AMIN">      0.10000000</i>
    <i name="AMIX_MAG">      1.60000000</i>
    <i name="BMIX_MAG">      1.00000000</i>
    <separator name="electronic mixer details" >
     <i type="int" name="IMIX">     4</i>
     <i type="logical" name="MIXFIRST"> F  </i>
     <i type="int" name="MAXMIX">   -45</i>
     <i name="WC">    100.00000000</i>
     <i type="int" name="INIMIX">     1</i>
     <i type="int" name="MIXPRE">     1</i>
     <i type="int" name="MREMOVE">     5</i>
    </separator>
   </separator>
   <separator name="electronic dipolcorrection" >
    <i type="logical" name="LDIPOL"> T  </i>
    <i type="logical" name="LMONO"> F  </i>
    <i type="int" name="IDIPOL">     3</i>
    <i name="EPSILON">      1.00000000</i>
    <v name="DIPOL">      0.50000000      0.50000000      0.06960000</v>
    <i name="EFIELD">      0.00000000</i>
    <i type="logical" name="LVACPOTAV"> F  </i>
   </separator>
  </separator>
  <separator name="grids" >
   <i type="int" name="NGX">    48</i>
   <i type="int" name="NGY">    50</i>
   <i type="int" name="NGZ">   240</i>
   <i type="int" name="NGXF">    96</i>
   <i type="int" name="NGYF">   100</i>
   <i type="int" name="NGZF">   480</i>
   <i type="logical" name="ADDGRID"> F  </i>
  </separator>
  <separator name="ionic" >
   <i type="int" name="NSW">     0</i>
   <i type="int" name="IBRION">    -1</i>
   <i type="int" name="MDALGO">     0</i>
   <i type="int" name="ISIF">     2</i>
   <i name="PSTRESS">      0.00000000</i>
   <i name="EDIFFG">     -0.00100000</i>
   <i type="int" name="NFREE">     0</i>
   <i name="POTIM">      0.50000000</i>
   <i name="SMASS">     -3.00000000</i>
   <i name="SCALEE">      1.00000000</i>
  </separator>
  <separator name="ionic md" >
   <i name="TEBEG">      0.00010000</i>
   <i name="TEEND">      0.00010000</i>
   <i type="int" name="NBLOCK">     1</i>
   <i type="int" name="KBLOCK">     1</i>
   <i type="int" name="NPACO">   256</i>
   <i name="APACO">     10.00000000</i>
  </separator>
  <separator name="symmetry" >
   <i type="int" name="ISYM">     2</i>
   <i name="SYMPREC">      0.00001000</i>
  </separator>
  <separator name="dos" >
   <i type="int" name="LORBIT">     0</i>
   <v name="RWIGS">     -1.00000000</v>
   <i type="int" name="NEDOS">   301</i>
   <i name="EMIN">     10.00000000</i>
   <i name="EMAX">    -10.00000000</i>
   <i name="EFERMI">      0.00000000</i>
  </separator>
  <separator name="writing" >
   <i type="int" name="NWRITE">     2</i>
   <i type="logical" name="LWAVE"> F  </i>
   <i type="logical" name="LDOWNSAMPLE"> F  </i>
   <i type="logical" name="LCHARG"> F  </i>
   <i type="logical" name="LPARD"> F  </i>
   <i type="logical" name="LVTOT"> F  </i>
   <i type="logical" name="LVHAR"> F  </i>
   <i type="logical" name="LELF"> F  </i>
   <i type="logical" name="LOPTICS"> F  </i>
   <v name="STM">      0.00000000      0.00000000      0.00000000      0.00000000      0.00000000      0.00000000      0.00000000</v>
  </separator>
  <separator name="performance" >
   <i type="int" name="NPAR">    24</i>
   <i type="int" name="NSIM">     4</i>
   <i type="int" name="NBLK">    -1</i>
   <i type="logical" name="LPLANE"> T  </i>
   <i type="logical" name="LSCALAPACK"> T  </i>
   <i type="logical" name="LSCAAWARE"> F  </i>
   <i type="logical" name="LSCALU"> F  </i>
   <i type="logical" name="LASYNC"> F  </i>
   <i type="logical" name="LORBITALREAL"> F  </i>
  </separator>
  <separator name="miscellaneous" >
   <i type="int" name="IDIOT">     3</i>
   <i type="int" name="PHON_NSTRUCT">    -1</i>
   <i type="logical" name="LMUSIC"> F  </i>
   <v name="POMASS">     10.81100000</v>
   <v name="DARWINR">      0.00000000</v>
   <v name="DARWINV">      1.00000000</v>
   <i type="logical" name="LCORR"> T  </i>
  </separator>
  <i type="logical" name="GGA_COMPAT"> T  </i>
  <i type="logical" name="LBERRY"> F  </i>
  <i type="int" name="ICORELEVEL">     0</i>
  <i type="logical" name="LDAU"> F  </i>
  <i type="int" name="I_CONSTRAINED_M">     0</i>
  <separator name="electronic exchange-correlation" >
   <i type="string" name="GGA    ">PE</i>
   <i type="string" name="XC_C">1</i>
   <i type="int" name="VOSKOWN">     0</i>
   <i type="logical" name="LHFCALC"> F  </i>
   <i type="string" name="PRECFOCK"></i>
   <i type="logical" name="LSYMGRAD"> F  </i>
   <i type="logical" name="LHFONE"> F  </i>
   <i type="logical" name="LRHFCALC"> F  </i>
   <i type="logical" name="LTHOMAS"> F  </i>
   <i type="logical" name="LMODELHF"> F  </i>
   <i type="logical" name="LFOCKACE"> F  </i>
   <i name="ENCUT4O">     -1.00000000</i>
   <i type="int" name="EXXOEP">     0</i>
   <i type="int" name="FOURORBIT">     0</i>
   <i name="AEXX">      0.00000000</i>
   <i name="HFALPHA">      0.00000000</i>
   <i name="MCALPHA">      0.00000000</i>
   <i name="ALDAX">      1.00000000</i>
   <i name="AGGAX">      1.00000000</i>
   <i name="AMGGAX">      1.00000000</i>
   <i name="ALDAC">      1.00000000</i>
   <i name="AGGAC">      1.00000000</i>
   <i name="AMGGAC">      1.00000000</i>
   <i type="int" name="NKREDX">     1</i>
   <i type="int" name="NKREDY">     1</i>
   <i type="int" name="NKREDZ">     1</i>
   <i type="logical" name="SHIFTRED"> F  </i>
   <i type="logical" name="ODDONLY"> F  </i>
   <i type="logical" name="EVENONLY"> F  </i>
   <i type="int" name="LMAXFOCK">     0</i>
   <i type="int" name="NMAXFOCKAE">     0</i>
   <i type="logical" name="LFOCKAEDFT"> F  </i>
   <i name="HFSCREEN">      0.00000000</i>
   <i name="HFSCREENC">      0.00000000</i>
   <i type="int" name="NBANDSGWLOW">     0</i>
  </separator>
  <separator name="vdW DFT" >
   <i type="logical" name="LUSE_VDW"> F  </i>
   <i type="int" name="IVDW_NL">    -1</i>
   <i type="logical" name="LSPIN_VDW"> F  </i>
   <i name="ZAB_VDW">     -0.84910000</i>
   <i name="GAMMA_VDW">      1.39626340</i>
   <i name="ALPHA_VDW">      0.00000000</i>
   <i name="PARAM1">      0.12340000</i>
   <i name="PARAM2">      1.00000000</i>
   <i name="BPARAM">      6.30000000</i>
   <i name="CPARAM">      0.00930000</i>
  </separator>
  <separator name="model GW" >
   <i type="int" name="MODEL_GW">     0</i>
   <i name="MODEL_EPS0">     44.01007172</i>
   <i name="MODEL_ALPHA">      1.00000000</i>
  </separator>
  <separator name="linear response parameters" >
   <i type="logical" name="LEPSILON"> F  </i>
   <i type="logical" name="LRPA"> F  </i>
   <i type="logical" name="LNABLA"> F  </i>
   <i type="logical" name="LVEL"> F  </i>
   <i name="CSHIFT">      0.10000000</i>
   <i name="OMEGAMAX">     -1.00000000</i>
   <i name="DEG_THRESHOLD">      0.00200000</i>
   <i name="RTIME">     -0.10000000</i>
   <i name="WPLASMAI">      0.00000000</i>
   <v name="DFIELD">      0.00000000      0.00000000      0.00000000</v>
   <v name="WPLASMA">      0.00000000      0.00000000      0.00000000      0.00000000      0.00000000      0.00000000      0.00000000      0.00000000      0.00000000</v>
  </separator>
  <separator name="orbital magnetization" >
   <i type="logical" name="NUCIND"> F  </i>
   <v name="MAGPOS">      0.00000000      0.00000000      0.00000000</v>
   <i type="logical" name="LNICSALL"> T  </i>
   <i type="logical" name="ORBITALMAG"> F  </i>
   <i type="logical" name="LMAGBLOCH"> F  </i>
   <i type="logical" name="LCHIMAG"> F  </i>
   <i type="logical" name="LGAUGE"> T  </i>
   <i type="int" name="MAGATOM">     0</i>
   <v name="MAGDIPOL">      0.00000000      0.00000000      0.00000000</v>
   <v name="AVECCONST">      0.00000000      0.00000000      0.00000000</v>
  </separator>
  <separator name="response functions" >
   <i type="logical" name="LALL_IN_ONE"> F  </i>
   <i type="int" name="IALL_IN_ONE">    -1</i>
   <i type="int" name="NBANDS_WAVE">    -1</i>
   <i type="logical" name="LFINITE_TEMPERATURE"> F  </i>
   <i type="logical" name="LADDER"> F  </i>
   <i type="logical" name="LRPAFORCE"> F  </i>
   <i type="logical" name="LFXC"> F  </i>
   <i type="logical" name="LHARTREE"> T  </i>
   <i type="int" name="IBSE">     0</i>
   <v type="int" name="KPOINT">    -1     0     0     0</v>
   <i type="logical" name="LTCTC"> F  </i>
   <i type="logical" name="LTCTE"> F  </i>
   <i type="logical" name="LTETE"> F  </i>
   <i type="logical" name="LTRIPLET"> F  </i>
   <i type="logical" name="LFXCEPS"> F  </i>
   <i type="logical" name="LFXHEG"> F  </i>
   <i type="int" name="NATURALO">     2</i>
   <i type="logical" name="LHOLEGF"> F  </i>
   <i type="logical" name="L2ORDER"> F  </i>
   <i type="logical" name="LDMP1"> F  </i>
   <i type="logical" name="LMP2LT"> F  </i>
   <i type="logical" name="LSMP2LT"> F  </i>
   <i type="logical" name="LGWLF"> F  </i>
   <i name="ENCUTGW">     -1.60000002</i>
   <i name="ENCUTGWSOFT">     -1.60000002</i>
   <i name="ENCUTLF">     -1.00000000</i>
   <i type="logical" name="ESF_SPLINES"> F  </i>
   <i name="ESF_CONV">      0.01000000</i>
   <i type="int" name="ESF_NINTER">    15</i>
   <i type="int" name="LMAXMP2">    -1</i>
   <i name="SCISSOR">      0.00000000</i>
   <i type="int" name="NOMEGA">     0</i>
   <i type="int" name="NOMEGAR">     0</i>
   <i type="int" name="NBANDSGW">    -1</i>
   <i type="int" name="NBANDSO">    -1</i>
   <i type="int" name="NBANDSV">    -1</i>
   <i type="int" name="NELMGW">     1</i>
   <i type="int" name="NELMHF">     1</i>
   <i type="int" name="DIM">     3</i>
   <i type="int" name="IESPILON">     4</i>
   <i type="int" name="ANTIRES">     0</i>
   <i name="OMEGAMAX">    -30.00000000</i>
   <i name="OMEGAMIN">    -30.00000000</i>
   <i name="OMEGATL">   -200.00000000</i>
   <i type="int" name="OMEGAGRID">     0</i>
   <i name="CSHIFT">     -0.10000000</i>
   <i type="logical" name="LSELFENERGY"> F  </i>
   <i type="logical" name="LSPECTRAL"> F  </i>
   <i type="logical" name="LSPECTRALGW"> F  </i>
   <i type="logical" name="LSINGLES"> F  </i>
   <i type="logical" name="LFERMIGW"> F  </i>
   <i type="logical" name="ODDONLYGW"> F  </i>
   <i type="logical" name="EVENONLYGW"> F  </i>
   <i type="int" name="NKREDLFX">     1</i>
   <i type="int" name="NKREDLFY">     1</i>
   <i type="int" name="NKREDLFZ">     1</i>
   <i type="int" name="MAXMEM">  2800</i>
   <i type="int" name="TELESCOPE">     0</i>
   <i type="int" name="NTAUPAR">    -1</i>
   <i type="int" name="NOMEGAPAR">    -1</i>
   <i name="DAMP_NEWTON">      0.80000001</i>
   <i name="LAMBDA">      1.00000000</i>
  </separator>
  <separator name="External order field" >
   <i name="OFIELD_KAPPA">      0.00000000</i>
   <v name="OFIELD_K">      0.00000000      0.00000000      0.00000000</v>
   <i name="OFIELD_Q6_NEAR">      0.00000000</i>
   <i name="OFIELD_Q6_FAR">      0.00000000</i>
   <i name="OFIELD_A">      0.00000000</i>
  </separator>
  <separator name="optional k-points parameters" >
   <i type="int" name="KPOINTS_OPT_MODE">     1</i>
   <i type="logical" name="LKPOINTS_OPT"> F  </i>
  </separator>
 </parameters>
 <atominfo>
  <atoms>      14 </atoms>
  <types>       1 </types>
  <array name="atoms" >
   <dimension dim="1">ion</dimension>
   <field type="string">element</field>
   <field type="int">atomtype</field>
   <set>
    <rc><c>B </c><c>   1</c></rc>
    <rc><c>B </c><c>   1</c></rc>
    <rc><c>B </c><c>   1</c></rc>
    <rc><c>B </c><c>   1</c></rc>
    <rc><c>B </c><c>   1</c></rc>
    <rc><c>B </c><c>   1</c></rc>
    <rc><c>B </c><c>   1</c></rc>
    <rc><c>B </c><c>   1</c></rc>
    <rc><c>B </c><c>   1</c></rc>
    <rc><c>B </c><c>   1</c></rc>
    <rc><c>B </c><c>   1</c></rc>
    <rc><c>B </c><c>   1</c></rc>
    <rc><c>B </c><c>   1</c></rc>
    <rc><c>B </c><c>   1</c></rc>
   </set>
  </array>
  <array name="atomtypes" >
   <dimension dim="1">type</dimension>
   <field type="int">atomspertype</field>
   <field type="string">element</field>
   <field>mass</field>
   <field>valence</field>
   <field type="string">pseudopotential</field>
   <set>
    <rc><c>  14</c><c>B </c><c>     10.81100000</c><c>      3.00000000</c><c>  PAW_PBE B 06Sep2000                   </c></rc>
   </set>
  </array>
 </atominfo>
 <structure name="initialpos" >
  <crystal>
   <varray name="basis" >
    <v>       5.70097065       0.00000000       0.00000000 </v>
    <v>       0.00000000       6.20187140       0.00000000 </v>
    <v>       0.00000000       0.00000000      29.04405832 </v>
   </varray>
   <i name="volume">   1026.90167343 </i>
   <varray name="rec_basis" >
    <v>       0.17540873       0.00000000       0.00000000 </v>
    <v>       0.00000000       0.16124165       0.00000000 </v>
    <v>       0.00000000       0.00000000       0.03443045 </v>
   </varray>
  </crystal>
  <varray name="positions" >
   <v>       0.52128989       0.63795769       0.06961937 </v>
   <v>       0.47871011       0.36204231       0.06961937 </v>
   <v>       0.97871011       0.63795769       0.06961937 </v>
   <v>       0.02128989       0.36204231       0.06961937 </v>
   <v>       0.59744966       0.89986831       0.06961937 </v>
   <v>       0.40255034       0.10013168       0.06961937 </v>
   <v>       0.90255034       0.89986831       0.06961937 </v>
   <v>       0.09744966       0.10013168       0.06961937 </v>
   <v>       0.75000000       0.72957939       0.11021651 </v>
   <v>       0.25000000       0.27042061       0.02902224 </v>
   <v>       0.75000000       0.72957939       0.02902224 </v>
   <v>       0.25000000       0.27042061       0.11021651 </v>
   <v>       0.25000000       0.52399302       0.06961937 </v>
   <v>       0.75000000       0.47600695       0.06961937 </v>
  </varray>
 </structure>
 <calculation>
  <scstep>
   <time name="dav">    9.69    9.85</time>
   <time name="total">    9.82    9.99</time>
   <dipole>
    <v name="dipole">      0.00000000       0.00000000      -0.00000012 </v>
    <i name="Tr[quadrupol]">   -255.56222474 </i>
    <i name="Echarged">      0.00000000 </i>
    <i name="Edipol_quadrupol">      0.00000000 </i>
    <i name="Eion">      0.00000000 </i>
   </dipole>
   <energy>
    <i name="alphaZ">     13.13060382 </i>
    <i name="ewald">   8188.24886085 </i>
    <i name="hartreedc">  -8793.50509126 </i>
    <i name="XCdc">     94.76464070 </i>
    <i name="pawpsdc">    608.99811708 </i>
    <i name="pawaedc">   -597.02363782 </i>
    <i name="eentropy">     -0.00908611 </i>
    <i name="bandstr">   -223.03602416 </i>
    <i name="atom">    996.37441054 </i>
    <i name="e_fr_energy">    287.94279363 </i>
    <i name="e_wo_entrp">    287.95187975 </i>
    <i name="e_0_energy">    287.94733669 </i>
   </energy>
  </scstep>
  <scstep>
   <time name="dav">   15.91   16.10</time>
   <time name="total">   15.91   16.10</time>
   <dipole>
    <v name="dipole">      0.00000000       0.00000000      -0.00000012 </v>
    <i name="Tr[quadrupol]">   -255.56222474 </i>
    <i name="Echarged">      0.00000000 </i>
    <i name="Edipol_quadrupol">      0.00000000 </i>
    <i name="Eion">      0.00000000 </i>
   </dipole>
   <energy>
    <i name="e_fr_energy">    -61.97825686 </i>
    <i name="e_wo_entrp">    -61.97236232 </i>
    <i name="e_0_energy">    -61.97530959 </i>
   </energy>
  </scstep>
  <scstep>
   <time name="dav">   12.72   12.98</time>
   <time name="total">   12.72   12.98</time>
   <dipole>
    <v name="dipole">      0.00000000       0.00000000      -0.00000012 </v>
    <i name="Tr[quadrupol]">   -255.56222474 </i>
    <i name="Echarged">      0.00000000 </i>
    <i name="Edipol_quadrupol">      0.00000000 </i>
    <i name="Eion">      0.00000000 </i>
   </dipole>
   <energy>
    <i name="e_fr_energy">    -93.65245101 </i>
    <i name="e_wo_entrp">    -93.64147363 </i>
    <i name="e_0_energy">    -93.64696232 </i>
   </energy>
  </scstep>
  <scstep>
   <time name="dav">   12.73   12.89</time>
   <time name="total">   12.73   12.89</time>
   <dipole>
    <v name="dipole">      0.00000000       0.00000000      -0.00000012 </v>
    <i name="Tr[quadrupol]">   -255.56222474 </i>
    <i name="Echarged">      0.00000000 </i>
    <i name="Edipol_quadrupol">      0.00000000 </i>
    <i name="Eion">      0.00000000 </i>
   </dipole>
   <energy>
    <i name="e_fr_energy">    -94.19514966 </i>
    <i name="e_wo_entrp">    -94.18421211 </i>
    <i name="e_0_energy">    -94.18968089 </i>
   </energy>
  </scstep>
  <scstep>
   <time name="dav">   12.40   12.56</time>
   <time name="total">   12.87   13.04</time>
   <dipole>
    <v name="dipole">      0.00000000       0.00000000      -0.00000012 </v>
    <i name="Tr[quadrupol]">   -255.56222474 </i>
    <i name="Echarged">      0.00000000 </i>
    <i name="Edipol_quadrupol">      0.00000000 </i>
    <i name="Eion">      0.00000000 </i>
   </dipole>
   <energy>
    <i name="e_fr_energy">    -94.20622299 </i>
    <i name="e_wo_entrp">    -94.19528614 </i>
    <i name="e_0_energy">    -94.20075457 </i>
   </energy>
  </scstep>
  <scstep>
   <time name="dav">   12.65   12.83</time>
   <time name="total">   13.24   13.42</time>
   <dipole>
    <v name="dipole">      0.00000000       0.00000000      -0.00085133 </v>
    <i name="Tr[quadrupol]">   -256.77860791 </i>
    <i name="Echarged">      0.00000000 </i>
    <i name="Edipol_quadrupol">      0.00000000 </i>
    <i name="Eion">      0.00000000 </i>
   </dipole>
   <energy>
    <i name="e_fr_energy">    -85.72943892 </i>
    <i name="e_wo_entrp">    -85.71343791 </i>
    <i name="e_0_energy">    -85.72143842 </i>
   </energy>
  </scstep>
  <scstep>
   <time name="dav">   12.85   13.06</time>
   <time name="total">   13.43   13.65</time>
   <dipole>
    <v name="dipole">      0.00000000       0.00000000      -0.00132336 </v>
    <i name="Tr[quadrupol]">   -257.76015348 </i>
    <i name="Echarged">      0.00000000 </i>
    <i name="Edipol_quadrupol">      0.00000000 </i>
    <i name="Eion">      0.00000000 </i>
   </dipole>
   <energy>
    <i name="e_fr_energy">    -84.33785342 </i>
    <i name="e_wo_entrp">    -84.32020827 </i>
    <i name="e_0_energy">    -84.32903084 </i>
   </energy>
  </scstep>
  <scstep>
   <time name="dav">   12.45   12.65</time>
   <time name="total">   13.04   13.24</time>
   <dipole>
    <v name="dipole">      0.00000000       0.00000000      -0.00128570 </v>
    <i name="Tr[quadrupol]">   -258.30474356 </i>
    <i name="Echarged">      0.00000000 </i>
    <i name="Edipol_quadrupol">      0.00000000 </i>
    <i name="Eion">      0.00000000 </i>
   </dipole>
   <energy>
    <i name="e_fr_energy">    -84.25971018 </i>
    <i name="e_wo_entrp">    -84.24616863 </i>
    <i name="e_0_energy">    -84.25293941 </i>
   </energy>
  </scstep>
  <scstep>
   <time name="dav">   12.70   12.82</time>
   <time name="total">   13.28   13.41</time>
   <dipole>
    <v name="dipole">      0.00000000       0.00000000      -0.00137181 </v>
    <i name="Tr[quadrupol]">   -258.56340776 </i>
    <i name="Echarged">      0.00000000 </i>
    <i name="Edipol_quadrupol">      0.00000000 </i>
    <i name="Eion">      0.00000000 </i>
   </dipole>
   <energy>
    <i name="e_fr_energy">    -84.10788238 </i>
    <i name="e_wo_entrp">    -84.09075486 </i>
    <i name="e_0_energy">    -84.09931862 </i>
   </energy>
  </scstep>
  <scstep>
   <time name="dav">   12.65   12.80</time>
   <time name="total">   13.24   13.39</time>
   <dipole>
    <v name="dipole">      0.00000000       0.00000000      -0.00127493 </v>
    <i name="Tr[quadrupol]">   -258.96911699 </i>
    <i name="Echarged">      0.00000000 </i>
    <i name="Edipol_quadrupol">      0.00000000 </i>
    <i name="Eion">      0.00000000 </i>
   </dipole>
   <energy>
    <i name="e_fr_energy">    -84.10438064 </i>
    <i name="e_wo_entrp">    -84.08751563 </i>
    <i name="e_0_energy">    -84.09594813 </i>
   </energy>
  </scstep>
  <scstep>
   <time name="dav">   12.54   12.72</time>
   <time name="total">   13.12   13.30</time>
   <dipole>
    <v name="dipole">      0.00000000       0.00000000      -0.00112268 </v>
    <i name="Tr[quadrupol]">   -259.19439613 </i>
    <i name="Echarged">      0.00000000 </i>
    <i name="Edipol_quadrupol">      0.00000000 </i>
    <i name="Eion">      0.00000000 </i>
   </dipole>
   <energy>
    <i name="e_fr_energy">    -84.09702988 </i>
    <i name="e_wo_entrp">    -84.07991713 </i>
    <i name="e_0_energy">    -84.08847350 </i>
   </energy>
  </scstep>
  <scstep>
   <time name="dav">   12.95   13.11</time>
   <time name="total">   13.53   13.69</time>
   <dipole>
    <v name="dipole">      0.00000000       0.00000000      -0.00090433 </v>
    <i name="Tr[quadrupol]">   -259.53878762 </i>
    <i name="Echarged">      0.00000000 </i>
    <i name="Edipol_quadrupol">      0.00000000 </i>
    <i name="Eion">      0.00000000 </i>
   </dipole>
   <energy>
    <i name="e_fr_energy">    -84.09592205 </i>
    <i name="e_wo_entrp">    -84.07927564 </i>
    <i name="e_0_energy">    -84.08759885 </i>
   </energy>
  </scstep>
  <scstep>
   <time name="dav">   12.35   12.52</time>
   <time name="total">   12.93   13.10</time>
   <dipole>
    <v name="dipole">      0.00000000       0.00000000      -0.00062455 </v>
    <i name="Tr[quadrupol]">   -259.85716568 </i>
    <i name="Echarged">      0.00000000 </i>
    <i name="Edipol_quadrupol">      0.00000000 </i>
    <i name="Eion">      0.00000000 </i>
   </dipole>
   <energy>
    <i name="e_fr_energy">    -84.09782992 </i>
    <i name="e_wo_entrp">    -84.08173000 </i>
    <i name="e_0_energy">    -84.08977996 </i>
   </energy>
  </scstep>
  <scstep>
   <time name="dav">   11.35   11.50</time>
   <time name="total">   11.92   12.08</time>
   <dipole>
    <v name="dipole">      0.00000000       0.00000000      -0.00030323 </v>
    <i name="Tr[quadrupol]">   -260.07743996 </i>
    <i name="Echarged">      0.00000000 </i>
    <i name="Edipol_quadrupol">      0.00000000 </i>
    <i name="Eion">      0.00000000 </i>
   </dipole>
   <energy>
    <i name="e_fr_energy">    -84.10024177 </i>
    <i name="e_wo_entrp">    -84.08415311 </i>
    <i name="e_0_energy">    -84.09219744 </i>
   </energy>
  </scstep>
  <scstep>
   <time name="dav">   11.24   11.37</time>
   <time name="total">   11.82   11.96</time>
   <dipole>
    <v name="dipole">      0.00000000       0.00000000      -0.00010139 </v>
    <i name="Tr[quadrupol]">   -260.17778884 </i>
    <i name="Echarged">      0.00000000 </i>
    <i name="Edipol_quadrupol">      0.00000000 </i>
    <i name="Eion">      0.00000000 </i>
   </dipole>
   <energy>
    <i name="e_fr_energy">    -84.10170026 </i>
    <i name="e_wo_entrp">    -84.08565106 </i>
    <i name="e_0_energy">    -84.09367566 </i>
   </energy>
  </scstep>
  <scstep>
   <time name="dav">   11.04   11.23</time>
   <time name="total">   11.63   11.83</time>
   <dipole>
    <v name="dipole">      0.00000000       0.00000000       0.00003295 </v>
    <i name="Tr[quadrupol]">   -260.21914745 </i>
    <i name="Echarged">      0.00000000 </i>
    <i name="Edipol_quadrupol">      0.00000000 </i>
    <i name="Eion">      0.00000000 </i>
   </dipole>
   <energy>
    <i name="e_fr_energy">    -84.10272053 </i>
    <i name="e_wo_entrp">    -84.08668263 </i>
    <i name="e_0_energy">    -84.09470158 </i>
   </energy>
  </scstep>
  <scstep>
   <time name="dav">   11.06   11.18</time>
   <time name="total">   11.65   11.77</time>
   <dipole>
    <v name="dipole">      0.00000000       0.00000000       0.00008718 </v>
    <i name="Tr[quadrupol]">   -260.23054447 </i>
    <i name="Echarged">      0.00000000 </i>
    <i name="Edipol_quadrupol">      0.00000000 </i>
    <i name="Eion">      0.00000000 </i>
   </dipole>
   <energy>
    <i name="e_fr_energy">    -84.10333593 </i>
    <i name="e_wo_entrp">    -84.08730514 </i>
    <i name="e_0_energy">    -84.09532054 </i>
   </energy>
  </scstep>
  <scstep>
   <time name="dav">   11.12   11.24</time>
   <time name="total">   11.69   11.82</time>
   <dipole>
    <v name="dipole">      0.00000000       0.00000000       0.00010470 </v>
    <i name="Tr[quadrupol]">   -260.23441193 </i>
    <i name="Echarged">      0.00000000 </i>
    <i name="Edipol_quadrupol">      0.00000000 </i>
    <i name="Eion">      0.00000000 </i>
   </dipole>
   <energy>
    <i name="e_fr_energy">    -84.10355106 </i>
    <i name="e_wo_entrp">    -84.08752296 </i>
    <i name="e_0_energy">    -84.09553701 </i>
   </energy>
  </scstep>
  <scstep>
   <time name="dav">   11.12   11.24</time>
   <time name="total">   11.70   11.82</time>
   <dipole>
    <v name="dipole">      0.00000000       0.00000000       0.00010257 </v>
    <i name="Tr[quadrupol]">   -260.23341920 </i>
    <i name="Echarged">      0.00000000 </i>
    <i name="Edipol_quadrupol">      0.00000000 </i>
    <i name="Eion">      0.00000000 </i>
   </dipole>
   <energy>
    <i name="e_fr_energy">    -84.10374932 </i>
    <i name="e_wo_entrp">    -84.08772217 </i>
    <i name="e_0_energy">    -84.09573575 </i>
   </energy>
  </scstep>
  <scstep>
   <time name="dav">   11.85   12.01</time>
   <time name="total">   12.44   12.60</time>
   <dipole>
    <v name="dipole">      0.00000000       0.00000000       0.00007304 </v>
    <i name="Tr[quadrupol]">   -260.22872279 </i>
    <i name="Echarged">      0.00000000 </i>
    <i name="Edipol_quadrupol">      0.00000000 </i>
    <i name="Eion">      0.00000000 </i>
   </dipole>
   <energy>
    <i name="e_fr_energy">    -84.10384240 </i>
    <i name="e_wo_entrp">    -84.08781595 </i>
    <i name="e_0_energy">    -84.09582918 </i>
   </energy>
  </scstep>
  <scstep>
   <time name="dav">   11.35   11.50</time>
   <time name="total">   11.92   12.08</time>
   <dipole>
    <v name="dipole">      0.00000000       0.00000000       0.00004927 </v>
    <i name="Tr[quadrupol]">   -260.22639230 </i>
    <i name="Echarged">      0.00000000 </i>
    <i name="Edipol_quadrupol">      0.00000000 </i>
    <i name="Eion">      0.00000000 </i>
   </dipole>
   <energy>
    <i name="e_fr_energy">    -84.10386687 </i>
    <i name="e_wo_entrp">    -84.08784012 </i>
    <i name="e_0_energy">    -84.09585349 </i>
   </energy>
  </scstep>
  <scstep>
   <time name="dav">   11.49   11.67</time>
   <time name="total">   12.08   12.26</time>
   <dipole>
    <v name="dipole">      0.00000000       0.00000000       0.00002379 </v>
    <i name="Tr[quadrupol]">   -260.22442354 </i>
    <i name="Echarged">      0.00000000 </i>
    <i name="Edipol_quadrupol">      0.00000000 </i>
    <i name="Eion">      0.00000000 </i>
   </dipole>
   <energy>
    <i name="e_fr_energy">    -84.10388214 </i>
    <i name="e_wo_entrp">    -84.08785552 </i>
    <i name="e_0_energy">    -84.09586883 </i>
   </energy>
  </scstep>
  <scstep>
   <time name="dav">   11.47   11.61</time>
   <time name="total">   12.05   12.19</time>
   <dipole>
    <v name="dipole">      0.00000000       0.00000000       0.00001201 </v>
    <i name="Tr[quadrupol]">   -260.22357886 </i>
    <i name="Echarged">      0.00000000 </i>
    <i name="Edipol_quadrupol">      0.00000000 </i>
    <i name="Eion">      0.00000000 </i>
   </dipole>
   <energy>
    <i name="e_fr_energy">    -84.10388629 </i>
    <i name="e_wo_entrp">    -84.08785974 </i>
    <i name="e_0_energy">    -84.09587301 </i>
   </energy>
  </scstep>
  <scstep>
   <time name="dav">   11.02   11.14</time>
   <time name="total">   11.60   11.72</time>
   <dipole>
    <v name="dipole">      0.00000000       0.00000000       0.00000337 </v>
    <i name="Tr[quadrupol]">   -260.22315721 </i>
    <i name="Echarged">      0.00000000 </i>
    <i name="Edipol_quadrupol">      0.00000000 </i>
    <i name="Eion">      0.00000000 </i>
   </dipole>
   <energy>
    <i name="e_fr_energy">    -84.10388816 </i>
    <i name="e_wo_entrp">    -84.08786171 </i>
    <i name="e_0_energy">    -84.09587493 </i>
   </energy>
  </scstep>
  <scstep>
   <time name="dav">   10.60   10.72</time>
   <time name="total">   10.72   10.85</time>
   <dipole>
    <v name="dipole">      0.00000000       0.00000000       0.00000159 </v>
    <i name="Tr[quadrupol]">   -260.22305358 </i>
    <i name="Echarged">      0.00000000 </i>
    <i name="Edipol_quadrupol">      0.00000000 </i>
    <i name="Eion">      0.00000000 </i>
   </dipole>
   <energy>
    <i name="alphaZ">     13.13060350 </i>
    <i name="ewald">   8188.24886085 </i>
    <i name="hartreedc">  -8964.45515640 </i>
    <i name="XCdc">     98.83515627 </i>
    <i name="pawpsdc">   3416.34000024 </i>
    <i name="pawaedc">  -3405.39993343 </i>
    <i name="eentropy">     -0.01602645 </i>
    <i name="bandstr">   -427.16180353 </i>
    <i name="atom">    996.37441054 </i>
    <i name="e_fr_energy">    -84.10388842 </i>
    <i name="e_wo_entrp">    -84.08786197 </i>
    <i name="e_0_energy">    -84.09587519 </i>
   </energy>
  </scstep>
  <structure>
   <crystal>
    <varray name="basis" >
     <v>       5.70097065       0.00000000       0.00000000 </v>
     <v>       0.00000000       6.20187140       0.00000000 </v>
     <v>       0.00000000       0.00000000      29.04405832 </v>
    </varray>
    <i name="volume">   1026.90167343 </i>
    <varray name="rec_basis" >
     <v>       0.17540873       0.00000000       0.00000000 </v>
     <v>       0.00000000       0.16124165       0.00000000 </v>
     <v>       0.00000000       0.00000000       0.03443045 </v>
    </varray>
   </crystal>
   <varray name="positions" >
    <v>       0.52128989       0.63795769       0.06961937 </v>
    <v>       0.47871011       0.36204231       0.06961937 </v>
    <v>       0.97871011       0.63795769       0.06961937 </v>
    <v>       0.02128989       0.36204231       0.06961937 </v>
    <v>       0.59744966       0.89986831       0.06961937 </v>
    <v>       0.40255034       0.10013168       0.06961937 </v>
    <v>       0.90255034       0.89986831       0.06961937 </v>
    <v>       0.09744966       0.10013168       0.06961937 </v>
    <v>       0.75000000       0.72957939       0.11021651 </v>
    <v>       0.25000000       0.27042061       0.02902224 </v>
    <v>       0.75000000       0.72957939       0.02902224 </v>
    <v>       0.25000000       0.27042061       0.11021651 </v>
    <v>       0.25000000       0.52399302       0.06961937 </v>
    <v>       0.75000000       0.47600695       0.06961937 </v>
   </varray>
  </structure>
  <varray name="forces" >
   <v>      -0.03178871       0.03919000       0.00000000 </v>
   <v>       0.03178871      -0.03919000       0.00000000 </v>
   <v>       0.03178871       0.03919000       0.00000000 </v>
   <v>      -0.03178871      -0.03919000       0.00000000 </v>
   <v>      -0.17900879       0.19737299       0.00000000 </v>
   <v>       0.17900879      -0.19737299       0.00000000 </v>
   <v>       0.17900879       0.19737299       0.00000000 </v>
   <v>      -0.17900879      -0.19737299       0.00000000 </v>
   <v>      -0.00000000      -0.18407176      -2.79698366 </v>
   <v>      -0.00000000       0.18407176       2.79698366 </v>
   <v>       0.00000000      -0.18407176       2.79698366 </v>
   <v>       0.00000000       0.18407176      -2.79698366 </v>
   <v>      -0.00000000      -0.10953871       0.00000000 </v>
   <v>      -0.00000000       0.10953871       0.00000000 </v>
  </varray>
  <varray name="stress" >
   <v>       3.58733296       0.00000000       0.00000000 </v>
   <v>       0.00000000       3.81134536       0.00000000 </v>
   <v>       0.00000000       0.00000000     -20.71166988 </v>
  </varray>
  <energy>
   <i name="e_fr_energy">    -84.10388842 </i>
   <i name="e_wo_entrp">    -84.08786197 </i>
   <i name="e_0_energy">    -84.09587519 </i>
  </energy>
  <time name="totalsc">  319.44  323.62</time>
  <eigenvalues>
   <array>
    <dimension dim="1">band</dimension>
    <dimension dim="2">kpoint</dimension>
    <dimension dim="3">spin</dimension>
    <field>eigene</field>
    <field>occ</field>
    <set>
     <set comment="spin 1">
      <set comment="kpoint 1">
       <r>  -19.4554    1.0000 </r>
       <r>  -18.3622    1.0000 </r>
       <r>  -15.3831    1.0000 </r>
       <r>  -15.1250    1.0000 </r>
       <r>  -12.7372    1.0000 </r>
       <r>  -11.8605    1.0000 </r>
       <r>  -11.8401    1.0000 </r>
       <r>  -11.4544    1.0000 </r>
       <r>  -11.0509    1.0000 </r>
       <r>  -10.2591    1.0000 </r>
       <r>  -10.2034    1.0000 </r>
       <r>   -7.9164    1.0000 </r>
       <r>   -7.7705    1.0000 </r>
       <r>   -7.7549    1.0000 </r>
       <r>   -6.7839    1.0000 </r>
       <r>   -6.7233    1.0000 </r>
       <r>   -6.1343    1.0000 </r>
       <r>   -5.8019    1.0000 </r>
       <r>   -5.7222    1.0000 </r>
       <r>   -5.2329    1.0000 </r>
       <r>   -4.7999    0.0839 </r>
       <r>   -4.5086    0.0000 </r>
       <r>   -2.7385    0.0000 </r>
       <r>   -1.7932    0.0000 </r>
       <r>   -1.7744    0.0000 </r>
       <r>   -1.6344    0.0000 </r>
       <r>   -0.6162    0.0000 </r>
       <r>   -0.2569    0.0000 </r>
       <r>    0.2642    0.0000 </r>
       <r>    0.8905    0.0000 </r>
       <r>    0.9490    0.0000 </r>
       <r>    1.2433    0.0000 </r>
       <r>    1.2681    0.0000 </r>
       <r>    1.8304    0.0000 </r>
       <r>    1.8961    0.0000 </r>
       <r>    2.0939    0.0000 </r>
       <r>    2.1040    0.0000 </r>
       <r>    2.4954    0.0000 </r>
       <r>    2.6104    0.0000 </r>
       <r>    2.6309    0.0000 </r>
       <r>    2.9301    0.0000 </r>
       <r>    3.3362    0.0000 </r>
       <r>    3.6773    0.0000 </r>
       <r>    4.0808    0.0000 </r>
       <r>    4.0923    0.0000 </r>
       <r>    4.1956    0.0000 </r>
       <r>    4.2906    0.0000 </r>
       <r>    4.5124    0.0000 </r>
      </set>
      <set comment="kpoint 2">
       <r>  -19.4131    1.0000 </r>
       <r>  -18.4319    1.0000 </r>
       <r>  -15.3627    1.0000 </r>
       <r>  -15.1153    1.0000 </r>
       <r>  -12.6688    1.0000 </r>
       <r>  -12.2109    1.0000 </r>
       <r>  -11.7823    1.0000 </r>
       <r>  -11.5688    1.0000 </r>
       <r>  -10.5843    1.0000 </r>
       <r>  -10.3697    1.0000 </r>
       <r>   -9.8724    1.0000 </r>
       <r>   -8.2123    1.0000 </r>
       <r>   -7.7247    1.0000 </r>
       <r>   -7.7003    1.0000 </r>
       <r>   -6.9251    1.0000 </r>
       <r>   -6.6775    1.0000 </r>
       <r>   -6.2475    1.0000 </r>
       <r>   -5.8906    1.0000 </r>
       <r>   -5.8254    1.0000 </r>
       <r>   -5.2094    1.0000 </r>
       <r>   -4.8090    0.1308 </r>
       <r>   -4.6508    0.0000 </r>
       <r>   -2.6866    0.0000 </r>
       <r>   -1.8395    0.0000 </r>
       <r>   -1.6795    0.0000 </r>
       <r>   -1.2885    0.0000 </r>
       <r>   -0.6591    0.0000 </r>
       <r>   -0.1421    0.0000 </r>
       <r>    0.4120    0.0000 </r>
       <r>    0.8424    0.0000 </r>
       <r>    1.0321    0.0000 </r>
       <r>    1.3331    0.0000 </r>
       <r>    1.3596    0.0000 </r>
       <r>    1.6602    0.0000 </r>
       <r>    1.9106    0.0000 </r>
       <r>    2.1746    0.0000 </r>
       <r>    2.2905    0.0000 </r>
       <r>    2.6673    0.0000 </r>
       <r>    2.7613    0.0000 </r>
       <r>    2.7643    0.0000 </r>
       <r>    2.9810    0.0000 </r>
       <r>    3.3285    0.0000 </r>
       <r>    3.4039    0.0000 </r>
       <r>    3.6597    0.0000 </r>
       <r>    3.7219    0.0000 </r>
       <r>    4.0503    0.0000 </r>
       <r>    4.2055    0.0000 </r>
       <r>    4.4060    0.0000 </r>
      </set>
      <set comment="kpoint 3">
       <r>  -19.3304    1.0000 </r>
       <r>  -18.5579    1.0000 </r>
       <r>  -15.3200    1.0000 </r>
       <r>  -15.1043    1.0000 </r>
       <r>  -12.6551    1.0000 </r>
       <r>  -12.5349    1.0000 </r>
       <r>  -11.6687    1.0000 </r>
       <r>  -11.5157    1.0000 </r>
       <r>  -10.5639    1.0000 </r>
       <r>  -10.0381    1.0000 </r>
       <r>   -9.3984    1.0000 </r>
       <r>   -8.7057    1.0000 </r>
       <r>   -7.6405    1.0000 </r>
       <r>   -7.6076    1.0000 </r>
       <r>   -7.1848    1.0000 </r>
       <r>   -6.7057    1.0000 </r>
       <r>   -6.3580    1.0000 </r>
       <r>   -6.0390    1.0000 </r>
       <r>   -5.9977    1.0000 </r>
       <r>   -5.1628    1.0000 </r>
       <r>   -4.9217    0.9806 </r>
       <r>   -4.8295    0.2936 </r>
       <r>   -2.5911    0.0000 </r>
       <r>   -1.9189    0.0000 </r>
       <r>   -1.3503    0.0000 </r>
       <r>   -0.7999    0.0000 </r>
       <r>   -0.6795    0.0000 </r>
       <r>   -0.0646    0.0000 </r>
       <r>    0.6564    0.0000 </r>
       <r>    0.8426    0.0000 </r>
       <r>    1.1992    0.0000 </r>
       <r>    1.4535    0.0000 </r>
       <r>    1.4951    0.0000 </r>
       <r>    1.5379    0.0000 </r>
       <r>    2.0491    0.0000 </r>
       <r>    2.3155    0.0000 </r>
       <r>    2.5084    0.0000 </r>
       <r>    2.6481    0.0000 </r>
       <r>    2.7989    0.0000 </r>
       <r>    2.8512    0.0000 </r>
       <r>    2.9388    0.0000 </r>
       <r>    3.0837    0.0000 </r>
       <r>    3.1750    0.0000 </r>
       <r>    3.3224    0.0000 </r>
       <r>    3.6054    0.0000 </r>
       <r>    3.6830    0.0000 </r>
       <r>    3.9549    0.0000 </r>
       <r>    4.0331    0.0000 </r>
      </set>
      <set comment="kpoint 4">
       <r>  -19.2112    1.0000 </r>
       <r>  -18.7191    1.0000 </r>
       <r>  -15.2581    1.0000 </r>
       <r>  -15.1063    1.0000 </r>
       <r>  -12.7603    1.0000 </r>
       <r>  -12.7506    1.0000 </r>
       <r>  -11.5041    1.0000 </r>
       <r>  -11.1810    1.0000 </r>
       <r>  -10.8043    1.0000 </r>
       <r>   -9.6334    1.0000 </r>
       <r>   -9.1535    1.0000 </r>
       <r>   -8.9033    1.0000 </r>
       <r>   -7.5371    1.0000 </r>
       <r>   -7.5132    1.0000 </r>
       <r>   -7.5060    1.0000 </r>
       <r>   -7.0271    1.0000 </r>
       <r>   -6.2211    1.0000 </r>
       <r>   -6.1989    1.0000 </r>
       <r>   -6.1812    1.0000 </r>
       <r>   -5.2652    1.0000 </r>
       <r>   -5.0968    1.0000 </r>
       <r>   -4.8773    0.7911 </r>
       <r>   -2.4644    0.0000 </r>
       <r>   -2.0330    0.0000 </r>
       <r>   -0.8196    0.0000 </r>
       <r>   -0.6271    0.0000 </r>
       <r>   -0.2140    0.0000 </r>
       <r>   -0.1470    0.0000 </r>
       <r>    0.8251    0.0000 </r>
       <r>    0.9499    0.0000 </r>
       <r>    1.3013    0.0000 </r>
       <r>    1.4476    0.0000 </r>
       <r>    1.6398    0.0000 </r>
       <r>    1.8014    0.0000 </r>
       <r>    1.8950    0.0000 </r>
       <r>    2.1851    0.0000 </r>
       <r>    2.4501    0.0000 </r>
       <r>    2.4765    0.0000 </r>
       <r>    2.6843    0.0000 </r>
       <r>    2.7399    0.0000 </r>
       <r>    2.8406    0.0000 </r>
       <r>    2.9694    0.0000 </r>
       <r>    3.1462    0.0000 </r>
       <r>    3.4386    0.0000 </r>
       <r>    3.4631    0.0000 </r>
       <r>    3.5168    0.0000 </r>
       <r>    3.5424    0.0000 </r>
       <r>    3.8903    0.0000 </r>
      </set>
      <set comment="kpoint 5">
       <r>  -19.0622    1.0000 </r>
       <r>  -18.8935    1.0000 </r>
       <r>  -15.1900    1.0000 </r>
       <r>  -15.1346    1.0000 </r>
       <r>  -12.8638    1.0000 </r>
       <r>  -12.8484    1.0000 </r>
       <r>  -11.2962    1.0000 </r>
       <r>  -11.0570    1.0000 </r>
       <r>  -10.6652    1.0000 </r>
       <r>  -10.0703    1.0000 </r>
       <r>   -8.8405    1.0000 </r>
       <r>   -8.5990    1.0000 </r>
       <r>   -7.7207    1.0000 </r>
       <r>   -7.4543    1.0000 </r>
       <r>   -7.4533    1.0000 </r>
       <r>   -7.4398    1.0000 </r>
       <r>   -6.3082    1.0000 </r>
       <r>   -6.3047    1.0000 </r>
       <r>   -5.9585    1.0000 </r>
       <r>   -5.6283    1.0000 </r>
       <r>   -5.0199    1.0000 </r>
       <r>   -4.9430    0.9962 </r>
       <r>   -2.3197    0.0000 </r>
       <r>   -2.1711    0.0000 </r>
       <r>   -0.4987    0.0000 </r>
       <r>   -0.3216    0.0000 </r>
       <r>   -0.1573    0.0000 </r>
       <r>    0.4375    0.0000 </r>
       <r>    0.5055    0.0000 </r>
       <r>    1.0808    0.0000 </r>
       <r>    1.1407    0.0000 </r>
       <r>    1.1894    0.0000 </r>
       <r>    1.7670    0.0000 </r>
       <r>    1.8349    0.0000 </r>
       <r>    2.1269    0.0000 </r>
       <r>    2.1475    0.0000 </r>
       <r>    2.2214    0.0000 </r>
       <r>    2.4721    0.0000 </r>
       <r>    2.5609    0.0000 </r>
       <r>    2.6304    0.0000 </r>
       <r>    2.8271    0.0000 </r>
       <r>    2.9276    0.0000 </r>
       <r>    2.9940    0.0000 </r>
       <r>    3.1773    0.0000 </r>
       <r>    3.4267    0.0000 </r>
       <r>    3.4394    0.0000 </r>
       <r>    3.6651    0.0000 </r>
       <r>    3.8767    0.0000 </r>
      </set>
      <set comment="kpoint 6">
       <r>  -19.4450    1.0000 </r>
       <r>  -18.3810    1.0000 </r>
       <r>  -15.3814    1.0000 </r>
       <r>  -15.0928    1.0000 </r>
       <r>  -12.8739    1.0000 </r>
       <r>  -11.9988    1.0000 </r>
       <r>  -11.8183    1.0000 </r>
       <r>  -11.2719    1.0000 </r>
       <r>  -10.9073    1.0000 </r>
       <r>  -10.3168    1.0000 </r>
       <r>  -10.0861    1.0000 </r>
       <r>   -7.9701    1.0000 </r>
       <r>   -7.7751    1.0000 </r>
       <r>   -7.6458    1.0000 </r>
       <r>   -6.9456    1.0000 </r>
       <r>   -6.7619    1.0000 </r>
       <r>   -6.3609    1.0000 </r>
       <r>   -5.9237    1.0000 </r>
       <r>   -5.7353    1.0000 </r>
       <r>   -5.2411    1.0000 </r>
       <r>   -4.7884    0.0442 </r>
       <r>   -4.2190    0.0000 </r>
       <r>   -2.7150    0.0000 </r>
       <r>   -1.8081    0.0000 </r>
       <r>   -1.7193    0.0000 </r>
       <r>   -1.5307    0.0000 </r>
       <r>   -0.8004    0.0000 </r>
       <r>   -0.2595    0.0000 </r>
       <r>    0.3676    0.0000 </r>
       <r>    0.9374    0.0000 </r>
       <r>    1.1360    0.0000 </r>
       <r>    1.2950    0.0000 </r>
       <r>    1.3116    0.0000 </r>
       <r>    1.8768    0.0000 </r>
       <r>    1.9126    0.0000 </r>
       <r>    2.0405    0.0000 </r>
       <r>    2.1969    0.0000 </r>
       <r>    2.3868    0.0000 </r>
       <r>    2.6751    0.0000 </r>
       <r>    2.7891    0.0000 </r>
       <r>    2.9671    0.0000 </r>
       <r>    3.3929    0.0000 </r>
       <r>    3.5111    0.0000 </r>
       <r>    3.6120    0.0000 </r>
       <r>    3.8723    0.0000 </r>
       <r>    4.0173    0.0000 </r>
       <r>    4.2664    0.0000 </r>
       <r>    4.3147    0.0000 </r>
      </set>
      <set comment="kpoint 7">
       <r>  -19.4031    1.0000 </r>
       <r>  -18.4469    1.0000 </r>
       <r>  -15.3855    1.0000 </r>
       <r>  -15.0748    1.0000 </r>
       <r>  -12.8449    1.0000 </r>
       <r>  -12.1050    1.0000 </r>
       <r>  -11.7612    1.0000 </r>
       <r>  -11.5184    1.0000 </r>
       <r>  -10.5240    1.0000 </r>
       <r>  -10.4133    1.0000 </r>
       <r>   -9.7461    1.0000 </r>
       <r>   -8.2624    1.0000 </r>
       <r>   -7.8420    1.0000 </r>
       <r>   -7.5031    1.0000 </r>
       <r>   -7.0063    1.0000 </r>
       <r>   -6.7841    1.0000 </r>
       <r>   -6.4357    1.0000 </r>
       <r>   -6.1166    1.0000 </r>
       <r>   -5.6864    1.0000 </r>
       <r>   -5.2140    1.0000 </r>
       <r>   -4.8027    0.0968 </r>
       <r>   -4.4228    0.0000 </r>
       <r>   -2.6721    0.0000 </r>
       <r>   -1.8531    0.0000 </r>
       <r>   -1.6189    0.0000 </r>
       <r>   -1.2458    0.0000 </r>
       <r>   -0.8100    0.0000 </r>
       <r>   -0.0706    0.0000 </r>
       <r>    0.5338    0.0000 </r>
       <r>    0.9183    0.0000 </r>
       <r>    1.1172    0.0000 </r>
       <r>    1.3865    0.0000 </r>
       <r>    1.4012    0.0000 </r>
       <r>    1.6429    0.0000 </r>
       <r>    1.9561    0.0000 </r>
       <r>    2.1359    0.0000 </r>
       <r>    2.2581    0.0000 </r>
       <r>    2.5809    0.0000 </r>
       <r>    2.8704    0.0000 </r>
       <r>    2.9744    0.0000 </r>
       <r>    3.0247    0.0000 </r>
       <r>    3.1181    0.0000 </r>
       <r>    3.4375    0.0000 </r>
       <r>    3.4528    0.0000 </r>
       <r>    3.6145    0.0000 </r>
       <r>    3.9550    0.0000 </r>
       <r>    4.1005    0.0000 </r>
       <r>    4.2752    0.0000 </r>
      </set>
      <set comment="kpoint 8">
       <r>  -19.3214    1.0000 </r>
       <r>  -18.5671    1.0000 </r>
       <r>  -15.3695    1.0000 </r>
       <r>  -15.0684    1.0000 </r>
       <r>  -12.8596    1.0000 </r>
       <r>  -12.2463    1.0000 </r>
       <r>  -11.6492    1.0000 </r>
       <r>  -11.5517    1.0000 </r>
       <r>  -10.5882    1.0000 </r>
       <r>  -10.0413    1.0000 </r>
       <r>   -9.3018    1.0000 </r>
       <r>   -8.7260    1.0000 </r>
       <r>   -7.8371    1.0000 </r>
       <r>   -7.3911    1.0000 </r>
       <r>   -7.2594    1.0000 </r>
       <r>   -6.6737    1.0000 </r>
       <r>   -6.6030    1.0000 </r>
       <r>   -6.2892    1.0000 </r>
       <r>   -5.7454    1.0000 </r>
       <r>   -5.1663    1.0000 </r>
       <r>   -4.8337    0.3358 </r>
       <r>   -4.7813    0.0284 </r>
       <r>   -2.5858    0.0000 </r>
       <r>   -1.9336    0.0000 </r>
       <r>   -1.3019    0.0000 </r>
       <r>   -0.8305    0.0000 </r>
       <r>   -0.7535    0.0000 </r>
       <r>    0.0961    0.0000 </r>
       <r>    0.8085    0.0000 </r>
       <r>    0.8361    0.0000 </r>
       <r>    1.2208    0.0000 </r>
       <r>    1.4316    0.0000 </r>
       <r>    1.5487    0.0000 </r>
       <r>    1.6033    0.0000 </r>
       <r>    2.0830    0.0000 </r>
       <r>    2.3271    0.0000 </r>
       <r>    2.3555    0.0000 </r>
       <r>    2.4306    0.0000 </r>
       <r>    2.6389    0.0000 </r>
       <r>    2.9312    0.0000 </r>
       <r>    3.1331    0.0000 </r>
       <r>    3.1705    0.0000 </r>
       <r>    3.2655    0.0000 </r>
       <r>    3.3163    0.0000 </r>
       <r>    3.6220    0.0000 </r>
       <r>    3.7462    0.0000 </r>
       <r>    3.7974    0.0000 </r>
       <r>    4.0040    0.0000 </r>
      </set>
      <set comment="kpoint 9">
       <r>  -19.2038    1.0000 </r>
       <r>  -18.7225    1.0000 </r>
       <r>  -15.3202    1.0000 </r>
       <r>  -15.0965    1.0000 </r>
       <r>  -12.8818    1.0000 </r>
       <r>  -12.4749    1.0000 </r>
       <r>  -11.4874    1.0000 </r>
       <r>  -11.2325    1.0000 </r>
       <r>  -10.8118    1.0000 </r>
       <r>   -9.6749    1.0000 </r>
       <r>   -9.2632    1.0000 </r>
       <r>   -8.7504    1.0000 </r>
       <r>   -7.7607    1.0000 </r>
       <r>   -7.5655    1.0000 </r>
       <r>   -7.3790    1.0000 </r>
       <r>   -6.9516    1.0000 </r>
       <r>   -6.4051    1.0000 </r>
       <r>   -6.3466    1.0000 </r>
       <r>   -5.8935    1.0000 </r>
       <r>   -5.2473    1.0000 </r>
       <r>   -5.0788    1.0000 </r>
       <r>   -4.8788    0.8029 </r>
       <r>   -2.4645    0.0000 </r>
       <r>   -2.0444    0.0000 </r>
       <r>   -0.7905    0.0000 </r>
       <r>   -0.6161    0.0000 </r>
       <r>   -0.3348    0.0000 </r>
       <r>    0.0367    0.0000 </r>
       <r>    0.8812    0.0000 </r>
       <r>    1.0101    0.0000 </r>
       <r>    1.2018    0.0000 </r>
       <r>    1.5468    0.0000 </r>
       <r>    1.6489    0.0000 </r>
       <r>    1.7543    0.0000 </r>
       <r>    1.8588    0.0000 </r>
       <r>    2.2184    0.0000 </r>
       <r>    2.3915    0.0000 </r>
       <r>    2.5586    0.0000 </r>
       <r>    2.6586    0.0000 </r>
       <r>    2.7044    0.0000 </r>
       <r>    2.7565    0.0000 </r>
       <r>    3.0355    0.0000 </r>
       <r>    3.2142    0.0000 </r>
       <r>    3.4400    0.0000 </r>
       <r>    3.4457    0.0000 </r>
       <r>    3.4860    0.0000 </r>
       <r>    3.8111    0.0000 </r>
       <r>    3.8395    0.0000 </r>
      </set>
      <set comment="kpoint 10">
       <r>  -19.0573    1.0000 </r>
       <r>  -18.8921    1.0000 </r>
       <r>  -15.2440    1.0000 </r>
       <r>  -15.1610    1.0000 </r>
       <r>  -12.8322    1.0000 </r>
       <r>  -12.6900    1.0000 </r>
       <r>  -11.2842    1.0000 </r>
       <r>  -11.0526    1.0000 </r>
       <r>  -10.7204    1.0000 </r>
       <r>  -10.1293    1.0000 </r>
       <r>   -8.9190    1.0000 </r>
       <r>   -8.6014    1.0000 </r>
       <r>   -7.6589    1.0000 </r>
       <r>   -7.6306    1.0000 </r>
       <r>   -7.4821    1.0000 </r>
       <r>   -7.3436    1.0000 </r>
       <r>   -6.2569    1.0000 </r>
       <r>   -6.0832    1.0000 </r>
       <r>   -6.0826    1.0000 </r>
       <r>   -5.6850    1.0000 </r>
       <r>   -5.0145    1.0000 </r>
       <r>   -4.9418    0.9958 </r>
       <r>   -2.3234    0.0000 </r>
       <r>   -2.1784    0.0000 </r>
       <r>   -0.4138    0.0000 </r>
       <r>   -0.1773    0.0000 </r>
       <r>   -0.1669    0.0000 </r>
       <r>    0.1272    0.0000 </r>
       <r>    0.7781    0.0000 </r>
       <r>    0.9975    0.0000 </r>
       <r>    1.0495    0.0000 </r>
       <r>    1.1030    0.0000 </r>
       <r>    1.8464    0.0000 </r>
       <r>    1.8772    0.0000 </r>
       <r>    2.1645    0.0000 </r>
       <r>    2.2177    0.0000 </r>
       <r>    2.2668    0.0000 </r>
       <r>    2.5244    0.0000 </r>
       <r>    2.6068    0.0000 </r>
       <r>    2.6605    0.0000 </r>
       <r>    2.8190    0.0000 </r>
       <r>    2.9774    0.0000 </r>
       <r>    3.0577    0.0000 </r>
       <r>    3.0821    0.0000 </r>
       <r>    3.3629    0.0000 </r>
       <r>    3.5225    0.0000 </r>
       <r>    3.6491    0.0000 </r>
       <r>    3.7113    0.0000 </r>
      </set>
      <set comment="kpoint 11">
       <r>  -19.4171    1.0000 </r>
       <r>  -18.4299    1.0000 </r>
       <r>  -15.3737    1.0000 </r>
       <r>  -15.0085    1.0000 </r>
       <r>  -13.1538    1.0000 </r>
       <r>  -12.2244    1.0000 </r>
       <r>  -11.7571    1.0000 </r>
       <r>  -10.9183    1.0000 </r>
       <r>  -10.5894    1.0000 </r>
       <r>  -10.4621    1.0000 </r>
       <r>   -9.7621    1.0000 </r>
       <r>   -8.1116    1.0000 </r>
       <r>   -7.7074    1.0000 </r>
       <r>   -7.4872    1.0000 </r>
       <r>   -7.4317    1.0000 </r>
       <r>   -6.8495    1.0000 </r>
       <r>   -6.6796    1.0000 </r>
       <r>   -6.1587    1.0000 </r>
       <r>   -5.8568    1.0000 </r>
       <r>   -5.2260    1.0000 </r>
       <r>   -4.7954    0.0660 </r>
       <r>   -3.6801    0.0000 </r>
       <r>   -2.6467    0.0000 </r>
       <r>   -1.8836    0.0000 </r>
       <r>   -1.6339    0.0000 </r>
       <r>   -1.1402    0.0000 </r>
       <r>   -1.1214    0.0000 </r>
       <r>   -0.2931    0.0000 </r>
       <r>    0.6477    0.0000 </r>
       <r>    1.0307    0.0000 </r>
       <r>    1.4263    0.0000 </r>
       <r>    1.4516    0.0000 </r>
       <r>    1.5166    0.0000 </r>
       <r>    1.8097    0.0000 </r>
       <r>    2.0147    0.0000 </r>
       <r>    2.1188    0.0000 </r>
       <r>    2.3232    0.0000 </r>
       <r>    2.4130    0.0000 </r>
       <r>    2.8140    0.0000 </r>
       <r>    2.8589    0.0000 </r>
       <r>    2.9266    0.0000 </r>
       <r>    2.9883    0.0000 </r>
       <r>    3.1012    0.0000 </r>
       <r>    3.4684    0.0000 </r>
       <r>    3.5825    0.0000 </r>
       <r>    3.5900    0.0000 </r>
       <r>    3.7294    0.0000 </r>
       <r>    3.8623    0.0000 </r>
      </set>
      <set comment="kpoint 12">
       <r>  -19.3765    1.0000 </r>
       <r>  -18.4865    1.0000 </r>
       <r>  -15.4182    1.0000 </r>
       <r>  -14.9986    1.0000 </r>
       <r>  -13.0912    1.0000 </r>
       <r>  -12.1478    1.0000 </r>
       <r>  -11.7021    1.0000 </r>
       <r>  -11.2382    1.0000 </r>
       <r>  -10.5275    1.0000 </r>
       <r>  -10.3326    1.0000 </r>
       <r>   -9.4583    1.0000 </r>
       <r>   -8.3865    1.0000 </r>
       <r>   -7.8732    1.0000 </r>
       <r>   -7.4100    1.0000 </r>
       <r>   -7.2727    1.0000 </r>
       <r>   -7.0340    1.0000 </r>
       <r>   -6.6121    1.0000 </r>
       <r>   -6.3674    1.0000 </r>
       <r>   -5.6592    1.0000 </r>
       <r>   -5.1990    1.0000 </r>
       <r>   -4.8122    0.1514 </r>
       <r>   -4.0414    0.0000 </r>
       <r>   -2.6213    0.0000 </r>
       <r>   -1.9141    0.0000 </r>
       <r>   -1.4913    0.0000 </r>
       <r>   -1.0375    0.0000 </r>
       <r>   -0.9807    0.0000 </r>
       <r>   -0.0421    0.0000 </r>
       <r>    0.8488    0.0000 </r>
       <r>    1.0122    0.0000 </r>
       <r>    1.3799    0.0000 </r>
       <r>    1.4819    0.0000 </r>
       <r>    1.5489    0.0000 </r>
       <r>    1.6396    0.0000 </r>
       <r>    2.0799    0.0000 </r>
       <r>    2.0853    0.0000 </r>
       <r>    2.3439    0.0000 </r>
       <r>    2.3950    0.0000 </r>
       <r>    2.5365    0.0000 </r>
       <r>    2.9866    0.0000 </r>
       <r>    3.0453    0.0000 </r>
       <r>    3.1735    0.0000 </r>
       <r>    3.3604    0.0000 </r>
       <r>    3.4597    0.0000 </r>
       <r>    3.5679    0.0000 </r>
       <r>    3.6356    0.0000 </r>
       <r>    3.8069    0.0000 </r>
       <r>    3.8100    0.0000 </r>
      </set>
      <set comment="kpoint 13">
       <r>  -19.2974    1.0000 </r>
       <r>  -18.5920    1.0000 </r>
       <r>  -15.4465    1.0000 </r>
       <r>  -15.0336    1.0000 </r>
       <r>  -12.9838    1.0000 </r>
       <r>  -11.9908    1.0000 </r>
       <r>  -11.5948    1.0000 </r>
       <r>  -11.5334    1.0000 </r>
       <r>  -10.6560    1.0000 </r>
       <r>   -9.9692    1.0000 </r>
       <r>   -9.2460    1.0000 </r>
       <r>   -8.6617    1.0000 </r>
       <r>   -7.9686    1.0000 </r>
       <r>   -7.4116    1.0000 </r>
       <r>   -7.2868    1.0000 </r>
       <r>   -7.1262    1.0000 </r>
       <r>   -6.6213    1.0000 </r>
       <r>   -6.3882    1.0000 </r>
       <r>   -5.5702    1.0000 </r>
       <r>   -5.1522    1.0000 </r>
       <r>   -4.8472    0.4839 </r>
       <r>   -4.5998    0.0000 </r>
       <r>   -2.5613    0.0000 </r>
       <r>   -1.9818    0.0000 </r>
       <r>   -1.1800    0.0000 </r>
       <r>   -0.8222    0.0000 </r>
       <r>   -0.7501    0.0000 </r>
       <r>    0.2634    0.0000 </r>
       <r>    0.8523    0.0000 </r>
       <r>    1.1558    0.0000 </r>
       <r>    1.2548    0.0000 </r>
       <r>    1.4936    0.0000 </r>
       <r>    1.6523    0.0000 </r>
       <r>    1.7586    0.0000 </r>
       <r>    1.9082    0.0000 </r>
       <r>    2.0763    0.0000 </r>
       <r>    2.2635    0.0000 </r>
       <r>    2.4594    0.0000 </r>
       <r>    2.6856    0.0000 </r>
       <r>    2.8767    0.0000 </r>
       <r>    2.9806    0.0000 </r>
       <r>    3.3047    0.0000 </r>
       <r>    3.3621    0.0000 </r>
       <r>    3.4890    0.0000 </r>
       <r>    3.6090    0.0000 </r>
       <r>    3.6849    0.0000 </r>
       <r>    3.7884    0.0000 </r>
       <r>    3.9260    0.0000 </r>
      </set>
      <set comment="kpoint 14">
       <r>  -19.1843    1.0000 </r>
       <r>  -18.7322    1.0000 </r>
       <r>  -15.4251    1.0000 </r>
       <r>  -15.1241    1.0000 </r>
       <r>  -12.8339    1.0000 </r>
       <r>  -12.0982    1.0000 </r>
       <r>  -11.4413    1.0000 </r>
       <r>  -11.3804    1.0000 </r>
       <r>  -10.8354    1.0000 </r>
       <r>   -9.7917    1.0000 </r>
       <r>   -9.3831    1.0000 </r>
       <r>   -8.5468    1.0000 </r>
       <r>   -7.9646    1.0000 </r>
       <r>   -7.5742    1.0000 </r>
       <r>   -7.4736    1.0000 </r>
       <r>   -6.9951    1.0000 </r>
       <r>   -6.6493    1.0000 </r>
       <r>   -6.2150    1.0000 </r>
       <r>   -5.6155    1.0000 </r>
       <r>   -5.2691    1.0000 </r>
       <r>   -5.0553    1.0000 </r>
       <r>   -4.8807    0.8180 </r>
       <r>   -2.4621    0.0000 </r>
       <r>   -2.0808    0.0000 </r>
       <r>   -0.7102    0.0000 </r>
       <r>   -0.5091    0.0000 </r>
       <r>   -0.4766    0.0000 </r>
       <r>    0.3535    0.0000 </r>
       <r>    0.7337    0.0000 </r>
       <r>    1.0906    0.0000 </r>
       <r>    1.1658    0.0000 </r>
       <r>    1.5117    0.0000 </r>
       <r>    1.7102    0.0000 </r>
       <r>    1.8098    0.0000 </r>
       <r>    2.0176    0.0000 </r>
       <r>    2.1738    0.0000 </r>
       <r>    2.3264    0.0000 </r>
       <r>    2.5202    0.0000 </r>
       <r>    2.6898    0.0000 </r>
       <r>    2.8247    0.0000 </r>
       <r>    2.8513    0.0000 </r>
       <r>    3.0861    0.0000 </r>
       <r>    3.3550    0.0000 </r>
       <r>    3.4135    0.0000 </r>
       <r>    3.5022    0.0000 </r>
       <r>    3.5064    0.0000 </r>
       <r>    3.7223    0.0000 </r>
       <r>    3.7782    0.0000 </r>
      </set>
      <set comment="kpoint 15">
       <r>  -19.0445    1.0000 </r>
       <r>  -18.8889    1.0000 </r>
       <r>  -15.3517    1.0000 </r>
       <r>  -15.2420    1.0000 </r>
       <r>  -12.6320    1.0000 </r>
       <r>  -12.3785    1.0000 </r>
       <r>  -11.2521    1.0000 </r>
       <r>  -11.0427    1.0000 </r>
       <r>  -10.8905    1.0000 </r>
       <r>  -10.3127    1.0000 </r>
       <r>   -9.0093    1.0000 </r>
       <r>   -8.6492    1.0000 </r>
       <r>   -7.8652    1.0000 </r>
       <r>   -7.6902    1.0000 </r>
       <r>   -7.4569    1.0000 </r>
       <r>   -7.1635    1.0000 </r>
       <r>   -6.3486    1.0000 </r>
       <r>   -5.9844    1.0000 </r>
       <r>   -5.8467    1.0000 </r>
       <r>   -5.7688    1.0000 </r>
       <r>   -5.0029    1.0000 </r>
       <r>   -4.9387    0.9946 </r>
       <r>   -2.3359    0.0000 </r>
       <r>   -2.2029    0.0000 </r>
       <r>   -0.2079    0.0000 </r>
       <r>   -0.1795    0.0000 </r>
       <r>   -0.1756    0.0000 </r>
       <r>    0.1212    0.0000 </r>
       <r>    0.8161    0.0000 </r>
       <r>    0.8229    0.0000 </r>
       <r>    0.9480    0.0000 </r>
       <r>    1.0477    0.0000 </r>
       <r>    1.9955    0.0000 </r>
       <r>    2.0155    0.0000 </r>
       <r>    2.2430    0.0000 </r>
       <r>    2.3523    0.0000 </r>
       <r>    2.3689    0.0000 </r>
       <r>    2.5277    0.0000 </r>
       <r>    2.6670    0.0000 </r>
       <r>    2.6673    0.0000 </r>
       <r>    2.8509    0.0000 </r>
       <r>    3.0667    0.0000 </r>
       <r>    3.0783    0.0000 </r>
       <r>    3.2487    0.0000 </r>
       <r>    3.3676    0.0000 </r>
       <r>    3.5664    0.0000 </r>
       <r>    3.5920    0.0000 </r>
       <r>    3.6730    0.0000 </r>
      </set>
      <set comment="kpoint 16">
       <r>  -19.3822    1.0000 </r>
       <r>  -18.4882    1.0000 </r>
       <r>  -15.3609    1.0000 </r>
       <r>  -14.9012    1.0000 </r>
       <r>  -13.4250    1.0000 </r>
       <r>  -12.4089    1.0000 </r>
       <r>  -11.6726    1.0000 </r>
       <r>  -10.6325    1.0000 </r>
       <r>  -10.5713    1.0000 </r>
       <r>  -10.1786    1.0000 </r>
       <r>   -9.3161    1.0000 </r>
       <r>   -8.2848    1.0000 </r>
       <r>   -8.1232    1.0000 </r>
       <r>   -7.5926    1.0000 </r>
       <r>   -7.3504    1.0000 </r>
       <r>   -7.1677    1.0000 </r>
       <r>   -6.6669    1.0000 </r>
       <r>   -6.4003    1.0000 </r>
       <r>   -6.0747    1.0000 </r>
       <r>   -5.1888    1.0000 </r>
       <r>   -4.8235    0.2386 </r>
       <r>   -3.2151    0.0000 </r>
       <r>   -2.5466    0.0000 </r>
       <r>   -1.9910    0.0000 </r>
       <r>   -1.5448    0.0000 </r>
       <r>   -1.3632    0.0000 </r>
       <r>   -0.5354    0.0000 </r>
       <r>   -0.3485    0.0000 </r>
       <r>    1.0320    0.0000 </r>
       <r>    1.1307    0.0000 </r>
       <r>    1.5913    0.0000 </r>
       <r>    1.7072    0.0000 </r>
       <r>    1.7452    0.0000 </r>
       <r>    1.8373    0.0000 </r>
       <r>    1.9431    0.0000 </r>
       <r>    2.2254    0.0000 </r>
       <r>    2.2434    0.0000 </r>
       <r>    2.4444    0.0000 </r>
       <r>    2.4572    0.0000 </r>
       <r>    2.5313    0.0000 </r>
       <r>    2.8304    0.0000 </r>
       <r>    2.9723    0.0000 </r>
       <r>    3.0810    0.0000 </r>
       <r>    3.1597    0.0000 </r>
       <r>    3.2288    0.0000 </r>
       <r>    3.4658    0.0000 </r>
       <r>    3.4742    0.0000 </r>
       <r>    3.8855    0.0000 </r>
      </set>
      <set comment="kpoint 17">
       <r>  -19.3432    1.0000 </r>
       <r>  -18.5345    1.0000 </r>
       <r>  -15.4334    1.0000 </r>
       <r>  -14.9375    1.0000 </r>
       <r>  -13.2631    1.0000 </r>
       <r>  -12.2995    1.0000 </r>
       <r>  -11.6207    1.0000 </r>
       <r>  -10.8466    1.0000 </r>
       <r>  -10.6689    1.0000 </r>
       <r>  -10.0210    1.0000 </r>
       <r>   -9.2289    1.0000 </r>
       <r>   -8.4435    1.0000 </r>
       <r>   -7.9997    1.0000 </r>
       <r>   -7.8192    1.0000 </r>
       <r>   -7.3549    1.0000 </r>
       <r>   -7.1656    1.0000 </r>
       <r>   -6.6704    1.0000 </r>
       <r>   -6.4478    1.0000 </r>
       <r>   -5.7764    1.0000 </r>
       <r>   -5.1660    1.0000 </r>
       <r>   -4.8369    0.3693 </r>
       <r>   -3.7880    0.0000 </r>
       <r>   -2.5344    0.0000 </r>
       <r>   -2.0109    0.0000 </r>
       <r>   -1.3922    0.0000 </r>
       <r>   -0.9776    0.0000 </r>
       <r>   -0.5923    0.0000 </r>
       <r>   -0.0988    0.0000 </r>
       <r>    1.0345    0.0000 </r>
       <r>    1.2439    0.0000 </r>
       <r>    1.5155    0.0000 </r>
       <r>    1.5441    0.0000 </r>
       <r>    1.6575    0.0000 </r>
       <r>    1.8545    0.0000 </r>
       <r>    1.8761    0.0000 </r>
       <r>    2.0785    0.0000 </r>
       <r>    2.3424    0.0000 </r>
       <r>    2.4402    0.0000 </r>
       <r>    2.5485    0.0000 </r>
       <r>    2.5990    0.0000 </r>
       <r>    2.9166    0.0000 </r>
       <r>    3.1055    0.0000 </r>
       <r>    3.1657    0.0000 </r>
       <r>    3.3202    0.0000 </r>
       <r>    3.4253    0.0000 </r>
       <r>    3.4431    0.0000 </r>
       <r>    3.6906    0.0000 </r>
       <r>    3.8890    0.0000 </r>
      </set>
      <set comment="kpoint 18">
       <r>  -19.2675    1.0000 </r>
       <r>  -18.6232    1.0000 </r>
       <r>  -15.4990    1.0000 </r>
       <r>  -15.0411    1.0000 </r>
       <r>  -12.9805    1.0000 </r>
       <r>  -12.0768    1.0000 </r>
       <r>  -11.5204    1.0000 </r>
       <r>  -11.2002    1.0000 </r>
       <r>  -10.7479    1.0000 </r>
       <r>   -9.7994    1.0000 </r>
       <r>   -9.4337    1.0000 </r>
       <r>   -8.4118    1.0000 </r>
       <r>   -8.0037    1.0000 </r>
       <r>   -7.7583    1.0000 </r>
       <r>   -7.4514    1.0000 </r>
       <r>   -7.4050    1.0000 </r>
       <r>   -6.6357    1.0000 </r>
       <r>   -6.2133    1.0000 </r>
       <r>   -5.5496    1.0000 </r>
       <r>   -5.1249    1.0000 </r>
       <r>   -4.8710    0.7366 </r>
       <r>   -4.5307    0.0000 </r>
       <r>   -2.5045    0.0000 </r>
       <r>   -2.0611    0.0000 </r>
       <r>   -1.0854    0.0000 </r>
       <r>   -0.6007    0.0000 </r>
       <r>   -0.5647    0.0000 </r>
       <r>    0.2432    0.0000 </r>
       <r>    0.8214    0.0000 </r>
       <r>    1.0986    0.0000 </r>
       <r>    1.3283    0.0000 </r>
       <r>    1.5642    0.0000 </r>
       <r>    1.7279    0.0000 </r>
       <r>    1.8887    0.0000 </r>
       <r>    2.0141    0.0000 </r>
       <r>    2.1191    0.0000 </r>
       <r>    2.4408    0.0000 </r>
       <r>    2.5431    0.0000 </r>
       <r>    2.6460    0.0000 </r>
       <r>    2.8080    0.0000 </r>
       <r>    2.9014    0.0000 </r>
       <r>    3.0370    0.0000 </r>
       <r>    3.2825    0.0000 </r>
       <r>    3.3851    0.0000 </r>
       <r>    3.4490    0.0000 </r>
       <r>    3.5799    0.0000 </r>
       <r>    3.7174    0.0000 </r>
       <r>    3.7534    0.0000 </r>
      </set>
      <set comment="kpoint 19">
       <r>  -19.1602    1.0000 </r>
       <r>  -18.7451    1.0000 </r>
       <r>  -15.5085    1.0000 </r>
       <r>  -15.1883    1.0000 </r>
       <r>  -12.6495    1.0000 </r>
       <r>  -11.7963    1.0000 </r>
       <r>  -11.4860    1.0000 </r>
       <r>  -11.3795    1.0000 </r>
       <r>  -10.8728    1.0000 </r>
       <r>  -10.0534    1.0000 </r>
       <r>   -9.3598    1.0000 </r>
       <r>   -8.4339    1.0000 </r>
       <r>   -8.0836    1.0000 </r>
       <r>   -7.6781    1.0000 </r>
       <r>   -7.4532    1.0000 </r>
       <r>   -7.3727    1.0000 </r>
       <r>   -6.6314    1.0000 </r>
       <r>   -5.9264    1.0000 </r>
       <r>   -5.4546    1.0000 </r>
       <r>   -5.3474    1.0000 </r>
       <r>   -5.0482    1.0000 </r>
       <r>   -4.8801    0.8135 </r>
       <r>   -2.4456    0.0000 </r>
       <r>   -2.1426    0.0000 </r>
       <r>   -0.6783    0.0000 </r>
       <r>   -0.4876    0.0000 </r>
       <r>   -0.2172    0.0000 </r>
       <r>    0.4890    0.0000 </r>
       <r>    0.5894    0.0000 </r>
       <r>    0.7335    0.0000 </r>
       <r>    1.0776    0.0000 </r>
       <r>    1.8262    0.0000 </r>
       <r>    1.9302    0.0000 </r>
       <r>    1.9483    0.0000 </r>
       <r>    1.9852    0.0000 </r>
       <r>    2.2630    0.0000 </r>
       <r>    2.5192    0.0000 </r>
       <r>    2.5286    0.0000 </r>
       <r>    2.5817    0.0000 </r>
       <r>    3.0453    0.0000 </r>
       <r>    3.0498    0.0000 </r>
       <r>    3.1640    0.0000 </r>
       <r>    3.2173    0.0000 </r>
       <r>    3.3156    0.0000 </r>
       <r>    3.4825    0.0000 </r>
       <r>    3.5303    0.0000 </r>
       <r>    3.5953    0.0000 </r>
       <r>    3.7629    0.0000 </r>
      </set>
      <set comment="kpoint 20">
       <r>  -19.0291    1.0000 </r>
       <r>  -18.8858    1.0000 </r>
       <r>  -15.4509    1.0000 </r>
       <r>  -15.3364    1.0000 </r>
       <r>  -12.3156    1.0000 </r>
       <r>  -11.9866    1.0000 </r>
       <r>  -11.2111    1.0000 </r>
       <r>  -11.1640    1.0000 </r>
       <r>  -11.0343    1.0000 </r>
       <r>  -10.6142    1.0000 </r>
       <r>   -9.0227    1.0000 </r>
       <r>   -8.6858    1.0000 </r>
       <r>   -8.0462    1.0000 </r>
       <r>   -7.9031    1.0000 </r>
       <r>   -7.2193    1.0000 </r>
       <r>   -7.1057    1.0000 </r>
       <r>   -6.5462    1.0000 </r>
       <r>   -6.0400    1.0000 </r>
       <r>   -5.6756    1.0000 </r>
       <r>   -5.5050    1.0000 </r>
       <r>   -4.9925    1.0000 </r>
       <r>   -4.9344    0.9923 </r>
       <r>   -2.3544    0.0000 </r>
       <r>   -2.2460    0.0000 </r>
       <r>   -0.3882    0.0000 </r>
       <r>   -0.2843    0.0000 </r>
       <r>    0.0801    0.0000 </r>
       <r>    0.3407    0.0000 </r>
       <r>    0.6573    0.0000 </r>
       <r>    0.6682    0.0000 </r>
       <r>    0.8320    0.0000 </r>
       <r>    1.1869    0.0000 </r>
       <r>    2.1548    0.0000 </r>
       <r>    2.1792    0.0000 </r>
       <r>    2.2563    0.0000 </r>
       <r>    2.4093    0.0000 </r>
       <r>    2.4414    0.0000 </r>
       <r>    2.6140    0.0000 </r>
       <r>    2.7135    0.0000 </r>
       <r>    2.8618    0.0000 </r>
       <r>    3.0569    0.0000 </r>
       <r>    3.1551    0.0000 </r>
       <r>    3.2725    0.0000 </r>
       <r>    3.3832    0.0000 </r>
       <r>    3.4431    0.0000 </r>
       <r>    3.5098    0.0000 </r>
       <r>    3.5681    0.0000 </r>
       <r>    3.6569    0.0000 </r>
      </set>
      <set comment="kpoint 21">
       <r>  -19.3570    1.0000 </r>
       <r>  -18.5283    1.0000 </r>
       <r>  -15.3509    1.0000 </r>
       <r>  -14.8188    1.0000 </r>
       <r>  -13.5960    1.0000 </r>
       <r>  -12.5098    1.0000 </r>
       <r>  -11.6031    1.0000 </r>
       <r>  -10.7538    1.0000 </r>
       <r>  -10.3497    1.0000 </r>
       <r>   -9.7391    1.0000 </r>
       <r>   -9.0238    1.0000 </r>
       <r>   -8.5460    1.0000 </r>
       <r>   -8.3441    1.0000 </r>
       <r>   -7.8982    1.0000 </r>
       <r>   -7.4861    1.0000 </r>
       <r>   -6.9613    1.0000 </r>
       <r>   -6.6458    1.0000 </r>
       <r>   -6.5056    1.0000 </r>
       <r>   -6.3328    1.0000 </r>
       <r>   -5.1545    1.0000 </r>
       <r>   -4.8532    0.5509 </r>
       <r>   -2.9635    0.0000 </r>
       <r>   -2.4522    0.0000 </r>
       <r>   -2.0900    0.0000 </r>
       <r>   -1.4796    0.0000 </r>
       <r>   -1.4655    0.0000 </r>
       <r>   -0.3967    0.0000 </r>
       <r>    0.1957    0.0000 </r>
       <r>    1.0678    0.0000 </r>
       <r>    1.1674    0.0000 </r>
       <r>    1.4400    0.0000 </r>
       <r>    1.7003    0.0000 </r>
       <r>    1.9224    0.0000 </r>
       <r>    1.9356    0.0000 </r>
       <r>    2.0307    0.0000 </r>
       <r>    2.1155    0.0000 </r>
       <r>    2.2418    0.0000 </r>
       <r>    2.3678    0.0000 </r>
       <r>    2.4848    0.0000 </r>
       <r>    2.5294    0.0000 </r>
       <r>    2.6004    0.0000 </r>
       <r>    2.7295    0.0000 </r>
       <r>    2.8899    0.0000 </r>
       <r>    3.1207    0.0000 </r>
       <r>    3.1909    0.0000 </r>
       <r>    3.2825    0.0000 </r>
       <r>    3.3935    0.0000 </r>
       <r>    3.7415    0.0000 </r>
      </set>
      <set comment="kpoint 22">
       <r>  -19.3192    1.0000 </r>
       <r>  -18.5680    1.0000 </r>
       <r>  -15.4352    1.0000 </r>
       <r>  -14.9087    1.0000 </r>
       <r>  -13.3425    1.0000 </r>
       <r>  -12.4069    1.0000 </r>
       <r>  -11.5539    1.0000 </r>
       <r>  -10.7733    1.0000 </r>
       <r>  -10.5483    1.0000 </r>
       <r>   -9.6621    1.0000 </r>
       <r>   -9.2895    1.0000 </r>
       <r>   -8.4974    1.0000 </r>
       <r>   -8.1840    1.0000 </r>
       <r>   -7.7397    1.0000 </r>
       <r>   -7.7313    1.0000 </r>
       <r>   -7.2414    1.0000 </r>
       <r>   -6.6868    1.0000 </r>
       <r>   -6.2669    1.0000 </r>
       <r>   -5.9969    1.0000 </r>
       <r>   -5.1358    1.0000 </r>
       <r>   -4.8619    0.6465 </r>
       <r>   -3.6912    0.0000 </r>
       <r>   -2.4464    0.0000 </r>
       <r>   -2.1030    0.0000 </r>
       <r>   -1.3320    0.0000 </r>
       <r>   -0.8654    0.0000 </r>
       <r>   -0.1925    0.0000 </r>
       <r>    0.0109    0.0000 </r>
       <r>    0.7866    0.0000 </r>
       <r>    1.0097    0.0000 </r>
       <r>    1.5914    0.0000 </r>
       <r>    1.6595    0.0000 </r>
       <r>    1.9299    0.0000 </r>
       <r>    2.0716    0.0000 </r>
       <r>    2.0927    0.0000 </r>
       <r>    2.1666    0.0000 </r>
       <r>    2.2493    0.0000 </r>
       <r>    2.2802    0.0000 </r>
       <r>    2.5170    0.0000 </r>
       <r>    2.5973    0.0000 </r>
       <r>    2.6910    0.0000 </r>
       <r>    2.8181    0.0000 </r>
       <r>    3.0131    0.0000 </r>
[...]
       <r>   -9.2613    1.0000 </r>
       <r>   -8.3960    1.0000 </r>
       <r>   -8.1158    1.0000 </r>
       <r>   -7.8345    1.0000 </r>
       <r>   -7.6921    1.0000 </r>
       <r>   -7.2798    1.0000 </r>
       <r>   -6.6320    1.0000 </r>
       <r>   -5.6455    1.0000 </r>
       <r>   -5.4667    1.0000 </r>
       <r>   -5.4186    1.0000 </r>
       <r>   -5.0458    1.0000 </r>
       <r>   -4.8786    0.8014 </r>
       <r>   -2.4106    0.0000 </r>
       <r>   -2.2088    0.0000 </r>
       <r>   -0.6961    0.0000 </r>
       <r>   -0.2906    0.0000 </r>
       <r>    0.0686    0.0000 </r>
       <r>    0.3245    0.0000 </r>
       <r>    0.3270    0.0000 </r>
       <r>    0.5862    0.0000 </r>
       <r>    1.0360    0.0000 </r>
       <r>    1.9467    0.0000 </r>
       <r>    2.0305    0.0000 </r>
       <r>    2.1263    0.0000 </r>
       <r>    2.2601    0.0000 </r>
       <r>    2.3866    0.0000 </r>
       <r>    2.4446    0.0000 </r>
       <r>    2.6051    0.0000 </r>
       <r>    2.7789    0.0000 </r>
       <r>    2.8218    0.0000 </r>
       <r>    3.0452    0.0000 </r>
       <r>    3.1228    0.0000 </r>
       <r>    3.2702    0.0000 </r>
       <r>    3.3510    0.0000 </r>
       <r>    3.3811    0.0000 </r>
       <r>    3.4470    0.0000 </r>
       <r>    3.5304    0.0000 </r>
       <r>    3.6555    0.0000 </r>
      </set>
      <set comment="kpoint 25">
       <r>  -19.0185    1.0000 </r>
       <r>  -18.8843    1.0000 </r>
       <r>  -15.5072    1.0000 </r>
       <r>  -15.3969    1.0000 </r>
       <r>  -11.9474    1.0000 </r>
       <r>  -11.6665    1.0000 </r>
       <r>  -11.4255    1.0000 </r>
       <r>  -11.1805    1.0000 </r>
       <r>  -11.0318    1.0000 </r>
       <r>  -10.9738    1.0000 </r>
       <r>   -8.9960    1.0000 </r>
       <r>   -8.6940    1.0000 </r>
       <r>   -8.1356    1.0000 </r>
       <r>   -8.0351    1.0000 </r>
       <r>   -7.1850    1.0000 </r>
       <r>   -7.0593    1.0000 </r>
       <r>   -6.5865    1.0000 </r>
       <r>   -6.1659    1.0000 </r>
       <r>   -5.4491    1.0000 </r>
       <r>   -5.3834    1.0000 </r>
       <r>   -4.9872    1.0000 </r>
       <r>   -4.9305    0.9897 </r>
       <r>   -2.3638    0.0000 </r>
       <r>   -2.2911    0.0000 </r>
       <r>   -0.4789    0.0000 </r>
       <r>   -0.3663    0.0000 </r>
       <r>    0.2490    0.0000 </r>
       <r>    0.3826    0.0000 </r>
       <r>    0.5611    0.0000 </r>
       <r>    0.5988    0.0000 </r>
       <r>    0.7609    0.0000 </r>
       <r>    1.2581    0.0000 </r>
       <r>    2.2085    0.0000 </r>
       <r>    2.3008    0.0000 </r>
       <r>    2.3754    0.0000 </r>
       <r>    2.3956    0.0000 </r>
       <r>    2.5945    0.0000 </r>
       <r>    2.9449    0.0000 </r>
       <r>    2.9661    0.0000 </r>
       <r>    3.0044    0.0000 </r>
       <r>    3.0515    0.0000 </r>
       <r>    3.1582    0.0000 </r>
       <r>    3.2737    0.0000 </r>
       <r>    3.3594    0.0000 </r>
       <r>    3.4019    0.0000 </r>
       <r>    3.4435    0.0000 </r>
       <r>    3.5783    0.0000 </r>
       <r>    3.6870    0.0000 </r>
      </set>
     </set>
    </set>
   </array>
  </eigenvalues>
  <separator name="orbital magnetization" >
   <v name="MAGDIPOLOUT">      0.00000000      0.00000000      0.00000000</v>
  </separator>
  <dos>
   <i name="efermi">     -4.84865229 </i>
   <total>
    <array>
     <dimension dim="1">gridpoints</dimension>
     <dimension dim="2">spin</dimension>
     <field>energy</field>
     <field>total</field>
     <field>integrated</field>
     <set>
      <set comment="spin 1">
       <r>   -20.6537     0.0000     0.0000 </r>
       <r>   -20.5659     0.0000     0.0000 </r>
       <r>   -20.4780     0.0000     0.0000 </r>
       <r>   -20.3901     0.0000     0.0000 </r>
       <r>   -20.3022     0.0000     0.0000 </r>
       <r>   -20.2143     0.0000     0.0000 </r>
       <r>   -20.1265     0.0000     0.0000 </r>
       <r>   -20.0386     0.0000     0.0000 </r>
       <r>   -19.9507     0.0000     0.0000 </r>
       <r>   -19.8628     0.0000     0.0000 </r>
       <r>   -19.7749     0.0000     0.0000 </r>
       <r>   -19.6870     0.0000     0.0000 </r>
       <r>   -19.5992     0.0000     0.0000 </r>
       <r>   -19.5113     0.0660     0.0058 </r>
       <r>   -19.4234     2.2639     0.2048 </r>
       <r>   -19.3355     5.8750     0.7211 </r>
       <r>   -19.2476     4.7376     1.1374 </r>
       <r>   -19.1598     3.6785     1.4607 </r>
       <r>   -19.0719     2.5015     1.6805 </r>
       <r>   -18.9840     3.3131     1.9717 </r>
       <r>   -18.8961     2.2069     2.1656 </r>
       <r>   -18.8082     2.7433     2.4067 </r>
       <r>   -18.7204     2.9718     2.6679 </r>
       <r>   -18.6325     2.7536     2.9099 </r>
       <r>   -18.5446     4.3346     3.2908 </r>
       <r>   -18.4567     4.3569     3.6737 </r>
       <r>   -18.3688     2.9777     3.9354 </r>
       <r>   -18.2809     0.7275     3.9993 </r>
       <r>   -18.1931     0.0078     4.0000 </r>
       <r>   -18.1052     0.0000     4.0000 </r>
       <r>   -18.0173     0.0000     4.0000 </r>
       <r>   -17.9294     0.0000     4.0000 </r>
       <r>   -17.8415     0.0000     4.0000 </r>
       <r>   -17.7537     0.0000     4.0000 </r>
       <r>   -17.6658     0.0000     4.0000 </r>
       <r>   -17.5779     0.0000     4.0000 </r>
       <r>   -17.4900     0.0000     4.0000 </r>
       <r>   -17.4021     0.0000     4.0000 </r>
       <r>   -17.3142     0.0000     4.0000 </r>
       <r>   -17.2264     0.0000     4.0000 </r>
       <r>   -17.1385     0.0000     4.0000 </r>
       <r>   -17.0506     0.0000     4.0000 </r>
       <r>   -16.9627     0.0000     4.0000 </r>
       <r>   -16.8748     0.0000     4.0000 </r>
       <r>   -16.7870     0.0000     4.0000 </r>
       <r>   -16.6991     0.0000     4.0000 </r>
       <r>   -16.6112     0.0000     4.0000 </r>
       <r>   -16.5233     0.0000     4.0000 </r>
       <r>   -16.4354     0.0000     4.0000 </r>
       <r>   -16.3475     0.0000     4.0000 </r>
       <r>   -16.2597     0.0000     4.0000 </r>
       <r>   -16.1718     0.0000     4.0000 </r>
       <r>   -16.0839     0.0000     4.0000 </r>
       <r>   -15.9960     0.0000     4.0000 </r>
       <r>   -15.9081     0.0000     4.0000 </r>
       <r>   -15.8203     0.0000     4.0000 </r>
       <r>   -15.7324     0.0000     4.0000 </r>
       <r>   -15.6445     0.0045     4.0004 </r>
       <r>   -15.5566     0.8206     4.0725 </r>
       <r>   -15.4687     4.8314     4.4971 </r>
       <r>   -15.3808     8.8711     5.2767 </r>
       <r>   -15.2930     7.9109     5.9719 </r>
       <r>   -15.2051     4.0026     6.3237 </r>
       <r>   -15.1172     4.9101     6.7552 </r>
       <r>   -15.0293     7.2487     7.3922 </r>
       <r>   -14.9414     3.5486     7.7041 </r>
       <r>   -14.8536     2.3614     7.9116 </r>
       <r>   -14.7657     0.9385     7.9941 </r>
       <r>   -14.6778     0.0674     8.0000 </r>
       <r>   -14.5899     0.0000     8.0000 </r>
       <r>   -14.5020     0.0000     8.0000 </r>
       <r>   -14.4142     0.0000     8.0000 </r>
       <r>   -14.3263     0.0000     8.0000 </r>
       <r>   -14.2384     0.0000     8.0000 </r>
       <r>   -14.1505     0.0000     8.0000 </r>
       <r>   -14.0626     0.0000     8.0000 </r>
       <r>   -13.9747     0.0000     8.0000 </r>
       <r>   -13.8869     0.0000     8.0000 </r>
       <r>   -13.7990     0.0000     8.0000 </r>
       <r>   -13.7111     0.0006     8.0001 </r>
       <r>   -13.6232     0.2223     8.0196 </r>
       <r>   -13.5353     0.7458     8.0851 </r>
       <r>   -13.4475     0.3098     8.1124 </r>
       <r>   -13.3596     1.0329     8.2031 </r>
       <r>   -13.2717     1.1086     8.3006 </r>
       <r>   -13.1838     0.8182     8.3725 </r>
       <r>   -13.0959     1.2214     8.4798 </r>
       <r>   -13.0080     1.0757     8.5743 </r>
       <r>   -12.9202     2.3128     8.7776 </r>
       <r>   -12.8323     5.3034     9.2437 </r>
       <r>   -12.7444     2.9340     9.5015 </r>
       <r>   -12.6565     2.6834     9.7373 </r>
       <r>   -12.5686     2.0627     9.9186 </r>
       <r>   -12.4808     1.7061    10.0685 </r>
       <r>   -12.3929     3.1838    10.3483 </r>
       <r>   -12.3050     2.7147    10.5869 </r>
       <r>   -12.2171     3.0701    10.8567 </r>
       <r>   -12.1292     2.5824    11.0837 </r>
       <r>   -12.0413     2.8570    11.3347 </r>
       <r>   -11.9535     3.5948    11.6506 </r>
       <r>   -11.8656     1.8989    11.8175 </r>
       <r>   -11.7777     3.0335    12.0841 </r>
       <r>   -11.6898     3.5428    12.3955 </r>
       <r>   -11.6019     4.8816    12.8245 </r>
       <r>   -11.5141     6.3063    13.3787 </r>
       <r>   -11.4262     6.0282    13.9084 </r>
       <r>   -11.3383     3.3940    14.2067 </r>
       <r>   -11.2504     4.1932    14.5752 </r>
       <r>   -11.1625     6.1072    15.1119 </r>
       <r>   -11.0747     2.4812    15.3300 </r>
       <r>   -10.9868     4.1884    15.6981 </r>
       <r>   -10.8989     3.6684    16.0204 </r>
       <r>   -10.8110     6.3212    16.5760 </r>
       <r>   -10.7231     4.6367    16.9834 </r>
       <r>   -10.6352     3.9509    17.3307 </r>
       <r>   -10.5474     5.8943    17.8487 </r>
       <r>   -10.4595     3.3151    18.1400 </r>
       <r>   -10.3716     2.7055    18.3778 </r>
       <r>   -10.2837     3.9221    18.7224 </r>
       <r>   -10.1958     1.5068    18.8549 </r>
       <r>   -10.1080     2.0593    19.0358 </r>
       <r>   -10.0201     3.8056    19.3703 </r>
       <r>    -9.9322     1.9747    19.5438 </r>
       <r>    -9.8443     0.9659    19.6287 </r>
       <r>    -9.7564     3.6861    19.9526 </r>
       <r>    -9.6685     3.1049    20.2255 </r>
       <r>    -9.5807     1.4317    20.3513 </r>
       <r>    -9.4928     0.4967    20.3950 </r>
       <r>    -9.4049     2.8659    20.6468 </r>
       <r>    -9.3170     3.3020    20.9370 </r>
       <r>    -9.2291     4.7813    21.3572 </r>
       <r>    -9.1413     1.5587    21.4942 </r>
       <r>    -9.0534     0.7504    21.5601 </r>
       <r>    -8.9655     3.1941    21.8408 </r>
       <r>    -8.8776     1.6441    21.9853 </r>
       <r>    -8.7897     0.8145    22.0569 </r>
       <r>    -8.7018     2.7677    22.3001 </r>
       <r>    -8.6140     3.9696    22.6490 </r>
       <r>    -8.5261     2.8627    22.9006 </r>
       <r>    -8.4382     2.7814    23.1450 </r>
       <r>    -8.3503     3.8355    23.4821 </r>
       <r>    -8.2624     2.7022    23.7196 </r>
       <r>    -8.1746     2.5077    23.9399 </r>
       <r>    -8.0867     4.5765    24.3421 </r>
       <r>    -7.9988     5.3123    24.8090 </r>
       <r>    -7.9109     5.6055    25.3016 </r>
       <r>    -7.8230     5.8660    25.8171 </r>
       <r>    -7.7351     6.7347    26.4090 </r>
       <r>    -7.6473     7.7821    27.0929 </r>
       <r>    -7.5594     5.9917    27.6194 </r>
       <r>    -7.4715     8.0720    28.3288 </r>
       <r>    -7.3836     9.9044    29.1992 </r>
       <r>    -7.2957     6.0665    29.7324 </r>
       <r>    -7.2079     5.1341    30.1835 </r>
       <r>    -7.1200     5.1111    30.6327 </r>
       <r>    -7.0321     3.3421    30.9264 </r>
       <r>    -6.9442     4.4372    31.3164 </r>
       <r>    -6.8563     2.1497    31.5053 </r>
       <r>    -6.7685     2.1124    31.6909 </r>
       <r>    -6.6806     5.4479    32.1697 </r>
       <r>    -6.5927    10.2815    33.0733 </r>
       <r>    -6.5048     3.4199    33.3738 </r>
       <r>    -6.4169     3.2015    33.6552 </r>
       <r>    -6.3290     6.8460    34.2568 </r>
       <r>    -6.2412     5.4655    34.7371 </r>
       <r>    -6.1533     5.0629    35.1820 </r>
       <r>    -6.0654     4.5460    35.5815 </r>
       <r>    -5.9775     4.2501    35.9550 </r>
       <r>    -5.8896     4.7364    36.3713 </r>
       <r>    -5.8018     3.8265    36.7076 </r>
       <r>    -5.7139     4.6994    37.1206 </r>
       <r>    -5.6260     5.9962    37.6475 </r>
       <r>    -5.5381     3.1402    37.9235 </r>
       <r>    -5.4502     3.2666    38.2105 </r>
       <r>    -5.3623     3.1648    38.4887 </r>
       <r>    -5.2745     2.2724    38.6884 </r>
       <r>    -5.1866     7.0120    39.3046 </r>
       <r>    -5.0987     7.6429    39.9763 </r>
       <r>    -5.0108     6.2883    40.5289 </r>
       <r>    -4.9229     7.1184    41.1545 </r>
       <r>    -4.8351    11.5820    42.1723 </r>
       <r>    -4.7472     8.0965    42.8838 </r>
       <r>    -4.6593     0.8149    42.9554 </r>
       <r>    -4.5714     1.3019    43.0699 </r>
       <r>    -4.4835     2.2164    43.2646 </r>
       <r>    -4.3956     1.0634    43.3581 </r>
       <r>    -4.3078     0.2296    43.3783 </r>
       <r>    -4.2199     0.4906    43.4214 </r>
       <r>    -4.1320     0.5136    43.4665 </r>
       <r>    -4.0441     0.4768    43.5084 </r>
       <r>    -3.9562     0.5283    43.5548 </r>
       <r>    -3.8684     0.0197    43.5566 </r>
       <r>    -3.7805     0.5876    43.6082 </r>
       <r>    -3.6926     1.2644    43.7193 </r>
       <r>    -3.6047     1.1467    43.8201 </r>
       <r>    -3.5168     0.0240    43.8222 </r>
       <r>    -3.4290     0.0000    43.8222 </r>
       <r>    -3.3411     0.0002    43.8222 </r>
       <r>    -3.2532     0.1422    43.8347 </r>
       <r>    -3.1653     0.7887    43.9040 </r>
       <r>    -3.0774     0.0810    43.9112 </r>
       <r>    -2.9895     0.2330    43.9316 </r>
       <r>    -2.9017     0.7373    43.9964 </r>
       <r>    -2.8138     0.0517    44.0010 </r>
       <r>    -2.7259     0.8416    44.0749 </r>
       <r>    -2.6380     3.0183    44.3402 </r>
       <r>    -2.5501     4.0103    44.6926 </r>
       <r>    -2.4623     5.2307    45.1523 </r>
       <r>    -2.3744     5.7540    45.6580 </r>
       <r>    -2.2865     4.2400    46.0306 </r>
       <r>    -2.1986     3.2667    46.3177 </r>
       <r>    -2.1107     4.5558    46.7181 </r>
       <r>    -2.0228     4.9652    47.1544 </r>
       <r>    -1.9350     3.8991    47.4971 </r>
       <r>    -1.8471     3.4505    47.8003 </r>
       <r>    -1.7592     2.5672    48.0259 </r>
       <r>    -1.6713     1.7233    48.1773 </r>
       <r>    -1.5834     2.4707    48.3945 </r>
       <r>    -1.4956     2.8298    48.6432 </r>
       <r>    -1.4077     2.6925    48.8798 </r>
       <r>    -1.3198     2.9621    49.1401 </r>
       <r>    -1.2319     2.3760    49.3489 </r>
       <r>    -1.1440     1.9606    49.5212 </r>
       <r>    -1.0561     2.8766    49.7740 </r>
       <r>    -0.9683     2.7766    50.0180 </r>
       <r>    -0.8804     1.3397    50.1358 </r>
       <r>    -0.7925     4.8672    50.5635 </r>
       <r>    -0.7046     4.9025    50.9943 </r>
       <r>    -0.6167     4.4295    51.3836 </r>
       <r>    -0.5289     4.4919    51.7784 </r>
       <r>    -0.4410     4.5132    52.1750 </r>
       <r>    -0.3531     4.4277    52.5641 </r>
       <r>    -0.2652     6.0911    53.0994 </r>
       <r>    -0.1773     7.2249    53.7343 </r>
       <r>    -0.0895     5.5522    54.2223 </r>
       <r>    -0.0016     2.9046    54.4775 </r>
       <r>     0.0863     4.0017    54.8292 </r>
       <r>     0.1742     3.8530    55.1678 </r>
       <r>     0.2621     3.0273    55.4338 </r>
       <r>     0.3500     4.4846    55.8280 </r>
       <r>     0.4378     3.7236    56.1552 </r>
       <r>     0.5257     3.0613    56.4242 </r>
       <r>     0.6136     4.2853    56.8008 </r>
       <r>     0.7015     4.0829    57.1596 </r>
       <r>     0.7894     5.6600    57.6571 </r>
       <r>     0.8772     9.7389    58.5129 </r>
       <r>     0.9651     5.4415    58.9911 </r>
       <r>     1.0530     9.4294    59.8198 </r>
       <r>     1.1409     9.9062    60.6904 </r>
       <r>     1.2288     7.8532    61.3805 </r>
       <r>     1.3167     6.2275    61.9278 </r>
       <r>     1.4045     6.0021    62.4553 </r>
       <r>     1.4924     7.5287    63.1169 </r>
       <r>     1.5803     9.0489    63.9121 </r>
       <r>     1.6682     8.3640    64.6472 </r>
       <r>     1.7561     7.4433    65.3013 </r>
       <r>     1.8439     8.8352    66.0778 </r>
       <r>     1.9318    13.4481    67.2596 </r>
       <r>     2.0197    11.2204    68.2457 </r>
       <r>     2.1076    13.3426    69.4182 </r>
       <r>     2.1955    12.8396    70.5466 </r>
       <r>     2.2834    15.2760    71.8891 </r>
       <r>     2.3712    13.9806    73.1177 </r>
       <r>     2.4591    15.2458    74.4575 </r>
       <r>     2.5470    14.8731    75.7646 </r>
       <r>     2.6349    15.4411    77.1216 </r>
       <r>     2.7228    13.8473    78.3385 </r>
       <r>     2.8106    10.5522    79.2659 </r>
       <r>     2.8985    14.3410    80.5262 </r>
       <r>     2.9864    13.2394    81.6897 </r>
       <r>     3.0743    17.0574    83.1887 </r>
       <r>     3.1622    14.9632    84.5037 </r>
       <r>     3.2501    11.8324    85.5436 </r>
       <r>     3.3379    12.2238    86.6178 </r>
       <r>     3.4258    18.5439    88.2475 </r>
       <r>     3.5137    19.8172    89.9890 </r>
       <r>     3.6016    16.0667    91.4010 </r>
       <r>     3.6895    15.3496    92.7500 </r>
       <r>     3.7773    11.6724    93.7758 </r>
       <r>     3.8652     8.4953    94.5223 </r>
       <r>     3.9531     5.1904    94.9785 </r>
       <r>     4.0410     3.2582    95.2648 </r>
       <r>     4.1289     2.4820    95.4829 </r>
       <r>     4.2167     1.1455    95.5836 </r>
       <r>     4.3046     2.5859    95.8109 </r>
       <r>     4.3925     1.3032    95.9254 </r>
       <r>     4.4804     0.4270    95.9629 </r>
       <r>     4.5683     0.3934    95.9975 </r>
       <r>     4.6562     0.0287    96.0000 </r>
       <r>     4.7440     0.0000    96.0000 </r>
       <r>     4.8319     0.0000    96.0000 </r>
       <r>     4.9198     0.0000    96.0000 </r>
       <r>     5.0077     0.0000    96.0000 </r>
       <r>     5.0956     0.0000    96.0000 </r>
       <r>     5.1834     0.0000    96.0000 </r>
       <r>     5.2713     0.0000    96.0000 </r>
       <r>     5.3592     0.0000    96.0000 </r>
       <r>     5.4471     0.0000    96.0000 </r>
       <r>     5.5350     0.0000    96.0000 </r>
       <r>     5.6229     0.0000    96.0000 </r>
       <r>     5.7107     0.0000    96.0000 </r>
      </set>
     </set>
    </array>
   </total>
  </dos>
 </calculation>
 <structure name="finalpos" >
  <crystal>
   <varray name="basis" >
    <v>       5.70097065       0.00000000       0.00000000 </v>
    <v>       0.00000000       6.20187140       0.00000000 </v>
    <v>       0.00000000       0.00000000      29.04405832 </v>
   </varray>
   <i name="volume">   1026.90167343 </i>
   <varray name="rec_basis" >
    <v>       0.17540873       0.00000000       0.00000000 </v>
    <v>       0.00000000       0.16124165       0.00000000 </v>
    <v>       0.00000000       0.00000000       0.03443045 </v>
   </varray>
  </crystal>
  <varray name="positions" >
   <v>       0.52128989       0.63795769       0.06961937 </v>
   <v>       0.47871011       0.36204231       0.06961937 </v>
   <v>       0.97871011       0.63795769       0.06961937 </v>
   <v>       0.02128989       0.36204231       0.06961937 </v>
   <v>       0.59744966       0.89986831       0.06961937 </v>
   <v>       0.40255034       0.10013168       0.06961937 </v>
   <v>       0.90255034       0.89986831       0.06961937 </v>
   <v>       0.09744966       0.10013168       0.06961937 </v>
   <v>       0.75000000       0.72957939       0.11021651 </v>
   <v>       0.25000000       0.27042061       0.02902224 </v>
   <v>       0.75000000       0.72957939       0.02902224 </v>
   <v>       0.25000000       0.27042061       0.11021651 </v>
   <v>       0.25000000       0.52399302       0.06961937 </v>
   <v>       0.75000000       0.47600695       0.06961937 </v>
  </varray>
 </structure>
</modeling>
