   14   14    1    1
  0.1021318E+02  0.5700971E-09  0.4044058E-09  0.6201871E-09  0.5000000E-15
  1.000000000000000E-004
  CAR 
 BS                                      
     42     84     48
 
  0.0000000E+00  0.0000000E+00  0.0000000E+00  0.1190476E-01
      1        -12.700132   1.000000
      2        -11.518569   1.000000
      3         -8.660224   1.000000
      4         -8.367308   1.000000
      5         -6.054695   1.000000
      6         -5.092663   1.000000
      7         -4.680620   1.000000
      8         -4.377612   1.000000
      9         -3.934919   1.000000
     10         -3.527776   1.000000
     11         -2.404777   1.000000
     12         -2.222321   1.000000
     13         -2.104512   1.000000
     14         -1.066455   1.000000
     15         -0.020396   1.000000
     16          0.013852   1.000000
     17          0.041246   1.000000
     18          0.089724   1.000000
     19          0.673147   1.000000
     20          2.119451   0.901656
     21          2.153388   0.791348
     22          2.242311   0.327632
     23          5.505198   0.000000
     24          5.726964   0.000000
     25          5.734963   0.000000
     26          5.971496   0.000000
     27          6.724521   0.000000
     28          7.698056   0.000000
     29          7.718987   0.000000
     30          8.621830   0.000000
     31          8.850169   0.000000
     32          8.854940   0.000000
     33          9.051209   0.000000
     34         10.026568   0.000000
     35         11.192009   0.000000
     36         11.406357   0.000000
     37         11.517945   0.000000
     38         11.781985   0.000000
     39         11.958530   0.000000
     40         12.294846   0.000000
     41         12.921522   0.000000
     42         13.342170   0.000000
     43         13.527650   0.000000
     44         15.523637   0.000000
     45         15.581735   0.000000
     46         15.920717   0.000000
     47         16.310151   0.000000
     48         16.538281   0.000000
 
  0.0000000E+00  0.0000000E+00  0.4545455E-01  0.1190476E-01
      1        -12.698282   1.000000
      2        -11.522190   1.000000
      3         -8.659172   1.000000
      4         -8.361655   1.000000
      5         -6.077747   1.000000
      6         -5.137132   1.000000
      7         -4.630293   1.000000
      8         -4.352542   1.000000
      9         -3.931376   1.000000
     10         -3.508359   1.000000
     11         -2.403259   1.000000
     12         -2.223530   1.000000
     13         -2.116931   1.000000
     14         -1.076032   1.000000
     15         -0.015676   1.000000
     16          0.017557   1.000000
     17          0.052218   1.000000
     18          0.057590   1.000000
     19          0.625543   1.000000
     20          2.103275   0.935720
     21          2.144801   0.824473
     22          2.302683   0.096758
     23          5.502810   0.000000
     24          5.702838   0.000000
     25          5.755797   0.000000
     26          5.969870   0.000000
     27          6.747033   0.000000
     28          7.676145   0.000000
     29          7.722860   0.000000
     30          8.641399   0.000000
     31          8.791158   0.000000
     32          8.954516   0.000000
     33          9.060545   0.000000
     34         10.043515   0.000000
     35         11.194371   0.000000
     36         11.398518   0.000000
     37         11.527353   0.000000
     38         11.696345   0.000000
     39         11.943824   0.000000
     40         12.305355   0.000000
     41         12.953610   0.000000
     42         13.306924   0.000000
     43         13.602677   0.000000
     44         15.534329   0.000000
     45         15.538648   0.000000
     46         15.836774   0.000000
     47         16.339303   0.000000
     48         16.485040   0.000000
 
  0.0000000E+00  0.0000000E+00  0.9090909E-01  0.1190476E-01
      1        -12.692814   1.000000
      2        -11.532797   1.000000
      3         -8.656090   1.000000
      4         -8.344902   1.000000
      5         -6.142311   1.000000
      6         -5.233486   1.000000
      7         -4.516588   1.000000
      8         -4.281605   1.000000
      9         -3.920875   1.000000
     10         -3.450752   1.000000
     11         -2.398683   1.000000
     12         -2.227121   1.000000
     13         -2.152683   1.000000
     14         -1.104062   1.000000
     15         -0.059076   1.000000
     16         -0.001667   1.000000
     17          0.028145   1.000000
     18          0.105142   1.000000
     19          0.504958   1.000000
     20          2.056570   0.985383
     21          2.119205   0.902259
     22          2.460886   0.000202
     23          5.495452   0.000000
     24          5.617320   0.000000
     25          5.840497   0.000000
     26          5.965459   0.000000
     27          6.804320   0.000000
     28          7.616195   0.000000
     29          7.733648   0.000000
     30          8.699038   0.000000
     31          8.767666   0.000000
     32          9.088239   0.000000
     33          9.092326   0.000000
     34         10.094762   0.000000
     35         11.197844   0.000000
     36         11.375535   0.000000
     37         11.474338   0.000000
     38         11.555208   0.000000
     39         11.912461   0.000000
     40         12.336664   0.000000
     41         13.038675   0.000000
     42         13.206350   0.000000
     43         13.792290   0.000000
     44         15.413958   0.000000
     45         15.574799   0.000000
     46         15.623372   0.000000
     47         16.162029   0.000000
     48         16.326223   0.000000
 
  0.0000000E+00  0.0000000E+00  0.1363636E+00  0.1190476E-01
      1        -12.684026   1.000000
      2        -11.549635   1.000000
      3         -8.651197   1.000000
      4         -8.317646   1.000000
      5         -6.237543   1.000000
      6         -5.342563   1.000000
      7         -4.379265   1.000000
      8         -4.174571   1.000000
      9         -3.903814   1.000000
     10         -3.357078   1.000000
     11         -2.390965   1.000000
     12         -2.232934   1.000000
     13         -2.207744   1.000000
     14         -1.148565   1.000000
     15         -0.236333   1.000000
     16          0.021259   1.000000
     17          0.044185   1.000000
     18          0.180019   1.000000
     19          0.347653   1.000000
     20          1.984308   0.999318
     21          2.076957   0.970755
     22          2.675012   0.000000
     23          5.482843   0.000000
     24          5.500179   0.000000
     25          5.959522   0.000000
     26          5.976256   0.000000
     27          6.876881   0.000000
     28          7.531453   0.000000
     29          7.749101   0.000000
     30          8.773102   0.000000
     31          8.791670   0.000000
     32          9.133201   0.000000
     33          9.257605   0.000000
     34         10.181162   0.000000
     35         11.173821   0.000000
     36         11.192951   0.000000
     37         11.339237   0.000000
     38         11.600105   0.000000
     39         11.891599   0.000000
     40         12.388558   0.000000
     41         13.053182   0.000000
     42         13.153379   0.000000
     43         14.037003   0.000000
     44         15.258773   0.000000
     45         15.340755   0.000000
     46         15.608911   0.000000
     47         15.881247   0.000000
     48         16.344593   0.000000
 
  0.0000000E+00  0.0000000E+00  0.1818182E+00  0.1190476E-01
      1        -12.672405   1.000000
      2        -11.571507   1.000000
      3         -8.644846   1.000000
      4         -8.280919   1.000000
      5         -6.351513   1.000000
      6         -5.449524   1.000000
      7         -4.234244   1.000000
      8         -4.041257   1.000000
      9         -3.880851   1.000000
     10         -3.231411   1.000000
     11         -2.379921   1.000000
     12         -2.276624   1.000000
     13         -2.240604   1.000000
     14         -1.206584   1.000000
     15         -0.462155   1.000000
     16          0.052370   1.000000
     17          0.063776   1.000000
     18          0.171581   1.000000
     19          0.277100   1.000000
     20          1.893290   0.999996
     21          2.018791   0.996682
     22          2.912940   0.000000
     23          5.370264   0.000000
     24          5.464539   0.000000
     25          5.953574   0.000000
     26          6.156643   0.000000
     27          6.949837   0.000000
     28          7.435432   0.000000
     29          7.765922   0.000000
     30          8.796774   0.000000
     31          8.914604   0.000000
     32          9.193078   0.000000
     33          9.441832   0.000000
     34         10.302814   0.000000
     35         10.832557   0.000000
     36         11.170251   0.000000
     37         11.292718   0.000000
     38         11.658407   0.000000
     39         11.903854   0.000000
     40         12.461741   0.000000
     41         12.861801   0.000000
     42         13.274850   0.000000
     43         14.296518   0.000000
     44         15.024745   0.000000
     45         15.095922   0.000000
     46         15.587735   0.000000
     47         15.613363   0.000000
     48         16.371489   0.000000
 
  0.0000000E+00  0.0000000E+00  0.2272727E+00  0.1190476E-01
      1        -12.658658   1.000000
      2        -11.596805   1.000000
      3         -8.637504   1.000000
      4         -8.236192   1.000000
      5         -6.474039   1.000000
      6         -5.548397   1.000000
      7         -4.089151   1.000000
      8         -3.888673   1.000000
      9         -3.853021   1.000000
     10         -3.080295   1.000000
     11         -2.365298   1.000000
     12         -2.353451   1.000000
     13         -2.249149   1.000000
     14         -1.274451   1.000000
     15         -0.715769   1.000000
     16         -0.019627   1.000000
     17          0.084980   1.000000
     18          0.090560   1.000000
     19          0.391003   1.000000
     20          1.790932   1.000000
     21          1.945749   0.999911
     22          3.154578   0.000000
     23          5.240634   0.000000
     24          5.440136   0.000000
     25          5.948946   0.000000
     26          6.374851   0.000000
     27          7.015638   0.000000
     28          7.338527   0.000000
     29          7.780830   0.000000
     30          8.829455   0.000000
     31          9.061835   0.000000
     32          9.263961   0.000000
     33          9.637760   0.000000
     34         10.457683   0.000000
     35         10.470534   0.000000
     36         11.129101   0.000000
     37         11.240394   0.000000
     38         11.723400   0.000000
     39         11.955849   0.000000
     40         12.558624   0.000000
     41         12.645070   0.000000
     42         13.383436   0.000000
     43         14.547537   0.000000
     44         14.696506   0.000000
     45         14.940744   0.000000
     46         15.292357   0.000000
     47         15.574986   0.000000
     48         16.405325   0.000000
 
  0.0000000E+00  0.0000000E+00  0.2727273E+00  0.1190476E-01
      1        -12.643715   1.000000
      2        -11.623634   1.000000
      3         -8.629742   1.000000
      4         -8.185551   1.000000
      5         -6.596975   1.000000
      6         -5.636023   1.000000
      7         -3.949643   1.000000
      8         -3.821809   1.000000
      9         -3.721141   1.000000
     10         -2.913888   1.000000
     11         -2.432475   1.000000
     12         -2.347489   1.000000
     13         -2.255387   1.000000
     14         -1.347859   1.000000
     15         -0.979367   1.000000
     16         -0.224996   1.000000
     17          0.105960   1.000000
     18          0.134115   1.000000
     19          0.516740   1.000000
     20          1.684547   1.000000
     21          1.859225   1.000000
     22          3.386710   0.000000
     23          5.120051   0.000000
     24          5.409526   0.000000
     25          5.946417   0.000000
     26          6.624481   0.000000
     27          7.071620   0.000000
     28          7.247967   0.000000
     29          7.791508   0.000000
     30          8.864360   0.000000
     31          9.226019   0.000000
     32          9.340356   0.000000
     33          9.838612   0.000000
     34         10.098726   0.000000
     35         10.639641   0.000000
     36         11.079268   0.000000
     37         11.187976   0.000000
     38         11.785801   0.000000
     39         12.038556   0.000000
     40         12.413816   0.000000
     41         12.682658   0.000000
     42         13.460804   0.000000
     43         14.374916   0.000000
     44         14.775428   0.000000
     45         14.800584   0.000000
     46         15.004405   0.000000
     47         15.505761   0.000000
     48         16.450658   0.000000
 
  0.0000000E+00  0.0000000E+00  0.3181818E+00  0.1190476E-01
      1        -12.628711   1.000000
      2        -11.649904   1.000000
      3         -8.622186   1.000000
      4         -8.131932   1.000000
      5         -6.713423   1.000000
      6         -5.710310   1.000000
      7         -3.821289   1.000000
      8         -3.789298   1.000000
      9         -3.541782   1.000000
     10         -2.749102   1.000000
     11         -2.508204   1.000000
     12         -2.332010   1.000000
     13         -2.247190   1.000000
     14         -1.421767   1.000000
     15         -1.237549   1.000000
     16         -0.441642   1.000000
     17          0.125167   1.000000
     18          0.180466   1.000000
     19          0.649793   1.000000
     20          1.581253   1.000000
     21          1.761026   1.000000
     22          3.599068   0.000000
     23          5.014568   0.000000
     24          5.373498   0.000000
     25          5.946027   0.000000
     26          6.899770   0.000000
     27          7.117416   0.000000
     28          7.168748   0.000000
     29          7.797175   0.000000
     30          8.897003   0.000000
     31          9.397894   0.000000
     32          9.415823   0.000000
     33          9.724037   0.000000
     34         10.036870   0.000000
     35         10.826845   0.000000
     36         11.045430   0.000000
     37         11.142434   0.000000
     38         11.836820   0.000000
     39         12.133450   0.000000
     40         12.178026   0.000000
     41         12.835026   0.000000
     42         13.487261   0.000000
     43         14.085818   0.000000
     44         14.676878   0.000000
     45         14.733981   0.000000
     46         14.970115   0.000000
     47         15.427726   0.000000
     48         16.387121   0.000000
 
  0.0000000E+00  0.0000000E+00  0.3636364E+00  0.1190476E-01
      1        -12.614957   1.000000
      2        -11.673432   1.000000
      3         -8.615476   1.000000
      4         -8.079490   1.000000
      5         -6.816705   1.000000
      6         -5.769688   1.000000
      7         -3.758252   1.000000
      8         -3.710271   1.000000
      9         -3.354468   1.000000
     10         -2.615439   1.000000
     11         -2.575291   1.000000
     12         -2.330958   1.000000
     13         -2.200054   1.000000
     14         -1.490236   1.000000
     15         -1.471388   1.000000
     16         -0.663862   1.000000
     17          0.141380   1.000000
     18          0.225927   1.000000
     19          0.785622   1.000000
     20          1.488250   1.000000
     21          1.653727   1.000000
     22          3.782236   0.000000
     23          4.928548   0.000000
     24          5.334397   0.000000
     25          5.947240   0.000000
     26          7.104229   0.000000
     27          7.153251   0.000000
     28          7.195143   0.000000
     29          7.798554   0.000000
     30          8.924557   0.000000
     31          9.351916   0.000000
     32          9.483655   0.000000
     33          9.565117   0.000000
     34         10.223099   0.000000
     35         10.899949   0.000000
     36         11.111840   0.000000
     37         11.144735   0.000000
     38         11.871965   0.000000
     39         11.948562   0.000000
     40         12.212338   0.000000
     41         13.009547   0.000000
     42         13.446487   0.000000
     43         13.863990   0.000000
     44         14.495615   0.000000
     45         14.566594   0.000000
     46         15.124914   0.000000
     47         15.357217   0.000000
     48         16.202530   0.000000
 
  0.0000000E+00  0.0000000E+00  0.4090909E+00  0.1190476E-01
      1        -12.603820   1.000000
      2        -11.692115   1.000000
      3         -8.610195   1.000000
      4         -8.033872   1.000000
      5         -6.899582   1.000000
      6         -5.812979   1.000000
      7         -3.732055   1.000000
      8         -3.623428   1.000000
      9         -3.166888   1.000000
     10         -2.628473   1.000000
     11         -2.548936   1.000000
     12         -2.336998   1.000000
     13         -2.123083   1.000000
     14         -1.643191   1.000000
     15         -1.546568   1.000000
     16         -0.881108   1.000000
     17          0.153619   1.000000
     18          0.265436   1.000000
     19          0.918541   1.000000
     20          1.413101   1.000000
     21          1.541867   1.000000
     22          3.926107   0.000000
     23          4.865045   0.000000
     24          5.297071   0.000000
     25          5.949137   0.000000
     26          7.056737   0.000000
     27          7.179210   0.000000
     28          7.503749   0.000000
     29          7.797350   0.000000
     30          8.945283   0.000000
     31          8.988901   0.000000
     32          9.537514   0.000000
     33          9.710658   0.000000
     34         10.385530   0.000000
     35         10.863698   0.000000
     36         11.104001   0.000000
     37         11.363664   0.000000
     38         11.740195   0.000000
     39         11.892117   0.000000
     40         12.233088   0.000000
     41         13.187973   0.000000
     42         13.374935   0.000000
     43         13.710230   0.000000
     44         14.310636   0.000000
     45         14.466330   0.000000
     46         15.236184   0.000000
     47         15.303066   0.000000
     48         16.051635   0.000000
 
  0.0000000E+00  0.0000000E+00  0.4545455E+00  0.1190476E-01
      1        -12.596541   1.000000
      2        -11.704153   1.000000
      3         -8.606816   1.000000
      4         -8.002039   1.000000
      5         -6.954114   1.000000
      6         -5.839312   1.000000
      7         -3.714328   1.000000
      8         -3.567663   1.000000
      9         -2.999370   1.000000
     10         -2.662862   1.000000
     11         -2.559067   1.000000
     12         -2.335529   1.000000
     13         -2.090143   1.000000
     14         -1.686877   1.000000
     15         -1.583986   1.000000
     16         -1.068395   1.000000
     17          0.161231   1.000000
     18          0.292922   1.000000
     19          1.036038   1.000000
     20          1.363605   1.000000
     21          1.437276   1.000000
     22          4.019465   0.000000
     23          4.826141   0.000000
     24          5.269106   0.000000
     25          5.950769   0.000000
     26          7.027752   0.000000
     27          7.195049   0.000000
     28          7.795572   0.000000
     29          7.808535   0.000000
     30          8.651643   0.000000
     31          8.958104   0.000000
     32          9.572195   0.000000
     33          9.812651   0.000000
     34         10.508601   0.000000
     35         10.816116   0.000000
     36         11.119951   0.000000
     37         11.578051   0.000000
     38         11.583320   0.000000
     39         11.901417   0.000000
     40         12.166846   0.000000
     41         13.334301   0.000000
     42         13.366238   0.000000
     43         13.575160   0.000000
     44         14.198817   0.000000
     45         14.383474   0.000000
     46         15.269441   0.000000
     47         15.302853   0.000000
     48         15.964252   0.000000
 
  0.0000000E+00  0.0000000E+00  0.5000000E+00  0.1190476E-01
      1        -12.594008   1.000000
      2        -11.708311   1.000000
      3         -8.605648   1.000000
      4         -7.990485   1.000000
      5         -6.973276   1.000000
      6         -5.848149   1.000000
      7         -3.708029   1.000000
      8         -3.548390   1.000000
      9         -2.917217   1.000000
     10         -2.674790   1.000000
     11         -2.589026   1.000000
     12         -2.331848   1.000000
     13         -2.099145   1.000000
     14         -1.659893   1.000000
     15         -1.597139   1.000000
     16         -1.155455   1.000000
     17          0.163819   1.000000
     18          0.302858   1.000000
     19          1.094142   1.000000
     20          1.346229   1.000000
     21          1.383524   1.000000
     22          4.052062   0.000000
     23          4.813066   0.000000
     24          5.258555   0.000000
     25          5.951395   0.000000
     26          7.018008   0.000000
     27          7.200383   0.000000
     28          7.794796   0.000000
     29          7.996606   0.000000
     30          8.452789   0.000000
     31          8.962438   0.000000
     32          9.584203   0.000000
     33          9.849774   0.000000
     34         10.560754   0.000000
     35         10.790035   0.000000
     36         11.135301   0.000000
     37         11.510536   0.000000
     38         11.701705   0.000000
     39         11.903958   0.000000
     40         12.096134   0.000000
     41         13.394165   0.000000
     42         13.433548   0.000000
     43         13.461088   0.000000
     44         14.162873   0.000000
     45         14.347919   0.000000
     46         15.258078   0.000000
     47         15.324953   0.000000
     48         15.935093   0.000000
 
  0.0000000E+00  0.0000000E+00  0.5000000E+00  0.1190476E-01
      1        -12.594008   1.000000
      2        -11.708311   1.000000
      3         -8.605648   1.000000
      4         -7.990485   1.000000
      5         -6.973276   1.000000
      6         -5.848149   1.000000
      7         -3.708029   1.000000
      8         -3.548390   1.000000
      9         -2.917217   1.000000
     10         -2.674790   1.000000
     11         -2.589026   1.000000
     12         -2.331848   1.000000
     13         -2.099145   1.000000
     14         -1.659893   1.000000
     15         -1.597139   1.000000
     16         -1.155455   1.000000
     17          0.163819   1.000000
     18          0.302858   1.000000
     19          1.094142   1.000000
     20          1.346229   1.000000
     21          1.383524   1.000000
     22          4.052062   0.000000
     23          4.813066   0.000000
     24          5.258555   0.000000
     25          5.951395   0.000000
     26          7.018008   0.000000
     27          7.200383   0.000000
     28          7.794796   0.000000
     29          7.996606   0.000000
     30          8.452789   0.000000
     31          8.962438   0.000000
     32          9.584203   0.000000
     33          9.849774   0.000000
     34         10.560754   0.000000
     35         10.790035   0.000000
     36         11.135301   0.000000
     37         11.510536   0.000000
     38         11.701705   0.000000
     39         11.903958   0.000000
     40         12.096134   0.000000
     41         13.394165   0.000000
     42         13.433548   0.000000
     43         13.461088   0.000000
     44         14.162873   0.000000
     45         14.347919   0.000000
     46         15.258080   0.000000
     47         15.324952   0.000000
     48         15.942809   0.000000
 
  0.4545455E-01  0.0000000E+00  0.5000000E+00  0.1190476E-01
      1        -12.589865   1.000000
      2        -11.712646   1.000000
      3         -8.617973   1.000000
      4         -8.002882   1.000000
      5         -6.941557   1.000000
      6         -5.835955   1.000000
      7         -3.702272   1.000000
      8         -3.569541   1.000000
      9         -2.910391   1.000000
     10         -2.677199   1.000000
     11         -2.594597   1.000000
     12         -2.329561   1.000000
     13         -2.109669   1.000000
     14         -1.762569   1.000000
     15         -1.485245   1.000000
     16         -1.134991   1.000000
     17          0.154816   1.000000
     18          0.267584   1.000000
     19          1.001644   1.000000
     20          1.425830   1.000000
     21          1.439161   1.000000
     22          3.893891   0.000000
     23          4.951209   0.000000
     24          5.273608   0.000000
     25          5.966196   0.000000
     26          6.987261   0.000000
     27          7.195366   0.000000
     28          7.834468   0.000000
     29          7.965434   0.000000
     30          8.428544   0.000000
     31          8.973072   0.000000
     32          9.524583   0.000000
     33          9.894526   0.000000
     34         10.636863   0.000000
     35         10.736143   0.000000
     36         11.102152   0.000000
     37         11.546759   0.000000
     38         11.722645   0.000000
     39         11.892742   0.000000
     40         12.132378   0.000000
     41         13.356183   0.000000
     42         13.411181   0.000000
     43         13.530488   0.000000
     44         14.089701   0.000000
     45         14.491042   0.000000
     46         15.049782   0.000000
     47         15.548056   0.000000
     48         15.934912   0.000000
 
  0.9090909E-01  0.0000000E+00  0.5000000E+00  0.1190476E-01
      1        -12.577488   1.000000
      2        -11.725646   1.000000
      3         -8.651128   1.000000
      4         -8.038823   1.000000
      5         -6.850346   1.000000
      6         -5.800383   1.000000
      7         -3.685088   1.000000
      8         -3.630036   1.000000
      9         -2.889988   1.000000
     10         -2.684720   1.000000
     11         -2.618754   1.000000
     12         -2.323665   1.000000
     13         -2.165661   1.000000
     14         -1.822775   1.000000
     15         -1.368306   1.000000
     16         -1.075851   1.000000
     17          0.132018   1.000000
     18          0.177682   1.000000
     19          0.843840   1.000000
     20          1.536625   1.000000
     21          1.598057   1.000000
     22          3.570689   0.000000
     23          5.213801   0.000000
     24          5.316123   0.000000
     25          6.010488   0.000000
     26          6.912091   0.000000
     27          7.182790   0.000000
     28          7.880727   0.000000
     29          7.934477   0.000000
     30          8.360357   0.000000
     31          8.960577   0.000000
     32          9.445208   0.000000
     33         10.020079   0.000000
     34         10.602693   0.000000
     35         10.801573   0.000000
     36         11.002623   0.000000
     37         11.650895   0.000000
     38         11.786614   0.000000
     39         11.849699   0.000000
     40         12.228053   0.000000
     41         13.291648   0.000000
     42         13.367906   0.000000
     43         13.689972   0.000000
     44         14.025917   0.000000
     45         14.737592   0.000000
     46         14.848154   0.000000
     47         15.792522   0.000000
     48         15.844359   0.000000
 
  0.1363636E+00  0.0000000E+00  0.5000000E+00  0.1190476E-01
      1        -12.557036   1.000000
      2        -11.747250   1.000000
      3         -8.696068   1.000000
      4         -8.094912   1.000000
      5         -6.709064   1.000000
      6         -5.744004   1.000000
      7         -3.722437   1.000000
      8         -3.656698   1.000000
      9         -2.856221   1.000000
     10         -2.698178   1.000000
     11         -2.686608   1.000000
     12         -2.316239   1.000000
     13         -2.261397   1.000000
     14         -1.785937   1.000000
     15         -1.288768   1.000000
     16         -0.984019   1.000000
     17          0.062390   1.000000
     18          0.106584   1.000000
     19          0.679079   1.000000
     20          1.686206   1.000000
     21          1.764016   1.000000
     22          3.198202   0.000000
     23          5.379001   0.000000
     24          5.483184   0.000000
     25          6.083826   0.000000
     26          6.821303   0.000000
     27          7.168585   0.000000
     28          7.761687   0.000000
     29          8.060206   0.000000
     30          8.259979   0.000000
     31          8.836902   0.000000
     32          9.503111   0.000000
     33         10.207615   0.000000
     34         10.441552   0.000000
     35         10.837784   0.000000
     36         10.965810   0.000000
     37         11.780806   0.000000
     38         11.811276   0.000000
     39         11.889940   0.000000
     40         12.345002   0.000000
     41         13.168000   0.000000
     42         13.438216   0.000000
     43         13.884085   0.000000
     44         13.995061   0.000000
     45         14.698741   0.000000
     46         15.009516   0.000000
     47         15.672376   0.000000
     48         15.830373   0.000000
 
  0.1818182E+00  0.0000000E+00  0.5000000E+00  0.1190476E-01
      1        -12.528772   1.000000
      2        -11.777304   1.000000
      3         -8.742976   1.000000
      4         -8.166490   1.000000
      5         -6.528317   1.000000
      6         -5.670201   1.000000
      7         -3.837952   1.000000
      8         -3.617523   1.000000