    1    1    1    1
  0.3375000E+04  0.1500000E-08  0.1250000E-08  0.1800000E-08  0.5000000E-15
  1.000000000000000E-004
  CAR 
 Convergence                             
      3    175      8
 
  0.5000000E-01  0.3571429E-01  0.0000000E+00  0.3174603E-02
      1         -9.409767   1.000000
      2         -3.572535   0.166729
      3         -3.572527   0.166670
      4         -3.572414   0.165874
      5         -0.261721   0.000000
      6          0.296102   0.000000
      7          0.309983   0.000000
      8          0.439906   0.000000
 
  0.1500000E+00  0.3571429E-01  0.0000000E+00  0.3174603E-02
      1         -9.409766   1.000000
      2         -3.572535   0.166727
      3         -3.572530   0.166692
      4         -3.572414   0.165873
      5         -0.251871   0.000000
      6          0.269729   0.000000
      7          0.321210   0.000000
      8          0.375731   0.000000
 
  0.2500000E+00  0.3571429E-01  0.0000000E+00  0.3174603E-02
      1         -9.409766   1.000000
      2         -3.572535   0.166727
      3         -3.572535   0.166725
      4         -3.572414   0.165871
      5         -0.233728   0.000000
      6          0.199513   0.000000
      7          0.342817   0.000000
      8          0.378336   0.000000
 
  0.3500000E+00  0.3571429E-01  0.0000000E+00  0.3174603E-02
      1         -9.409766   1.000000
      2         -3.572540   0.166762
      3         -3.572534   0.166722
      4         -3.572413   0.165868
      5         -0.211545   0.000000
      6          0.131710   0.000000
      7          0.371901   0.000000
      8          0.409878   0.000000
 
  0.4500000E+00  0.3571429E-01  0.0000000E+00  0.3174603E-02
      1         -9.409766   1.000000
      2         -3.572543   0.166784
      3         -3.572534   0.166721
      4         -3.572413   0.165867
      5         -0.194523   0.000000
      6          0.090588   0.000000
      7          0.398340   0.000000
      8          0.448821   0.000000
 
  0.5000000E-01  0.1071429E+00  0.0000000E+00  0.3174603E-02
      1         -9.409767   1.000000
      2         -3.572534   0.166717
      3         -3.572525   0.166658
      4         -3.572436   0.166031
      5         -0.252594   0.000000
      6          0.304196   0.000000
      7          0.318955   0.000000
      8          0.448772   0.000000
 
  0.1500000E+00  0.1071429E+00  0.0000000E+00  0.3174603E-02
      1         -9.409766   1.000000
      2         -3.572533   0.166715
      3         -3.572528   0.166680
      4         -3.572436   0.166030
      5         -0.242758   0.000000
      6          0.278212   0.000000
      7          0.330158   0.000000
      8          0.384680   0.000000
 
  0.2500000E+00  0.1071429E+00  0.0000000E+00  0.3174603E-02
      1         -9.409766   1.000000
      2         -3.572533   0.166715
      3         -3.572533   0.166713
      4         -3.572436   0.166028
      5         -0.224646   0.000000
      6          0.208559   0.000000
      7          0.351711   0.000000
      8          0.386921   0.000000
 
  0.3500000E+00  0.1071429E+00  0.0000000E+00  0.3174603E-02
      1         -9.409766   1.000000
      2         -3.572538   0.166750
      3         -3.572533   0.166710
      4         -3.572436   0.166026
      5         -0.202512   0.000000
      6          0.140996   0.000000
      7          0.380690   0.000000
      8          0.418329   0.000000
 
  0.4500000E+00  0.1071429E+00  0.0000000E+00  0.3174603E-02
      1         -9.409766   1.000000
      2         -3.572541   0.166772
      3         -3.572532   0.166709
      4         -3.572435   0.166024
      5         -0.185541   0.000000
      6          0.099989   0.000000
      7          0.406968   0.000000
      8          0.457155   0.000000
 
  0.5000000E-01  0.1785714E+00  0.0000000E+00  0.3174603E-02
      1         -9.409766   1.000000
      2         -3.572530   0.166695
      3         -3.572522   0.166637
      4         -3.572477   0.166315
      5         -0.234653   0.000000
      6          0.316954   0.000000
      7          0.336786   0.000000
      8          0.462244   0.000000
 
  0.1500000E+00  0.1785714E+00  0.0000000E+00  0.3174603E-02
      1         -9.409766   1.000000
      2         -3.572530   0.166693
      3         -3.572525   0.166658
      4         -3.572476   0.166314
      5         -0.224853   0.000000
      6          0.293339   0.000000
      7          0.347940   0.000000
      8          0.400983   0.000000
 
  0.2500000E+00  0.1785714E+00  0.0000000E+00  0.3174603E-02
      1         -9.409766   1.000000
      2         -3.572530   0.166694
      3         -3.572530   0.166691
      4         -3.572476   0.166312
      5         -0.206818   0.000000
      6          0.226197   0.000000
      7          0.369375   0.000000
      8          0.400747   0.000000
 
  0.3500000E+00  0.1785714E+00  0.0000000E+00  0.3174603E-02
      1         -9.409766   1.000000
      2         -3.572535   0.166729
      3         -3.572530   0.166689
      4         -3.572476   0.166310
      5         -0.184807   0.000000
      6          0.159418   0.000000
      7          0.398128   0.000000
      8          0.430961   0.000000
 
  0.4500000E+00  0.1785714E+00  0.0000000E+00  0.3174603E-02
      1         -9.409766   1.000000
      2         -3.572538   0.166751
      3         -3.572529   0.166688
      4         -3.572476   0.166309
      5         -0.167960   0.000000
      6          0.118730   0.000000
      7          0.424065   0.000000
      8          0.467859   0.000000
 
  0.5000000E-01  0.2500000E+00  0.0000000E+00  0.3174603E-02
      1         -9.409765   1.000000
      2         -3.572527   0.166670
      3         -3.572527   0.166667
      4         -3.572518   0.166610
      5         -0.208698   0.000000
      6          0.308124   0.000000
      7          0.363175   0.000000
      8          0.400876   0.000000
 
  0.1500000E+00  0.2500000E+00  0.0000000E+00  0.3174603E-02
      1         -9.409766   1.000000
      2         -3.572527   0.166669
      3         -3.572526   0.166666
      4         -3.572521   0.166631
      5         -0.198967   0.000000
      6          0.301106   0.000000
      7          0.374242   0.000000
      8          0.384677   0.000000
 
  0.2500000E+00  0.2500000E+00  0.0000000E+00  0.3174603E-02
      1         -9.409766   1.000000
      2         -3.572526   0.166667
      3         -3.572526   0.166666
      4         -3.572526   0.166664
      5         -0.181088   0.000000
      6          0.250233   0.000000
      7          0.374930   0.000000
      8          0.395475   0.000000
 
  0.3500000E+00  0.2500000E+00  0.0000000E+00  0.3174603E-02
      1         -9.409765   1.000000
      2         -3.572531   0.166702
      3         -3.572526   0.166665
      4         -3.572526   0.166662
      5         -0.159327   0.000000
      6          0.186491   0.000000
      7          0.397523   0.000000
      8          0.423840   0.000000
 
  0.4500000E+00  0.2500000E+00  0.0000000E+00  0.3174603E-02
      1         -9.409765   1.000000
      2         -3.572534   0.166723
      3         -3.572526   0.166663
      4         -3.572526   0.166660
      5         -0.142737   0.000000
      6          0.146642   0.000000
      7          0.422132   0.000000
      8          0.449207   0.000000
 
  0.5000000E-01  0.3214286E+00  0.0000000E+00  0.3174603E-02
      1         -9.409765   1.000000
      2         -3.572577   0.167024
      3         -3.572523   0.166641
      4         -3.572515   0.166583
      5         -0.176536   0.000000
      6          0.243368   0.000000
      7          0.397332   0.000000
      8          0.415616   0.000000
 
  0.1500000E+00  0.3214286E+00  0.0000000E+00  0.3174603E-02
      1         -9.409766   1.000000
      2         -3.572577   0.167023
      3         -3.572523   0.166639
      4         -3.572518   0.166605
      5         -0.166938   0.000000
      6          0.252213   0.000000
      7          0.384849   0.000000
      8          0.408252   0.000000
 
  0.2500000E+00  0.3214286E+00  0.0000000E+00  0.3174603E-02
      1         -9.409765   1.000000
      2         -3.572577   0.167021
      3         -3.572523   0.166640
      4         -3.572522   0.166637
      5         -0.149351   0.000000
      6          0.258733   0.000000
      7          0.321680   0.000000
      8          0.429145   0.000000
 
  0.3500000E+00  0.3214286E+00  0.0000000E+00  0.3174603E-02
      1         -9.409765   1.000000
      2         -3.572576   0.167019
      3         -3.572528   0.166674
      4         -3.572522   0.166635
      5         -0.128065   0.000000
      6          0.220098   0.000000
      7          0.319627   0.000000
      8          0.456867   0.000000
 
  0.4500000E+00  0.3214286E+00  0.0000000E+00  0.3174603E-02
      1         -9.409765   1.000000
      2         -3.572576   0.167018
      3         -3.572531   0.166696
      4         -3.572522   0.166634
      5         -0.111964   0.000000
      6          0.183253   0.000000
      7          0.340634   0.000000
      8          0.481317   0.000000
 
  0.5000000E-01  0.3928571E+00  0.0000000E+00  0.3174603E-02
      1         -9.409764   1.000000
      2         -3.572617   0.167310
      3         -3.572520   0.166619
      4         -3.572512   0.166562
      5         -0.142531   0.000000
      6          0.176262   0.000000
      7          0.436827   0.000000
      8          0.458091   0.000000
 
  0.1500000E+00  0.3928571E+00  0.0000000E+00  0.3174603E-02
      1         -9.409764   1.000000
      2         -3.572617   0.167308
      3         -3.572520   0.166618
      4         -3.572515   0.166583
      5         -0.133160   0.000000
      6          0.187310   0.000000
      7          0.422407   0.000000
      8          0.447483   0.000000
 
  0.2500000E+00  0.3928571E+00  0.0000000E+00  0.3174603E-02
      1         -9.409765   1.000000
      2         -3.572617   0.167306
      3         -3.572520   0.166618
      4         -3.572519   0.166615
      5         -0.116079   0.000000
      6          0.208104   0.000000
      7          0.344997   0.000000
      8          0.467772   0.000000
 
  0.3500000E+00  0.3928571E+00  0.0000000E+00  0.3174603E-02
      1         -9.409766   1.000000
      2         -3.572616   0.167303
      3         -3.572524   0.166653
      4         -3.572519   0.166614
      5         -0.095607   0.000000
      6          0.232207   0.000000
      7          0.281682   0.000000
      8          0.496987   0.000000
 
  0.4500000E+00  0.3928571E+00  0.0000000E+00  0.3174603E-02
      1         -9.409766   1.000000
      2         -3.572616   0.167302
      3         -3.572527   0.166674
      4         -3.572519   0.166612
      5         -0.080332   0.000000
      6          0.226534   0.000000
      7          0.273400   0.000000
      8          0.447588   0.000000
 
  0.5000000E-01  0.4642857E+00  0.0000000E+00  0.3174603E-02
      1         -9.409764   1.000000
      2         -3.572640   0.167468
      3         -3.572518   0.166607
      4         -3.572510   0.166550
      5         -0.117317   0.000000
      6          0.133411   0.000000
      7          0.471817   0.000000
      8          0.506428   0.000000
 
  0.1500000E+00  0.4642857E+00  0.0000000E+00  0.3174603E-02
      1         -9.409765   1.000000
      2         -3.572639   0.167467
      3         -3.572518   0.166606
      4         -3.572513   0.166571
      5         -0.108217   0.000000
      6          0.145096   0.000000
      7          0.462437   0.000000
      8          0.482029   0.000000
 
  0.2500000E+00  0.4642857E+00  0.0000000E+00  0.3174603E-02
      1         -9.409765   1.000000
      2         -3.572639   0.167464
      3         -3.572518   0.166606
      4         -3.572517   0.166603
      5         -0.091734   0.000000
      6          0.167771   0.000000
      7          0.381905   0.000000
      8          0.501411   0.000000
 
  0.3500000E+00  0.4642857E+00  0.0000000E+00  0.3174603E-02
      1         -9.409765   1.000000
      2         -3.572639   0.167461
      3         -3.572523   0.166641
      4         -3.572517   0.166602
      5         -0.072209   0.000000
      6          0.199007   0.000000
      7          0.313972   0.000000
      8          0.438571   0.000000
 
  0.4500000E+00  0.4642857E+00  0.0000000E+00  0.3174603E-02
      1         -9.409766   1.000000
      2         -3.572638   0.167460
      3         -3.572526   0.166662
      4         -3.572517   0.166600
      5         -0.057864   0.000000
      6          0.229545   0.000000
      7          0.273572   0.000000
      8          0.385258   0.000000
 
  0.5000000E-01  0.3571429E-01  0.1111111E+00  0.6349206E-02
      1         -9.409767   1.000000
      2         -3.572535   0.166729
      3         -3.572527   0.166670
      4         -3.572414   0.165874
      5         -0.258699   0.000000
      6          0.218758   0.000000
      7          0.388479   0.000000
      8          0.453270   0.000000
 
  0.1500000E+00  0.3571429E-01  0.1111111E+00  0.6349206E-02
      1         -9.409767   1.000000
      2         -3.572535   0.166728
      3         -3.572530   0.166692
      4         -3.572414   0.165873
      5         -0.248897   0.000000
      6          0.223990   0.000000
      7          0.319392   0.000000
      8          0.439843   0.000000
 
  0.2500000E+00  0.3571429E-01  0.1111111E+00  0.6349206E-02
      1         -9.409766   1.000000
      2         -3.572535   0.166727
      3         -3.572535   0.166725
      4         -3.572414   0.165870
      5         -0.230862   0.000000
      6          0.197548   0.000000
      7          0.279931   0.000000
      8          0.459724   0.000000
 
  0.3500000E+00  0.3571429E-01  0.1111111E+00  0.6349206E-02
      1         -9.409766   1.000000
      2         -3.572540   0.166762
      3         -3.572534   0.166723
      4         -3.572413   0.165868
      5         -0.208858   0.000000
      6          0.135705   0.000000
      7          0.302640   0.000000
      8          0.488382   0.000000
 
  0.4500000E+00  0.3571429E-01  0.1111111E+00  0.6349206E-02
      1         -9.409766   1.000000
      2         -3.572543   0.166784
      3         -3.572534   0.166722
      4         -3.572413   0.165867
      5         -0.192024   0.000000
      6          0.095462   0.000000
      7          0.333227   0.000000
      8          0.472420   0.000000
 
  0.5000000E-01  0.1071429E+00  0.1111111E+00  0.6349206E-02
      1         -9.409767   1.000000
      2         -3.572534   0.166717
      3         -3.572525   0.166658
      4         -3.572436   0.166031
      5         -0.249581   0.000000
      6          0.227762   0.000000
      7          0.395970   0.000000
      8          0.462004   0.000000
 
  0.1500000E+00  0.1071429E+00  0.1111111E+00  0.6349206E-02
      1         -9.409766   1.000000
      2         -3.572533   0.166716
      3         -3.572528   0.166680
      4         -3.572436   0.166030
      5         -0.239794   0.000000
      6          0.232951   0.000000
      7          0.328237   0.000000
      8          0.447793   0.000000
 
  0.2500000E+00  0.1071429E+00  0.1111111E+00  0.6349206E-02
      1         -9.409766   1.000000
      2         -3.572533   0.166715
      3         -3.572533   0.166713
      4         -3.572436   0.166028
      5         -0.221790   0.000000
      6          0.206604   0.000000
      7          0.289064   0.000000
      8          0.467469   0.000000
 
  0.3500000E+00  0.1071429E+00  0.1111111E+00  0.6349206E-02
      1         -9.409766   1.000000
      2         -3.572538   0.166750
      3         -3.572533   0.166711
      4         -3.572436   0.166026
      5         -0.199835   0.000000
      6          0.144987   0.000000
      7          0.311674   0.000000
      8          0.496176   0.000000
 
  0.4500000E+00  0.1071429E+00  0.1111111E+00  0.6349206E-02
      1         -9.409766   1.000000
      2         -3.572541   0.166772
      3         -3.572533   0.166710
      4         -3.572435   0.166024
      5         -0.183050   0.000000
      6          0.104856   0.000000
      7          0.342138   0.000000
      8          0.481701   0.000000
 
  0.5000000E-01  0.1785714E+00  0.1111111E+00  0.6349206E-02
      1         -9.409766   1.000000
      2         -3.572531   0.166696
      3         -3.572522   0.166637
      4         -3.572477   0.166315
      5         -0.231665   0.000000
      6          0.245109   0.000000
      7          0.402544   0.000000
      8          0.471338   0.000000
 
  0.1500000E+00  0.1785714E+00  0.1111111E+00  0.6349206E-02
      1         -9.409766   1.000000
      2         -3.572530   0.166694
      3         -3.572525   0.166658
      4         -3.572476   0.166314
      5         -0.221912   0.000000
      6          0.250141   0.000000
      7          0.345181   0.000000
      8          0.449961   0.000000
 
  0.2500000E+00  0.1785714E+00  0.1111111E+00  0.6349206E-02
      1         -9.409766   1.000000
      2         -3.572530   0.166694
      3         -3.572530   0.166692
      4         -3.572476   0.166312
      5         -0.203985   0.000000
      6          0.224252   0.000000
      7          0.307168   0.000000
      8          0.467447   0.000000
 
  0.3500000E+00  0.1785714E+00  0.1111111E+00  0.6349206E-02
      1         -9.409766   1.000000
      2         -3.572535   0.166729
      3         -3.572530   0.166690
      4         -3.572476   0.166310
      5         -0.182151   0.000000
      6          0.163397   0.000000
      7          0.329391   0.000000
      8          0.495804   0.000000
 
  0.4500000E+00  0.1785714E+00  0.1111111E+00  0.6349206E-02
      1         -9.409766   1.000000
      2         -3.572538   0.166750
      3         -3.572529   0.166688
      4         -3.572476   0.166309
      5         -0.165489   0.000000
      6          0.123581   0.000000
      7          0.359536   0.000000
      8          0.499880   0.000000
 
  0.5000000E-01  0.2500000E+00  0.1111111E+00  0.6349206E-02
      1         -9.409766   1.000000
      2         -3.572527   0.166670
      3         -3.572527   0.166668
      4         -3.572518   0.166610
      5         -0.205756   0.000000
      6          0.266253   0.000000
      7          0.351894   0.000000
      8          0.458645   0.000000
 
  0.1500000E+00  0.2500000E+00  0.1111111E+00  0.6349206E-02
      1         -9.409766   1.000000
      2         -3.572527   0.166669
      3         -3.572526   0.166667
      4         -3.572521   0.166631
      5         -0.196074   0.000000
      6          0.270901   0.000000
      7          0.355856   0.000000
      8          0.390347   0.000000
 
  0.2500000E+00  0.2500000E+00  0.1111111E+00  0.6349206E-02
      1         -9.409766   1.000000
      2         -3.572526   0.166667
      3         -3.572526   0.166666
      4         -3.572526   0.166664
      5         -0.178301   0.000000
      6          0.248330   0.000000
      7          0.333270   0.000000
      8          0.389411   0.000000
 
  0.3500000E+00  0.2500000E+00  0.1111111E+00  0.6349206E-02
      1         -9.409765   1.000000
      2         -3.572531   0.166702
      3         -3.572526   0.166665
      4         -3.572526   0.166662
      5         -0.156714   0.000000
      6          0.190444   0.000000
      7          0.353028   0.000000
      8          0.415619   0.000000
 
  0.4500000E+00  0.2500000E+00  0.1111111E+00  0.6349206E-02
      1         -9.409765   1.000000
      2         -3.572534   0.166723
      3         -3.572526   0.166664
      4         -3.572526   0.166661
      5         -0.140304   0.000000
      6          0.151466   0.000000
      7          0.381806   0.000000
      8          0.439434   0.000000
 
  0.5000000E-01  0.3214286E+00  0.1111111E+00  0.6349206E-02
      1         -9.409765   1.000000
      2         -3.572577   0.167024
      3         -3.572523   0.166642
      4         -3.572515   0.166583
      5         -0.173683   0.000000
      6          0.243539   0.000000
      7          0.327373   0.000000
      8          0.489725   0.000000
 
  0.1500000E+00  0.3214286E+00  0.1111111E+00  0.6349206E-02
      1         -9.409765   1.000000
      2         -3.572577   0.167023
      3         -3.572523   0.166640
      4         -3.572518   0.166605
      5         -0.164132   0.000000
      6          0.252285   0.000000
      7          0.336570   0.000000
      8          0.412590   0.000000
 
  0.2500000E+00  0.3214286E+00  0.1111111E+00  0.6349206E-02
      1         -9.409765   1.000000
      2         -3.572577   0.167021
      3         -3.572523   0.166640
      4         -3.572522   0.166638
      5         -0.146650   0.000000
      6          0.259213   0.000000
      7          0.324892   0.000000
      8          0.371730   0.000000
 
  0.3500000E+00  0.3214286E+00  0.1111111E+00  0.6349206E-02
      1         -9.409765   1.000000
      2         -3.572576   0.167019
      3         -3.572528   0.166674
      4         -3.572522   0.166636
      5         -0.125532   0.000000
      6          0.223972   0.000000
      7          0.322241   0.000000
      8          0.398105   0.000000
 
  0.4500000E+00  0.3214286E+00  0.1111111E+00  0.6349206E-02
      1         -9.409765   1.000000
      2         -3.572576   0.167018
      3         -3.572531   0.166696
      4         -3.572522   0.166634
      5         -0.109602   0.000000
      6          0.188027   0.000000
      7          0.342696   0.000000
      8          0.427387   0.000000
 
  0.5000000E-01  0.3928571E+00  0.1111111E+00  0.6349206E-02
      1         -9.409764   1.000000
      2         -3.572617   0.167310
      3         -3.572520   0.166620
      4         -3.572512   0.166562
      5         -0.139832   0.000000
      6          0.180146   0.000000
      7          0.363783   0.000000
      8          0.529725   0.000000
 
  0.1500000E+00  0.3928571E+00  0.1111111E+00  0.6349206E-02
      1         -9.409765   1.000000
      2         -3.572617   0.167308
      3         -3.572520   0.166618
      4         -3.572515   0.166583
      5         -0.130506   0.000000
      6          0.191168   0.000000
      7          0.371185   0.000000
      8          0.452068   0.000000
 
  0.2500000E+00  0.3928571E+00  0.1111111E+00  0.6349206E-02
      1         -9.409765   1.000000
      2         -3.572617   0.167306
      3         -3.572520   0.166618
      4         -3.572519   0.166616
      5         -0.113523   0.000000
      6          0.211907   0.000000
      7          0.345133   0.000000
      8          0.412417   0.000000
 
  0.3500000E+00  0.3928571E+00  0.1111111E+00  0.6349206E-02
      1         -9.409765   1.000000
      2         -3.572616   0.167303
      3         -3.572524   0.166653
      4         -3.572519   0.166614
      5         -0.093208   0.000000
      6          0.236025   0.000000
      7          0.285751   0.000000
      8          0.437062   0.000000
 
  0.4500000E+00  0.3928571E+00  0.1111111E+00  0.6349206E-02
      1         -9.409766   1.000000
      2         -3.572616   0.167302
      3         -3.572527   0.166674
      4         -3.572519   0.166612
      5         -0.078085   0.000000
      6          0.231189   0.000000
      7          0.276967   0.000000
      8          0.452086   0.000000
 
  0.5000000E-01  0.4642857E+00  0.1111111E+00  0.6349206E-02
      1         -9.409764   1.000000
      2         -3.572640   0.167468
      3         -3.572518   0.166608
      4         -3.572510   0.166550
      5         -0.114802   0.000000
      6          0.137852   0.000000
      7          0.404484   0.000000
      8          0.525018   0.000000
 
  0.1500000E+00  0.4642857E+00  0.1111111E+00  0.6349206E-02
      1         -9.409765   1.000000
      2         -3.572639   0.167467
      3         -3.572518   0.166606
      4         -3.572513   0.166571
      5         -0.105744   0.000000
      6          0.149504   0.000000
      7          0.411412   0.000000
      8          0.488262   0.000000
 
  0.2500000E+00  0.4642857E+00  0.1111111E+00  0.6349206E-02
      1         -9.409765   1.000000
      2         -3.572639   0.167464
      3         -3.572518   0.166606
      4         -3.572518   0.166604
      5         -0.089349   0.000000
      6          0.172100   0.000000
      7          0.381897   0.000000
      8          0.450979   0.000000
 
  0.3500000E+00  0.4642857E+00  0.1111111E+00  0.6349206E-02
      1         -9.409765   1.000000
      2         -3.572639   0.167461
      3         -3.572523   0.166640
      4         -3.572517   0.166602
      5         -0.069960   0.000000
      6          0.203173   0.000000
      7          0.317816   0.000000
      8          0.442812   0.000000
 
  0.4500000E+00  0.4642857E+00  0.1111111E+00  0.6349206E-02
      1         -9.409765   1.000000
      2         -3.572638   0.167460
      3         -3.572526   0.166662
      4         -3.572517   0.166600
      5         -0.055743   0.000000
      6          0.233411   0.000000
      7          0.277989   0.000000
      8          0.390418   0.000000
 
  0.5000000E-01  0.3571429E-01  0.2222222E+00  0.6349206E-02
      1         -9.409766   1.000000
      2         -3.572536   0.166731
      3         -3.572527   0.166670
      4         -3.572414   0.165874
      5         -0.250499   0.000000
      6          0.147639   0.000000
      7          0.433242   0.000000
      8          0.516312   0.000000
 
  0.1500000E+00  0.3571429E-01  0.2222222E+00  0.6349206E-02
      1         -9.409766   1.000000
      2         -3.572535   0.166729
      3         -3.572530   0.166692
      4         -3.572414   0.165873
      5         -0.240840   0.000000
      6          0.158152   0.000000
      7          0.330127   0.000000
      8          0.541167   0.000000
 
  0.2500000E+00  0.3571429E-01  0.2222222E+00  0.6349206E-02
      1         -9.409766   1.000000
      2         -3.572535   0.166728
      3         -3.572535   0.166726
      4         -3.572414   0.165870
      5         -0.223126   0.000000
      6          0.172386   0.000000
      7          0.246913   0.000000
      8          0.529465   0.000000
 
  0.3500000E+00  0.3571429E-01  0.2222222E+00  0.6349206E-02
      1         -9.409766   1.000000
      2         -3.572540   0.166762
      3         -3.572535   0.166725
      4         -3.572413   0.165868
      5         -0.201644   0.000000
      6          0.146111   0.000000
      7          0.234504   0.000000
      8          0.452664   0.000000
 
  0.4500000E+00  0.3571429E-01  0.2222222E+00  0.6349206E-02
      1         -9.409766   1.000000
      2         -3.572543   0.166784
      3         -3.572534   0.166723
      4         -3.572413   0.165867
      5         -0.185353   0.000000
      6          0.109651   0.000000
      7          0.263589   0.000000
      8          0.393208   0.000000
 
  0.5000000E-01  0.1071429E+00  0.2222222E+00  0.6349206E-02
      1         -9.409767   1.000000
      2         -3.572534   0.166719
      3         -3.572525   0.166658
      4         -3.572436   0.166031
      5         -0.241410   0.000000
      6          0.156920   0.000000
      7          0.440861   0.000000
      8          0.520136   0.000000
 
  0.1500000E+00  0.1071429E+00  0.2222222E+00  0.6349206E-02
      1         -9.409766   1.000000
      2         -3.572534   0.166717
      3         -3.572528   0.166680
      4         -3.572436   0.166030
      5         -0.231766   0.000000
      6          0.167422   0.000000
      7          0.338896   0.000000
      8          0.544164   0.000000
 
  0.2500000E+00  0.1071429E+00  0.2222222E+00  0.6349206E-02
      1         -9.409766   1.000000
      2         -3.572533   0.166716
      3         -3.572533   0.166714
      4         -3.572436   0.166028
      5         -0.214081   0.000000
      6          0.181619   0.000000
      7          0.256044   0.000000
      8          0.537844   0.000000
 
  0.3500000E+00  0.1071429E+00  0.2222222E+00  0.6349206E-02
      1         -9.409766   1.000000
      2         -3.572538   0.166750
      3         -3.572533   0.166713
      4         -3.572436   0.166026
      5         -0.192646   0.000000
      6          0.155387   0.000000
      7          0.243722   0.000000
      8          0.461980   0.000000
 
  0.4500000E+00  0.1071429E+00  0.2222222E+00  0.6349206E-02
      1         -9.409765   1.000000
      2         -3.572541   0.166772
      3         -3.572533   0.166711
      4         -3.572435   0.166024
      5         -0.176401   0.000000
      6          0.119021   0.000000
      7          0.272715   0.000000
      8          0.402686   0.000000
 
  0.5000000E-01  0.1785714E+00  0.2222222E+00  0.6349206E-02
      1         -9.409766   1.000000
      2         -3.572531   0.166697
      3         -3.572522   0.166637
      4         -3.572477   0.166315
      5         -0.223563   0.000000
      6          0.175242   0.000000
      7          0.440110   0.000000
      8          0.481887   0.000000
 
  0.1500000E+00  0.1785714E+00  0.2222222E+00  0.6349206E-02
      1         -9.409766   1.000000
      2         -3.572531   0.166696
      3         -3.572525   0.166658
      4         -3.572476   0.166314
      5         -0.213953   0.000000
      6          0.185707   0.000000
      7          0.355455   0.000000
      8          0.476244   0.000000
 
  0.2500000E+00  0.1785714E+00  0.2222222E+00  0.6349206E-02
      1         -9.409766   1.000000
      2         -3.572530   0.166694
      3         -3.572530   0.166693
      4         -3.572476   0.166312
      5         -0.196343   0.000000
      6          0.199796   0.000000
      7          0.274159   0.000000
      8          0.495542   0.000000
 