   14   14    1    1
  0.1021960E+02  0.5697000E-09  0.4047900E-09  0.6204200E-09  0.5000000E-15
  1.000000000000000E-004
  CAR 
 Kpoints                                 
     42    175     48
 
  0.5000000E-01  0.3571429E-01  0.0000000E+00  0.3174603E-02
      1        -12.732127   1.000000
      2        -11.581392   1.000000
      3         -8.657568   1.000000
      4         -8.423499   1.000000
      5         -6.061181   1.000000
      6         -5.124012   1.000000
      7         -4.661052   1.000000
      8         -4.263206   1.000000
      9         -4.026915   1.000000
     10         -3.533684   1.000000
     11         -2.592313   1.000000
     12         -2.325224   1.000000
     13         -1.829165   1.000000
     14         -1.086995   1.000000
     15         -0.048788   1.000000
     16         -0.018057   1.000000
     17          0.174464   1.000000
     18          0.192147   1.000000
     19          0.584399   1.000000
     20          2.047288   0.000057
     21          2.109881   0.000000
     22          2.239128   0.000000
     23          5.473148   0.000000
     24          5.771066   0.000000
     25          5.859654   0.000000
     26          5.983338   0.000000
     27          6.838962   0.000000
     28          7.563228   0.000000
     29          7.892371   0.000000
     30          8.538713   0.000000
     31          8.798001   0.000000
     32          8.946202   0.000000
     33          9.046989   0.000000
     34         10.126180   0.000000
     35         11.189512   0.000000
     36         11.366700   0.000000
     37         11.694720   0.000000
     38         11.794870   0.000000
     39         11.954187   0.000000
     40         12.417149   0.000000
     41         12.882388   0.000000
     42         13.484444   0.000000
     43         13.511209   0.000000
     44         15.399973   0.000000
     45         15.593467   0.000000
     46         16.085474   0.000000
     47         16.361291   0.000000
     48         16.396065   0.000000
 
  0.1500000E+00  0.3571429E-01  0.0000000E+00  0.3174603E-02
      1        -12.687898   1.000000
      2        -11.656787   1.000000
      3         -8.636963   1.000000
      4         -8.412052   1.000000
      5         -5.994569   1.000000
      6         -5.466622   1.000000
      7         -4.784200   1.000000
      8         -4.002576   1.000000
      9         -3.780518   1.000000
     10         -3.197056   1.000000
     11         -2.662616   1.000000
     12         -2.306258   1.000000
     13         -1.907918   1.000000
     14         -1.392214   1.000000
     15         -0.008275   1.000000
     16         -0.004819   1.000000
     17          0.110642   1.000000
     18          0.213896   1.000000
     19          0.487202   1.000000
     20          1.958299   0.090069
     21          2.029184   0.000411
     22          2.115449   0.000000
     23          5.562190   0.000000
     24          5.774386   0.000000
     25          5.888038   0.000000
     26          6.327803   0.000000
     27          6.746094   0.000000
     28          7.196404   0.000000
     29          8.097118   0.000000
     30          8.677033   0.000000
     31          9.053199   0.000000
     32          9.130470   0.000000
     33          9.202117   0.000000
     34         10.238853   0.000000
     35         10.970452   0.000000
     36         11.157178   0.000000
     37         11.263213   0.000000
     38         11.708023   0.000000
     39         12.173913   0.000000
     40         12.504740   0.000000
     41         13.146257   0.000000
     42         13.151182   0.000000
     43         14.043319   0.000000
     44         14.882994   0.000000
     45         15.771386   0.000000
     46         15.850908   0.000000
     47         16.250190   0.000000
     48         16.545329   0.000000
 
  0.2500000E+00  0.3571429E-01  0.0000000E+00  0.3174603E-02
      1        -12.601719   1.000000
      2        -11.790927   1.000000
      3         -8.593059   1.000000
      4         -8.396585   1.000000
      5         -5.971927   1.000000
      6         -5.793627   1.000000
      7         -4.737149   1.000000
      8         -3.875747   1.000000
      9         -3.267405   1.000000
     10         -2.829803   1.000000
     11         -2.703699   1.000000
     12         -2.266041   1.000000
     13         -2.016858   1.000000
     14         -1.893461   1.000000
     15         -0.210010   1.000000
     16          0.034513   1.000000
     17          0.163174   1.000000
     18          0.178528   1.000000
     19          0.456650   1.000000
     20          1.807961   0.998204
     21          1.886951   0.751021
     22          1.894426   0.679495
     23          5.683476   0.000000
     24          5.730975   0.000000
     25          6.199863   0.000000
     26          6.618145   0.000000
     27          6.785412   0.000000
     28          6.944812   0.000000
     29          8.247955   0.000000
     30          8.830252   0.000000
     31          9.001646   0.000000
     32          9.574595   0.000000
     33          9.651479   0.000000
     34         10.308384   0.000000
     35         10.498548   0.000000
     36         10.639512   0.000000
     37         11.387680   0.000000
     38         11.849770   0.000000
     39         12.408334   0.000000
     40         12.590723   0.000000
     41         12.807910   0.000000
     42         12.934111   0.000000
     43         14.665569   0.000000
     44         14.942412   0.000000
     45         15.244908   0.000000
     46         16.012187   0.000000
     47         16.024045   0.000000
     48         16.328136   0.000000
 
  0.3500000E+00  0.3571429E-01  0.0000000E+00  0.3174603E-02
      1        -12.477424   1.000000
      2        -11.961472   1.000000
      3         -8.532001   1.000000
      4         -8.392653   1.000000
      5         -6.052267   1.000000
      6         -6.027735   1.000000
      7         -4.409395   1.000000
      8         -3.707436   1.000000
      9         -3.023471   1.000000
     10         -2.883429   1.000000
     11         -2.433789   1.000000
     12         -2.242020   1.000000
     13         -2.145286   1.000000
     14         -2.116803   1.000000
     15         -0.509621   1.000000
     16         -0.230783   1.000000
     17          0.194866   1.000000
     18          0.268823   1.000000
     19          0.628176   1.000000
     20          1.546478   1.000000
     21          1.686148   1.000000
     22          1.746310   0.999998
     23          5.714748   0.000000
     24          5.768115   0.000000
     25          6.513594   0.000000
     26          6.682841   0.000000
     27          6.723333   0.000000
     28          7.438943   0.000000
     29          8.371390   0.000000
     30          8.710241   0.000000
     31          8.813688   0.000000
     32          9.559759   0.000000
     33         10.056119   0.000000
     34         10.125440   0.000000
     35         10.411619   0.000000
     36         11.150956   0.000000
     37         11.418611   0.000000
     38         11.966039   0.000000
     39         12.212991   0.000000
     40         12.286150   0.000000
     41         12.532360   0.000000
     42         13.276882   0.000000
     43         14.729982   0.000000
     44         14.997782   0.000000
     45         15.292070   0.000000
     46         15.396550   0.000000
     47         15.604470   0.000000
     48         16.407068   0.000000
 
  0.4500000E+00  0.3571429E-01  0.0000000E+00  0.3174603E-02
      1        -12.321780   1.000000
      2        -12.144797   1.000000
      3         -8.465931   1.000000
      4         -8.414799   1.000000
      5         -6.141308   1.000000
      6         -6.136922   1.000000
      7         -3.892935   1.000000
      8         -3.498990   1.000000
      9         -3.291895   1.000000
     10         -3.261883   1.000000
     11         -2.351876   1.000000
     12         -2.227191   1.000000
     13         -1.954453   1.000000
     14         -1.895265   1.000000
     15         -0.730381   1.000000
     16         -0.592629   1.000000
     17          0.278322   1.000000
     18          0.311555   1.000000
     19          0.889061   1.000000
     20          1.206741   1.000000
     21          1.603981   1.000000
     22          1.630867   1.000000
     23          5.741295   0.000000
     24          5.779757   0.000000
     25          6.489763   0.000000
     26          6.553510   0.000000
     27          7.396218   0.000000
     28          8.096999   0.000000
     29          8.123650   0.000000
     30          8.486183   0.000000
     31          8.621607   0.000000
     32          8.813108   0.000000
     33         10.509640   0.000000
     34         10.522077   0.000000
     35         10.773695   0.000000
     36         11.231788   0.000000
     37         11.416772   0.000000
     38         11.607462   0.000000
     39         11.938963   0.000000
     40         12.490886   0.000000
     41         12.729707   0.000000
     42         13.271582   0.000000
     43         14.606616   0.000000
     44         14.756271   0.000000
     45         14.883791   0.000000
     46         14.949340   0.000000
     47         16.139872   0.000000
     48         16.481742   0.000000
 
  0.5000000E-01  0.1071429E+00  0.0000000E+00  0.3174603E-02
      1        -12.707966   1.000000
      2        -11.559669   1.000000
      3         -8.639352   1.000000
      4         -8.400524   1.000000
      5         -6.035185   1.000000
      6         -5.090770   1.000000
      7         -4.638804   1.000000
      8         -4.566709   1.000000
      9         -4.168511   1.000000
     10         -3.511861   1.000000
     11         -3.288362   1.000000
     12         -1.790098   1.000000
     13         -1.079037   1.000000
     14         -1.025685   1.000000
     15         -0.284776   1.000000
     16         -0.255317   1.000000
     17          0.185709   1.000000
     18          0.262518   1.000000
     19          0.662986   1.000000
     20          1.776903   0.999925
     21          1.856740   0.937264
     22          2.290060   0.000000
     23          5.595135   0.000000
     24          5.724219   0.000000
     25          5.763671   0.000000
     26          6.028659   0.000000
     27          7.123809   0.000000
     28          7.849671   0.000000
     29          8.077359   0.000000
     30          8.202386   0.000000
     31          8.804255   0.000000
     32          9.094807   0.000000
     33          9.145956   0.000000
     34         10.584117   0.000000
     35         11.299993   0.000000
     36         11.406174   0.000000
     37         11.633853   0.000000
     38         11.898410   0.000000
     39         12.065268   0.000000
     40         12.699004   0.000000
     41         12.882713   0.000000
     42         13.217107   0.000000
     43         13.226895   0.000000
     44         15.351595   0.000000
     45         15.400240   0.000000
     46         15.887822   0.000000
     47         15.889034   0.000000
     48         16.253310   0.000000
 
  0.1500000E+00  0.1071429E+00  0.0000000E+00  0.3174603E-02
      1        -12.663982   1.000000
      2        -11.634335   1.000000
      3         -8.617552   1.000000
      4         -8.388924   1.000000
      5         -5.964759   1.000000
      6         -5.435566   1.000000
      7         -4.763170   1.000000
      8         -4.485936   1.000000
      9         -3.741762   1.000000
     10         -3.368779   1.000000
     11         -3.158248   1.000000
     12         -1.768357   1.000000
     13         -1.385626   1.000000
     14         -1.145110   1.000000
     15         -0.245477   1.000000
     16         -0.176864   1.000000
     17          0.151586   1.000000
     18          0.235300   1.000000
     19          0.560134   1.000000
     20          1.696199   1.000000
     21          1.779735   0.999896
     22          2.158955   0.000000
     23          5.670237   0.000000
     24          5.824000   0.000000
     25          5.955929   0.000000
     26          6.134294   0.000000
     27          7.038030   0.000000
     28          7.520107   0.000000
     29          8.226034   0.000000
     30          8.369506   0.000000
     31          9.127516   0.000000
     32          9.161905   0.000000
     33          9.413512   0.000000
     34         10.512386   0.000000
     35         10.902136   0.000000
     36         11.111276   0.000000
     37         11.462557   0.000000
     38         11.884036   0.000000
     39         12.287220   0.000000
     40         12.756365   0.000000
     41         12.888335   0.000000
     42         13.169941   0.000000
     43         13.760981   0.000000
     44         14.971747   0.000000
     45         15.421325   0.000000
     46         15.777477   0.000000
     47         15.814382   0.000000
     48         16.433721   0.000000
 
  0.2500000E+00  0.1071429E+00  0.0000000E+00  0.3174603E-02
      1        -12.578015   1.000000
      2        -11.768988   1.000000
      3         -8.574681   1.000000
      4         -8.374715   1.000000
      5         -5.941223   1.000000
      6         -5.763608   1.000000
      7         -4.721770   1.000000
      8         -4.378534   1.000000
      9         -3.489870   1.000000
     10         -3.215102   1.000000
     11         -2.691507   1.000000
     12         -1.892058   1.000000
     13         -1.724510   1.000000
     14         -1.308806   1.000000
     15         -0.213040   1.000000
     16         -0.198043   1.000000
     17          0.070705   1.000000
     18          0.223325   1.000000
     19          0.479198   1.000000
     20          1.557785   1.000000
     21          1.645138   1.000000
     22          1.907976   0.533086
     23          5.871572   0.000000
     24          5.950333   0.000000
     25          6.029769   0.000000
     26          6.581902   0.000000
     27          6.910653   0.000000
     28          7.290458   0.000000
     29          8.435491   0.000000
     30          8.499621   0.000000
     31          9.099579   0.000000
     32          9.613012   0.000000
     33          9.877502   0.000000
     34         10.148132   0.000000
     35         10.376113   0.000000
     36         10.828070   0.000000
     37         11.531143   0.000000
     38         12.115325   0.000000
     39         12.329081   0.000000
     40         12.570148   0.000000
     41         12.971820   0.000000
     42         13.037411   0.000000
     43         14.334307   0.000000
     44         15.106502   0.000000
     45         15.182734   0.000000
     46         15.660894   0.000000
     47         15.734959   0.000000
     48         16.451517   0.000000
 
  0.3500000E+00  0.1071429E+00  0.0000000E+00  0.3174603E-02
      1        -12.453836   1.000000
      2        -11.939022   1.000000
      3         -8.512120   1.000000
      4         -8.371240   1.000000
      5         -6.019834   1.000000
      6         -5.996196   1.000000
      7         -4.395120   1.000000
      8         -4.231155   1.000000
      9         -3.660566   1.000000
     10         -2.835142   1.000000
     11         -2.349096   1.000000
     12         -2.205817   1.000000
     13         -1.659749   1.000000
     14         -1.471086   1.000000
     15         -0.472016   1.000000
     16         -0.291585   1.000000
     17          0.104136   1.000000
     18          0.133857   1.000000
     19          0.640138   1.000000
     20          1.417982   1.000000
     21          1.501512   1.000000
     22          1.584811   1.000000
     23          5.890767   0.000000
     24          6.024773   0.000000
     25          6.537702   0.000000
     26          6.821190   0.000000
     27          6.896088   0.000000
     28          7.391063   0.000000
     29          8.436785   0.000000
     30          8.609560   0.000000
     31          8.941534   0.000000
     32          9.396298   0.000000
     33         10.087255   0.000000
     34         10.099600   0.000000
     35         10.449072   0.000000
     36         11.228653   0.000000
     37         11.376920   0.000000
     38         11.859796   0.000000
     39         12.302194   0.000000
     40         12.558276   0.000000
     41         12.731461   0.000000
     42         13.479732   0.000000
     43         14.792439   0.000000
     44         14.793415   0.000000
     45         15.182939   0.000000
     46         15.326125   0.000000
     47         15.681583   0.000000
     48         16.421664   0.000000
 
  0.4500000E+00  0.1071429E+00  0.0000000E+00  0.3174603E-02
      1        -12.298212   1.000000
      2        -12.121840   1.000000
      3         -8.446305   1.000000
      4         -8.393945   1.000000
      5         -6.108277   1.000000
      6         -6.104542   1.000000
      7         -4.052315   1.000000
      8         -3.885740   1.000000
      9         -3.849046   1.000000
     10         -3.278329   1.000000
     11         -2.091313   1.000000
     12         -1.898576   1.000000
     13         -1.589720   1.000000
     14         -1.583962   1.000000
     15         -0.692309   1.000000
     16         -0.586969   1.000000
     17          0.138530   1.000000
     18          0.169409   1.000000
     19          0.899046   1.000000
     20          1.215220   1.000000
     21          1.364664   1.000000
     22          1.389089   1.000000
     23          5.941316   0.000000
     24          6.007860   0.000000
     25          6.810058   0.000000
     26          6.860627   0.000000
     27          7.207446   0.000000
     28          7.922539   0.000000
     29          7.966631   0.000000
     30          8.649119   0.000000
     31          8.700630   0.000000
     32          8.810481   0.000000
     33         10.330435   0.000000
     34         10.573803   0.000000
     35         10.816163   0.000000
     36         10.922120   0.000000
     37         11.564254   0.000000
     38         11.667245   0.000000
     39         12.018588   0.000000
     40         12.661860   0.000000
     41         13.042276   0.000000
     42         13.503795   0.000000
     43         14.565350   0.000000
     44         14.750587   0.000000
     45         14.855658   0.000000
     46         15.072189   0.000000
     47         16.162955   0.000000
     48         16.456773   0.000000
 
  0.5000000E-01  0.1785714E+00  0.0000000E+00  0.3174603E-02
      1        -12.663423   1.000000
      2        -11.519020   1.000000
      3         -8.605313   1.000000
      4         -8.357209   1.000000
      5         -5.986346   1.000000
      6         -5.124862   1.000000
      7         -5.001006   1.000000
      8         -4.596646   1.000000
      9         -4.150631   1.000000
     10         -3.912951   1.000000
     11         -3.458563   1.000000
     12         -1.193200   1.000000
     13         -1.066277   1.000000
     14         -0.629611   1.000000
     15         -0.525491   1.000000
     16         -0.160505   1.000000
     17          0.205654   1.000000
     18          0.314958   1.000000
     19          0.742549   1.000000
     20          1.393111   1.000000
     21          1.456929   1.000000
     22          2.326663   0.000000
     23          5.306139   0.000000
     24          5.472188   0.000000
     25          6.140508   0.000000
     26          6.221975   0.000000
     27          7.557827   0.000000
     28          7.625810   0.000000
     29          8.332356   0.000000
     30          8.731212   0.000000
     31          8.895244   0.000000
     32          9.237976   0.000000
     33          9.368374   0.000000
     34         10.913476   0.000000
     35         11.345054   0.000000
     36         11.602832   0.000000
     37         11.709622   0.000000
     38         12.103459   0.000000
     39         12.283506   0.000000
     40         12.769106   0.000000
     41         12.784673   0.000000
     42         13.027480   0.000000
     43         13.241373   0.000000
     44         14.695474   0.000000
     45         15.175411   0.000000
     46         15.358561   0.000000
     47         15.453563   0.000000
     48         15.988386   0.000000
 
  0.1500000E+00  0.1785714E+00  0.0000000E+00  0.3174603E-02
      1        -12.619681   1.000000
      2        -11.593489   1.000000
      3         -8.583427   1.000000
      4         -8.346852   1.000000
      5         -5.912524   1.000000
      6         -5.387275   1.000000
      7         -5.029037   1.000000
      8         -4.726332   1.000000
      9         -3.978480   1.000000
     10         -3.699888   1.000000
     11         -3.119736   1.000000
     12         -1.376975   1.000000
     13         -1.167326   1.000000
     14         -0.736013   1.000000
     15         -0.488253   1.000000
     16         -0.080980   1.000000
     17          0.184279   1.000000
     18          0.259639   1.000000
     19          0.628015   1.000000
     20          1.313000   1.000000
     21          1.386131   1.000000
     22          2.191207   0.000000
     23          5.386233   0.000000
     24          5.818871   0.000000
     25          6.163288   0.000000
     26          6.255251   0.000000
     27          7.475938   0.000000
     28          7.783559   0.000000
     29          8.061262   0.000000
     30          8.825463   0.000000
     31          9.252825   0.000000
     32          9.295936   0.000000
     33          9.653678   0.000000
     34         10.549240   0.000000
     35         10.809571   0.000000
     36         11.289582   0.000000
     37         11.729923   0.000000
     38         12.213255   0.000000
     39         12.449949   0.000000
     40         12.516110   0.000000
     41         13.180592   0.000000
     42         13.289154   0.000000
     43         13.469602   0.000000
     44         14.706994   0.000000
     45         14.838232   0.000000
     46         15.294113   0.000000
     47         15.516735   0.000000
     48         16.014765   0.000000
 
  0.2500000E+00  0.1785714E+00  0.0000000E+00  0.3174603E-02
      1        -12.534073   1.000000
      2        -11.727610   1.000000
      3         -8.539273   1.000000
      4         -8.334181   1.000000
      5         -5.883141   1.000000
      6         -5.708514   1.000000
      7         -4.937780   1.000000
      8         -4.690561   1.000000
      9         -4.101256   1.000000
     10         -3.164926   1.000000
     11         -2.646934   1.000000
     12         -1.876041   1.000000
     13         -1.127134   1.000000
     14         -0.876406   1.000000
     15         -0.435480   1.000000
     16         -0.077794   1.000000
     17          0.029719   1.000000
     18          0.272913   1.000000
     19          0.509327   1.000000
     20          1.180892   1.000000
     21          1.265150   1.000000
     22          1.934168   0.255333
     23          5.706471   0.000000
     24          6.115255   0.000000
     25          6.296215   0.000000
     26          6.385996   0.000000
     27          7.370688   0.000000
     28          7.870918   0.000000
     29          8.021867   0.000000
     30          8.955717   0.000000
     31          9.249681   0.000000
     32          9.723819   0.000000
     33          9.881986   0.000000
     34         10.145077   0.000000
     35         10.273779   0.000000
     36         11.066879   0.000000
     37         11.601528   0.000000
     38         12.122046   0.000000
     39         12.524194   0.000000
     40         12.816598   0.000000
     41         13.058617   0.000000
     42         13.463699   0.000000
     43         13.993143   0.000000
     44         14.615909   0.000000
     45         14.889156   0.000000
     46         15.318113   0.000000
     47         15.538776   0.000000
     48         16.222622   0.000000
 
  0.3500000E+00  0.1785714E+00  0.0000000E+00  0.3174603E-02
      1        -12.410388   1.000000
      2        -11.897384   1.000000
      3         -8.476882   1.000000
      4         -8.333054   1.000000
      5         -5.959557   1.000000
      6         -5.938714   1.000000
      7         -4.802605   1.000000
      8         -4.368636   1.000000
      9         -4.264919   1.000000
     10         -2.797846   1.000000
     11         -2.308741   1.000000
     12         -2.164501   1.000000
     13         -1.071587   1.000000
     14         -1.015356   1.000000
     15         -0.440313   1.000000
     16         -0.363530   1.000000
     17          0.073281   1.000000
     18          0.076746   1.000000
     19          0.656315   1.000000
     20          1.049529   1.000000
     21          1.131172   1.000000
     22          1.598818   1.000000
     23          6.124424   0.000000
     24          6.243667   0.000000
     25          6.417265   0.000000
     26          6.823151   0.000000
     27          7.314082   0.000000
     28          7.795560   0.000000
     29          8.085952   0.000000
     30          9.057252   0.000000
     31          9.121699   0.000000
     32          9.190761   0.000000
     33          9.901641   0.000000
     34         10.189841   0.000000
     35         10.707592   0.000000
     36         11.091433   0.000000
     37         11.328810   0.000000
     38         11.968615   0.000000
     39         12.364649   0.000000
     40         13.004222   0.000000
     41         13.048779   0.000000
     42         13.811827   0.000000
     43         14.400784   0.000000
     44         14.423172   0.000000
     45         15.049589   0.000000
     46         15.155528   0.000000
     47         15.638078   0.000000
     48         16.399913   0.000000
 
  0.4500000E+00  0.1785714E+00  0.0000000E+00  0.3174603E-02
      1        -12.255596   1.000000
      2        -12.079624   1.000000
      3         -8.408821   1.000000
      4         -8.356459   1.000000
      5         -6.049201   1.000000
      6         -6.044426   1.000000
      7         -4.635233   1.000000
      8         -4.449949   1.000000
      9         -3.854599   1.000000
     10         -3.255964   1.000000
     11         -2.022633   1.000000
     12         -1.858462   1.000000
     13         -1.086596   1.000000
     14         -1.029987   1.000000
     15         -0.615395   1.000000
     16         -0.613756   1.000000
     17          0.022785   1.000000
     18          0.067550   1.000000
     19          0.917724   1.000000
     20          0.985715   1.000000
     21          1.025859   1.000000
     22          1.246440   1.000000
     23          6.217108   0.000000
     24          6.334896   0.000000
     25          6.899454   0.000000
     26          7.235349   0.000000
     27          7.294131   0.000000
     28          7.644217   0.000000
     29          7.946523   0.000000
     30          8.463063   0.000000
     31          9.112787   0.000000
     32          9.140613   0.000000
     33         10.023595   0.000000
     34         10.494591   0.000000
     35         10.713666   0.000000
     36         10.988795   0.000000
     37         11.744983   0.000000
     38         11.758284   0.000000
     39         12.140215   0.000000
     40         12.920735   0.000000
     41         13.437653   0.000000
     42         13.786192   0.000000
     43         14.246422   0.000000
     44         14.401276   0.000000
     45         15.026721   0.000000
     46         15.163130   0.000000
     47         16.021857   0.000000
     48         16.328505   0.000000
 
  0.5000000E-01  0.2500000E+00  0.0000000E+00  0.3174603E-02
      1        -12.605710   1.000000
      2        -11.467787   1.000000
      3         -8.561421   1.000000
      4         -8.301544   1.000000
      5         -5.922338   1.000000
      6         -5.609234   1.000000
      7         -4.929252   1.000000
      8         -4.541255   1.000000
      9         -4.434186   1.000000
     10         -4.110882   1.000000
     11         -3.396922   1.000000
     12         -1.201371   1.000000
     13         -1.051041   1.000000
     14         -0.984468   1.000000
     15         -0.179724   1.000000
     16          0.233104   1.000000
     17          0.356783   1.000000
     18          0.611612   1.000000
     19          0.805818   1.000000
     20          1.007910   1.000000
     21          1.022184   1.000000
     22          2.361860   0.000000
     23          4.961355   0.000000
     24          5.178475   0.000000
     25          6.382521   0.000000
     26          6.601403   0.000000
     27          7.265921   0.000000
     28          7.987549   0.000000
     29          8.702094   0.000000
     30          9.072689   0.000000
     31          9.466486   0.000000
     32          9.601193   0.000000
     33          9.654715   0.000000
     34         10.779585   0.000000
     35         11.299961   0.000000
     36         11.986884   0.000000
     37         12.028075   0.000000
     38         12.317282   0.000000
     39         12.444202   0.000000
     40         12.462703   0.000000
     41         12.584055   0.000000
     42         13.007848   0.000000
     43         13.807153   0.000000
     44         13.901168   0.000000
     45         14.425789   0.000000
     46         15.121647   0.000000
     47         15.421422   0.000000
     48         15.883193   0.000000
 
  0.1500000E+00  0.2500000E+00  0.0000000E+00  0.3174603E-02
      1        -12.562157   1.000000
      2        -11.541242   1.000000
      3         -8.539432   1.000000
      4         -8.292000   1.000000
      5         -5.843834   1.000000
      6         -5.573604   1.000000
      7         -5.268734   1.000000
      8         -4.676549   1.000000