 running    8 mpi-ranks, with    1 threads/rank, on    1 nodes
 distrk:  each k-point on    8 cores,    1 groups
 distr:  one band on    1 cores,    8 groups
 vasp.6.4.3 19Mar24 (build May 31 2024 16:31:43) complex                        
  
 POSCAR found type information on POSCAR B 
 POSCAR found :  1 types and       1 ions
 Reading from existing POTCAR
 scaLAPACK will be used
 Reading from existing POTCAR
 LDA part: xc-table for (Slater+PW92), standard interpolation
 POSCAR, INCAR and KPOINTS ok, starting setup
 FFT: planning ... GRIDC
 FFT: planning ... GRID_SOFT
 FFT: planning ... GRID
 WAVECAR not read
 entering main loop
       N       E                     dE             d eps       ncg     rms          rms(c)
DAV:   1     0.884152526341E+01    0.88415E+01   -0.33068E+02  3040   0.107E+02
DAV:   2     0.784456487121E+00   -0.80571E+01   -0.76855E+01  4464   0.170E+01
DAV:   3    -0.251203617571E-01   -0.80958E+00   -0.78530E+00  4520   0.776E+00
DAV:   4    -0.568627775813E-01   -0.31742E-01   -0.18824E-01  2800   0.860E-01
DAV:   5    -0.582271064920E-01   -0.13643E-02   -0.13130E-02  3728   0.224E-01    0.837E-03
DAV:   6    -0.582738762806E-01   -0.46770E-04   -0.46778E-04  4096   0.368E-02    0.465E-03
DAV:   7    -0.582758875203E-01   -0.20112E-05   -0.74342E-06  4448   0.611E-03    0.218E-03
DAV:   8    -0.582776468059E-01   -0.17593E-05   -0.37047E-07  3912   0.385E-03    0.277E-04
DAV:   9    -0.582776463114E-01    0.49450E-09   -0.11865E-08  4640   0.315E-04
   1 F= -.58277646E-01 E0= -.31776976E-01  d E =-.530013E-01
