   1   1   0   0
  0.3395291E+04  0.1503000E-08  0.1252500E-08  0.1803600E-08  0.5000000E-15
  1.000000000000000E-004
  CAR 
 Convergence                             
      2.48571981     -9.97657287  301     -3.60739952      1.00000000
     -9.977  0.0000E+00  0.0000E+00
     -9.935  0.0000E+00  0.0000E+00
     -9.893  0.0000E+00  0.0000E+00
     -9.852  0.0000E+00  0.0000E+00
     -9.810  0.0000E+00  0.0000E+00
     -9.769  0.0000E+00  0.0000E+00
     -9.727  0.0000E+00  0.0000E+00
     -9.686  0.1523E-12  0.6328E-14
     -9.644  0.8501E-09  0.3532E-10
     -9.603  0.1229E-05  0.5107E-07
     -9.561  0.4639E-03  0.1932E-04
     -9.520  0.4649E-01  0.1951E-02
     -9.478  0.1266E+01  0.5452E-01
     -9.437  0.9632E+01  0.4546E+00
     -9.395  0.2109E+02  0.1331E+01
     -9.353  0.1348E+02  0.1891E+01
     -9.312  0.2495E+01  0.1995E+01
     -9.270  0.1301E+00  0.2000E+01
     -9.229  0.1858E-02  0.2000E+01
     -9.187  0.7077E-05  0.2000E+01
     -9.146  0.7070E-08  0.2000E+01
     -9.104  0.1828E-11  0.2000E+01
     -9.063  0.0000E+00  0.2000E+01
     -9.021  0.0000E+00  0.2000E+01
     -8.980  0.0000E+00  0.2000E+01
     -8.938  0.0000E+00  0.2000E+01
     -8.897  0.0000E+00  0.2000E+01
     -8.855  0.0000E+00  0.2000E+01
     -8.813  0.0000E+00  0.2000E+01
     -8.772  0.0000E+00  0.2000E+01
     -8.730  0.0000E+00  0.2000E+01
     -8.689  0.0000E+00  0.2000E+01
     -8.647  0.0000E+00  0.2000E+01
     -8.606  0.0000E+00  0.2000E+01
     -8.564  0.0000E+00  0.2000E+01
     -8.523  0.0000E+00  0.2000E+01
     -8.481  0.0000E+00  0.2000E+01
     -8.440  0.0000E+00  0.2000E+01
     -8.398  0.0000E+00  0.2000E+01
     -8.356  0.0000E+00  0.2000E+01
     -8.315  0.0000E+00  0.2000E+01
     -8.273  0.0000E+00  0.2000E+01
     -8.232  0.0000E+00  0.2000E+01
     -8.190  0.0000E+00  0.2000E+01
     -8.149  0.0000E+00  0.2000E+01
     -8.107  0.0000E+00  0.2000E+01
     -8.066  0.0000E+00  0.2000E+01
     -8.024  0.0000E+00  0.2000E+01
     -7.983  0.0000E+00  0.2000E+01
     -7.941  0.0000E+00  0.2000E+01
     -7.900  0.0000E+00  0.2000E+01
     -7.858  0.0000E+00  0.2000E+01
     -7.816  0.0000E+00  0.2000E+01
     -7.775  0.0000E+00  0.2000E+01
     -7.733  0.0000E+00  0.2000E+01
     -7.692  0.0000E+00  0.2000E+01
     -7.650  0.0000E+00  0.2000E+01
     -7.609  0.0000E+00  0.2000E+01
     -7.567  0.0000E+00  0.2000E+01
     -7.526  0.0000E+00  0.2000E+01
     -7.484  0.0000E+00  0.2000E+01
     -7.443  0.0000E+00  0.2000E+01
     -7.401  0.0000E+00  0.2000E+01
     -7.359  0.0000E+00  0.2000E+01
     -7.318  0.0000E+00  0.2000E+01
     -7.276  0.0000E+00  0.2000E+01
     -7.235  0.0000E+00  0.2000E+01
     -7.193  0.0000E+00  0.2000E+01
     -7.152  0.0000E+00  0.2000E+01
     -7.110  0.0000E+00  0.2000E+01
     -7.069  0.0000E+00  0.2000E+01
     -7.027  0.0000E+00  0.2000E+01
     -6.986  0.0000E+00  0.2000E+01
     -6.944  0.0000E+00  0.2000E+01
     -6.903  0.0000E+00  0.2000E+01
     -6.861  0.0000E+00  0.2000E+01
     -6.819  0.0000E+00  0.2000E+01
     -6.778  0.0000E+00  0.2000E+01
     -6.736  0.0000E+00  0.2000E+01
     -6.695  0.0000E+00  0.2000E+01
     -6.653  0.0000E+00  0.2000E+01
     -6.612  0.0000E+00  0.2000E+01
     -6.570  0.0000E+00  0.2000E+01
     -6.529  0.0000E+00  0.2000E+01
     -6.487  0.0000E+00  0.2000E+01
     -6.446  0.0000E+00  0.2000E+01
     -6.404  0.0000E+00  0.2000E+01
     -6.363  0.0000E+00  0.2000E+01
     -6.321  0.0000E+00  0.2000E+01
     -6.279  0.0000E+00  0.2000E+01
     -6.238  0.0000E+00  0.2000E+01
     -6.196  0.0000E+00  0.2000E+01
     -6.155  0.0000E+00  0.2000E+01
     -6.113  0.0000E+00  0.2000E+01
     -6.072  0.0000E+00  0.2000E+01
     -6.030  0.0000E+00  0.2000E+01
     -5.989  0.0000E+00  0.2000E+01
     -5.947  0.0000E+00  0.2000E+01
     -5.906  0.0000E+00  0.2000E+01
     -5.864  0.0000E+00  0.2000E+01
     -5.822  0.0000E+00  0.2000E+01
     -5.781  0.0000E+00  0.2000E+01
     -5.739  0.0000E+00  0.2000E+01
     -5.698  0.0000E+00  0.2000E+01
     -5.656  0.0000E+00  0.2000E+01
     -5.615  0.0000E+00  0.2000E+01
     -5.573  0.0000E+00  0.2000E+01
     -5.532  0.0000E+00  0.2000E+01
     -5.490  0.0000E+00  0.2000E+01
     -5.449  0.0000E+00  0.2000E+01
     -5.407  0.0000E+00  0.2000E+01
     -5.366  0.0000E+00  0.2000E+01
     -5.324  0.0000E+00  0.2000E+01
     -5.282  0.0000E+00  0.2000E+01
     -5.241  0.0000E+00  0.2000E+01
     -5.199  0.0000E+00  0.2000E+01
     -5.158  0.0000E+00  0.2000E+01
     -5.116  0.0000E+00  0.2000E+01
     -5.075  0.0000E+00  0.2000E+01
     -5.033  0.0000E+00  0.2000E+01
     -4.992  0.0000E+00  0.2000E+01
     -4.950  0.0000E+00  0.2000E+01
     -4.909  0.0000E+00  0.2000E+01
     -4.867  0.0000E+00  0.2000E+01
     -4.825  0.0000E+00  0.2000E+01
     -4.784  0.0000E+00  0.2000E+01
     -4.742  0.0000E+00  0.2000E+01
     -4.701  0.0000E+00  0.2000E+01
     -4.659  0.0000E+00  0.2000E+01
     -4.618  0.0000E+00  0.2000E+01
     -4.576  0.0000E+00  0.2000E+01
     -4.535  0.0000E+00  0.2000E+01
     -4.493  0.0000E+00  0.2000E+01
     -4.452  0.0000E+00  0.2000E+01
     -4.410  0.0000E+00  0.2000E+01
     -4.369  0.0000E+00  0.2000E+01
     -4.327  0.0000E+00  0.2000E+01
     -4.285  0.0000E+00  0.2000E+01
     -4.244  0.0000E+00  0.2000E+01
     -4.202  0.0000E+00  0.2000E+01
     -4.161  0.0000E+00  0.2000E+01
     -4.119  0.0000E+00  0.2000E+01
     -4.078  0.0000E+00  0.2000E+01
     -4.036  0.0000E+00  0.2000E+01
     -3.995  0.0000E+00  0.2000E+01
     -3.953  0.0000E+00  0.2000E+01
     -3.912  0.0000E+00  0.2000E+01
     -3.870  0.0000E+00  0.2000E+01
     -3.829  0.3718E-10  0.2000E+01
     -3.787  0.1070E-06  0.2000E+01
     -3.745  0.7991E-04  0.2000E+01
     -3.704  0.1571E-01  0.2001E+01
     -3.662  0.8281E+00  0.2035E+01
     -3.621  0.1202E+02  0.2534E+01
     -3.579  0.4951E+02  0.4591E+01
     -3.538  0.5926E+02  0.7053E+01
     -3.496  0.2068E+02  0.7912E+01
     -3.455  0.2064E+01  0.7998E+01
     -3.413  0.5724E-01  0.8000E+01
     -3.372  0.4287E-03  0.8000E+01
     -3.330  0.8488E-06  0.8000E+01
     -3.288  0.4379E-09  0.8000E+01
     -3.247  0.6414E-13  0.8000E+01
     -3.205  0.0000E+00  0.8000E+01
     -3.164  0.0000E+00  0.8000E+01
     -3.122  0.0000E+00  0.8000E+01
     -3.081  0.0000E+00  0.8000E+01
     -3.039  0.0000E+00  0.8000E+01
     -2.998  0.0000E+00  0.8000E+01
     -2.956  0.0000E+00  0.8000E+01
     -2.915  0.0000E+00  0.8000E+01
     -2.873  0.0000E+00  0.8000E+01
     -2.832  0.0000E+00  0.8000E+01
     -2.790  0.0000E+00  0.8000E+01
     -2.748  0.0000E+00  0.8000E+01
     -2.707  0.0000E+00  0.8000E+01
     -2.665  0.0000E+00  0.8000E+01
     -2.624  0.0000E+00  0.8000E+01
     -2.582  0.0000E+00  0.8000E+01
     -2.541  0.0000E+00  0.8000E+01
     -2.499  0.0000E+00  0.8000E+01
     -2.458  0.0000E+00  0.8000E+01
     -2.416  0.0000E+00  0.8000E+01
     -2.375  0.0000E+00  0.8000E+01
     -2.333  0.0000E+00  0.8000E+01
     -2.291  0.0000E+00  0.8000E+01
     -2.250  0.0000E+00  0.8000E+01
     -2.208  0.0000E+00  0.8000E+01
     -2.167  0.0000E+00  0.8000E+01
     -2.125  0.0000E+00  0.8000E+01
     -2.084  0.0000E+00  0.8000E+01
     -2.042  0.0000E+00  0.8000E+01
     -2.001  0.0000E+00  0.8000E+01
     -1.959  0.0000E+00  0.8000E+01
     -1.918  0.0000E+00  0.8000E+01
     -1.876  0.0000E+00  0.8000E+01
     -1.835  0.0000E+00  0.8000E+01
     -1.793  0.0000E+00  0.8000E+01
     -1.751  0.0000E+00  0.8000E+01
     -1.710  0.0000E+00  0.8000E+01
     -1.668  0.0000E+00  0.8000E+01
     -1.627  0.0000E+00  0.8000E+01
     -1.585  0.0000E+00  0.8000E+01
     -1.544  0.0000E+00  0.8000E+01
     -1.502  0.0000E+00  0.8000E+01
     -1.461  0.0000E+00  0.8000E+01
     -1.419  0.0000E+00  0.8000E+01
     -1.378  0.0000E+00  0.8000E+01
     -1.336  0.0000E+00  0.8000E+01
     -1.295  0.0000E+00  0.8000E+01
     -1.253  0.0000E+00  0.8000E+01
     -1.211  0.0000E+00  0.8000E+01
     -1.170  0.0000E+00  0.8000E+01
     -1.128  0.0000E+00  0.8000E+01
     -1.087  0.0000E+00  0.8000E+01
     -1.045  0.0000E+00  0.8000E+01
     -1.004  0.0000E+00  0.8000E+01
     -0.962  0.0000E+00  0.8000E+01
     -0.921  0.0000E+00  0.8000E+01
     -0.879  0.0000E+00  0.8000E+01
     -0.838  0.0000E+00  0.8000E+01
     -0.796  0.0000E+00  0.8000E+01
     -0.754  0.0000E+00  0.8000E+01
     -0.713  0.0000E+00  0.8000E+01
     -0.671  0.0000E+00  0.8000E+01
     -0.630  0.0000E+00  0.8000E+01
     -0.588  0.0000E+00  0.8000E+01
     -0.547  0.1188E-15  0.8000E+01
     -0.505  0.1261E-11  0.8000E+01
     -0.464  0.3012E-08  0.8000E+01
     -0.422  0.1975E-05  0.8000E+01
     -0.381  0.3682E-03  0.8000E+01
     -0.339  0.2059E-01  0.8001E+01
     -0.298  0.3735E+00  0.8016E+01
     -0.256  0.2468E+01  0.8119E+01
     -0.214  0.7005E+01  0.8410E+01
     -0.173  0.1054E+02  0.8848E+01
     -0.131  0.1066E+02  0.9291E+01
     -0.090  0.8903E+01  0.9661E+01
     -0.048  0.5690E+01  0.9897E+01
     -0.007  0.2126E+01  0.9985E+01
      0.035  0.6456E+00  0.1001E+02
      0.076  0.1728E+01  0.1008E+02
      0.118  0.5115E+01  0.1030E+02
      0.159  0.9750E+01  0.1070E+02
      0.201  0.1365E+02  0.1127E+02
      0.243  0.1558E+02  0.1192E+02
      0.284  0.1585E+02  0.1257E+02
      0.326  0.1595E+02  0.1324E+02
      0.367  0.1624E+02  0.1391E+02
      0.409  0.1652E+02  0.1460E+02
      0.450  0.1748E+02  0.1532E+02
      0.492  0.1851E+02  0.1609E+02
      0.533  0.1856E+02  0.1686E+02
      0.575  0.1896E+02  0.1765E+02
      0.616  0.1989E+02  0.1848E+02
      0.658  0.2040E+02  0.1932E+02
      0.699  0.2099E+02  0.2020E+02
      0.741  0.2237E+02  0.2113E+02
      0.783  0.2258E+02  0.2206E+02
      0.824  0.2192E+02  0.2297E+02
      0.866  0.2325E+02  0.2394E+02
      0.907  0.2459E+02  0.2496E+02
      0.949  0.2435E+02  0.2597E+02
      0.990  0.2486E+02  0.2701E+02
      1.032  0.2596E+02  0.2808E+02
      1.073  0.2611E+02  0.2917E+02
      1.115  0.2615E+02  0.3026E+02
      1.156  0.2686E+02  0.3137E+02
      1.198  0.2779E+02  0.3253E+02
      1.239  0.2748E+02  0.3367E+02
      1.281  0.2756E+02  0.3481E+02
      1.323  0.2864E+02  0.3600E+02
      1.364  0.2876E+02  0.3720E+02
      1.406  0.2843E+02  0.3838E+02
      1.447  0.2938E+02  0.3960E+02
      1.489  0.3099E+02  0.4089E+02
      1.530  0.3021E+02  0.4214E+02
      1.572  0.2967E+02  0.4337E+02
      1.613  0.3020E+02  0.4463E+02
      1.655  0.2794E+02  0.4579E+02
      1.696  0.2150E+02  0.4668E+02
      1.738  0.1427E+02  0.4727E+02
      1.780  0.8468E+01  0.4763E+02
      1.821  0.4869E+01  0.4783E+02
      1.863  0.2607E+01  0.4794E+02
      1.904  0.1105E+01  0.4798E+02
      1.946  0.3505E+00  0.4800E+02
      1.987  0.7383E-01  0.4800E+02
      2.029  0.7147E-02  0.4800E+02
      2.070  0.2293E-03  0.4800E+02
      2.112  0.2106E-05  0.4800E+02
      2.153  0.5239E-08  0.4800E+02
      2.195  0.3443E-11  0.4800E+02
      2.236  0.5769E-15  0.4800E+02
      2.278  0.0000E+00  0.4800E+02
      2.320  0.0000E+00  0.4800E+02
      2.361  0.0000E+00  0.4800E+02
      2.403  0.0000E+00  0.4800E+02
      2.444  0.0000E+00  0.4800E+02
      2.486  0.0000E+00  0.4800E+02
