       N       E                     dE             d eps       ncg     rms          rms(c)
DAV:   1     0.710886532299E+02    0.71089E+02   -0.19223E+04 16800   0.816E+02
DAV:   2    -0.921545021221E+02   -0.16324E+03   -0.15322E+03 23064   0.162E+02
DAV:   3    -0.976041564442E+02   -0.54497E+01   -0.54210E+01 24648   0.264E+01
DAV:   4    -0.976359457377E+02   -0.31789E-01   -0.31787E-01 20232   0.233E+00
DAV:   5    -0.976363019799E+02   -0.35624E-03   -0.35623E-03 24624   0.236E-01    0.123E+01
DAV:   6    -0.922206786838E+02    0.54156E+01   -0.39472E+00 24336   0.658E+00    0.680E+00
DAV:   7    -0.905693731581E+02    0.16513E+01   -0.32227E+00 25128   0.586E+00    0.171E+00
DAV:   8    -0.905817248890E+02   -0.12352E-01   -0.23432E-01 18600   0.167E+00    0.705E-01
DAV:   9    -0.905958899931E+02   -0.14165E-01   -0.16932E-02 23328   0.438E-01    0.198E-01
DAV:  10    -0.905999415013E+02   -0.40515E-02   -0.20972E-03 19248   0.161E-01    0.609E-02
DAV:  11    -0.906010059560E+02   -0.10645E-02   -0.62281E-04 21696   0.862E-02    0.321E-02
DAV:  12    -0.906011209429E+02   -0.11499E-03   -0.91933E-05 20736   0.366E-02    0.429E-03
DAV:  13    -0.906011257099E+02   -0.47670E-05   -0.40351E-06 23496   0.864E-03    0.182E-03
DAV:  14    -0.906011263845E+02   -0.67463E-06   -0.28270E-07 20640   0.226E-03
   1 F= -.90601126E+02 E0= -.90599520E+02  d E =-.321371E-02
