   1   1   0   0
  0.3397324E+04  0.1503300E-08  0.1252750E-08  0.1803960E-08  0.5000000E-15
  1.000000000000000E-004
  CAR 
 Convergence                             
      2.48498557     -9.97657065  301     -3.60742963      1.00000000
     -9.977  0.0000E+00  0.0000E+00
     -9.935  0.0000E+00  0.0000E+00
     -9.893  0.0000E+00  0.0000E+00
     -9.852  0.0000E+00  0.0000E+00
     -9.810  0.0000E+00  0.0000E+00
     -9.769  0.0000E+00  0.0000E+00
     -9.727  0.0000E+00  0.0000E+00
     -9.686  0.1523E-12  0.6328E-14
     -9.644  0.8524E-09  0.3541E-10
     -9.603  0.1231E-05  0.5116E-07
     -9.561  0.4645E-03  0.1934E-04
     -9.520  0.4653E-01  0.1952E-02
     -9.478  0.1266E+01  0.5454E-01
     -9.437  0.9633E+01  0.4547E+00
     -9.395  0.2109E+02  0.1331E+01
     -9.353  0.1348E+02  0.1891E+01
     -9.312  0.2495E+01  0.1995E+01
     -9.270  0.1302E+00  0.2000E+01
     -9.229  0.1860E-02  0.2000E+01
     -9.187  0.7089E-05  0.2000E+01
     -9.146  0.7088E-08  0.2000E+01
     -9.104  0.1839E-11  0.2000E+01
     -9.063  0.0000E+00  0.2000E+01
     -9.021  0.0000E+00  0.2000E+01
     -8.980  0.0000E+00  0.2000E+01
     -8.938  0.0000E+00  0.2000E+01
     -8.897  0.0000E+00  0.2000E+01
     -8.855  0.0000E+00  0.2000E+01
     -8.813  0.0000E+00  0.2000E+01
     -8.772  0.0000E+00  0.2000E+01
     -8.730  0.0000E+00  0.2000E+01
     -8.689  0.0000E+00  0.2000E+01
     -8.647  0.0000E+00  0.2000E+01
     -8.606  0.0000E+00  0.2000E+01
     -8.564  0.0000E+00  0.2000E+01
     -8.523  0.0000E+00  0.2000E+01
     -8.481  0.0000E+00  0.2000E+01
     -8.440  0.0000E+00  0.2000E+01
     -8.398  0.0000E+00  0.2000E+01
     -8.357  0.0000E+00  0.2000E+01
     -8.315  0.0000E+00  0.2000E+01
     -8.273  0.0000E+00  0.2000E+01
     -8.232  0.0000E+00  0.2000E+01
     -8.190  0.0000E+00  0.2000E+01
     -8.149  0.0000E+00  0.2000E+01
     -8.107  0.0000E+00  0.2000E+01
     -8.066  0.0000E+00  0.2000E+01
     -8.024  0.0000E+00  0.2000E+01
     -7.983  0.0000E+00  0.2000E+01
     -7.941  0.0000E+00  0.2000E+01
     -7.900  0.0000E+00  0.2000E+01
     -7.858  0.0000E+00  0.2000E+01
     -7.817  0.0000E+00  0.2000E+01
     -7.775  0.0000E+00  0.2000E+01
     -7.733  0.0000E+00  0.2000E+01
     -7.692  0.0000E+00  0.2000E+01
     -7.650  0.0000E+00  0.2000E+01
     -7.609  0.0000E+00  0.2000E+01
     -7.567  0.0000E+00  0.2000E+01
     -7.526  0.0000E+00  0.2000E+01
     -7.484  0.0000E+00  0.2000E+01
     -7.443  0.0000E+00  0.2000E+01
     -7.401  0.0000E+00  0.2000E+01
     -7.360  0.0000E+00  0.2000E+01
     -7.318  0.0000E+00  0.2000E+01
     -7.277  0.0000E+00  0.2000E+01
     -7.235  0.0000E+00  0.2000E+01
     -7.193  0.0000E+00  0.2000E+01
     -7.152  0.0000E+00  0.2000E+01
     -7.110  0.0000E+00  0.2000E+01
     -7.069  0.0000E+00  0.2000E+01
     -7.027  0.0000E+00  0.2000E+01
     -6.986  0.0000E+00  0.2000E+01
     -6.944  0.0000E+00  0.2000E+01
     -6.903  0.0000E+00  0.2000E+01
     -6.861  0.0000E+00  0.2000E+01
     -6.820  0.0000E+00  0.2000E+01
     -6.778  0.0000E+00  0.2000E+01
     -6.737  0.0000E+00  0.2000E+01
     -6.695  0.0000E+00  0.2000E+01
     -6.653  0.0000E+00  0.2000E+01
     -6.612  0.0000E+00  0.2000E+01
     -6.570  0.0000E+00  0.2000E+01
     -6.529  0.0000E+00  0.2000E+01
     -6.487  0.0000E+00  0.2000E+01
     -6.446  0.0000E+00  0.2000E+01
     -6.404  0.0000E+00  0.2000E+01
     -6.363  0.0000E+00  0.2000E+01
     -6.321  0.0000E+00  0.2000E+01
     -6.280  0.0000E+00  0.2000E+01
     -6.238  0.0000E+00  0.2000E+01
     -6.197  0.0000E+00  0.2000E+01
     -6.155  0.0000E+00  0.2000E+01
     -6.113  0.0000E+00  0.2000E+01
     -6.072  0.0000E+00  0.2000E+01
     -6.030  0.0000E+00  0.2000E+01
     -5.989  0.0000E+00  0.2000E+01
     -5.947  0.0000E+00  0.2000E+01
     -5.906  0.0000E+00  0.2000E+01
     -5.864  0.0000E+00  0.2000E+01
     -5.823  0.0000E+00  0.2000E+01
     -5.781  0.0000E+00  0.2000E+01
     -5.740  0.0000E+00  0.2000E+01
     -5.698  0.0000E+00  0.2000E+01
     -5.657  0.0000E+00  0.2000E+01
     -5.615  0.0000E+00  0.2000E+01
     -5.573  0.0000E+00  0.2000E+01
     -5.532  0.0000E+00  0.2000E+01
     -5.490  0.0000E+00  0.2000E+01
     -5.449  0.0000E+00  0.2000E+01
     -5.407  0.0000E+00  0.2000E+01
     -5.366  0.0000E+00  0.2000E+01
     -5.324  0.0000E+00  0.2000E+01
     -5.283  0.0000E+00  0.2000E+01
     -5.241  0.0000E+00  0.2000E+01
     -5.200  0.0000E+00  0.2000E+01
     -5.158  0.0000E+00  0.2000E+01
     -5.117  0.0000E+00  0.2000E+01
     -5.075  0.0000E+00  0.2000E+01
     -5.033  0.0000E+00  0.2000E+01
     -4.992  0.0000E+00  0.2000E+01
     -4.950  0.0000E+00  0.2000E+01
     -4.909  0.0000E+00  0.2000E+01
     -4.867  0.0000E+00  0.2000E+01
     -4.826  0.0000E+00  0.2000E+01
     -4.784  0.0000E+00  0.2000E+01
     -4.743  0.0000E+00  0.2000E+01
     -4.701  0.0000E+00  0.2000E+01
     -4.660  0.0000E+00  0.2000E+01
     -4.618  0.0000E+00  0.2000E+01
     -4.577  0.0000E+00  0.2000E+01
     -4.535  0.0000E+00  0.2000E+01
     -4.493  0.0000E+00  0.2000E+01
     -4.452  0.0000E+00  0.2000E+01
     -4.410  0.0000E+00  0.2000E+01
     -4.369  0.0000E+00  0.2000E+01
     -4.327  0.0000E+00  0.2000E+01
     -4.286  0.0000E+00  0.2000E+01
     -4.244  0.0000E+00  0.2000E+01
     -4.203  0.0000E+00  0.2000E+01
     -4.161  0.0000E+00  0.2000E+01
     -4.120  0.0000E+00  0.2000E+01
     -4.078  0.0000E+00  0.2000E+01
     -4.037  0.0000E+00  0.2000E+01
     -3.995  0.0000E+00  0.2000E+01
     -3.953  0.0000E+00  0.2000E+01
     -3.912  0.0000E+00  0.2000E+01
     -3.870  0.0000E+00  0.2000E+01
     -3.829  0.3471E-10  0.2000E+01
     -3.787  0.1009E-06  0.2000E+01
     -3.746  0.7616E-04  0.2000E+01
     -3.704  0.1513E-01  0.2001E+01
     -3.663  0.8059E+00  0.2034E+01
     -3.621  0.1182E+02  0.2525E+01
     -3.580  0.4919E+02  0.4568E+01
     -3.538  0.5947E+02  0.7039E+01
     -3.497  0.2097E+02  0.7910E+01
     -3.455  0.2116E+01  0.7998E+01
     -3.413  0.5934E-01  0.8000E+01
     -3.372  0.4496E-03  0.8000E+01
     -3.330  0.9007E-06  0.8000E+01
     -3.289  0.4703E-09  0.8000E+01
     -3.247  0.6415E-13  0.8000E+01
     -3.206  0.0000E+00  0.8000E+01
     -3.164  0.0000E+00  0.8000E+01
     -3.123  0.0000E+00  0.8000E+01
     -3.081  0.0000E+00  0.8000E+01
     -3.040  0.0000E+00  0.8000E+01
     -2.998  0.0000E+00  0.8000E+01
     -2.957  0.0000E+00  0.8000E+01
     -2.915  0.0000E+00  0.8000E+01
     -2.873  0.0000E+00  0.8000E+01
     -2.832  0.0000E+00  0.8000E+01
     -2.790  0.0000E+00  0.8000E+01
     -2.749  0.0000E+00  0.8000E+01
     -2.707  0.0000E+00  0.8000E+01
     -2.666  0.0000E+00  0.8000E+01
     -2.624  0.0000E+00  0.8000E+01
     -2.583  0.0000E+00  0.8000E+01
     -2.541  0.0000E+00  0.8000E+01
     -2.500  0.0000E+00  0.8000E+01
     -2.458  0.0000E+00  0.8000E+01
     -2.417  0.0000E+00  0.8000E+01
     -2.375  0.0000E+00  0.8000E+01
     -2.333  0.0000E+00  0.8000E+01
     -2.292  0.0000E+00  0.8000E+01
     -2.250  0.0000E+00  0.8000E+01
     -2.209  0.0000E+00  0.8000E+01
     -2.167  0.0000E+00  0.8000E+01
     -2.126  0.0000E+00  0.8000E+01
     -2.084  0.0000E+00  0.8000E+01
     -2.043  0.0000E+00  0.8000E+01
     -2.001  0.0000E+00  0.8000E+01
     -1.960  0.0000E+00  0.8000E+01
     -1.918  0.0000E+00  0.8000E+01
     -1.877  0.0000E+00  0.8000E+01
     -1.835  0.0000E+00  0.8000E+01
     -1.793  0.0000E+00  0.8000E+01
     -1.752  0.0000E+00  0.8000E+01
     -1.710  0.0000E+00  0.8000E+01
     -1.669  0.0000E+00  0.8000E+01
     -1.627  0.0000E+00  0.8000E+01
     -1.586  0.0000E+00  0.8000E+01
     -1.544  0.0000E+00  0.8000E+01
     -1.503  0.0000E+00  0.8000E+01
     -1.461  0.0000E+00  0.8000E+01
     -1.420  0.0000E+00  0.8000E+01
     -1.378  0.0000E+00  0.8000E+01
     -1.337  0.0000E+00  0.8000E+01
     -1.295  0.0000E+00  0.8000E+01
     -1.253  0.0000E+00  0.8000E+01
     -1.212  0.0000E+00  0.8000E+01
     -1.170  0.0000E+00  0.8000E+01
     -1.129  0.0000E+00  0.8000E+01
     -1.087  0.0000E+00  0.8000E+01
     -1.046  0.0000E+00  0.8000E+01
     -1.004  0.0000E+00  0.8000E+01
     -0.963  0.0000E+00  0.8000E+01
     -0.921  0.0000E+00  0.8000E+01
     -0.880  0.0000E+00  0.8000E+01
     -0.838  0.0000E+00  0.8000E+01
     -0.797  0.0000E+00  0.8000E+01
     -0.755  0.0000E+00  0.8000E+01
     -0.713  0.0000E+00  0.8000E+01
     -0.672  0.0000E+00  0.8000E+01
     -0.630  0.0000E+00  0.8000E+01
     -0.589  0.0000E+00  0.8000E+01
     -0.547  0.1188E-15  0.8000E+01
     -0.506  0.1116E-11  0.8000E+01
     -0.464  0.2715E-08  0.8000E+01
     -0.423  0.1813E-05  0.8000E+01
     -0.381  0.3442E-03  0.8000E+01
     -0.340  0.1958E-01  0.8001E+01
     -0.298  0.3608E+00  0.8016E+01
     -0.257  0.2417E+01  0.8116E+01
     -0.215  0.6939E+01  0.8404E+01
     -0.173  0.1052E+02  0.8842E+01
     -0.132  0.1068E+02  0.9285E+01
     -0.090  0.8940E+01  0.9657E+01
     -0.049  0.5740E+01  0.9895E+01
     -0.007  0.2160E+01  0.9985E+01
      0.034  0.6469E+00  0.1001E+02
      0.076  0.1699E+01  0.1008E+02
      0.117  0.5061E+01  0.1029E+02
      0.159  0.9694E+01  0.1070E+02
      0.200  0.1362E+02  0.1126E+02
      0.242  0.1557E+02  0.1191E+02
      0.283  0.1586E+02  0.1257E+02
      0.325  0.1595E+02  0.1323E+02
      0.367  0.1624E+02  0.1390E+02
      0.408  0.1652E+02  0.1459E+02
      0.450  0.1747E+02  0.1532E+02
      0.491  0.1851E+02  0.1608E+02
      0.533  0.1857E+02  0.1686E+02
      0.574  0.1896E+02  0.1764E+02
      0.616  0.1989E+02  0.1847E+02
      0.657  0.2040E+02  0.1932E+02
      0.699  0.2099E+02  0.2019E+02
      0.740  0.2237E+02  0.2112E+02
      0.782  0.2259E+02  0.2206E+02
      0.823  0.2193E+02  0.2297E+02
      0.865  0.2325E+02  0.2393E+02
      0.907  0.2460E+02  0.2495E+02
      0.948  0.2436E+02  0.2597E+02
      0.990  0.2486E+02  0.2700E+02
      1.031  0.2597E+02  0.2808E+02
      1.073  0.2612E+02  0.2916E+02
      1.114  0.2616E+02  0.3025E+02
      1.156  0.2686E+02  0.3137E+02
      1.197  0.2780E+02  0.3252E+02
      1.239  0.2749E+02  0.3366E+02
      1.280  0.2757E+02  0.3481E+02
      1.322  0.2865E+02  0.3600E+02
      1.363  0.2877E+02  0.3719E+02
      1.405  0.2844E+02  0.3837E+02
      1.447  0.2939E+02  0.3959E+02
      1.488  0.3100E+02  0.4088E+02
      1.530  0.3022E+02  0.4214E+02
      1.571  0.2969E+02  0.4337E+02
      1.613  0.3022E+02  0.4463E+02
      1.654  0.2795E+02  0.4579E+02
      1.696  0.2151E+02  0.4668E+02
      1.737  0.1428E+02  0.4727E+02
      1.779  0.8473E+01  0.4763E+02
      1.820  0.4871E+01  0.4783E+02
      1.862  0.2608E+01  0.4794E+02
      1.903  0.1104E+01  0.4798E+02
      1.945  0.3499E+00  0.4800E+02
      1.987  0.7370E-01  0.4800E+02
      2.028  0.7138E-02  0.4800E+02
      2.070  0.2291E-03  0.4800E+02
      2.111  0.2106E-05  0.4800E+02
      2.153  0.5241E-08  0.4800E+02
      2.194  0.3446E-11  0.4800E+02
      2.236  0.5770E-15  0.4800E+02
      2.277  0.0000E+00  0.4800E+02
      2.319  0.0000E+00  0.4800E+02
      2.360  0.0000E+00  0.4800E+02
      2.402  0.0000E+00  0.4800E+02
      2.443  0.0000E+00  0.4800E+02
      2.485  0.0000E+00  0.4800E+02
