<?xml version="1.0" encoding="ISO-8859-1"?>
<modeling>
 <generator>
  <i name="program" type="string">vasp </i>
  <i name="version" type="string">6.4.3  </i>
  <i name="subversion" type="string">19Mar24 (build May 31 2024 16:31:43) complex                          parallel </i>
  <i name="platform" type="string">LinuxIFC </i>
  <i name="date" type="string">2024 11 01 </i>
  <i name="time" type="string">15:54:06 </i>
 </generator>
 <incar>
  <i type="string" name="SYSTEM">Kpoints</i>
  <i type="int" name="ISTART">     0</i>
  <i type="string" name="PREC">Accurate</i>
  <i type="string" name="ALGO">Normal</i>
  <i type="int" name="ISPIN">     1</i>
  <i type="int" name="ICHARG">     2</i>
  <i type="int" name="NELM">   100</i>
  <i type="int" name="IBRION">    -1</i>
  <i name="EDIFF">      0.00000100</i>
  <i name="EDIFFG">     -0.00100000</i>
  <i type="int" name="NSW">     0</i>
  <i type="int" name="ISIF">     2</i>
  <i name="ENCUT">    500.00000000</i>
  <i name="POTIM">      0.50000000</i>
  <i type="int" name="ISMEAR">     0</i>
  <i name="SIGMA">      0.05000000</i>
  <i type="logical" name="LWAVE"> F  </i>
  <i type="logical" name="LCHARG"> F  </i>
  <i type="string" name="GGA">PE</i>
 </incar>
 <primitive_cell>
  <structure name="primitive_cell" >
   <crystal>
    <varray name="basis" >
     <v>      15.00000000       0.00000000       0.00000000 </v>
     <v>       0.00000000      12.50000000       0.00000000 </v>
     <v>       0.00000000       0.00000000      18.00000000 </v>
    </varray>
    <i name="volume">   3375.00000000 </i>
    <varray name="rec_basis" >
     <v>       0.06666667       0.00000000       0.00000000 </v>
     <v>       0.00000000       0.08000000       0.00000000 </v>
     <v>       0.00000000       0.00000000       0.05555556 </v>
    </varray>
   </crystal>
   <varray name="positions" >
    <v>       0.52123000       0.54500000       0.63796000 </v>
   </varray>
  </structure>
  <varray name="primitive_index" >
   <v type="int" >        1 </v>
  </varray>
 </primitive_cell>
 <kpoints>
  <generation param="Monkhorst-Pack">
   <v type="int" name="divisions">      10       14        9 </v>
   <v name="usershift">      0.00000000       0.00000000       0.00000000 </v>
   <v name="genvec1">      0.10000000       0.00000000       0.00000000 </v>
   <v name="genvec2">      0.00000000       0.07142857       0.00000000 </v>
   <v name="genvec3">      0.00000000       0.00000000       0.11111111 </v>
   <v name="shift">      0.50000000       0.50000000       0.00000000 </v>
  </generation>
  <varray name="kpointlist" >
   <v>       0.05000000       0.03571429       0.00000000 </v>
   <v>       0.15000000       0.03571429       0.00000000 </v>
   <v>       0.25000000       0.03571429       0.00000000 </v>
   <v>       0.35000000       0.03571429       0.00000000 </v>
   <v>       0.45000000       0.03571429       0.00000000 </v>
   <v>       0.05000000       0.10714286       0.00000000 </v>
   <v>       0.15000000       0.10714286       0.00000000 </v>
   <v>       0.25000000       0.10714286       0.00000000 </v>
   <v>       0.35000000       0.10714286       0.00000000 </v>
   <v>       0.45000000       0.10714286       0.00000000 </v>
   <v>       0.05000000       0.17857143       0.00000000 </v>
   <v>       0.15000000       0.17857143       0.00000000 </v>
   <v>       0.25000000       0.17857143       0.00000000 </v>
   <v>       0.35000000       0.17857143       0.00000000 </v>
   <v>       0.45000000       0.17857143       0.00000000 </v>
   <v>       0.05000000       0.25000000       0.00000000 </v>
   <v>       0.15000000       0.25000000       0.00000000 </v>
   <v>       0.25000000       0.25000000       0.00000000 </v>
   <v>       0.35000000       0.25000000       0.00000000 </v>
   <v>       0.45000000       0.25000000       0.00000000 </v>
   <v>       0.05000000       0.32142857       0.00000000 </v>
   <v>       0.15000000       0.32142857       0.00000000 </v>
   <v>       0.25000000       0.32142857       0.00000000 </v>
   <v>       0.35000000       0.32142857       0.00000000 </v>
   <v>       0.45000000       0.32142857       0.00000000 </v>
   <v>       0.05000000       0.39285714       0.00000000 </v>
   <v>       0.15000000       0.39285714       0.00000000 </v>
   <v>       0.25000000       0.39285714       0.00000000 </v>
   <v>       0.35000000       0.39285714       0.00000000 </v>
   <v>       0.45000000       0.39285714       0.00000000 </v>
   <v>       0.05000000       0.46428571       0.00000000 </v>
   <v>       0.15000000       0.46428571       0.00000000 </v>
   <v>       0.25000000       0.46428571       0.00000000 </v>
   <v>       0.35000000       0.46428571       0.00000000 </v>
   <v>       0.45000000       0.46428571       0.00000000 </v>
   <v>       0.05000000       0.03571429       0.11111111 </v>
   <v>       0.15000000       0.03571429       0.11111111 </v>
   <v>       0.25000000       0.03571429       0.11111111 </v>
   <v>       0.35000000       0.03571429       0.11111111 </v>
   <v>       0.45000000       0.03571429       0.11111111 </v>
   <v>       0.05000000       0.10714286       0.11111111 </v>
   <v>       0.15000000       0.10714286       0.11111111 </v>
   <v>       0.25000000       0.10714286       0.11111111 </v>
   <v>       0.35000000       0.10714286       0.11111111 </v>
   <v>       0.45000000       0.10714286       0.11111111 </v>
   <v>       0.05000000       0.17857143       0.11111111 </v>
   <v>       0.15000000       0.17857143       0.11111111 </v>
   <v>       0.25000000       0.17857143       0.11111111 </v>
   <v>       0.35000000       0.17857143       0.11111111 </v>
   <v>       0.45000000       0.17857143       0.11111111 </v>
   <v>       0.05000000       0.25000000       0.11111111 </v>
   <v>       0.15000000       0.25000000       0.11111111 </v>
   <v>       0.25000000       0.25000000       0.11111111 </v>
   <v>       0.35000000       0.25000000       0.11111111 </v>
   <v>       0.45000000       0.25000000       0.11111111 </v>
   <v>       0.05000000       0.32142857       0.11111111 </v>
   <v>       0.15000000       0.32142857       0.11111111 </v>
   <v>       0.25000000       0.32142857       0.11111111 </v>
   <v>       0.35000000       0.32142857       0.11111111 </v>
   <v>       0.45000000       0.32142857       0.11111111 </v>
   <v>       0.05000000       0.39285714       0.11111111 </v>
   <v>       0.15000000       0.39285714       0.11111111 </v>
   <v>       0.25000000       0.39285714       0.11111111 </v>
   <v>       0.35000000       0.39285714       0.11111111 </v>
   <v>       0.45000000       0.39285714       0.11111111 </v>
   <v>       0.05000000       0.46428571       0.11111111 </v>
   <v>       0.15000000       0.46428571       0.11111111 </v>
   <v>       0.25000000       0.46428571       0.11111111 </v>
   <v>       0.35000000       0.46428571       0.11111111 </v>
   <v>       0.45000000       0.46428571       0.11111111 </v>
   <v>       0.05000000       0.03571429       0.22222222 </v>
   <v>       0.15000000       0.03571429       0.22222222 </v>
   <v>       0.25000000       0.03571429       0.22222222 </v>
   <v>       0.35000000       0.03571429       0.22222222 </v>
   <v>       0.45000000       0.03571429       0.22222222 </v>
   <v>       0.05000000       0.10714286       0.22222222 </v>
   <v>       0.15000000       0.10714286       0.22222222 </v>
   <v>       0.25000000       0.10714286       0.22222222 </v>
   <v>       0.35000000       0.10714286       0.22222222 </v>
   <v>       0.45000000       0.10714286       0.22222222 </v>
   <v>       0.05000000       0.17857143       0.22222222 </v>
   <v>       0.15000000       0.17857143       0.22222222 </v>
   <v>       0.25000000       0.17857143       0.22222222 </v>
   <v>       0.35000000       0.17857143       0.22222222 </v>
   <v>       0.45000000       0.17857143       0.22222222 </v>
   <v>       0.05000000       0.25000000       0.22222222 </v>
   <v>       0.15000000       0.25000000       0.22222222 </v>
   <v>       0.25000000       0.25000000       0.22222222 </v>
   <v>       0.35000000       0.25000000       0.22222222 </v>
   <v>       0.45000000       0.25000000       0.22222222 </v>
   <v>       0.05000000       0.32142857       0.22222222 </v>
   <v>       0.15000000       0.32142857       0.22222222 </v>
   <v>       0.25000000       0.32142857       0.22222222 </v>
   <v>       0.35000000       0.32142857       0.22222222 </v>
   <v>       0.45000000       0.32142857       0.22222222 </v>
   <v>       0.05000000       0.39285714       0.22222222 </v>
   <v>       0.15000000       0.39285714       0.22222222 </v>
   <v>       0.25000000       0.39285714       0.22222222 </v>
   <v>       0.35000000       0.39285714       0.22222222 </v>
   <v>       0.45000000       0.39285714       0.22222222 </v>
   <v>       0.05000000       0.46428571       0.22222222 </v>
   <v>       0.15000000       0.46428571       0.22222222 </v>
   <v>       0.25000000       0.46428571       0.22222222 </v>
   <v>       0.35000000       0.46428571       0.22222222 </v>
   <v>       0.45000000       0.46428571       0.22222222 </v>
   <v>       0.05000000       0.03571429       0.33333333 </v>
   <v>       0.15000000       0.03571429       0.33333333 </v>
   <v>       0.25000000       0.03571429       0.33333333 </v>
   <v>       0.35000000       0.03571429       0.33333333 </v>
   <v>       0.45000000       0.03571429       0.33333333 </v>
   <v>       0.05000000       0.10714286       0.33333333 </v>
   <v>       0.15000000       0.10714286       0.33333333 </v>
   <v>       0.25000000       0.10714286       0.33333333 </v>
   <v>       0.35000000       0.10714286       0.33333333 </v>
   <v>       0.45000000       0.10714286       0.33333333 </v>
   <v>       0.05000000       0.17857143       0.33333333 </v>
   <v>       0.15000000       0.17857143       0.33333333 </v>
   <v>       0.25000000       0.17857143       0.33333333 </v>
   <v>       0.35000000       0.17857143       0.33333333 </v>
   <v>       0.45000000       0.17857143       0.33333333 </v>
   <v>       0.05000000       0.25000000       0.33333333 </v>
   <v>       0.15000000       0.25000000       0.33333333 </v>
   <v>       0.25000000       0.25000000       0.33333333 </v>
   <v>       0.35000000       0.25000000       0.33333333 </v>
   <v>       0.45000000       0.25000000       0.33333333 </v>
   <v>       0.05000000       0.32142857       0.33333333 </v>
   <v>       0.15000000       0.32142857       0.33333333 </v>
   <v>       0.25000000       0.32142857       0.33333333 </v>
   <v>       0.35000000       0.32142857       0.33333333 </v>
   <v>       0.45000000       0.32142857       0.33333333 </v>
   <v>       0.05000000       0.39285714       0.33333333 </v>
   <v>       0.15000000       0.39285714       0.33333333 </v>
   <v>       0.25000000       0.39285714       0.33333333 </v>
   <v>       0.35000000       0.39285714       0.33333333 </v>
   <v>       0.45000000       0.39285714       0.33333333 </v>
   <v>       0.05000000       0.46428571       0.33333333 </v>
   <v>       0.15000000       0.46428571       0.33333333 </v>
   <v>       0.25000000       0.46428571       0.33333333 </v>
   <v>       0.35000000       0.46428571       0.33333333 </v>
   <v>       0.45000000       0.46428571       0.33333333 </v>
   <v>       0.05000000       0.03571429       0.44444444 </v>
   <v>       0.15000000       0.03571429       0.44444444 </v>
   <v>       0.25000000       0.03571429       0.44444444 </v>
   <v>       0.35000000       0.03571429       0.44444444 </v>
   <v>       0.45000000       0.03571429       0.44444444 </v>
   <v>       0.05000000       0.10714286       0.44444444 </v>
   <v>       0.15000000       0.10714286       0.44444444 </v>
   <v>       0.25000000       0.10714286       0.44444444 </v>
   <v>       0.35000000       0.10714286       0.44444444 </v>
   <v>       0.45000000       0.10714286       0.44444444 </v>
   <v>       0.05000000       0.17857143       0.44444444 </v>
   <v>       0.15000000       0.17857143       0.44444444 </v>
   <v>       0.25000000       0.17857143       0.44444444 </v>
   <v>       0.35000000       0.17857143       0.44444444 </v>
   <v>       0.45000000       0.17857143       0.44444444 </v>
   <v>       0.05000000       0.25000000       0.44444444 </v>
   <v>       0.15000000       0.25000000       0.44444444 </v>
   <v>       0.25000000       0.25000000       0.44444444 </v>
   <v>       0.35000000       0.25000000       0.44444444 </v>
   <v>       0.45000000       0.25000000       0.44444444 </v>
   <v>       0.05000000       0.32142857       0.44444444 </v>
   <v>       0.15000000       0.32142857       0.44444444 </v>
   <v>       0.25000000       0.32142857       0.44444444 </v>
   <v>       0.35000000       0.32142857       0.44444444 </v>
   <v>       0.45000000       0.32142857       0.44444444 </v>
   <v>       0.05000000       0.39285714       0.44444444 </v>
   <v>       0.15000000       0.39285714       0.44444444 </v>
   <v>       0.25000000       0.39285714       0.44444444 </v>
   <v>       0.35000000       0.39285714       0.44444444 </v>
   <v>       0.45000000       0.39285714       0.44444444 </v>
   <v>       0.05000000       0.46428571       0.44444444 </v>
   <v>       0.15000000       0.46428571       0.44444444 </v>
   <v>       0.25000000       0.46428571       0.44444444 </v>
   <v>       0.35000000       0.46428571       0.44444444 </v>
   <v>       0.45000000       0.46428571       0.44444444 </v>
  </varray>
  <varray name="weights" >
   <v>       0.00317460 </v>
   <v>       0.00317460 </v>
   <v>       0.00317460 </v>
   <v>       0.00317460 </v>
   <v>       0.00317460 </v>
   <v>       0.00317460 </v>
   <v>       0.00317460 </v>
   <v>       0.00317460 </v>
   <v>       0.00317460 </v>
   <v>       0.00317460 </v>
   <v>       0.00317460 </v>
   <v>       0.00317460 </v>
   <v>       0.00317460 </v>
   <v>       0.00317460 </v>
   <v>       0.00317460 </v>
   <v>       0.00317460 </v>
   <v>       0.00317460 </v>
   <v>       0.00317460 </v>
   <v>       0.00317460 </v>
   <v>       0.00317460 </v>
   <v>       0.00317460 </v>
   <v>       0.00317460 </v>
   <v>       0.00317460 </v>
   <v>       0.00317460 </v>
   <v>       0.00317460 </v>
   <v>       0.00317460 </v>
   <v>       0.00317460 </v>
   <v>       0.00317460 </v>
   <v>       0.00317460 </v>
   <v>       0.00317460 </v>
   <v>       0.00317460 </v>
   <v>       0.00317460 </v>
   <v>       0.00317460 </v>
   <v>       0.00317460 </v>
   <v>       0.00317460 </v>
   <v>       0.00634921 </v>
   <v>       0.00634921 </v>
   <v>       0.00634921 </v>
   <v>       0.00634921 </v>
   <v>       0.00634921 </v>
   <v>       0.00634921 </v>
   <v>       0.00634921 </v>
   <v>       0.00634921 </v>
   <v>       0.00634921 </v>
   <v>       0.00634921 </v>
   <v>       0.00634921 </v>
   <v>       0.00634921 </v>
   <v>       0.00634921 </v>
   <v>       0.00634921 </v>
   <v>       0.00634921 </v>
   <v>       0.00634921 </v>
   <v>       0.00634921 </v>
   <v>       0.00634921 </v>
   <v>       0.00634921 </v>
   <v>       0.00634921 </v>
   <v>       0.00634921 </v>
   <v>       0.00634921 </v>
   <v>       0.00634921 </v>
   <v>       0.00634921 </v>
   <v>       0.00634921 </v>
   <v>       0.00634921 </v>
   <v>       0.00634921 </v>
   <v>       0.00634921 </v>
   <v>       0.00634921 </v>
   <v>       0.00634921 </v>
   <v>       0.00634921 </v>
   <v>       0.00634921 </v>
   <v>       0.00634921 </v>
   <v>       0.00634921 </v>
   <v>       0.00634921 </v>
   <v>       0.00634921 </v>
   <v>       0.00634921 </v>
   <v>       0.00634921 </v>
   <v>       0.00634921 </v>
   <v>       0.00634921 </v>
   <v>       0.00634921 </v>
   <v>       0.00634921 </v>
   <v>       0.00634921 </v>
   <v>       0.00634921 </v>
   <v>       0.00634921 </v>
   <v>       0.00634921 </v>
   <v>       0.00634921 </v>
   <v>       0.00634921 </v>
   <v>       0.00634921 </v>
   <v>       0.00634921 </v>
   <v>       0.00634921 </v>
   <v>       0.00634921 </v>
   <v>       0.00634921 </v>
   <v>       0.00634921 </v>
   <v>       0.00634921 </v>
   <v>       0.00634921 </v>
   <v>       0.00634921 </v>
   <v>       0.00634921 </v>
   <v>       0.00634921 </v>
   <v>       0.00634921 </v>
   <v>       0.00634921 </v>
   <v>       0.00634921 </v>
   <v>       0.00634921 </v>
   <v>       0.00634921 </v>
   <v>       0.00634921 </v>
   <v>       0.00634921 </v>
   <v>       0.00634921 </v>
   <v>       0.00634921 </v>
   <v>       0.00634921 </v>
   <v>       0.00634921 </v>
   <v>       0.00634921 </v>
   <v>       0.00634921 </v>
   <v>       0.00634921 </v>
   <v>       0.00634921 </v>
   <v>       0.00634921 </v>
   <v>       0.00634921 </v>
   <v>       0.00634921 </v>
   <v>       0.00634921 </v>
   <v>       0.00634921 </v>
   <v>       0.00634921 </v>
   <v>       0.00634921 </v>
   <v>       0.00634921 </v>
   <v>       0.00634921 </v>
   <v>       0.00634921 </v>
   <v>       0.00634921 </v>
   <v>       0.00634921 </v>
   <v>       0.00634921 </v>
   <v>       0.00634921 </v>
   <v>       0.00634921 </v>
   <v>       0.00634921 </v>
   <v>       0.00634921 </v>
   <v>       0.00634921 </v>
   <v>       0.00634921 </v>
   <v>       0.00634921 </v>
   <v>       0.00634921 </v>
   <v>       0.00634921 </v>
   <v>       0.00634921 </v>
   <v>       0.00634921 </v>
   <v>       0.00634921 </v>
   <v>       0.00634921 </v>
   <v>       0.00634921 </v>
   <v>       0.00634921 </v>
   <v>       0.00634921 </v>
   <v>       0.00634921 </v>
   <v>       0.00634921 </v>
   <v>       0.00634921 </v>
   <v>       0.00634921 </v>
   <v>       0.00634921 </v>
   <v>       0.00634921 </v>
   <v>       0.00634921 </v>
   <v>       0.00634921 </v>
   <v>       0.00634921 </v>
   <v>       0.00634921 </v>
   <v>       0.00634921 </v>
   <v>       0.00634921 </v>
   <v>       0.00634921 </v>
   <v>       0.00634921 </v>
   <v>       0.00634921 </v>
   <v>       0.00634921 </v>
   <v>       0.00634921 </v>
   <v>       0.00634921 </v>
   <v>       0.00634921 </v>
   <v>       0.00634921 </v>
   <v>       0.00634921 </v>
   <v>       0.00634921 </v>
   <v>       0.00634921 </v>
   <v>       0.00634921 </v>
   <v>       0.00634921 </v>
   <v>       0.00634921 </v>
   <v>       0.00634921 </v>
   <v>       0.00634921 </v>
   <v>       0.00634921 </v>
   <v>       0.00634921 </v>
   <v>       0.00634921 </v>
   <v>       0.00634921 </v>
   <v>       0.00634921 </v>
   <v>       0.00634921 </v>
   <v>       0.00634921 </v>
   <v>       0.00634921 </v>
   <v>       0.00634921 </v>
  </varray>
 </kpoints>
 <parameters>
  <separator name="general" >
   <i type="string" name="SYSTEM">Kpoints</i>
   <i type="logical" name="LCOMPAT"> F  </i>
  </separator>
  <separator name="electronic" >
   <i type="string" name="PREC">accura</i>
   <i name="ENMAX">    500.00000000</i>
   <i name="ENAUG">    535.51400000</i>
   <i name="EDIFF">      0.00000100</i>
   <i type="int" name="IALGO">    38</i>
   <i type="int" name="IWAVPR">    10</i>
   <i type="int" name="NBANDS">     8</i>
   <i type="int" name="NBANDSLOW">    -1</i>
   <i type="int" name="NBANDSHIGH">    -1</i>
   <i name="NELECT">      3.00000000</i>
   <i type="int" name="TURBO">     0</i>
   <i type="int" name="IRESTART">     0</i>
   <i type="int" name="NREBOOT">     0</i>
   <i type="int" name="NMIN">     0</i>
   <i name="EREF">      0.00000000</i>
   <separator name="electronic smearing" >
    <i type="int" name="ISMEAR">     0</i>
    <i name="SIGMA">      0.05000000</i>
    <i name="KSPACING">      0.50000000</i>
    <i type="logical" name="KGAMMA"> T  </i>
    <i type="logical" name="KBLOWUP"> T  </i>
   </separator>
   <separator name="electronic projectors" >
    <i type="logical" name="LREAL"> F  </i>
    <v name="ROPT">      0.00000000</v>
    <i type="int" name="LMAXPAW">  -100</i>
    <i type="int" name="LMAXMIX">     2</i>
    <i type="logical" name="NLSPLINE"> F  </i>
   </separator>
   <separator name="electronic startup" >
    <i type="int" name="ISTART">     0</i>
    <i type="int" name="ICHARG">     2</i>
    <i type="int" name="INIWAV">     1</i>
   </separator>
   <separator name="electronic spin" >
    <i type="int" name="ISPIN">     1</i>
    <i type="logical" name="LNONCOLLINEAR"> F  </i>
    <v name="MAGMOM">      1.00000000</v>
    <i name="NUPDOWN">     -1.00000000</i>
    <i type="logical" name="LSORBIT"> F  </i>
    <v name="SAXIS">      0.00000000      0.00000000      1.00000000</v>
    <i type="logical" name="LSPIRAL"> F  </i>
    <v name="QSPIRAL">      0.00000000      0.00000000      0.00000000</v>
    <i type="logical" name="LZEROZ"> F  </i>
   </separator>
   <separator name="electronic exchange-correlation" >
    <i type="logical" name="LASPH"> F  </i>
   </separator>
   <separator name="electronic convergence" >
    <i type="int" name="NELM">   100</i>
    <i type="int" name="NELMDL">    -5</i>
    <i type="int" name="NELMIN">     2</i>
    <i name="ENINI">    500.00000000</i>
    <separator name="electronic convergence detail" >
     <i type="logical" name="LDIAG"> T  </i>
     <i type="logical" name="LSUBROT"> F  </i>
     <i name="WEIMIN">      0.00000000</i>
     <i name="EBREAK">      0.00000003</i>
     <i name="DEPER">      0.30000000</i>
     <i type="int" name="NRMM">     4</i>
     <i name="TIME">      0.40000000</i>
    </separator>
   </separator>
   <separator name="electronic mixer" >
    <i name="AMIX">      0.40000000</i>
    <i name="BMIX">      1.00000000</i>
    <i name="AMIN">      0.10000000</i>
    <i name="AMIX_MAG">      1.60000000</i>
    <i name="BMIX_MAG">      1.00000000</i>
    <separator name="electronic mixer details" >
     <i type="int" name="IMIX">     4</i>
     <i type="logical" name="MIXFIRST"> F  </i>
     <i type="int" name="MAXMIX">   -45</i>
     <i name="WC">    100.00000000</i>
     <i type="int" name="INIMIX">     1</i>
     <i type="int" name="MIXPRE">     1</i>
     <i type="int" name="MREMOVE">     5</i>
    </separator>
   </separator>
   <separator name="electronic dipolcorrection" >
    <i type="logical" name="LDIPOL"> F  </i>
    <i type="logical" name="LMONO"> F  </i>
    <i type="int" name="IDIPOL">     0</i>
    <i name="EPSILON">      1.00000000</i>
    <v name="DIPOL">   -100.00000000   -100.00000000   -100.00000000</v>
    <i name="EFIELD">      0.00000000</i>
    <i type="logical" name="LVACPOTAV"> F  </i>
   </separator>
  </separator>
  <separator name="grids" >
   <i type="int" name="NGX">   112</i>
   <i type="int" name="NGY">    96</i>
   <i type="int" name="NGZ">   140</i>
   <i type="int" name="NGXF">   224</i>
   <i type="int" name="NGYF">   192</i>
   <i type="int" name="NGZF">   280</i>
   <i type="logical" name="ADDGRID"> F  </i>
  </separator>
  <separator name="ionic" >
   <i type="int" name="NSW">     0</i>
   <i type="int" name="IBRION">    -1</i>
   <i type="int" name="MDALGO">     0</i>
   <i type="int" name="ISIF">     2</i>
   <i name="PSTRESS">      0.00000000</i>
   <i name="EDIFFG">     -0.00100000</i>
   <i type="int" name="NFREE">     0</i>
   <i name="POTIM">      0.50000000</i>
   <i name="SMASS">     -3.00000000</i>
   <i name="SCALEE">      1.00000000</i>
  </separator>
  <separator name="ionic md" >
   <i name="TEBEG">      0.00010000</i>
   <i name="TEEND">      0.00010000</i>
   <i type="int" name="NBLOCK">     1</i>
   <i type="int" name="KBLOCK">     1</i>
   <i type="int" name="NPACO">   256</i>
   <i name="APACO">     10.00000000</i>
  </separator>
  <separator name="symmetry" >
   <i type="int" name="ISYM">     2</i>
   <i name="SYMPREC">      0.00001000</i>
  </separator>
  <separator name="dos" >
   <i type="int" name="LORBIT">     0</i>
   <v name="RWIGS">     -1.00000000</v>
   <i type="int" name="NEDOS">   301</i>
   <i name="EMIN">     10.00000000</i>
   <i name="EMAX">    -10.00000000</i>
   <i name="EFERMI">      0.00000000</i>
  </separator>
  <separator name="writing" >
   <i type="int" name="NWRITE">     2</i>
   <i type="logical" name="LWAVE"> F  </i>
   <i type="logical" name="LDOWNSAMPLE"> F  </i>
   <i type="logical" name="LCHARG"> F  </i>
   <i type="logical" name="LPARD"> F  </i>
   <i type="logical" name="LVTOT"> F  </i>
   <i type="logical" name="LVHAR"> F  </i>
   <i type="logical" name="LELF"> F  </i>
   <i type="logical" name="LOPTICS"> F  </i>
   <v name="STM">      0.00000000      0.00000000      0.00000000      0.00000000      0.00000000      0.00000000      0.00000000</v>
  </separator>
  <separator name="performance" >
   <i type="int" name="NPAR">     8</i>
   <i type="int" name="NSIM">     4</i>
   <i type="int" name="NBLK">    -1</i>
   <i type="logical" name="LPLANE"> T  </i>
   <i type="logical" name="LSCALAPACK"> T  </i>
   <i type="logical" name="LSCAAWARE"> F  </i>
   <i type="logical" name="LSCALU"> F  </i>
   <i type="logical" name="LASYNC"> F  </i>
   <i type="logical" name="LORBITALREAL"> F  </i>
  </separator>
  <separator name="miscellaneous" >
   <i type="int" name="IDIOT">     3</i>
   <i type="int" name="PHON_NSTRUCT">    -1</i>
   <i type="logical" name="LMUSIC"> F  </i>
   <v name="POMASS">     10.81100000</v>
   <v name="DARWINR">      0.00000000</v>
   <v name="DARWINV">      1.00000000</v>
   <i type="logical" name="LCORR"> T  </i>
  </separator>
  <i type="logical" name="GGA_COMPAT"> T  </i>
  <i type="logical" name="LBERRY"> F  </i>
  <i type="int" name="ICORELEVEL">     0</i>
  <i type="logical" name="LDAU"> F  </i>
  <i type="int" name="I_CONSTRAINED_M">     0</i>
  <separator name="electronic exchange-correlation" >
   <i type="string" name="GGA    ">PE</i>
   <i type="string" name="XC_C">1</i>
   <i type="int" name="VOSKOWN">     0</i>
   <i type="logical" name="LHFCALC"> F  </i>
   <i type="string" name="PRECFOCK"></i>
   <i type="logical" name="LSYMGRAD"> F  </i>
   <i type="logical" name="LHFONE"> F  </i>
   <i type="logical" name="LRHFCALC"> F  </i>
   <i type="logical" name="LTHOMAS"> F  </i>
   <i type="logical" name="LMODELHF"> F  </i>
   <i type="logical" name="LFOCKACE"> F  </i>
   <i name="ENCUT4O">     -1.00000000</i>
   <i type="int" name="EXXOEP">     0</i>
   <i type="int" name="FOURORBIT">     0</i>
   <i name="AEXX">      0.00000000</i>
   <i name="HFALPHA">      0.00000000</i>
   <i name="MCALPHA">      0.00000000</i>
   <i name="ALDAX">      1.00000000</i>
   <i name="AGGAX">      1.00000000</i>
   <i name="AMGGAX">      1.00000000</i>
   <i name="ALDAC">      1.00000000</i>
   <i name="AGGAC">      1.00000000</i>
   <i name="AMGGAC">      1.00000000</i>
   <i type="int" name="NKREDX">     1</i>
   <i type="int" name="NKREDY">     1</i>
   <i type="int" name="NKREDZ">     1</i>
   <i type="logical" name="SHIFTRED"> F  </i>
   <i type="logical" name="ODDONLY"> F  </i>
   <i type="logical" name="EVENONLY"> F  </i>
   <i type="int" name="LMAXFOCK">     0</i>
   <i type="int" name="NMAXFOCKAE">     0</i>
   <i type="logical" name="LFOCKAEDFT"> F  </i>
   <i name="HFSCREEN">      0.00000000</i>
   <i name="HFSCREENC">      0.00000000</i>
   <i type="int" name="NBANDSGWLOW">     0</i>
  </separator>
  <separator name="vdW DFT" >
   <i type="logical" name="LUSE_VDW"> F  </i>
   <i type="int" name="IVDW_NL">    -1</i>
   <i type="logical" name="LSPIN_VDW"> F  </i>
   <i name="ZAB_VDW">     -0.84910000</i>
   <i name="GAMMA_VDW">      1.39626340</i>
   <i name="ALPHA_VDW">      0.00000000</i>
   <i name="PARAM1">      0.12340000</i>
   <i name="PARAM2">      1.00000000</i>
   <i name="BPARAM">      6.30000000</i>
   <i name="CPARAM">      0.00930000</i>
  </separator>
  <separator name="model GW" >
   <i type="int" name="MODEL_GW">     0</i>
   <i name="MODEL_EPS0">   2025.00000000</i>
   <i name="MODEL_ALPHA">      1.00000000</i>
  </separator>
  <separator name="linear response parameters" >
   <i type="logical" name="LEPSILON"> F  </i>
   <i type="logical" name="LRPA"> F  </i>
   <i type="logical" name="LNABLA"> F  </i>
   <i type="logical" name="LVEL"> F  </i>
   <i name="CSHIFT">      0.10000000</i>
   <i name="OMEGAMAX">     -1.00000000</i>
   <i name="DEG_THRESHOLD">      0.00200000</i>
   <i name="RTIME">     -0.10000000</i>
   <i name="WPLASMAI">      0.00000000</i>
   <v name="DFIELD">      0.00000000      0.00000000      0.00000000</v>
   <v name="WPLASMA">      0.00000000      0.00000000      0.00000000      0.00000000      0.00000000      0.00000000      0.00000000      0.00000000      0.00000000</v>
  </separator>
  <separator name="orbital magnetization" >
   <i type="logical" name="NUCIND"> F  </i>
   <v name="MAGPOS">      0.00000000      0.00000000      0.00000000</v>
   <i type="logical" name="LNICSALL"> T  </i>
   <i type="logical" name="ORBITALMAG"> F  </i>
   <i type="logical" name="LMAGBLOCH"> F  </i>
   <i type="logical" name="LCHIMAG"> F  </i>
   <i type="logical" name="LGAUGE"> T  </i>
   <i type="int" name="MAGATOM">     0</i>
   <v name="MAGDIPOL">      0.00000000      0.00000000      0.00000000</v>
   <v name="AVECCONST">      0.00000000      0.00000000      0.00000000</v>
  </separator>
  <separator name="response functions" >
   <i type="logical" name="LALL_IN_ONE"> F  </i>
   <i type="int" name="IALL_IN_ONE">    -1</i>
   <i type="int" name="NBANDS_WAVE">    -1</i>
   <i type="logical" name="LFINITE_TEMPERATURE"> F  </i>
   <i type="logical" name="LADDER"> F  </i>
   <i type="logical" name="LRPAFORCE"> F  </i>
   <i type="logical" name="LFXC"> F  </i>
   <i type="logical" name="LHARTREE"> T  </i>
   <i type="int" name="IBSE">     0</i>
   <v type="int" name="KPOINT">    -1     0     0     0</v>
   <i type="logical" name="LTCTC"> F  </i>
   <i type="logical" name="LTCTE"> F  </i>
   <i type="logical" name="LTETE"> F  </i>
   <i type="logical" name="LTRIPLET"> F  </i>
   <i type="logical" name="LFXCEPS"> F  </i>
   <i type="logical" name="LFXHEG"> F  </i>
   <i type="int" name="NATURALO">     2</i>
   <i type="logical" name="LHOLEGF"> F  </i>
   <i type="logical" name="L2ORDER"> F  </i>
   <i type="logical" name="LDMP1"> F  </i>
   <i type="logical" name="LMP2LT"> F  </i>
   <i type="logical" name="LSMP2LT"> F  </i>
   <i type="logical" name="LGWLF"> F  </i>
   <i name="ENCUTGW">     -1.60000002</i>
   <i name="ENCUTGWSOFT">     -1.60000002</i>
   <i name="ENCUTLF">     -1.00000000</i>
   <i type="logical" name="ESF_SPLINES"> F  </i>
   <i name="ESF_CONV">      0.01000000</i>
   <i type="int" name="ESF_NINTER">    15</i>
   <i type="int" name="LMAXMP2">    -1</i>
   <i name="SCISSOR">      0.00000000</i>
   <i type="int" name="NOMEGA">     0</i>
   <i type="int" name="NOMEGAR">     0</i>
   <i type="int" name="NBANDSGW">    -1</i>
   <i type="int" name="NBANDSO">    -1</i>
   <i type="int" name="NBANDSV">    -1</i>
   <i type="int" name="NELMGW">     1</i>
   <i type="int" name="NELMHF">     1</i>
   <i type="int" name="DIM">     3</i>
   <i type="int" name="IESPILON">     4</i>
   <i type="int" name="ANTIRES">     0</i>
   <i name="OMEGAMAX">    -30.00000000</i>
   <i name="OMEGAMIN">    -30.00000000</i>
   <i name="OMEGATL">   -200.00000000</i>
   <i type="int" name="OMEGAGRID">     0</i>
   <i name="CSHIFT">     -0.10000000</i>
   <i type="logical" name="LSELFENERGY"> F  </i>
   <i type="logical" name="LSPECTRAL"> F  </i>
   <i type="logical" name="LSPECTRALGW"> F  </i>
   <i type="logical" name="LSINGLES"> F  </i>
   <i type="logical" name="LFERMIGW"> F  </i>
   <i type="logical" name="ODDONLYGW"> F  </i>
   <i type="logical" name="EVENONLYGW"> F  </i>
   <i type="int" name="NKREDLFX">     1</i>
   <i type="int" name="NKREDLFY">     1</i>
   <i type="int" name="NKREDLFZ">     1</i>
   <i type="int" name="MAXMEM">  2800</i>
   <i type="int" name="TELESCOPE">     0</i>
   <i type="int" name="NTAUPAR">    -1</i>
   <i type="int" name="NOMEGAPAR">    -1</i>
   <i name="DAMP_NEWTON">      0.80000001</i>
   <i name="LAMBDA">      1.00000000</i>
  </separator>
  <separator name="External order field" >
   <i name="OFIELD_KAPPA">      0.00000000</i>
   <v name="OFIELD_K">      0.00000000      0.00000000      0.00000000</v>
   <i name="OFIELD_Q6_NEAR">      0.00000000</i>
   <i name="OFIELD_Q6_FAR">      0.00000000</i>
   <i name="OFIELD_A">      0.00000000</i>
  </separator>
  <separator name="optional k-points parameters" >
   <i type="int" name="KPOINTS_OPT_MODE">     1</i>
   <i type="logical" name="LKPOINTS_OPT"> F  </i>
  </separator>
 </parameters>
 <atominfo>
  <atoms>       1 </atoms>
  <types>       1 </types>
  <array name="atoms" >
   <dimension dim="1">ion</dimension>
   <field type="string">element</field>
   <field type="int">atomtype</field>
   <set>
    <rc><c>B </c><c>   1</c></rc>
   </set>
  </array>
  <array name="atomtypes" >
   <dimension dim="1">type</dimension>
   <field type="int">atomspertype</field>
   <field type="string">element</field>
   <field>mass</field>
   <field>valence</field>
   <field type="string">pseudopotential</field>
   <set>
    <rc><c>   1</c><c>B </c><c>     10.81100000</c><c>      3.00000000</c><c>  PAW_PBE B 06Sep2000                   </c></rc>
   </set>
  </array>
 </atominfo>
 <structure name="initialpos" >
  <crystal>
   <varray name="basis" >
    <v>      15.00000000       0.00000000       0.00000000 </v>
    <v>       0.00000000      12.50000000       0.00000000 </v>
    <v>       0.00000000       0.00000000      18.00000000 </v>
   </varray>
   <i name="volume">   3375.00000000 </i>
   <varray name="rec_basis" >
    <v>       0.06666667       0.00000000       0.00000000 </v>
    <v>       0.00000000       0.08000000       0.00000000 </v>
    <v>       0.00000000       0.00000000       0.05555556 </v>
   </varray>
  </crystal>
  <varray name="positions" >
   <v>       0.52123000       0.54500000       0.63796000 </v>
  </varray>
 </structure>
 <calculation>
  <scstep>
   <time name="dav">   38.66   38.66</time>
   <time name="total">   39.72   39.72</time>
   <energy>
    <i name="alphaZ">      0.02038373 </i>
    <i name="ewald">    -11.82901664 </i>
    <i name="hartreedc">    -42.58396533 </i>
    <i name="XCdc">      4.75549663 </i>
    <i name="pawpsdc">     43.49986551 </i>
    <i name="pawaedc">    -42.64454556 </i>
    <i name="eentropy">     -0.00698384 </i>
    <i name="bandstr">    -13.53882601 </i>
    <i name="atom">     71.16911678 </i>
    <i name="e_fr_energy">      8.84152526 </i>
    <i name="e_wo_entrp">      8.84850911 </i>
    <i name="e_0_energy">      8.84501718 </i>
   </energy>
  </scstep>
  <scstep>
   <time name="dav">   55.58   55.58</time>
   <time name="total">   55.58   55.58</time>
   <energy>
    <i name="e_fr_energy">      0.78445649 </i>
    <i name="e_wo_entrp">      0.78971797 </i>
    <i name="e_0_energy">      0.78708723 </i>
   </energy>
  </scstep>
  <scstep>
   <time name="dav">   56.07   56.07</time>
   <time name="total">   56.07   56.07</time>
   <energy>
    <i name="e_fr_energy">     -0.02512036 </i>
    <i name="e_wo_entrp">      0.01393705 </i>
    <i name="e_0_energy">     -0.00559166 </i>
   </energy>
  </scstep>
  <scstep>
   <time name="dav">   36.73   36.73</time>
   <time name="total">   36.73   36.73</time>
   <energy>
    <i name="e_fr_energy">     -0.05686278 </i>
    <i name="e_wo_entrp">     -0.00391768 </i>
    <i name="e_0_energy">     -0.03039023 </i>
   </energy>
  </scstep>
  <scstep>
   <time name="dav">   44.67   44.67</time>
   <time name="total">   48.30   48.31</time>
   <energy>
    <i name="e_fr_energy">     -0.05822711 </i>
    <i name="e_wo_entrp">     -0.00522590 </i>
    <i name="e_0_energy">     -0.03172650 </i>
   </energy>
  </scstep>
  <scstep>
   <time name="dav">   47.64   47.64</time>
   <time name="total">   52.16   52.16</time>
   <energy>
    <i name="e_fr_energy">     -0.05827388 </i>
    <i name="e_wo_entrp">     -0.00527254 </i>
    <i name="e_0_energy">     -0.03177321 </i>
   </energy>
  </scstep>
  <scstep>
   <time name="dav">   50.70   50.71</time>
   <time name="total">   55.24   55.25</time>
   <energy>
    <i name="e_fr_energy">     -0.05827589 </i>
    <i name="e_wo_entrp">     -0.00527455 </i>
    <i name="e_0_energy">     -0.03177522 </i>
   </energy>
  </scstep>
  <scstep>
   <time name="dav">   46.00   46.00</time>
   <time name="total">   50.48   50.49</time>
   <energy>
    <i name="e_fr_energy">     -0.05827765 </i>
    <i name="e_wo_entrp">     -0.00527631 </i>
    <i name="e_0_energy">     -0.03177698 </i>
   </energy>
  </scstep>
  <scstep>
   <time name="dav">   52.17   52.17</time>
   <time name="total">   53.10   53.10</time>
   <energy>
    <i name="alphaZ">      0.02038373 </i>
    <i name="ewald">    -11.82901664 </i>
    <i name="hartreedc">    -42.58378561 </i>
    <i name="XCdc">      4.75519160 </i>
    <i name="pawpsdc">     43.57568774 </i>
    <i name="pawaedc">    -42.72058631 </i>
    <i name="eentropy">     -0.05300134 </i>
    <i name="bandstr">    -22.39226760 </i>
    <i name="atom">     71.16911678 </i>
    <i name="e_fr_energy">     -0.05827765 </i>
    <i name="e_wo_entrp">     -0.00527631 </i>
    <i name="e_0_energy">     -0.03177698 </i>
   </energy>
  </scstep>
  <structure>
   <crystal>
    <varray name="basis" >
     <v>      15.00000000       0.00000000       0.00000000 </v>
     <v>       0.00000000      12.50000000       0.00000000 </v>
     <v>       0.00000000       0.00000000      18.00000000 </v>
    </varray>
    <i name="volume">   3375.00000000 </i>
    <varray name="rec_basis" >
     <v>       0.06666667       0.00000000       0.00000000 </v>
     <v>       0.00000000       0.08000000       0.00000000 </v>
     <v>       0.00000000       0.00000000       0.05555556 </v>
    </varray>
   </crystal>
   <varray name="positions" >
    <v>       0.52123000       0.54500000       0.63796000 </v>
   </varray>
  </structure>
  <varray name="forces" >
   <v>      -0.00000000      -0.00000000       0.00000000 </v>
  </varray>
  <varray name="stress" >
   <v>      -0.00092806       0.00000000       0.00000000 </v>
   <v>       0.00000000      -0.00092937       0.00000000 </v>
   <v>       0.00000000       0.00000000      -0.00094089 </v>
  </varray>
  <energy>
   <i name="e_fr_energy">     -0.05827765 </i>
   <i name="e_wo_entrp">     -0.00527631 </i>
   <i name="e_0_energy">     -0.03177698 </i>
  </energy>
  <time name="totalsc">  489.22  489.27</time>
  <eigenvalues>
   <array>
    <dimension dim="1">band</dimension>
    <dimension dim="2">kpoint</dimension>
    <dimension dim="3">spin</dimension>
    <field>eigene</field>
    <field>occ</field>
    <set>
     <set comment="spin 1">
      <set comment="kpoint 1">
       <r>   -9.4099    1.0000 </r>
       <r>   -3.5726    0.1667 </r>
       <r>   -3.5725    0.1667 </r>
       <r>   -3.5724    0.1659 </r>
       <r>   -0.2618    0.0000 </r>
       <r>    0.2965    0.0000 </r>
       <r>    0.3100    0.0000 </r>
       <r>    0.4399    0.0000 </r>
      </set>
      <set comment="kpoint 2">
       <r>   -9.4099    1.0000 </r>
       <r>   -3.5726    0.1667 </r>
       <r>   -3.5726    0.1667 </r>
       <r>   -3.5724    0.1659 </r>
       <r>   -0.2519    0.0000 </r>
       <r>    0.2701    0.0000 </r>
       <r>    0.3212    0.0000 </r>
       <r>    0.3758    0.0000 </r>
      </set>
      <set comment="kpoint 3">
       <r>   -9.4099    1.0000 </r>
       <r>   -3.5726    0.1667 </r>
       <r>   -3.5726    0.1667 </r>
       <r>   -3.5724    0.1659 </r>
       <r>   -0.2338    0.0000 </r>
       <r>    0.1997    0.0000 </r>
       <r>    0.3428    0.0000 </r>
       <r>    0.3786    0.0000 </r>
      </set>
      <set comment="kpoint 4">
       <r>   -9.4099    1.0000 </r>
       <r>   -3.5726    0.1668 </r>
       <r>   -3.5726    0.1667 </r>
       <r>   -3.5724    0.1659 </r>
       <r>   -0.2116    0.0000 </r>
       <r>    0.1319    0.0000 </r>
       <r>    0.3718    0.0000 </r>
       <r>    0.4101    0.0000 </r>
      </set>
      <set comment="kpoint 5">
       <r>   -9.4099    1.0000 </r>
       <r>   -3.5726    0.1668 </r>
       <r>   -3.5726    0.1667 </r>
       <r>   -3.5724    0.1659 </r>
       <r>   -0.1946    0.0000 </r>
       <r>    0.0907    0.0000 </r>
       <r>    0.3982    0.0000 </r>
       <r>    0.4490    0.0000 </r>
      </set>
      <set comment="kpoint 6">
       <r>   -9.4099    1.0000 </r>
       <r>   -3.5726    0.1667 </r>
       <r>   -3.5725    0.1667 </r>
       <r>   -3.5725    0.1660 </r>
       <r>   -0.2526    0.0000 </r>
       <r>    0.3046    0.0000 </r>
       <r>    0.3189    0.0000 </r>
       <r>    0.4488    0.0000 </r>
      </set>
      <set comment="kpoint 7">
       <r>   -9.4099    1.0000 </r>
       <r>   -3.5726    0.1667 </r>
       <r>   -3.5726    0.1667 </r>
       <r>   -3.5725    0.1660 </r>
       <r>   -0.2428    0.0000 </r>
       <r>    0.2785    0.0000 </r>
       <r>    0.3301    0.0000 </r>
       <r>    0.3848    0.0000 </r>
      </set>
      <set comment="kpoint 8">
       <r>   -9.4099    1.0000 </r>
       <r>   -3.5726    0.1667 </r>
       <r>   -3.5726    0.1667 </r>
       <r>   -3.5725    0.1660 </r>
       <r>   -0.2247    0.0000 </r>
       <r>    0.2087    0.0000 </r>
       <r>    0.3517    0.0000 </r>
       <r>    0.3872    0.0000 </r>
      </set>
      <set comment="kpoint 9">
       <r>   -9.4099    1.0000 </r>
       <r>   -3.5726    0.1667 </r>
       <r>   -3.5726    0.1667 </r>
       <r>   -3.5725    0.1660 </r>
       <r>   -0.2026    0.0000 </r>
       <r>    0.1411    0.0000 </r>
       <r>    0.3806    0.0000 </r>
       <r>    0.4186    0.0000 </r>
      </set>
      <set comment="kpoint 10">
       <r>   -9.4099    1.0000 </r>
       <r>   -3.5726    0.1668 </r>
       <r>   -3.5726    0.1667 </r>
       <r>   -3.5725    0.1660 </r>
       <r>   -0.1856    0.0000 </r>
       <r>    0.1001    0.0000 </r>
       <r>    0.4069    0.0000 </r>
       <r>    0.4574    0.0000 </r>
      </set>
      <set comment="kpoint 11">
       <r>   -9.4099    1.0000 </r>
       <r>   -3.5726    0.1667 </r>
       <r>   -3.5725    0.1666 </r>
       <r>   -3.5725    0.1663 </r>
       <r>   -0.2347    0.0000 </r>
       <r>    0.3174    0.0000 </r>
       <r>    0.3368    0.0000 </r>
       <r>    0.4623    0.0000 </r>
      </set>
      <set comment="kpoint 12">
       <r>   -9.4099    1.0000 </r>
       <r>   -3.5726    0.1667 </r>
       <r>   -3.5725    0.1667 </r>
       <r>   -3.5725    0.1663 </r>
       <r>   -0.2249    0.0000 </r>
       <r>    0.2937    0.0000 </r>
       <r>    0.3479    0.0000 </r>
       <r>    0.4011    0.0000 </r>
      </set>
      <set comment="kpoint 13">
       <r>   -9.4099    1.0000 </r>
       <r>   -3.5726    0.1667 </r>
       <r>   -3.5726    0.1667 </r>
       <r>   -3.5725    0.1663 </r>
       <r>   -0.2069    0.0000 </r>
       <r>    0.2264    0.0000 </r>
       <r>    0.3693    0.0000 </r>
       <r>    0.4010    0.0000 </r>
      </set>
      <set comment="kpoint 14">
       <r>   -9.4099    1.0000 </r>
       <r>   -3.5726    0.1667 </r>
       <r>   -3.5726    0.1667 </r>
       <r>   -3.5725    0.1663 </r>
       <r>   -0.1849    0.0000 </r>
       <r>    0.1596    0.0000 </r>
       <r>    0.3981    0.0000 </r>
       <r>    0.4312    0.0000 </r>
      </set>
      <set comment="kpoint 15">
       <r>   -9.4099    1.0000 </r>
       <r>   -3.5726    0.1667 </r>
       <r>   -3.5726    0.1667 </r>
       <r>   -3.5725    0.1663 </r>
       <r>   -0.1680    0.0000 </r>
       <r>    0.1189    0.0000 </r>
       <r>    0.4240    0.0000 </r>
       <r>    0.4681    0.0000 </r>
      </set>
      <set comment="kpoint 16">
       <r>   -9.4099    1.0000 </r>
       <r>   -3.5725    0.1667 </r>
       <r>   -3.5725    0.1667 </r>
       <r>   -3.5725    0.1666 </r>
       <r>   -0.2087    0.0000 </r>
       <r>    0.3084    0.0000 </r>
       <r>    0.3631    0.0000 </r>
       <r>    0.4010    0.0000 </r>
      </set>
      <set comment="kpoint 17">
       <r>   -9.4099    1.0000 </r>
       <r>   -3.5725    0.1667 </r>
       <r>   -3.5725    0.1667 </r>
       <r>   -3.5725    0.1666 </r>
       <r>   -0.1990    0.0000 </r>
       <r>    0.3014    0.0000 </r>
       <r>    0.3742    0.0000 </r>
       <r>    0.3846    0.0000 </r>
      </set>
      <set comment="kpoint 18">
       <r>   -9.4099    1.0000 </r>
       <r>   -3.5725    0.1667 </r>
       <r>   -3.5725    0.1667 </r>
       <r>   -3.5725    0.1667 </r>
       <r>   -0.1811    0.0000 </r>
       <r>    0.2504    0.0000 </r>
       <r>    0.3749    0.0000 </r>
       <r>    0.3954    0.0000 </r>
      </set>
      <set comment="kpoint 19">
       <r>   -9.4099    1.0000 </r>
       <r>   -3.5726    0.1667 </r>
       <r>   -3.5725    0.1667 </r>
       <r>   -3.5725    0.1667 </r>
       <r>   -0.1594    0.0000 </r>
       <r>    0.1866    0.0000 </r>
       <r>    0.3976    0.0000 </r>
       <r>    0.4238    0.0000 </r>
      </set>
      <set comment="kpoint 20">
       <r>   -9.4099    1.0000 </r>
       <r>   -3.5726    0.1667 </r>
       <r>   -3.5725    0.1667 </r>
       <r>   -3.5725    0.1667 </r>
       <r>   -0.1428    0.0000 </r>
       <r>    0.1468    0.0000 </r>
       <r>    0.4221    0.0000 </r>
       <r>    0.4491    0.0000 </r>
      </set>
      <set comment="kpoint 21">
       <r>   -9.4099    1.0000 </r>
       <r>   -3.5726    0.1670 </r>
       <r>   -3.5725    0.1666 </r>
       <r>   -3.5725    0.1666 </r>
       <r>   -0.1766    0.0000 </r>
       <r>    0.2435    0.0000 </r>
       <r>    0.3973    0.0000 </r>
       <r>    0.4159    0.0000 </r>
      </set>
      <set comment="kpoint 22">
       <r>   -9.4099    1.0000 </r>
       <r>   -3.5726    0.1670 </r>
       <r>   -3.5725    0.1666 </r>
       <r>   -3.5725    0.1666 </r>
       <r>   -0.1670    0.0000 </r>
       <r>    0.2523    0.0000 </r>
       <r>    0.3850    0.0000 </r>
       <r>    0.4082    0.0000 </r>
      </set>
      <set comment="kpoint 23">
       <r>   -9.4099    1.0000 </r>
       <r>   -3.5726    0.1670 </r>
       <r>   -3.5725    0.1666 </r>
       <r>   -3.5725    0.1666 </r>
       <r>   -0.1494    0.0000 </r>
       <r>    0.2589    0.0000 </r>
       <r>    0.3216    0.0000 </r>
       <r>    0.4291    0.0000 </r>
      </set>
      <set comment="kpoint 24">
       <r>   -9.4099    1.0000 </r>
       <r>   -3.5726    0.1670 </r>
       <r>   -3.5725    0.1667 </r>
       <r>   -3.5725    0.1666 </r>
       <r>   -0.1281    0.0000 </r>
       <r>    0.2202    0.0000 </r>
       <r>    0.3196    0.0000 </r>
       <r>    0.4568    0.0000 </r>
      </set>
      <set comment="kpoint 25">
       <r>   -9.4099    1.0000 </r>
       <r>   -3.5726    0.1670 </r>
       <r>   -3.5726    0.1667 </r>
       <r>   -3.5725    0.1666 </r>
       <r>   -0.1120    0.0000 </r>
       <r>    0.1834    0.0000 </r>
       <r>    0.3406    0.0000 </r>
       <r>    0.4812    0.0000 </r>
      </set>
      <set comment="kpoint 26">
       <r>   -9.4099    1.0000 </r>
       <r>   -3.5726    0.1673 </r>
       <r>   -3.5725    0.1666 </r>
       <r>   -3.5725    0.1666 </r>
       <r>   -0.1426    0.0000 </r>
       <r>    0.1763    0.0000 </r>
       <r>    0.4368    0.0000 </r>
       <r>    0.4584    0.0000 </r>
      </set>
      <set comment="kpoint 27">
       <r>   -9.4099    1.0000 </r>
       <r>   -3.5726    0.1673 </r>
       <r>   -3.5725    0.1666 </r>
       <r>   -3.5725    0.1666 </r>
       <r>   -0.1332    0.0000 </r>
       <r>    0.1874    0.0000 </r>
       <r>    0.4226    0.0000 </r>
       <r>    0.4474    0.0000 </r>
      </set>
      <set comment="kpoint 28">
       <r>   -9.4099    1.0000 </r>
       <r>   -3.5726    0.1673 </r>
       <r>   -3.5725    0.1666 </r>
       <r>   -3.5725    0.1666 </r>
       <r>   -0.1161    0.0000 </r>
       <r>    0.2082    0.0000 </r>
       <r>    0.3450    0.0000 </r>
       <r>    0.4677    0.0000 </r>
      </set>
      <set comment="kpoint 29">
       <r>   -9.4099    1.0000 </r>
       <r>   -3.5726    0.1673 </r>
       <r>   -3.5725    0.1667 </r>
       <r>   -3.5725    0.1666 </r>
       <r>   -0.0957    0.0000 </r>
       <r>    0.2323    0.0000 </r>
       <r>    0.2817    0.0000 </r>
       <r>    0.4974    0.0000 </r>
      </set>
      <set comment="kpoint 30">
       <r>   -9.4099    1.0000 </r>
       <r>   -3.5726    0.1673 </r>
       <r>   -3.5725    0.1667 </r>
       <r>   -3.5725    0.1666 </r>
       <r>   -0.0804    0.0000 </r>
       <r>    0.2266    0.0000 </r>
       <r>    0.2733    0.0000 </r>
       <r>    0.4478    0.0000 </r>
      </set>
      <set comment="kpoint 31">
       <r>   -9.4099    1.0000 </r>
       <r>   -3.5727    0.1675 </r>
       <r>   -3.5725    0.1666 </r>
       <r>   -3.5725    0.1666 </r>
       <r>   -0.1174    0.0000 </r>
       <r>    0.1335    0.0000 </r>
       <r>    0.4717    0.0000 </r>
       <r>    0.5067    0.0000 </r>
      </set>
      <set comment="kpoint 32">
       <r>   -9.4099    1.0000 </r>
       <r>   -3.5727    0.1675 </r>
       <r>   -3.5725    0.1666 </r>
       <r>   -3.5725    0.1666 </r>
       <r>   -0.1083    0.0000 </r>
       <r>    0.1452    0.0000 </r>
       <r>    0.4626    0.0000 </r>
       <r>    0.4820    0.0000 </r>
      </set>
      <set comment="kpoint 33">
       <r>   -9.4099    1.0000 </r>
       <r>   -3.5727    0.1675 </r>
       <r>   -3.5725    0.1666 </r>
       <r>   -3.5725    0.1666 </r>
       <r>   -0.0918    0.0000 </r>
       <r>    0.1678    0.0000 </r>
       <r>    0.3819    0.0000 </r>
       <r>    0.5024    0.0000 </r>
      </set>
      <set comment="kpoint 34">
       <r>   -9.4099    1.0000 </r>
       <r>   -3.5727    0.1675 </r>
       <r>   -3.5725    0.1666 </r>
       <r>   -3.5725    0.1666 </r>
       <r>   -0.0723    0.0000 </r>
       <r>    0.1990    0.0000 </r>
       <r>    0.3140    0.0000 </r>
       <r>    0.4388    0.0000 </r>
      </set>
      <set comment="kpoint 35">
       <r>   -9.4099    1.0000 </r>
       <r>   -3.5727    0.1675 </r>
       <r>   -3.5725    0.1667 </r>
       <r>   -3.5725    0.1666 </r>
       <r>   -0.0579    0.0000 </r>
       <r>    0.2295    0.0000 </r>
       <r>    0.2736    0.0000 </r>
       <r>    0.3856    0.0000 </r>
      </set>
      <set comment="kpoint 36">
       <r>   -9.4099    1.0000 </r>
       <r>   -3.5726    0.1667 </r>
       <r>   -3.5725    0.1667 </r>
       <r>   -3.5724    0.1659 </r>
       <r>   -0.2587    0.0000 </r>
       <r>    0.2190    0.0000 </r>
       <r>    0.3887    0.0000 </r>
       <r>    0.4533    0.0000 </r>
      </set>
      <set comment="kpoint 37">
       <r>   -9.4099    1.0000 </r>
       <r>   -3.5726    0.1667 </r>
       <r>   -3.5726    0.1667 </r>
       <r>   -3.5724    0.1659 </r>
       <r>   -0.2489    0.0000 </r>
       <r>    0.2242    0.0000 </r>
       <r>    0.3194    0.0000 </r>
       <r>    0.4400    0.0000 </r>
      </set>
      <set comment="kpoint 38">
       <r>   -9.4099    1.0000 </r>
       <r>   -3.5726    0.1667 </r>
       <r>   -3.5726    0.1667 </r>
       <r>   -3.5724    0.1659 </r>
       <r>   -0.2309    0.0000 </r>
       <r>    0.1978    0.0000 </r>
       <r>    0.2800    0.0000 </r>
       <r>    0.4599    0.0000 </r>
      </set>
      <set comment="kpoint 39">
       <r>   -9.4099    1.0000 </r>
       <r>   -3.5726    0.1668 </r>
       <r>   -3.5726    0.1667 </r>
       <r>   -3.5724    0.1659 </r>
       <r>   -0.2089    0.0000 </r>
       <r>    0.1358    0.0000 </r>
       <r>    0.3027    0.0000 </r>
       <r>    0.4885    0.0000 </r>
      </set>
      <set comment="kpoint 40">
       <r>   -9.4099    1.0000 </r>
       <r>   -3.5726    0.1668 </r>
       <r>   -3.5726    0.1667 </r>
       <r>   -3.5724    0.1659 </r>
       <r>   -0.1921    0.0000 </r>
       <r>    0.0956    0.0000 </r>
       <r>    0.3333    0.0000 </r>
       <r>    0.4727    0.0000 </r>
      </set>
      <set comment="kpoint 41">
       <r>   -9.4099    1.0000 </r>
       <r>   -3.5726    0.1667 </r>
       <r>   -3.5725    0.1667 </r>
       <r>   -3.5725    0.1660 </r>
       <r>   -0.2496    0.0000 </r>
       <r>    0.2280    0.0000 </r>
       <r>    0.3962    0.0000 </r>
       <r>    0.4620    0.0000 </r>
      </set>
      <set comment="kpoint 42">
       <r>   -9.4099    1.0000 </r>
       <r>   -3.5726    0.1667 </r>
       <r>   -3.5726    0.1667 </r>
       <r>   -3.5725    0.1660 </r>
       <r>   -0.2398    0.0000 </r>
       <r>    0.2332    0.0000 </r>
       <r>    0.3283    0.0000 </r>
       <r>    0.4479    0.0000 </r>
      </set>
      <set comment="kpoint 43">
       <r>   -9.4099    1.0000 </r>
       <r>   -3.5726    0.1667 </r>
       <r>   -3.5726    0.1667 </r>
       <r>   -3.5725    0.1660 </r>
       <r>   -0.2218    0.0000 </r>
       <r>    0.2068    0.0000 </r>
       <r>    0.2891    0.0000 </r>
       <r>    0.4676    0.0000 </r>
      </set>
      <set comment="kpoint 44">
       <r>   -9.4099    1.0000 </r>
       <r>   -3.5726    0.1667 </r>
       <r>   -3.5726    0.1667 </r>
       <r>   -3.5725    0.1660 </r>
       <r>   -0.1999    0.0000 </r>
       <r>    0.1451    0.0000 </r>
       <r>    0.3117    0.0000 </r>
       <r>    0.4963    0.0000 </r>
      </set>
      <set comment="kpoint 45">
       <r>   -9.4099    1.0000 </r>
       <r>   -3.5726    0.1668 </r>
       <r>   -3.5726    0.1667 </r>
       <r>   -3.5725    0.1660 </r>
       <r>   -0.1831    0.0000 </r>
       <r>    0.1050    0.0000 </r>
       <r>    0.3422    0.0000 </r>
       <r>    0.4820    0.0000 </r>
      </set>
      <set comment="kpoint 46">
       <r>   -9.4099    1.0000 </r>
       <r>   -3.5726    0.1667 </r>
       <r>   -3.5725    0.1666 </r>
       <r>   -3.5725    0.1663 </r>
       <r>   -0.2317    0.0000 </r>
       <r>    0.2453    0.0000 </r>
       <r>    0.4027    0.0000 </r>
       <r>    0.4713    0.0000 </r>
      </set>
      <set comment="kpoint 47">
       <r>   -9.4099    1.0000 </r>
       <r>   -3.5726    0.1667 </r>
       <r>   -3.5725    0.1667 </r>
       <r>   -3.5725    0.1663 </r>
       <r>   -0.2220    0.0000 </r>
       <r>    0.2504    0.0000 </r>
       <r>    0.3452    0.0000 </r>
       <r>    0.4500    0.0000 </r>
      </set>
      <set comment="kpoint 48">
       <r>   -9.4099    1.0000 </r>
       <r>   -3.5726    0.1667 </r>
       <r>   -3.5726    0.1667 </r>
       <r>   -3.5725    0.1663 </r>
       <r>   -0.2040    0.0000 </r>
       <r>    0.2245    0.0000 </r>
       <r>    0.3072    0.0000 </r>
       <r>    0.4675    0.0000 </r>
      </set>
      <set comment="kpoint 49">
       <r>   -9.4099    1.0000 </r>
       <r>   -3.5726    0.1667 </r>
       <r>   -3.5726    0.1667 </r>
       <r>   -3.5725    0.1663 </r>
       <r>   -0.1822    0.0000 </r>
       <r>    0.1635    0.0000 </r>
       <r>    0.3295    0.0000 </r>
       <r>    0.4959    0.0000 </r>
      </set>
      <set comment="kpoint 50">
       <r>   -9.4099    1.0000 </r>
       <r>   -3.5726    0.1667 </r>
       <r>   -3.5726    0.1667 </r>
       <r>   -3.5725    0.1663 </r>
       <r>   -0.1656    0.0000 </r>
       <r>    0.1237    0.0000 </r>
       <r>    0.3596    0.0000 </r>
       <r>    0.5002    0.0000 </r>
      </set>
      <set comment="kpoint 51">
       <r>   -9.4099    1.0000 </r>
       <r>   -3.5725    0.1667 </r>
       <r>   -3.5725    0.1667 </r>
       <r>   -3.5725    0.1666 </r>
       <r>   -0.2058    0.0000 </r>
       <r>    0.2665    0.0000 </r>
       <r>    0.3519    0.0000 </r>
       <r>    0.4588    0.0000 </r>
      </set>
      <set comment="kpoint 52">
       <r>   -9.4099    1.0000 </r>
       <r>   -3.5725    0.1667 </r>
       <r>   -3.5725    0.1667 </r>
       <r>   -3.5725    0.1666 </r>
       <r>   -0.1961    0.0000 </r>
       <r>    0.2712    0.0000 </r>
       <r>    0.3559    0.0000 </r>
       <r>    0.3903    0.0000 </r>
      </set>
      <set comment="kpoint 53">
       <r>   -9.4099    1.0000 </r>
       <r>   -3.5725    0.1667 </r>
       <r>   -3.5725    0.1667 </r>
       <r>   -3.5725    0.1667 </r>
       <r>   -0.1783    0.0000 </r>
       <r>    0.2485    0.0000 </r>
       <r>    0.3333    0.0000 </r>
       <r>    0.3894    0.0000 </r>
      </set>
      <set comment="kpoint 54">
       <r>   -9.4099    1.0000 </r>
       <r>   -3.5726    0.1667 </r>
       <r>   -3.5725    0.1667 </r>
       <r>   -3.5725    0.1667 </r>
       <r>   -0.1568    0.0000 </r>
       <r>    0.1906    0.0000 </r>
       <r>    0.3531    0.0000 </r>
       <r>    0.4156    0.0000 </r>
      </set>
      <set comment="kpoint 55">
       <r>   -9.4099    1.0000 </r>
       <r>   -3.5726    0.1667 </r>
       <r>   -3.5725    0.1667 </r>
       <r>   -3.5725    0.1667 </r>
       <r>   -0.1404    0.0000 </r>
       <r>    0.1516    0.0000 </r>
       <r>    0.3818    0.0000 </r>
       <r>    0.4394    0.0000 </r>
      </set>
      <set comment="kpoint 56">
       <r>   -9.4099    1.0000 </r>
       <r>   -3.5726    0.1670 </r>
       <r>   -3.5725    0.1666 </r>
       <r>   -3.5725    0.1666 </r>
       <r>   -0.1737    0.0000 </r>
       <r>    0.2437    0.0000 </r>
       <r>    0.3274    0.0000 </r>
       <r>    0.4899    0.0000 </r>
      </set>
      <set comment="kpoint 57">
       <r>   -9.4099    1.0000 </r>
       <r>   -3.5726    0.1670 </r>
       <r>   -3.5725    0.1666 </r>
       <r>   -3.5725    0.1666 </r>
       <r>   -0.1642    0.0000 </r>
       <r>    0.2524    0.0000 </r>
       <r>    0.3366    0.0000 </r>
       <r>    0.4126    0.0000 </r>
      </set>
      <set comment="kpoint 58">
       <r>   -9.4099    1.0000 </r>
       <r>   -3.5726    0.1670 </r>
       <r>   -3.5725    0.1666 </r>
       <r>   -3.5725    0.1666 </r>
       <r>   -0.1467    0.0000 </r>
       <r>    0.2594    0.0000 </r>
       <r>    0.3249    0.0000 </r>
       <r>    0.3717    0.0000 </r>
      </set>
      <set comment="kpoint 59">
       <r>   -9.4099    1.0000 </r>
       <r>   -3.5726    0.1670 </r>
       <r>   -3.5725    0.1667 </r>
       <r>   -3.5725    0.1666 </r>
       <r>   -0.1256    0.0000 </r>
       <r>    0.2241    0.0000 </r>
       <r>    0.3222    0.0000 </r>
       <r>    0.3981    0.0000 </r>
      </set>
      <set comment="kpoint 60">
       <r>   -9.4099    1.0000 </r>
       <r>   -3.5726    0.1670 </r>
       <r>   -3.5726    0.1667 </r>
       <r>   -3.5725    0.1666 </r>
       <r>   -0.1097    0.0000 </r>
       <r>    0.1881    0.0000 </r>
       <r>    0.3427    0.0000 </r>
       <r>    0.4274    0.0000 </r>
      </set>
      <set comment="kpoint 61">
       <r>   -9.4099    1.0000 </r>
       <r>   -3.5726    0.1673 </r>
       <r>   -3.5725    0.1666 </r>
       <r>   -3.5725    0.1666 </r>
       <r>   -0.1399    0.0000 </r>
       <r>    0.1802    0.0000 </r>
       <r>    0.3639    0.0000 </r>
       <r>    0.5299    0.0000 </r>
      </set>
      <set comment="kpoint 62">
       <r>   -9.4099    1.0000 </r>
       <r>   -3.5726    0.1673 </r>
       <r>   -3.5725    0.1666 </r>
       <r>   -3.5725    0.1666 </r>
       <r>   -0.1306    0.0000 </r>
       <r>    0.1912    0.0000 </r>
       <r>    0.3713    0.0000 </r>
       <r>    0.4521    0.0000 </r>
      </set>
      <set comment="kpoint 63">
       <r>   -9.4099    1.0000 </r>
       <r>   -3.5726    0.1673 </r>
       <r>   -3.5725    0.1666 </r>
       <r>   -3.5725    0.1666 </r>
       <r>   -0.1136    0.0000 </r>
       <r>    0.2120    0.0000 </r>
       <r>    0.3452    0.0000 </r>
       <r>    0.4124    0.0000 </r>
      </set>
      <set comment="kpoint 64">
       <r>   -9.4099    1.0000 </r>
       <r>   -3.5726    0.1673 </r>
       <r>   -3.5725    0.1667 </r>
       <r>   -3.5725    0.1666 </r>
       <r>   -0.0933    0.0000 </r>
       <r>    0.2361    0.0000 </r>
       <r>    0.2857    0.0000 </r>
       <r>    0.4371    0.0000 </r>
      </set>
      <set comment="kpoint 65">
       <r>   -9.4099    1.0000 </r>
       <r>   -3.5726    0.1673 </r>
       <r>   -3.5725    0.1667 </r>
       <r>   -3.5725    0.1666 </r>
       <r>   -0.0781    0.0000 </r>
       <r>    0.2313    0.0000 </r>
       <r>    0.2769    0.0000 </r>
       <r>    0.4524    0.0000 </r>
      </set>
      <set comment="kpoint 66">
       <r>   -9.4099    1.0000 </r>
       <r>   -3.5727    0.1675 </r>
       <r>   -3.5725    0.1666 </r>
       <r>   -3.5725    0.1666 </r>
       <r>   -0.1149    0.0000 </r>
       <r>    0.1379    0.0000 </r>
       <r>    0.4046    0.0000 </r>
       <r>    0.5253    0.0000 </r>
      </set>
      <set comment="kpoint 67">
       <r>   -9.4099    1.0000 </r>
       <r>   -3.5727    0.1675 </r>
       <r>   -3.5725    0.1666 </r>
       <r>   -3.5725    0.1666 </r>
       <r>   -0.1058    0.0000 </r>
       <r>    0.1496    0.0000 </r>
       <r>    0.4115    0.0000 </r>
       <r>    0.4882    0.0000 </r>
      </set>
      <set comment="kpoint 68">
       <r>   -9.4099    1.0000 </r>
       <r>   -3.5727    0.1675 </r>
       <r>   -3.5725    0.1666 </r>
       <r>   -3.5725    0.1666 </r>
       <r>   -0.0894    0.0000 </r>
       <r>    0.1721    0.0000 </r>
       <r>    0.3819    0.0000 </r>
       <r>    0.4509    0.0000 </r>
      </set>
      <set comment="kpoint 69">
       <r>   -9.4099    1.0000 </r>
       <r>   -3.5727    0.1675 </r>
       <r>   -3.5725    0.1666 </r>
       <r>   -3.5725    0.1666 </r>
       <r>   -0.0700    0.0000 </r>
       <r>    0.2032    0.0000 </r>
       <r>    0.3178    0.0000 </r>
       <r>    0.4431    0.0000 </r>
      </set>
      <set comment="kpoint 70">
       <r>   -9.4099    1.0000 </r>
       <r>   -3.5727    0.1675 </r>
       <r>   -3.5725    0.1667 </r>
       <r>   -3.5725    0.1666 </r>
       <r>   -0.0558    0.0000 </r>
       <r>    0.2334    0.0000 </r>
       <r>    0.2780    0.0000 </r>
       <r>    0.3907    0.0000 </r>
      </set>
      <set comment="kpoint 71">
       <r>   -9.4099    1.0000 </r>
       <r>   -3.5726    0.1667 </r>
       <r>   -3.5725    0.1667 </r>
       <r>   -3.5724    0.1659 </r>
       <r>   -0.2505    0.0000 </r>
       <r>    0.1479    0.0000 </r>
       <r>    0.4333    0.0000 </r>
       <r>    0.5165    0.0000 </r>
      </set>
      <set comment="kpoint 72">
       <r>   -9.4099    1.0000 </r>
       <r>   -3.5726    0.1667 </r>
       <r>   -3.5726    0.1667 </r>
       <r>   -3.5724    0.1659 </r>
       <r>   -0.2409    0.0000 </r>
       <r>    0.1584    0.0000 </r>
       <r>    0.3302    0.0000 </r>
       <r>    0.5413    0.0000 </r>
      </set>
      <set comment="kpoint 73">
       <r>   -9.4099    1.0000 </r>
       <r>   -3.5726    0.1667 </r>
       <r>   -3.5726    0.1667 </r>
       <r>   -3.5724    0.1659 </r>
       <r>   -0.2232    0.0000 </r>
       <r>    0.1726    0.0000 </r>
       <r>    0.2469    0.0000 </r>
       <r>    0.5297    0.0000 </r>
      </set>
      <set comment="kpoint 74">
       <r>   -9.4099    1.0000 </r>
       <r>   -3.5726    0.1668 </r>
       <r>   -3.5726    0.1667 </r>
       <r>   -3.5724    0.1659 </r>
       <r>   -0.2017    0.0000 </r>
       <r>    0.1463    0.0000 </r>
       <r>    0.2346    0.0000 </r>
       <r>    0.4530    0.0000 </r>
      </set>
      <set comment="kpoint 75">
       <r>   -9.4099    1.0000 </r>
       <r>   -3.5726    0.1668 </r>
       <r>   -3.5726    0.1667 </r>
       <r>   -3.5724    0.1659 </r>
       <r>   -0.1854    0.0000 </r>
       <r>    0.1098    0.0000 </r>
       <r>    0.2636    0.0000 </r>
       <r>    0.3936    0.0000 </r>
      </set>
      <set comment="kpoint 76">
       <r>   -9.4099    1.0000 </r>
       <r>   -3.5726    0.1667 </r>
       <r>   -3.5725    0.1667 </r>
       <r>   -3.5725    0.1660 </r>
       <r>   -0.2415    0.0000 </r>
       <r>    0.1571    0.0000 </r>
       <r>    0.4409    0.0000 </r>
       <r>    0.5203    0.0000 </r>
      </set>
      <set comment="kpoint 77">
       <r>   -9.4099    1.0000 </r>
       <r>   -3.5726    0.1667 </r>
       <r>   -3.5726    0.1667 </r>
       <r>   -3.5725    0.1660 </r>
       <r>   -0.2318    0.0000 </r>
       <r>    0.1676    0.0000 </r>
       <r>    0.3389    0.0000 </r>
       <r>    0.5443    0.0000 </r>
      </set>
      <set comment="kpoint 78">
       <r>   -9.4099    1.0000 </r>
       <r>   -3.5726    0.1667 </r>
       <r>   -3.5726    0.1667 </r>
       <r>   -3.5725    0.1660 </r>
       <r>   -0.2141    0.0000 </r>
       <r>    0.1819    0.0000 </r>
       <r>    0.2560    0.0000 </r>
       <r>    0.5381    0.0000 </r>
      </set>
      <set comment="kpoint 79">
       <r>   -9.4099    1.0000 </r>
       <r>   -3.5726    0.1667 </r>
       <r>   -3.5726    0.1667 </r>
       <r>   -3.5725    0.1660 </r>
       <r>   -0.1927    0.0000 </r>
       <r>    0.1555    0.0000 </r>
       <r>    0.2438    0.0000 </r>
       <r>    0.4623    0.0000 </r>
      </set>
      <set comment="kpoint 80">
       <r>   -9.4099    1.0000 </r>
       <r>   -3.5726    0.1668 </r>
       <r>   -3.5726    0.1667 </r>
       <r>   -3.5725    0.1660 </r>
       <r>   -0.1765    0.0000 </r>
       <r>    0.1191    0.0000 </r>
       <r>    0.2728    0.0000 </r>
       <r>    0.4030    0.0000 </r>
      </set>
      <set comment="kpoint 81">
       <r>   -9.4099    1.0000 </r>
       <r>   -3.5726    0.1667 </r>
       <r>   -3.5725    0.1666 </r>
       <r>   -3.5725    0.1663 </r>
       <r>   -0.2236    0.0000 </r>
       <r>    0.1755    0.0000 </r>
       <r>    0.4402    0.0000 </r>
       <r>    0.4818    0.0000 </r>
      </set>
      <set comment="kpoint 82">
       <r>   -9.4099    1.0000 </r>
       <r>   -3.5726    0.1667 </r>
       <r>   -3.5725    0.1667 </r>
       <r>   -3.5725    0.1663 </r>
       <r>   -0.2140    0.0000 </r>
       <r>    0.1859    0.0000 </r>
       <r>    0.3555    0.0000 </r>
       <r>    0.4762    0.0000 </r>
      </set>
      <set comment="kpoint 83">
       <r>   -9.4099    1.0000 </r>
       <r>   -3.5726    0.1667 </r>
       <r>   -3.5726    0.1667 </r>
       <r>   -3.5725    0.1663 </r>
       <r>   -0.1964    0.0000 </r>
       <r>    0.2000    0.0000 </r>
       <r>    0.2741    0.0000 </r>
       <r>    0.4955    0.0000 </r>
      </set>
      <set comment="kpoint 84">
       <r>   -9.4099    1.0000 </r>
       <r>   -3.5726    0.1667 </r>
       <r>   -3.5726    0.1667 </r>
       <r>   -3.5725    0.1663 </r>
       <r>   -0.1751    0.0000 </r>
       <r>    0.1739    0.0000 </r>
       <r>    0.2621    0.0000 </r>
       <r>    0.4807    0.0000 </r>
      </set>
      <set comment="kpoint 85">
       <r>   -9.4099    1.0000 </r>
       <r>   -3.5726    0.1667 </r>
       <r>   -3.5726    0.1667 </r>
       <r>   -3.5725    0.1663 </r>
       <r>   -0.1590    0.0000 </r>
       <r>    0.1378    0.0000 </r>
       <r>    0.2908    0.0000 </r>
       <r>    0.4219    0.0000 </r>
      </set>
      <set comment="kpoint 86">
       <r>   -9.4099    1.0000 </r>
       <r>   -3.5725    0.1667 </r>
       <r>   -3.5725    0.1667 </r>
       <r>   -3.5725    0.1666 </r>
       <r>   -0.1978    0.0000 </r>
       <r>    0.2018    0.0000 </r>
       <r>    0.3599    0.0000 </r>
       <r>    0.4929    0.0000 </r>
      </set>
      <set comment="kpoint 87">
       <r>   -9.4099    1.0000 </r>
       <r>   -3.5725    0.1667 </r>
       <r>   -3.5725    0.1667 </r>
       <r>   -3.5725    0.1666 </r>
       <r>   -0.1883    0.0000 </r>
       <r>    0.2122    0.0000 </r>
       <r>    0.3599    0.0000 </r>
       <r>    0.4016    0.0000 </r>
      </set>
      <set comment="kpoint 88">
       <r>   -9.4099    1.0000 </r>
       <r>   -3.5725    0.1667 </r>
       <r>   -3.5725    0.1667 </r>
       <r>   -3.5725    0.1667 </r>
       <r>   -0.1708    0.0000 </r>
       <r>    0.2260    0.0000 </r>
       <r>    0.3007    0.0000 </r>
       <r>    0.3991    0.0000 </r>
      </set>
      <set comment="kpoint 89">
       <r>   -9.4099    1.0000 </r>
       <r>   -3.5726    0.1667 </r>
       <r>   -3.5725    0.1667 </r>
       <r>   -3.5725    0.1667 </r>
       <r>   -0.1498    0.0000 </r>
       <r>    0.2009    0.0000 </r>
       <r>    0.2890    0.0000 </r>
       <r>    0.4242    0.0000 </r>
      </set>
      <set comment="kpoint 90">
       <r>   -9.4099    1.0000 </r>
       <r>   -3.5726    0.1667 </r>
       <r>   -3.5725    0.1667 </r>
       <r>   -3.5725    0.1667 </r>
       <r>   -0.1339    0.0000 </r>
       <r>    0.1656    0.0000 </r>
       <r>    0.3169    0.0000 </r>
       <r>    0.4477    0.0000 </r>
      </set>
      <set comment="kpoint 91">
       <r>   -9.4099    1.0000 </r>
       <r>   -3.5726    0.1670 </r>
       <r>   -3.5725    0.1666 </r>
       <r>   -3.5725    0.1666 </r>
       <r>   -0.1660    0.0000 </r>
       <r>    0.2271    0.0000 </r>
       <r>    0.2851    0.0000 </r>
       <r>    0.5254    0.0000 </r>
      </set>
      <set comment="kpoint 92">
       <r>   -9.4099    1.0000 </r>
       <r>   -3.5726    0.1670 </r>
       <r>   -3.5725    0.1666 </r>
       <r>   -3.5725    0.1666 </r>
       <r>   -0.1566    0.0000 </r>
       <r>    0.2371    0.0000 </r>
       <r>    0.2963    0.0000 </r>
       <r>    0.4241    0.0000 </r>
      </set>
      <set comment="kpoint 93">
       <r>   -9.4099    1.0000 </r>
       <r>   -3.5726    0.1670 </r>
       <r>   -3.5725    0.1666 </r>
       <r>   -3.5725    0.1666 </r>
       <r>   -0.1394    0.0000 </r>
       <r>    0.2510    0.0000 </r>
       <r>    0.3173    0.0000 </r>
       <r>    0.3416    0.0000 </r>
      </set>
      <set comment="kpoint 94">
       <r>   -9.4099    1.0000 </r>
       <r>   -3.5726    0.1670 </r>
       <r>   -3.5725    0.1667 </r>
       <r>   -3.5725    0.1666 </r>
       <r>   -0.1188    0.0000 </r>
       <r>    0.2343    0.0000 </r>
       <r>    0.3177    0.0000 </r>
       <r>    0.3469    0.0000 </r>
      </set>
      <set comment="kpoint 95">
       <r>   -9.4099    1.0000 </r>
       <r>   -3.5726    0.1670 </r>
       <r>   -3.5726    0.1667 </r>
       <r>   -3.5725    0.1666 </r>
       <r>   -0.1034    0.0000 </r>
       <r>    0.2020    0.0000 </r>
       <r>    0.3385    0.0000 </r>
       <r>    0.3743    0.0000 </r>
      </set>
      <set comment="kpoint 96">
       <r>   -9.4099    1.0000 </r>
       <r>   -3.5726    0.1673 </r>
       <r>   -3.5725    0.1666 </r>
       <r>   -3.5725    0.1666 </r>
       <r>   -0.1326    0.0000 </r>
       <r>    0.1909    0.0000 </r>
       <r>    0.2948    0.0000 </r>
       <r>    0.5117    0.0000 </r>
      </set>
      <set comment="kpoint 97">
       <r>   -9.4099    1.0000 </r>
       <r>   -3.5726    0.1673 </r>
       <r>   -3.5725    0.1666 </r>
       <r>   -3.5725    0.1666 </r>
       <r>   -0.1234    0.0000 </r>
       <r>    0.2019    0.0000 </r>
       <r>    0.3058    0.0000 </r>
       <r>    0.4632    0.0000 </r>
      </set>
      <set comment="kpoint 98">
       <r>   -9.4099    1.0000 </r>
       <r>   -3.5726    0.1673 </r>
       <r>   -3.5725    0.1666 </r>
       <r>   -3.5725    0.1666 </r>
       <r>   -0.1067    0.0000 </r>
       <r>    0.2225    0.0000 </r>
       <r>    0.3228    0.0000 </r>
       <r>    0.3791    0.0000 </r>
      </set>
      <set comment="kpoint 99">
       <r>   -9.4099    1.0000 </r>
       <r>   -3.5726    0.1673 </r>
       <r>   -3.5725    0.1667 </r>
       <r>   -3.5725    0.1666 </r>
       <r>   -0.0869    0.0000 </r>
       <r>    0.2468    0.0000 </r>
       <r>    0.2970    0.0000 </r>
       <r>    0.3708    0.0000 </r>
      </set>
      <set comment="kpoint 100">
       <r>   -9.4099    1.0000 </r>
       <r>   -3.5726    0.1673 </r>
       <r>   -3.5725    0.1667 </r>
       <r>   -3.5725    0.1666 </r>
       <r>   -0.0722    0.0000 </r>
       <r>    0.2447    0.0000 </r>
       <r>    0.2868    0.0000 </r>
       <r>    0.3997    0.0000 </r>
      </set>
      <set comment="kpoint 101">
       <r>   -9.4099    1.0000 </r>
       <r>   -3.5727    0.1675 </r>
       <r>   -3.5725    0.1666 </r>
       <r>   -3.5725    0.1666 </r>
       <r>   -0.1081    0.0000 </r>
       <r>    0.1506    0.0000 </r>
       <r>    0.3357    0.0000 </r>
       <r>    0.4501    0.0000 </r>
      </set>
      <set comment="kpoint 102">
       <r>   -9.4099    1.0000 </r>
       <r>   -3.5727    0.1675 </r>
       <r>   -3.5725    0.1666 </r>
       <r>   -3.5725    0.1666 </r>
       <r>   -0.0992    0.0000 </r>
       <r>    0.1622    0.0000 </r>
       <r>    0.3462    0.0000 </r>
       <r>    0.4614    0.0000 </r>
      </set>
      <set comment="kpoint 103">
       <r>   -9.4099    1.0000 </r>
       <r>   -3.5727    0.1675 </r>
       <r>   -3.5725    0.1666 </r>
       <r>   -3.5725    0.1666 </r>
       <r>   -0.0831    0.0000 </r>
       <r>    0.1845    0.0000 </r>
       <r>    0.3609    0.0000 </r>
       <r>    0.4166    0.0000 </r>
      </set>
      <set comment="kpoint 104">
       <r>   -9.4099    1.0000 </r>
       <r>   -3.5727    0.1675 </r>
       <r>   -3.5725    0.1666 </r>
       <r>   -3.5725    0.1666 </r>
       <r>   -0.0641    0.0000 </r>
       <r>    0.2150    0.0000 </r>
       <r>    0.3282    0.0000 </r>
       <r>    0.4106    0.0000 </r>
      </set>
      <set comment="kpoint 105">
       <r>   -9.4099    1.0000 </r>
       <r>   -3.5727    0.1675 </r>
       <r>   -3.5725    0.1667 </r>
       <r>   -3.5725    0.1666 </r>
       <r>   -0.0502    0.0000 </r>
       <r>    0.2442    0.0000 </r>
       <r>    0.2906    0.0000 </r>
       <r>    0.4059    0.0000 </r>
      </set>
      <set comment="kpoint 106">
       <r>   -9.4099    1.0000 </r>
       <r>   -3.5726    0.1667 </r>
       <r>   -3.5725    0.1667 </r>
       <r>   -3.5724    0.1659 </r>
       <r>   -0.2400    0.0000 </r>
       <r>    0.0947    0.0000 </r>
       <r>    0.4543    0.0000 </r>
       <r>    0.5761    0.0000 </r>
      </set>
      <set comment="kpoint 107">
       <r>   -9.4099    1.0000 </r>
       <r>   -3.5726    0.1667 </r>
       <r>   -3.5726    0.1667 </r>
       <r>   -3.5724    0.1659 </r>
       <r>   -0.2306    0.0000 </r>
       <r>    0.1067    0.0000 </r>
       <r>    0.3468    0.0000 </r>
       <r>    0.5732    0.0000 </r>
      </set>
      <set comment="kpoint 108">
       <r>   -9.4099    1.0000 </r>
       <r>   -3.5726    0.1667 </r>
       <r>   -3.5726    0.1667 </r>
       <r>   -3.5724    0.1659 </r>
       <r>   -0.2134    0.0000 </r>
       <r>    0.1297    0.0000 </r>
       <r>    0.2548    0.0000 </r>
       <r>    0.4770    0.0000 </r>
      </set>
      <set comment="kpoint 109">
       <r>   -9.4099    1.0000 </r>
       <r>   -3.5726    0.1668 </r>
       <r>   -3.5726    0.1667 </r>
       <r>   -3.5724    0.1659 </r>
       <r>   -0.1926    0.0000 </r>
       <r>    0.1520    0.0000 </r>
       <r>    0.1953    0.0000 </r>
       <r>    0.3913    0.0000 </r>
      </set>
      <set comment="kpoint 110">
       <r>   -9.4099    1.0000 </r>
       <r>   -3.5726    0.1668 </r>
       <r>   -3.5726    0.1667 </r>
       <r>   -3.5724    0.1659 </r>
       <r>   -0.1771    0.0000 </r>
       <r>    0.1313    0.0000 </r>
       <r>    0.2120    0.0000 </r>
       <r>    0.3283    0.0000 </r>
      </set>
      <set comment="kpoint 111">
       <r>   -9.4099    1.0000 </r>
       <r>   -3.5726    0.1667 </r>
       <r>   -3.5725    0.1667 </r>
       <r>   -3.5725    0.1660 </r>
       <r>   -0.2310    0.0000 </r>
       <r>    0.1041    0.0000 </r>
       <r>    0.4622    0.0000 </r>
       <r>    0.5688    0.0000 </r>
      </set>
      <set comment="kpoint 112">
       <r>   -9.4099    1.0000 </r>
       <r>   -3.5726    0.1667 </r>
       <r>   -3.5726    0.1667 </r>
       <r>   -3.5725    0.1660 </r>
       <r>   -0.2216    0.0000 </r>
       <r>    0.1162    0.0000 </r>
       <r>    0.3555    0.0000 </r>
       <r>    0.5810    0.0000 </r>
      </set>
      <set comment="kpoint 113">
       <r>   -9.4099    1.0000 </r>
       <r>   -3.5726    0.1667 </r>
       <r>   -3.5726    0.1667 </r>
       <r>   -3.5725    0.1660 </r>
       <r>   -0.2044    0.0000 </r>
       <r>    0.1391    0.0000 </r>
       <r>    0.2639    0.0000 </r>
       <r>    0.4863    0.0000 </r>
      </set>
      <set comment="kpoint 114">
       <r>   -9.4099    1.0000 </r>
       <r>   -3.5726    0.1667 </r>
       <r>   -3.5726    0.1667 </r>
       <r>   -3.5725    0.1660 </r>
       <r>   -0.1837    0.0000 </r>
       <r>    0.1614    0.0000 </r>
       <r>    0.2045    0.0000 </r>
       <r>    0.4008    0.0000 </r>
      </set>
      <set comment="kpoint 115">
       <r>   -9.4099    1.0000 </r>
       <r>   -3.5726    0.1668 </r>
       <r>   -3.5726    0.1667 </r>
       <r>   -3.5725    0.1660 </r>
       <r>   -0.1682    0.0000 </r>
       <r>    0.1406    0.0000 </r>
       <r>    0.2213    0.0000 </r>
       <r>    0.3379    0.0000 </r>
      </set>
      <set comment="kpoint 116">
       <r>   -9.4099    1.0000 </r>
       <r>   -3.5726    0.1667 </r>
       <r>   -3.5725    0.1666 </r>
       <r>   -3.5725    0.1663 </r>
       <r>   -0.2133    0.0000 </r>
       <r>    0.1229    0.0000 </r>
       <r>    0.4616    0.0000 </r>
       <r>    0.4961    0.0000 </r>
      </set>
      <set comment="kpoint 117">
       <r>   -9.4099    1.0000 </r>
       <r>   -3.5726    0.1667 </r>
       <r>   -3.5725    0.1667 </r>
       <r>   -3.5725    0.1663 </r>
       <r>   -0.2039    0.0000 </r>
       <r>    0.1349    0.0000 </r>
       <r>    0.3719    0.0000 </r>
       <r>    0.4922    0.0000 </r>
      </set>
      <set comment="kpoint 118">
       <r>   -9.4099    1.0000 </r>
       <r>   -3.5726    0.1667 </r>
       <r>   -3.5726    0.1667 </r>
       <r>   -3.5725    0.1663 </r>
       <r>   -0.1867    0.0000 </r>
       <r>    0.1578    0.0000 </r>
       <r>    0.2816    0.0000 </r>
       <r>    0.5047    0.0000 </r>
      </set>
      <set comment="kpoint 119">
       <r>   -9.4099    1.0000 </r>
       <r>   -3.5726    0.1667 </r>
       <r>   -3.5726    0.1667 </r>
       <r>   -3.5725    0.1663 </r>
       <r>   -0.1662    0.0000 </r>
       <r>    0.1800    0.0000 </r>
       <r>    0.2229    0.0000 </r>
       <r>    0.4196    0.0000 </r>
      </set>
      <set comment="kpoint 120">
       <r>   -9.4099    1.0000 </r>
       <r>   -3.5726    0.1667 </r>
       <r>   -3.5726    0.1667 </r>
       <r>   -3.5725    0.1663 </r>
       <r>   -0.1508    0.0000 </r>
       <r>    0.1592    0.0000 </r>
       <r>    0.2397    0.0000 </r>
       <r>    0.3571    0.0000 </r>
      </set>
      <set comment="kpoint 121">
       <r>   -9.4099    1.0000 </r>
       <r>   -3.5725    0.1667 </r>
       <r>   -3.5725    0.1667 </r>
       <r>   -3.5725    0.1666 </r>
       <r>   -0.1877    0.0000 </r>
       <r>    0.1507    0.0000 </r>
       <r>    0.3742    0.0000 </r>
       <r>    0.5106    0.0000 </r>
      </set>
      <set comment="kpoint 122">
       <r>   -9.4099    1.0000 </r>
       <r>   -3.5725    0.1667 </r>
       <r>   -3.5725    0.1667 </r>
       <r>   -3.5725    0.1666 </r>
       <r>   -0.1784    0.0000 </r>
       <r>    0.1627    0.0000 </r>
       <r>    0.3736    0.0000 </r>
       <r>    0.4172    0.0000 </r>
      </set>
      <set comment="kpoint 123">
       <r>   -9.4099    1.0000 </r>
       <r>   -3.5725    0.1667 </r>
       <r>   -3.5725    0.1667 </r>
       <r>   -3.5725    0.1667 </r>
       <r>   -0.1614    0.0000 </r>
       <r>    0.1855    0.0000 </r>
       <r>    0.3069    0.0000 </r>
       <r>    0.4130    0.0000 </r>
      </set>
      <set comment="kpoint 124">
       <r>   -9.4099    1.0000 </r>
       <r>   -3.5726    0.1667 </r>
       <r>   -3.5725    0.1667 </r>
       <r>   -3.5725    0.1667 </r>
       <r>   -0.1410    0.0000 </r>
       <r>    0.2073    0.0000 </r>
       <r>    0.2502    0.0000 </r>
       <r>    0.4369    0.0000 </r>
      </set>
[...]
      <set comment="kpoint 164">
       <r>   -9.4099    1.0000 </r>
       <r>   -3.5726    0.1670 </r>
       <r>   -3.5725    0.1667 </r>
       <r>   -3.5725    0.1666 </r>
       <r>   -0.1044    0.0000 </r>
       <r>    0.2323    0.0000 </r>
       <r>    0.2838    0.0000 </r>
       <r>    0.3624    0.0000 </r>
      </set>
      <set comment="kpoint 165">
       <r>   -9.4099    1.0000 </r>
       <r>   -3.5726    0.1670 </r>
       <r>   -3.5726    0.1667 </r>
       <r>   -3.5725    0.1666 </r>
       <r>   -0.0901    0.0000 </r>
       <r>    0.2435    0.0000 </r>
       <r>    0.2747    0.0000 </r>
       <r>    0.3818    0.0000 </r>
      </set>
      <set comment="kpoint 166">
       <r>   -9.4099    1.0000 </r>
       <r>   -3.5726    0.1673 </r>
       <r>   -3.5725    0.1666 </r>
       <r>   -3.5725    0.1666 </r>
       <r>   -0.1169    0.0000 </r>
       <r>    0.2041    0.0000 </r>
       <r>    0.2307    0.0000 </r>
       <r>    0.4198    0.0000 </r>
      </set>
      <set comment="kpoint 167">
       <r>   -9.4099    1.0000 </r>
       <r>   -3.5726    0.1673 </r>
       <r>   -3.5725    0.1666 </r>
       <r>   -3.5725    0.1666 </r>
       <r>   -0.1081    0.0000 </r>
       <r>    0.2165    0.0000 </r>
       <r>    0.2415    0.0000 </r>
       <r>    0.4323    0.0000 </r>
      </set>
      <set comment="kpoint 168">
       <r>   -9.4099    1.0000 </r>
       <r>   -3.5726    0.1673 </r>
       <r>   -3.5725    0.1666 </r>
       <r>   -3.5725    0.1666 </r>
       <r>   -0.0921    0.0000 </r>
       <r>    0.2405    0.0000 </r>
       <r>    0.2619    0.0000 </r>
       <r>    0.4008    0.0000 </r>
      </set>
      <set comment="kpoint 169">
       <r>   -9.4099    1.0000 </r>
       <r>   -3.5726    0.1673 </r>
       <r>   -3.5725    0.1666 </r>
       <r>   -3.5725    0.1666 </r>
       <r>   -0.0734    0.0000 </r>
       <r>    0.2732    0.0000 </r>
       <r>    0.2893    0.0000 </r>
       <r>    0.3329    0.0000 </r>
      </set>
      <set comment="kpoint 170">
       <r>   -9.4099    1.0000 </r>
       <r>   -3.5726    0.1673 </r>
       <r>   -3.5725    0.1667 </r>
       <r>   -3.5725    0.1666 </r>
       <r>   -0.0597    0.0000 </r>
       <r>    0.2843    0.0000 </r>
       <r>    0.3117    0.0000 </r>
       <r>    0.3208    0.0000 </r>
      </set>
      <set comment="kpoint 171">
       <r>   -9.4099    1.0000 </r>
       <r>   -3.5727    0.1675 </r>
       <r>   -3.5725    0.1666 </r>
       <r>   -3.5725    0.1666 </r>
       <r>   -0.0938    0.0000 </r>
       <r>    0.1861    0.0000 </r>
       <r>    0.2553    0.0000 </r>
       <r>    0.3524    0.0000 </r>
      </set>
      <set comment="kpoint 172">
       <r>   -9.4099    1.0000 </r>
       <r>   -3.5727    0.1675 </r>
       <r>   -3.5725    0.1666 </r>
       <r>   -3.5725    0.1666 </r>
       <r>   -0.0852    0.0000 </r>
       <r>    0.1972    0.0000 </r>
       <r>    0.2675    0.0000 </r>
       <r>    0.3653    0.0000 </r>
      </set>
      <set comment="kpoint 173">
       <r>   -9.4099    1.0000 </r>
       <r>   -3.5727    0.1675 </r>
       <r>   -3.5725    0.1666 </r>
       <r>   -3.5725    0.1666 </r>
       <r>   -0.0697    0.0000 </r>
       <r>    0.2183    0.0000 </r>
       <r>    0.2914    0.0000 </r>
       <r>    0.3909    0.0000 </r>
      </set>
      <set comment="kpoint 174">
       <r>   -9.4099    1.0000 </r>
       <r>   -3.5727    0.1675 </r>
       <r>   -3.5725    0.1666 </r>
       <r>   -3.5725    0.1666 </r>
       <r>   -0.0516    0.0000 </r>
       <r>    0.2464    0.0000 </r>
       <r>    0.3249    0.0000 </r>
       <r>    0.3663    0.0000 </r>
      </set>
      <set comment="kpoint 175">
       <r>   -9.4099    1.0000 </r>
       <r>   -3.5727    0.1675 </r>
       <r>   -3.5725    0.1667 </r>
       <r>   -3.5725    0.1666 </r>
       <r>   -0.0386    0.0000 </r>
       <r>    0.2716    0.0000 </r>
       <r>    0.3257    0.0000 </r>
       <r>    0.3616    0.0000 </r>
      </set>
     </set>
    </set>
   </array>
  </eigenvalues>
  <separator name="orbital magnetization" >
   <v name="MAGDIPOLOUT">      0.00000000      0.00000000      0.00000000</v>
  </separator>
  <dos>
   <i name="efermi">     -3.60675135 </i>
   <total>
    <array>
     <dimension dim="1">gridpoints</dimension>
     <dimension dim="2">spin</dimension>
     <field>energy</field>
     <field>total</field>
     <field>integrated</field>
     <set>
      <set comment="spin 1">
       <r>    -9.9106     0.0000     0.0000 </r>
       <r>    -9.8739     0.0000     0.0000 </r>
       <r>    -9.8371     0.0000     0.0000 </r>
       <r>    -9.8004     0.0000     0.0000 </r>
       <r>    -9.7637     0.0000     0.0000 </r>
       <r>    -9.7270     0.0000     0.0000 </r>
       <r>    -9.6903     0.0000     0.0000 </r>
       <r>    -9.6535     0.0000     0.0000 </r>
       <r>    -9.6168     0.0000     0.0000 </r>
       <r>    -9.5801     0.0000     0.0000 </r>
       <r>    -9.5434     0.0043     0.0002 </r>
       <r>    -9.5067     0.1640     0.0062 </r>
       <r>    -9.4699     2.2615     0.0892 </r>
       <r>    -9.4332    11.4225     0.5087 </r>
       <r>    -9.3965    21.3961     1.2943 </r>
       <r>    -9.3598    14.9507     1.8433 </r>
       <r>    -9.3231     3.8838     1.9859 </r>
       <r>    -9.2863     0.3709     1.9995 </r>
       <r>    -9.2496     0.0128     2.0000 </r>
       <r>    -9.2129     0.0002     2.0000 </r>
       <r>    -9.1762     0.0000     2.0000 </r>
       <r>    -9.1395     0.0000     2.0000 </r>
       <r>    -9.1028     0.0000     2.0000 </r>
       <r>    -9.0660     0.0000     2.0000 </r>
       <r>    -9.0293     0.0000     2.0000 </r>
       <r>    -8.9926     0.0000     2.0000 </r>
       <r>    -8.9559     0.0000     2.0000 </r>
       <r>    -8.9192     0.0000     2.0000 </r>
       <r>    -8.8824     0.0000     2.0000 </r>
       <r>    -8.8457     0.0000     2.0000 </r>
       <r>    -8.8090     0.0000     2.0000 </r>
       <r>    -8.7723     0.0000     2.0000 </r>
       <r>    -8.7356     0.0000     2.0000 </r>
       <r>    -8.6988     0.0000     2.0000 </r>
       <r>    -8.6621     0.0000     2.0000 </r>
       <r>    -8.6254     0.0000     2.0000 </r>
       <r>    -8.5887     0.0000     2.0000 </r>
       <r>    -8.5520     0.0000     2.0000 </r>
       <r>    -8.5152     0.0000     2.0000 </r>
       <r>    -8.4785     0.0000     2.0000 </r>
       <r>    -8.4418     0.0000     2.0000 </r>
       <r>    -8.4051     0.0000     2.0000 </r>
       <r>    -8.3684     0.0000     2.0000 </r>
       <r>    -8.3316     0.0000     2.0000 </r>
       <r>    -8.2949     0.0000     2.0000 </r>
       <r>    -8.2582     0.0000     2.0000 </r>
       <r>    -8.2215     0.0000     2.0000 </r>
       <r>    -8.1848     0.0000     2.0000 </r>
       <r>    -8.1480     0.0000     2.0000 </r>
       <r>    -8.1113     0.0000     2.0000 </r>
       <r>    -8.0746     0.0000     2.0000 </r>
       <r>    -8.0379     0.0000     2.0000 </r>
       <r>    -8.0012     0.0000     2.0000 </r>
       <r>    -7.9644     0.0000     2.0000 </r>
       <r>    -7.9277     0.0000     2.0000 </r>
       <r>    -7.8910     0.0000     2.0000 </r>
       <r>    -7.8543     0.0000     2.0000 </r>
       <r>    -7.8176     0.0000     2.0000 </r>
       <r>    -7.7808     0.0000     2.0000 </r>
       <r>    -7.7441     0.0000     2.0000 </r>
       <r>    -7.7074     0.0000     2.0000 </r>
       <r>    -7.6707     0.0000     2.0000 </r>
       <r>    -7.6340     0.0000     2.0000 </r>
       <r>    -7.5972     0.0000     2.0000 </r>
       <r>    -7.5605     0.0000     2.0000 </r>
       <r>    -7.5238     0.0000     2.0000 </r>
       <r>    -7.4871     0.0000     2.0000 </r>
       <r>    -7.4504     0.0000     2.0000 </r>
       <r>    -7.4136     0.0000     2.0000 </r>
       <r>    -7.3769     0.0000     2.0000 </r>
       <r>    -7.3402     0.0000     2.0000 </r>
       <r>    -7.3035     0.0000     2.0000 </r>
       <r>    -7.2668     0.0000     2.0000 </r>
       <r>    -7.2300     0.0000     2.0000 </r>
       <r>    -7.1933     0.0000     2.0000 </r>
       <r>    -7.1566     0.0000     2.0000 </r>
       <r>    -7.1199     0.0000     2.0000 </r>
       <r>    -7.0832     0.0000     2.0000 </r>
       <r>    -7.0464     0.0000     2.0000 </r>
       <r>    -7.0097     0.0000     2.0000 </r>
       <r>    -6.9730     0.0000     2.0000 </r>
       <r>    -6.9363     0.0000     2.0000 </r>
       <r>    -6.8996     0.0000     2.0000 </r>
       <r>    -6.8629     0.0000     2.0000 </r>
       <r>    -6.8261     0.0000     2.0000 </r>
       <r>    -6.7894     0.0000     2.0000 </r>
       <r>    -6.7527     0.0000     2.0000 </r>
       <r>    -6.7160     0.0000     2.0000 </r>
       <r>    -6.6793     0.0000     2.0000 </r>
       <r>    -6.6425     0.0000     2.0000 </r>
       <r>    -6.6058     0.0000     2.0000 </r>
       <r>    -6.5691     0.0000     2.0000 </r>
       <r>    -6.5324     0.0000     2.0000 </r>
       <r>    -6.4957     0.0000     2.0000 </r>
       <r>    -6.4589     0.0000     2.0000 </r>
       <r>    -6.4222     0.0000     2.0000 </r>
       <r>    -6.3855     0.0000     2.0000 </r>
       <r>    -6.3488     0.0000     2.0000 </r>
       <r>    -6.3121     0.0000     2.0000 </r>
       <r>    -6.2753     0.0000     2.0000 </r>
       <r>    -6.2386     0.0000     2.0000 </r>
       <r>    -6.2019     0.0000     2.0000 </r>
       <r>    -6.1652     0.0000     2.0000 </r>
       <r>    -6.1285     0.0000     2.0000 </r>
       <r>    -6.0917     0.0000     2.0000 </r>
       <r>    -6.0550     0.0000     2.0000 </r>
       <r>    -6.0183     0.0000     2.0000 </r>
       <r>    -5.9816     0.0000     2.0000 </r>
       <r>    -5.9449     0.0000     2.0000 </r>
       <r>    -5.9081     0.0000     2.0000 </r>
       <r>    -5.8714     0.0000     2.0000 </r>
       <r>    -5.8347     0.0000     2.0000 </r>
       <r>    -5.7980     0.0000     2.0000 </r>
       <r>    -5.7613     0.0000     2.0000 </r>
       <r>    -5.7245     0.0000     2.0000 </r>
       <r>    -5.6878     0.0000     2.0000 </r>
       <r>    -5.6511     0.0000     2.0000 </r>
       <r>    -5.6144     0.0000     2.0000 </r>
       <r>    -5.5777     0.0000     2.0000 </r>
       <r>    -5.5409     0.0000     2.0000 </r>
       <r>    -5.5042     0.0000     2.0000 </r>
       <r>    -5.4675     0.0000     2.0000 </r>
       <r>    -5.4308     0.0000     2.0000 </r>
       <r>    -5.3941     0.0000     2.0000 </r>
       <r>    -5.3573     0.0000     2.0000 </r>
       <r>    -5.3206     0.0000     2.0000 </r>
       <r>    -5.2839     0.0000     2.0000 </r>
       <r>    -5.2472     0.0000     2.0000 </r>
       <r>    -5.2105     0.0000     2.0000 </r>
       <r>    -5.1737     0.0000     2.0000 </r>
       <r>    -5.1370     0.0000     2.0000 </r>
       <r>    -5.1003     0.0000     2.0000 </r>
       <r>    -5.0636     0.0000     2.0000 </r>
       <r>    -5.0269     0.0000     2.0000 </r>
       <r>    -4.9901     0.0000     2.0000 </r>
       <r>    -4.9534     0.0000     2.0000 </r>
       <r>    -4.9167     0.0000     2.0000 </r>
       <r>    -4.8800     0.0000     2.0000 </r>
       <r>    -4.8433     0.0000     2.0000 </r>
       <r>    -4.8065     0.0000     2.0000 </r>
       <r>    -4.7698     0.0000     2.0000 </r>
       <r>    -4.7331     0.0000     2.0000 </r>
       <r>    -4.6964     0.0000     2.0000 </r>
       <r>    -4.6597     0.0000     2.0000 </r>
       <r>    -4.6229     0.0000     2.0000 </r>
       <r>    -4.5862     0.0000     2.0000 </r>
       <r>    -4.5495     0.0000     2.0000 </r>
       <r>    -4.5128     0.0000     2.0000 </r>
       <r>    -4.4761     0.0000     2.0000 </r>
       <r>    -4.4394     0.0000     2.0000 </r>
       <r>    -4.4026     0.0000     2.0000 </r>
       <r>    -4.3659     0.0000     2.0000 </r>
       <r>    -4.3292     0.0000     2.0000 </r>
       <r>    -4.2925     0.0000     2.0000 </r>
       <r>    -4.2558     0.0000     2.0000 </r>
       <r>    -4.2190     0.0000     2.0000 </r>
       <r>    -4.1823     0.0000     2.0000 </r>
       <r>    -4.1456     0.0000     2.0000 </r>
       <r>    -4.1089     0.0000     2.0000 </r>
       <r>    -4.0722     0.0000     2.0000 </r>
       <r>    -4.0354     0.0000     2.0000 </r>
       <r>    -3.9987     0.0000     2.0000 </r>
       <r>    -3.9620     0.0000     2.0000 </r>
       <r>    -3.9253     0.0000     2.0000 </r>
       <r>    -3.8886     0.0000     2.0000 </r>
       <r>    -3.8518     0.0000     2.0000 </r>
       <r>    -3.8151     0.0000     2.0000 </r>
       <r>    -3.7784     0.0000     2.0000 </r>
       <r>    -3.7417     0.0001     2.0000 </r>
       <r>    -3.7050     0.0146     2.0005 </r>
       <r>    -3.6682     0.5407     2.0204 </r>
       <r>    -3.6315     7.2327     2.2860 </r>
       <r>    -3.5948    35.4406     3.5873 </r>
       <r>    -3.5581    64.4217     5.9529 </r>
       <r>    -3.5214    43.6852     7.5570 </r>
       <r>    -3.4846    11.0102     7.9613 </r>
       <r>    -3.4479     1.0197     7.9987 </r>
       <r>    -3.4112     0.0342     8.0000 </r>
       <r>    -3.3745     0.0004     8.0000 </r>
       <r>    -3.3378     0.0000     8.0000 </r>
       <r>    -3.3010     0.0000     8.0000 </r>
       <r>    -3.2643     0.0000     8.0000 </r>
       <r>    -3.2276     0.0000     8.0000 </r>
       <r>    -3.1909     0.0000     8.0000 </r>
       <r>    -3.1542     0.0000     8.0000 </r>
       <r>    -3.1174     0.0000     8.0000 </r>
       <r>    -3.0807     0.0000     8.0000 </r>
       <r>    -3.0440     0.0000     8.0000 </r>
       <r>    -3.0073     0.0000     8.0000 </r>
       <r>    -2.9706     0.0000     8.0000 </r>
       <r>    -2.9338     0.0000     8.0000 </r>
       <r>    -2.8971     0.0000     8.0000 </r>
       <r>    -2.8604     0.0000     8.0000 </r>
       <r>    -2.8237     0.0000     8.0000 </r>
       <r>    -2.7870     0.0000     8.0000 </r>
       <r>    -2.7502     0.0000     8.0000 </r>
       <r>    -2.7135     0.0000     8.0000 </r>
       <r>    -2.6768     0.0000     8.0000 </r>
       <r>    -2.6401     0.0000     8.0000 </r>
       <r>    -2.6034     0.0000     8.0000 </r>
       <r>    -2.5666     0.0000     8.0000 </r>
       <r>    -2.5299     0.0000     8.0000 </r>
       <r>    -2.4932     0.0000     8.0000 </r>
       <r>    -2.4565     0.0000     8.0000 </r>
       <r>    -2.4198     0.0000     8.0000 </r>
       <r>    -2.3830     0.0000     8.0000 </r>
       <r>    -2.3463     0.0000     8.0000 </r>
       <r>    -2.3096     0.0000     8.0000 </r>
       <r>    -2.2729     0.0000     8.0000 </r>
       <r>    -2.2362     0.0000     8.0000 </r>
       <r>    -2.1995     0.0000     8.0000 </r>
       <r>    -2.1627     0.0000     8.0000 </r>
       <r>    -2.1260     0.0000     8.0000 </r>
       <r>    -2.0893     0.0000     8.0000 </r>
       <r>    -2.0526     0.0000     8.0000 </r>
       <r>    -2.0159     0.0000     8.0000 </r>
       <r>    -1.9791     0.0000     8.0000 </r>
       <r>    -1.9424     0.0000     8.0000 </r>
       <r>    -1.9057     0.0000     8.0000 </r>
       <r>    -1.8690     0.0000     8.0000 </r>
       <r>    -1.8323     0.0000     8.0000 </r>
       <r>    -1.7955     0.0000     8.0000 </r>
       <r>    -1.7588     0.0000     8.0000 </r>
       <r>    -1.7221     0.0000     8.0000 </r>
       <r>    -1.6854     0.0000     8.0000 </r>
       <r>    -1.6487     0.0000     8.0000 </r>
       <r>    -1.6119     0.0000     8.0000 </r>
       <r>    -1.5752     0.0000     8.0000 </r>
       <r>    -1.5385     0.0000     8.0000 </r>
       <r>    -1.5018     0.0000     8.0000 </r>
       <r>    -1.4651     0.0000     8.0000 </r>
       <r>    -1.4283     0.0000     8.0000 </r>
       <r>    -1.3916     0.0000     8.0000 </r>
       <r>    -1.3549     0.0000     8.0000 </r>
       <r>    -1.3182     0.0000     8.0000 </r>
       <r>    -1.2815     0.0000     8.0000 </r>
       <r>    -1.2447     0.0000     8.0000 </r>
       <r>    -1.2080     0.0000     8.0000 </r>
       <r>    -1.1713     0.0000     8.0000 </r>
       <r>    -1.1346     0.0000     8.0000 </r>
       <r>    -1.0979     0.0000     8.0000 </r>
       <r>    -1.0611     0.0000     8.0000 </r>
       <r>    -1.0244     0.0000     8.0000 </r>
       <r>    -0.9877     0.0000     8.0000 </r>
       <r>    -0.9510     0.0000     8.0000 </r>
       <r>    -0.9143     0.0000     8.0000 </r>
       <r>    -0.8775     0.0000     8.0000 </r>
       <r>    -0.8408     0.0000     8.0000 </r>
       <r>    -0.8041     0.0000     8.0000 </r>
       <r>    -0.7674     0.0000     8.0000 </r>
       <r>    -0.7307     0.0000     8.0000 </r>
       <r>    -0.6939     0.0000     8.0000 </r>
       <r>    -0.6572     0.0000     8.0000 </r>
       <r>    -0.6205     0.0000     8.0000 </r>
       <r>    -0.5838     0.0000     8.0000 </r>
       <r>    -0.5471     0.0000     8.0000 </r>
       <r>    -0.5103     0.0000     8.0000 </r>
       <r>    -0.4736     0.0000     8.0000 </r>
       <r>    -0.4369     0.0000     8.0000 </r>
       <r>    -0.4002     0.0000     8.0000 </r>
       <r>    -0.3635     0.0026     8.0001 </r>
       <r>    -0.3267     0.0618     8.0024 </r>
       <r>    -0.2900     0.6254     8.0253 </r>
       <r>    -0.2533     2.9117     8.1322 </r>
       <r>    -0.2166     7.0466     8.3910 </r>
       <r>    -0.1799    10.3254     8.7701 </r>
       <r>    -0.1431    10.8299     9.1678 </r>
       <r>    -0.1064     9.6137     9.5208 </r>
       <r>    -0.0697     7.3709     9.7915 </r>
       <r>    -0.0330     4.0891     9.9416 </r>
       <r>     0.0037     1.3899     9.9927 </r>
       <r>     0.0404     0.6088    10.0150 </r>
       <r>     0.0772     1.7787    10.0803 </r>
       <r>     0.1139     4.7588    10.2551 </r>
       <r>     0.1506     8.8383    10.5796 </r>
       <r>     0.1873    12.6045    11.0424 </r>
       <r>     0.2240    14.9807    11.5925 </r>
       <r>     0.2608    15.7715    12.1717 </r>
       <r>     0.2975    15.7877    12.7514 </r>
       <r>     0.3342    15.9226    13.3361 </r>
       <r>     0.3709    15.9494    13.9217 </r>
       <r>     0.4076    15.2429    14.4814 </r>
       <r>     0.4444    13.7747    14.9872 </r>
       <r>     0.4811    11.5874    15.4127 </r>
       <r>     0.5178     8.1144    15.7107 </r>
       <r>     0.5545     4.5678    15.8784 </r>
       <r>     0.5912     2.1914    15.9589 </r>
       <r>     0.6280     0.8678    15.9907 </r>
       <r>     0.6647     0.2224    15.9989 </r>
       <r>     0.7014     0.0285    15.9999 </r>
       <r>     0.7381     0.0016    16.0000 </r>
       <r>     0.7748     0.0000    16.0000 </r>
       <r>     0.8116     0.0000    16.0000 </r>
       <r>     0.8483     0.0000    16.0000 </r>
       <r>     0.8850     0.0000    16.0000 </r>
       <r>     0.9217     0.0000    16.0000 </r>
       <r>     0.9584     0.0000    16.0000 </r>
       <r>     0.9952     0.0000    16.0000 </r>
       <r>     1.0319     0.0000    16.0000 </r>
       <r>     1.0686     0.0000    16.0000 </r>
       <r>     1.1053     0.0000    16.0000 </r>
      </set>
     </set>
    </array>
   </total>
  </dos>
 </calculation>
 <structure name="finalpos" >
  <crystal>
   <varray name="basis" >
    <v>      15.00000000       0.00000000       0.00000000 </v>
    <v>       0.00000000      12.50000000       0.00000000 </v>
    <v>       0.00000000       0.00000000      18.00000000 </v>
   </varray>
   <i name="volume">   3375.00000000 </i>
   <varray name="rec_basis" >
    <v>       0.06666667       0.00000000       0.00000000 </v>
    <v>       0.00000000       0.08000000       0.00000000 </v>
    <v>       0.00000000       0.00000000       0.05555556 </v>
   </varray>
  </crystal>
  <varray name="positions" >
   <v>       0.52123000       0.54500000       0.63796000 </v>
  </varray>
 </structure>
</modeling>
