   14   14    1    1
  0.1021960E+02  0.5697000E-09  0.4047900E-09  0.6204200E-09  0.5000000E-15
  1.000000000000000E-004
  CAR 
 Kpoints                                 
     42   1260     48
 
  0.0000000E+00  0.0000000E+00  0.0000000E+00  0.1146657E-03
      1        -12.733307   1.000000
      2        -11.576151   1.000000
      3         -8.661862   1.000000
      4         -8.424569   1.000000
      5         -6.076980   1.000000
      6         -5.058930   1.000000
      7         -4.637851   1.000000
      8         -4.349084   1.000000
      9         -3.972926   1.000000
     10         -3.598050   1.000000
     11         -2.421403   1.000000
     12         -2.241953   1.000000
     13         -2.182562   1.000000
     14         -1.051874   1.000000
     15         -0.036417   1.000000
     16         -0.002526   1.000000
     17          0.150371   1.000000
     18          0.173815   1.000000
     19          0.565688   1.000000
     20          2.080747   0.000000
     21          2.126950   0.000000
     22          2.215751   0.000000
     23          5.412668   0.000000
     24          5.802982   0.000000
     25          5.818368   0.000000
     26          5.911733   0.000000
     27          6.786929   0.000000
     28          7.674026   0.000000
     29          7.702484   0.000000
     30          8.635361   0.000000
     31          8.753905   0.000000
     32          8.854036   0.000000
     33          9.042056   0.000000
     34         10.030282   0.000000
     35         11.145040   0.000000
     36         11.400994   0.000000
     37         11.770890   0.000000
     38         11.803457   0.000000
     39         11.900339   0.000000
     40         12.355540   0.000000
     41         12.805759   0.000000
     42         13.396213   0.000000
     43         13.575196   0.000000
     44         15.555885   0.000000
     45         15.568768   0.000000
     46         15.943236   0.000000
     47         16.360098   0.000000
     48         16.600618   0.000000
 
  0.5263158E-01  0.0000000E+00  0.0000000E+00  0.2293315E-03
      1        -12.727202   1.000000
      2        -11.586787   1.000000
      3         -8.659027   1.000000
      4         -8.422747   1.000000
      5         -6.064124   1.000000
      6         -5.140914   1.000000
      7         -4.669679   1.000000
      8         -4.252302   1.000000
      9         -3.964376   1.000000
     10         -3.538855   1.000000
     11         -2.418777   1.000000
     12         -2.243656   1.000000
     13         -2.202526   1.000000
     14         -1.097992   1.000000
     15         -0.030302   1.000000
     16          0.007667   1.000000
     17          0.155073   1.000000
     18          0.157529   1.000000
     19          0.551663   1.000000
     20          2.067800   0.000000
     21          2.115512   0.000000
     22          2.199301   0.000000
     23          5.426570   0.000000
     24          5.795042   0.000000
     25          5.798272   0.000000
     26          5.993032   0.000000
     27          6.773686   0.000000
     28          7.498387   0.000000
     29          7.848141   0.000000
     30          8.655672   0.000000
     31          8.809623   0.000000
     32          8.890931   0.000000
     33          9.044977   0.000000
     34         10.048617   0.000000
     35         11.155365   0.000000
     36         11.341209   0.000000
     37         11.666251   0.000000
     38         11.767849   0.000000
     39         11.933147   0.000000
     40         12.367728   0.000000
     41         12.875480   0.000000
     42         13.505122   0.000000
     43         13.517895   0.000000
     44         15.364268   0.000000
     45         15.603437   0.000000
     46         16.081424   0.000000
     47         16.346544   0.000000
     48         16.375999   0.000000
 
  0.1052632E+00  0.0000000E+00  0.0000000E+00  0.2293315E-03
      1        -12.708955   1.000000
      2        -11.618064   1.000000
      3         -8.650397   1.000000
      4         -8.417626   1.000000
      5         -6.030756   1.000000
      6         -5.313254   1.000000
      7         -4.738563   1.000000
      8         -4.035993   1.000000
      9         -3.938797   1.000000
     10         -3.384080   1.000000
     11         -2.410816   1.000000
     12         -2.260392   1.000000
     13         -2.248733   1.000000
     14         -1.230671   1.000000
     15         -0.012207   1.000000
     16          0.036668   1.000000
     17          0.099659   1.000000
     18          0.176918   1.000000
     19          0.510135   1.000000
     20          2.030157   0.000010
     21          2.082164   0.000000
     22          2.149764   0.000000
     23          5.465427   0.000000
     24          5.773199   0.000000
     25          5.815541   0.000000
     26          6.157367   0.000000
     27          6.736055   0.000000
     28          7.301075   0.000000
     29          7.970483   0.000000
     30          8.713568   0.000000
     31          8.958828   0.000000
     32          8.996206   0.000000
     33          9.052082   0.000000
     34         10.104903   0.000000
     35         11.170327   0.000000
     36         11.186718   0.000000
     37         11.411726   0.000000
     38         11.704915   0.000000
     39         12.028308   0.000000
     40         12.403844   0.000000
     41         13.025755   0.000000
     42         13.358704   0.000000
     43         13.772943   0.000000
     44         15.060419   0.000000
     45         15.696914   0.000000
     46         16.064968   0.000000
     47         16.247495   0.000000
     48         16.422067   0.000000
 
  0.1578947E+00  0.0000000E+00  0.0000000E+00  0.2293315E-03
      1        -12.678759   1.000000
      2        -11.668148   1.000000
      3         -8.635600   1.000000
      4         -8.410173   1.000000
      5         -5.992328   1.000000
      6         -5.502025   1.000000
      7         -4.794505   1.000000
      8         -3.896401   1.000000
      9         -3.775562   1.000000
     10         -3.172006   1.000000
     11         -2.397202   1.000000
     12         -2.350659   1.000000
     13         -2.257034   1.000000
     14         -1.435225   1.000000
     15          0.010035   1.000000
     16          0.017146   1.000000
     17          0.080328   1.000000
     18          0.197249   1.000000
     19          0.449816   1.000000
     20          1.971499   0.004490
     21          2.029728   0.000010
     22          2.067268   0.000000
     23          5.521723   0.000000
     24          5.743041   0.000000
     25          5.898235   0.000000
     26          6.370886   0.000000
     27          6.679893   0.000000
     28          7.115021   0.000000
     29          8.067436   0.000000
     30          8.798720   0.000000
     31          9.032350   0.000000
     32          9.163642   0.000000
     33          9.181349   0.000000
     34         10.205088   0.000000
     35         10.910298   0.000000
     36         11.094227   0.000000
     37         11.238913   0.000000
     38         11.679552   0.000000
     39         12.169004   0.000000
     40         12.470214   0.000000
     41         13.124741   0.000000
     42         13.135313   0.000000
     43         14.116096   0.000000
     44         14.820981   0.000000
     45         15.759285   0.000000
     46         15.828156   0.000000
     47         16.322397   0.000000
     48         16.494274   0.000000
 
  0.2105263E+00  0.0000000E+00  0.0000000E+00  0.2293315E-03
      1        -12.636994   1.000000
      2        -11.734300   1.000000
      3         -8.614473   1.000000
      4         -8.401972   1.000000
      5         -5.971078   1.000000
      6         -5.680391   1.000000
      7         -4.794564   1.000000
      8         -3.837552   1.000000
      9         -3.501377   1.000000
     10         -2.929588   1.000000
     11         -2.466059   1.000000
     12         -2.377426   1.000000
     13         -2.268187   1.000000
     14         -1.692361   1.000000
     15         -0.109826   1.000000
     16          0.056437   1.000000
     17          0.133025   1.000000
     18          0.173566   1.000000
     19          0.415009   1.000000
     20          1.897828   0.298372
     21          1.953261   0.017998
     22          1.962544   0.009149
     23          5.585510   0.000000
     24          5.712137   0.000000
     25          6.047515   0.000000
     26          6.613489   0.000000
     27          6.623360   0.000000
     28          6.951152   0.000000
     29          8.150646   0.000000
     30          8.888492   0.000000
     31          8.997180   0.000000
     32          9.393417   0.000000
     33          9.408677   0.000000
     34         10.361849   0.000000
     35         10.585413   0.000000
     36         10.775104   0.000000
     37         11.306160   0.000000
     38         11.724108   0.000000
     39         12.304495   0.000000
     40         12.602225   0.000000
     41         12.841456   0.000000
     42         13.081332   0.000000
     43         14.489254   0.000000
     44         14.748309   0.000000
     45         15.443164   0.000000
     46         15.979429   0.000000
     47         16.217869   0.000000
     48         16.492354   0.000000
 
  0.2631579E+00  0.0000000E+00  0.0000000E+00  0.2293315E-03
      1        -12.584188   1.000000
      2        -11.813211   1.000000
      3         -8.587359   1.000000
      4         -8.395148   1.000000
      5         -5.982724   1.000000
      6         -5.837300   1.000000
      7         -4.714093   1.000000
      8         -3.762797   1.000000
      9         -3.233093   1.000000
     10         -2.675045   1.000000
     11         -2.599090   1.000000
     12         -2.352608   1.000000
     13         -2.280874   1.000000
     14         -1.977654   1.000000
     15         -0.254229   1.000000
     16          0.059324   1.000000
     17          0.103609   1.000000
     18          0.188566   1.000000
     19          0.455223   1.000000
     20          1.811563   0.971987
     21          1.817130   0.960231
     22          1.886121   0.421526
     23          5.646608   0.000000
     24          5.687885   0.000000
     25          6.259181   0.000000
     26          6.546335   0.000000
     27          6.812795   0.000000
     28          6.907519   0.000000
     29          8.225181   0.000000
     30          8.931182   0.000000
     31          8.936759   0.000000
     32          9.634653   0.000000
     33          9.669347   0.000000
     34         10.214842   0.000000
     35         10.518797   0.000000
     36         10.590356   0.000000
     37         11.370932   0.000000
     38         11.842504   0.000000
     39         12.391616   0.000000
     40         12.527537   0.000000
     41         12.825193   0.000000
     42         12.843390   0.000000
     43         14.833374   0.000000
     44         14.870142   0.000000
     45         15.130431   0.000000
     46         15.968378   0.000000
     47         16.097081   0.000000
     48         16.137943   0.000000
 
  0.3157895E+00  0.0000000E+00  0.0000000E+00  0.2293315E-03
      1        -12.521039   1.000000
      2        -11.901316   1.000000
      3         -8.555378   1.000000
      4         -8.392115   1.000000
      5         -6.023479   1.000000
      6         -5.966488   1.000000
      7         -4.553735   1.000000
      8         -3.672871   1.000000
      9         -3.002109   1.000000
     10         -2.742865   1.000000
     11         -2.433788   1.000000
     12         -2.371366   1.000000
     13         -2.284022   1.000000
     14         -2.206686   1.000000
     15         -0.414331   1.000000
     16         -0.111377   1.000000
     17          0.155649   1.000000
     18          0.240439   1.000000
     19          0.543078   1.000000
     20          1.648585   1.000000
     21          1.738785   0.999964
     22          1.806903   0.979457
     23          5.675365   0.000000
     24          5.695948   0.000000
     25          6.488399   0.000000
     26          6.526285   0.000000
     27          6.698923   0.000000
     28          7.217610   0.000000
     29          8.292779   0.000000
     30          8.843067   0.000000
     31          8.871471   0.000000
     32          9.820555   0.000000
     33          9.885349   0.000000
     34          9.937971   0.000000
     35         10.399272   0.000000
     36         10.898558   0.000000
     37         11.405116   0.000000
     38         12.023362   0.000000
     39         12.196325   0.000000
     40         12.457128   0.000000
     41         12.504375   0.000000
     42         13.083765   0.000000
     43         14.841891   0.000000
     44         14.955741   0.000000
     45         15.245324   0.000000
     46         15.604322   0.000000
     47         15.660435   0.000000
     48         16.290134   0.000000
 
  0.3684211E+00  0.0000000E+00  0.0000000E+00  0.2293315E-03
      1        -12.448454   1.000000
      2        -11.995113   1.000000
      3         -8.520448   1.000000
      4         -8.395218   1.000000
      5         -6.076270   1.000000
      6         -6.063857   1.000000
      7         -4.329942   1.000000
      8         -3.568733   1.000000
      9         -2.919470   1.000000
     10         -2.891532   1.000000
     11         -2.524978   1.000000
     12         -2.348500   1.000000
     13         -2.176632   1.000000
     14         -2.153556   1.000000
     15         -0.574295   1.000000
     16         -0.307214   1.000000
     17          0.208317   1.000000
     18          0.281934   1.000000
     19          0.658079   1.000000
     20          1.472547   1.000000
     21          1.672793   1.000000
     22          1.732123   0.999984
     23          5.676321   0.000000
     24          5.726665   0.000000
     25          6.448944   0.000000
     26          6.606876   0.000000
     27          6.840210   0.000000
     28          7.549016   0.000000
     29          8.355885   0.000000
     30          8.654453   0.000000
     31          8.745669   0.000000
     32          9.420805   0.000000
     33         10.144461   0.000000
     34         10.193606   0.000000
     35         10.452409   0.000000
     36         11.277009   0.000000
     37         11.387926   0.000000
     38         11.858040   0.000000
     39         12.131423   0.000000
     40         12.254654   0.000000
     41         12.511142   0.000000
     42         13.289993   0.000000
     43         14.619333   0.000000
     44         15.014475   0.000000
     45         15.138518   0.000000
     46         15.335391   0.000000
     47         15.603773   0.000000
     48         16.413802   0.000000
 
  0.4210526E+00  0.0000000E+00  0.0000000E+00  0.2293315E-03
      1        -12.367595   1.000000
      2        -12.091340   1.000000
      3         -8.485197   1.000000
      4         -8.406177   1.000000
      5         -6.127134   1.000000
      6         -6.123799   1.000000
      7         -4.060694   1.000000
      8         -3.451624   1.000000
      9         -3.133159   1.000000
     10         -3.040259   1.000000
     11         -2.503095   1.000000
     12         -2.367067   1.000000
     13         -2.057586   1.000000
     14         -1.974301   1.000000
     15         -0.702672   1.000000
     16         -0.504491   1.000000
     17          0.256012   1.000000
     18          0.306667   1.000000
     19          0.793924   1.000000
     20          1.292054   1.000000
     21          1.628546   1.000000
     22          1.669667   1.000000
     23          5.688963   0.000000
     24          5.735980   0.000000
     25          6.434268   0.000000
     26          6.534218   0.000000
     27          7.191083   0.000000
     28          7.898080   0.000000
     29          8.328946   0.000000
     30          8.418669   0.000000
     31          8.650015   0.000000
     32          9.025296   0.000000
     33         10.396810   0.000000
     34         10.418052   0.000000
     35         10.636266   0.000000
     36         11.333044   0.000000
     37         11.521767   0.000000
     38         11.683966   0.000000
     39         11.785058   0.000000
     40         12.510853   0.000000
     41         12.515128   0.000000
     42         13.312755   0.000000
     43         14.541438   0.000000
     44         14.817770   0.000000
     45         14.973502   0.000000
     46         15.028704   0.000000
     47         15.932908   0.000000
     48         16.469227   0.000000
 
  0.4736842E+00  0.0000000E+00  0.0000000E+00  0.2293315E-03
      1        -12.279897   1.000000
      2        -12.187108   1.000000
      3         -8.452628   1.000000
      4         -8.425594   1.000000
      5         -6.156157   1.000000
      6         -6.153295   1.000000
      7         -3.760854   1.000000
      8         -3.444299   1.000000
      9         -3.323107   1.000000
     10         -3.185159   1.000000
     11         -2.443423   1.000000
     12         -2.399203   1.000000
     13         -1.934255   1.000000
     14         -1.889764   1.000000
     15         -0.746032   1.000000
     16         -0.668639   1.000000
     17          0.292099   1.000000
     18          0.310234   1.000000
     19          0.947329   1.000000
     20          1.114901   1.000000
     21          1.612825   1.000000
     22          1.627624   1.000000
     23          5.708438   0.000000
     24          5.727188   0.000000
     25          6.445582   0.000000
     26          6.480004   0.000000
     27          7.567338   0.000000
     28          7.954044   0.000000
     29          8.261925   0.000000
     30          8.486272   0.000000
     31          8.562839   0.000000
     32          8.638287   0.000000
     33         10.575367   0.000000
     34         10.578186   0.000000
     35         10.895573   0.000000
     36         11.196936   0.000000
     37         11.318320   0.000000
     38         11.471208   0.000000
     39         12.094260   0.000000
     40         12.383032   0.000000
     41         12.803956   0.000000
     42         13.102895   0.000000
     43         14.622757   0.000000
     44         14.738945   0.000000
     45         14.780894   0.000000
     46         14.853183   0.000000
     47         16.212507   0.000000
     48         16.405356   0.000000
 
  0.0000000E+00  0.3703704E-01  0.0000000E+00  0.2293315E-03
      1        -12.729989   1.000000
      2        -11.573174   1.000000
      3         -8.659259   1.000000
      4         -8.421360   1.000000
      5         -6.073308   1.000000
      6         -5.053796   1.000000
      7         -4.634804   1.000000
      8         -4.358569   1.000000
      9         -4.048897   1.000000
     10         -3.594610   1.000000
     11         -2.600363   1.000000
     12         -2.323421   1.000000
     13         -1.809139   1.000000
     14         -1.051239   1.000000
     15         -0.076692   1.000000
     16         -0.050066   1.000000
     17          0.152815   1.000000
     18          0.196439   1.000000
     19          0.581828   1.000000
     20          2.028250   0.000012
     21          2.089688   0.000000
     22          2.236536   0.000000
     23          5.448586   0.000000
     24          5.760731   0.000000
     25          5.862143   0.000000
     26          5.878708   0.000000
     27          6.829674   0.000000
     28          7.729623   0.000000
     29          7.730587   0.000000
     30          8.510222   0.000000
     31          8.753672   0.000000
     32          8.921910   0.000000
     33          9.050266   0.000000
     34         10.116160   0.000000
     35         11.178714   0.000000
     36         11.389370   0.000000
     37         11.759705   0.000000
     38         11.818817   0.000000
     39         11.914480   0.000000
     40         12.395465   0.000000
     41         12.807313   0.000000
     42         13.350454   0.000000
     43         13.527887   0.000000
     44         15.539875   0.000000
     45         15.550673   0.000000
     46         15.954695   0.000000
     47         16.333602   0.000000
     48         16.485449   0.000000
 
  0.5263158E-01  0.3703704E-01  0.0000000E+00  0.4586630E-03
      1        -12.723887   1.000000
      2        -11.583810   1.000000
      3         -8.656426   1.000000
      4         -8.419546   1.000000
      5         -6.060424   1.000000
      6         -5.136192   1.000000
      7         -4.666665   1.000000
      8         -4.266156   1.000000
      9         -4.035721   1.000000
     10         -3.535478   1.000000
     11         -2.609872   1.000000
     12         -2.320662   1.000000
     13         -1.821785   1.000000
     14         -1.097355   1.000000
     15         -0.070752   1.000000
     16         -0.041318   1.000000
     17          0.160172   1.000000
     18          0.179583   1.000000
     19          0.567750   1.000000
     20          2.015609   0.000057
     21          2.078259   0.000000
     22          2.219661   0.000000
     23          5.462743   0.000000
     24          5.748170   0.000000
     25          5.840636   0.000000
     26          5.965733   0.000000
     27          6.816466   0.000000
     28          7.542030   0.000000
     29          7.888090   0.000000
     30          8.531574   0.000000
     31          8.810075   0.000000
     32          8.958237   0.000000
     33          9.054463   0.000000
     34         10.130732   0.000000
     35         11.188665   0.000000
     36         11.329636   0.000000
     37         11.656044   0.000000
     38         11.781881   0.000000
     39         11.947369   0.000000
     40         12.407481   0.000000
     41         12.877250   0.000000
     42         13.460012   0.000000
     43         13.470848   0.000000
     44         15.369695   0.000000
     45         15.573216   0.000000
     46         16.069169   0.000000
     47         16.317968   0.000000
     48         16.358024   0.000000
 
  0.1052632E+00  0.3703704E-01  0.0000000E+00  0.4586630E-03
      1        -12.705636   1.000000
      2        -11.615070   1.000000
      3         -8.647779   1.000000
      4         -8.414449   1.000000
      5         -6.026950   1.000000
      6         -5.308911   1.000000
      7         -4.735647   1.000000
      8         -4.092745   1.000000
      9         -3.967286   1.000000
     10         -3.380928   1.000000
     11         -2.638688   1.000000
     12         -2.312335   1.000000
     13         -1.857070   1.000000
     14         -1.229994   1.000000
     15         -0.053456   1.000000
     16         -0.020654   1.000000
     17          0.133703   1.000000
     18          0.180469   1.000000
     19          0.526062   1.000000
     20          1.978758   0.002415
     21          2.044953   0.000001
     22          2.169041   0.000000
     23          5.502284   0.000000
     24          5.755352   0.000000
     25          5.830201   0.000000
     26          6.127828   0.000000
     27          6.778942   0.000000
     28          7.346537   0.000000
     29          8.008949   0.000000
     30          8.592135   0.000000
     31          8.960848   0.000000
     32          9.059122   0.000000
     33          9.068783   0.000000
     34         10.175396   0.000000
     35         11.158932   0.000000
     36         11.218932   0.000000
     37         11.400056   0.000000
     38         11.722112   0.000000
     39         12.042742   0.000000
     40         12.443123   0.000000
     41         13.028377   0.000000
     42         13.312396   0.000000
     43         13.726404   0.000000
     44         15.074959   0.000000
     45         15.661908   0.000000
     46         16.057753   0.000000
     47         16.186721   0.000000
     48         16.433004   0.000000
 
  0.1578947E+00  0.3703704E-01  0.0000000E+00  0.4586630E-03
      1        -12.675458   1.000000
      2        -11.665142   1.000000
      3         -8.632970   1.000000
      4         -8.407028   1.000000
      5         -5.988354   1.000000
      6         -5.497809   1.000000
      7         -4.791791   1.000000
      8         -4.006610   1.000000
      9         -3.751047   1.000000
     10         -3.169686   1.000000
     11         -2.687120   1.000000
     12         -2.298242   1.000000
     13         -1.908225   1.000000
     14         -1.434446   1.000000
     15         -0.026637   1.000000
     16         -0.025449   1.000000
     17          0.094060   1.000000
     18          0.204359   1.000000
     19          0.464598   1.000000
     20          1.920851   0.118944
     21          1.992580   0.000666
     22          2.085331   0.000000
     23          5.559482   0.000000
     24          5.757478   0.000000
     25          5.881402   0.000000
     26          6.338415   0.000000
     27          6.722948   0.000000
     28          7.164237   0.000000
     29          8.104312   0.000000
     30          8.680309   0.000000
     31          9.060378   0.000000
     32          9.167043   0.000000
     33          9.239078   0.000000
     34         10.255305   0.000000
     35         10.899426   0.000000
     36         11.082272   0.000000
     37         11.269285   0.000000
     38         11.703454   0.000000
     39         12.184146   0.000000
     40         12.508161   0.000000
     41         13.079654   0.000000
     42         13.139304   0.000000
     43         14.060210   0.000000
     44         14.848419   0.000000
     45         15.737463   0.000000
     46         15.815263   0.000000
     47         16.221358   0.000000
     48         16.528961   0.000000
 
  0.2105263E+00  0.3703704E-01  0.0000000E+00  0.4586630E-03
      1        -12.633709   1.000000
      2        -11.731283   1.000000
      3         -8.611829   1.000000
      4         -8.398876   1.000000
      5         -5.966890   1.000000
      6         -5.676193   1.000000
      7         -4.792098   1.000000
      8         -3.942967   1.000000
      9         -3.482106   1.000000
     10         -2.933153   1.000000
     11         -2.750798   1.000000
     12         -2.278190   1.000000
     13         -1.967103   1.000000
     14         -1.691407   1.000000
     15         -0.116621   1.000000
     16          0.004070   1.000000
     17          0.119554   1.000000
     18          0.194960   1.000000
     19          0.423976   1.000000
     20          1.846865   0.819209
     21          1.925494   0.094825
     22          1.971079   0.004648
     23          5.624069   0.000000
     24          5.734257   0.000000
     25          6.023654   0.000000
     26          6.583403   0.000000
     27          6.656769   0.000000
     28          7.009311   0.000000
     29          8.186247   0.000000
     30          8.771782   0.000000
     31          9.037539   0.000000
     32          9.397697   0.000000
     33          9.464114   0.000000
     34         10.373746   0.000000
     35         10.582360   0.000000
     36         10.770053   0.000000
     37         11.333605   0.000000
     38         11.756218   0.000000
     39         12.323559   0.000000
     40         12.633702   0.000000
     41         12.800211   0.000000
     42         13.086304   0.000000
     43         14.403195   0.000000
     44         14.808960   0.000000
     45         15.454862   0.000000
     46         15.925757   0.000000
     47         16.145903   0.000000
     48         16.503183   0.000000
 
  0.2631579E+00  0.3703704E-01  0.0000000E+00  0.4586630E-03
      1        -12.580917   1.000000
      2        -11.810173   1.000000
      3         -8.584703   1.000000
      4         -8.392112   1.000000
      5         -5.978366   1.000000
      6         -5.833069   1.000000
      7         -4.711849   1.000000
      8         -3.869368   1.000000
      9         -3.212493   1.000000
     10         -2.861843   1.000000
     11         -2.655107   1.000000
     12         -2.254464   1.000000
     13         -2.026939   1.000000
     14         -1.975857   1.000000
     15         -0.254008   1.000000
     16          0.002671   1.000000
     17          0.134623   1.000000
     18          0.169310   1.000000
     19          0.458829   1.000000
     20          1.760565   0.999601
     21          1.834410   0.896996
     22          1.849200   0.801307
     23          5.685548   0.000000
     24          5.712715   0.000000
     25          6.233435   0.000000
     26          6.589960   0.000000
     27          6.791555   0.000000
     28          6.948531   0.000000
     29          8.259647   0.000000
     30          8.820986   0.000000
     31          8.988664   0.000000
     32          9.639500   0.000000
     33          9.717367   0.000000
     34         10.189080   0.000000
     35         10.462825   0.000000
     36         10.654500   0.000000
     37         11.393628   0.000000
     38         11.882295   0.000000
     39         12.414741   0.000000
     40         12.485473   0.000000
     41         12.848932   0.000000
     42         12.856586   0.000000
     43         14.697523   0.000000
     44         14.983927   0.000000
     45         15.151765   0.000000
     46         15.939193   0.000000
     47         15.951416   0.000000
     48         16.252470   0.000000
 
  0.3157895E+00  0.3703704E-01  0.0000000E+00  0.4586630E-03
      1        -12.517784   1.000000
      2        -11.898249   1.000000
      3         -8.552704   1.000000
      4         -8.389143   1.000000
      5         -6.019024   1.000000
      6         -5.962200   1.000000
      7         -4.551654   1.000000
      8         -3.783129   1.000000