 running   24 mpi-ranks, with    1 threads/rank, on    1 nodes
 distrk:  each k-point on   24 cores,    1 groups
 distr:  one band on    1 cores,   24 groups
 vasp.6.4.3 19Mar24 (build May 31 2024 16:31:43) complex                        
  
 POSCAR found type information on POSCAR B 
 POSCAR found :  1 types and      14 ions
 Reading from existing POTCAR
 scaLAPACK will be used
 Reading from existing POTCAR
 LDA part: xc-table for (Slater+PW92), standard interpolation
 POSCAR, INCAR and KPOINTS ok, starting setup
 FFT: planning ... GRIDC
 FFT: planning ... GRID_SOFT
 FFT: planning ... GRID
 WAVECAR not read
 entering main loop
       N       E                     dE             d eps       ncg     rms          rms(c)
DAV:   1     0.791804213823E+02    0.79180E+02   -0.19982E+04 16800   0.861E+02
DAV:   2    -0.916702687056E+02   -0.17085E+03   -0.15997E+03 22968   0.167E+02
DAV:   3    -0.974844231246E+02   -0.58142E+01   -0.57808E+01 24912   0.275E+01
DAV:   4    -0.975190449985E+02   -0.34622E-01   -0.34620E-01 19776   0.245E+00
DAV:   5    -0.975194356045E+02   -0.39061E-03   -0.39060E-03 25032   0.249E-01    0.122E+01
DAV:   6    -0.922006333755E+02    0.53188E+01   -0.38811E+00 24336   0.651E+00    0.675E+00
DAV:   7    -0.905747008747E+02    0.16259E+01   -0.31695E+00 25176   0.580E+00    0.169E+00
DAV:   8    -0.905872375425E+02   -0.12537E-01   -0.23127E-01 18624   0.166E+00    0.702E-01
DAV:   9    -0.906014318910E+02   -0.14194E-01   -0.16752E-02 23352   0.438E-01    0.196E-01
DAV:  10    -0.906054657875E+02   -0.40339E-02   -0.20950E-03 19032   0.161E-01    0.608E-02
DAV:  11    -0.906065349179E+02   -0.10691E-02   -0.62904E-04 21624   0.870E-02    0.319E-02
DAV:  12    -0.906066485474E+02   -0.11363E-03   -0.91076E-05 20904   0.369E-02    0.427E-03
DAV:  13    -0.906066534189E+02   -0.48715E-05   -0.40741E-06 23328   0.876E-03    0.177E-03
DAV:  14    -0.906066540919E+02   -0.67301E-06   -0.27770E-07 20640   0.228E-03
   1 F= -.90606654E+02 E0= -.90605045E+02  d E =-.321772E-02
