<?xml version="1.0" encoding="ISO-8859-1"?>
<modeling>
 <generator>
  <i name="program" type="string">vasp </i>
  <i name="version" type="string">6.4.3  </i>
  <i name="subversion" type="string">19Mar24 (build May 31 2024 16:31:43) complex                          parallel </i>
  <i name="platform" type="string">LinuxIFC </i>
  <i name="date" type="string">2024 11 11 </i>
  <i name="time" type="string">15:58:48 </i>
 </generator>
 <incar>
  <i type="string" name="SYSTEM">Convergence</i>
  <i type="int" name="ISTART">     0</i>
  <i type="string" name="PREC">Accurate</i>
  <i type="string" name="ALGO">Normal</i>
  <i type="int" name="ISPIN">     1</i>
  <i type="int" name="ICHARG">     2</i>
  <i type="int" name="NELM">   100</i>
  <i type="int" name="IBRION">    -1</i>
  <i name="EDIFF">      0.00000100</i>
  <i name="EDIFFG">     -0.00100000</i>
  <i type="int" name="NSW">     0</i>
  <i type="int" name="ISIF">     2</i>
  <i name="ENCUT">    600.00000000</i>
  <i name="POTIM">      0.50000000</i>
  <i type="int" name="ISMEAR">     0</i>
  <i name="SIGMA">      0.05000000</i>
  <i type="logical" name="LWAVE"> F  </i>
  <i type="logical" name="LCHARG"> F  </i>
  <i type="string" name="GGA">PE</i>
 </incar>
 <primitive_cell>
  <structure name="primitive_cell" >
   <crystal>
    <varray name="basis" >
     <v>       5.71067280       0.00000000       0.00000000 </v>
     <v>       0.00000000       4.05761496       0.00000000 </v>
     <v>       0.00000000       0.00000000       6.21909008 </v>
    </varray>
    <i name="volume">    144.10696041 </i>
    <varray name="rec_basis" >
     <v>       0.17511072       0.00000000       0.00000000 </v>
     <v>       0.00000000       0.24645020       0.00000000 </v>
     <v>       0.00000000       0.00000000       0.16079523 </v>
    </varray>
   </crystal>
   <varray name="positions" >
    <v>       0.52123000       0.50000000       0.63796000 </v>
    <v>       0.47877000       0.50000000       0.36204000 </v>
    <v>       0.97877000       0.50000000       0.63796000 </v>
    <v>       0.02123000       0.50000000       0.36204000 </v>
    <v>       0.60090000       0.50000000       0.89991000 </v>
    <v>       0.39910000       0.50000000       0.10009000 </v>
    <v>       0.89910000       0.50000000       0.89991000 </v>
    <v>       0.10090000       0.50000000       0.10009000 </v>
    <v>       0.75000000       0.79171000       0.72973000 </v>
    <v>       0.25000000       0.20829000       0.27027000 </v>
    <v>       0.75000000       0.20829000       0.72973000 </v>
    <v>       0.25000000       0.79171000       0.27027000 </v>
    <v>       0.25000000       0.50000000       0.52367000 </v>
    <v>       0.75000000       0.50000000       0.47633000 </v>
   </varray>
  </structure>
  <varray name="primitive_index" >
   <v type="int" >        1 </v>
   <v type="int" >        2 </v>
   <v type="int" >        3 </v>
   <v type="int" >        4 </v>
   <v type="int" >        5 </v>
   <v type="int" >        6 </v>
   <v type="int" >        7 </v>
   <v type="int" >        8 </v>
   <v type="int" >        9 </v>
   <v type="int" >       10 </v>
   <v type="int" >       11 </v>
   <v type="int" >       12 </v>
   <v type="int" >       13 </v>
   <v type="int" >       14 </v>
  </varray>
 </primitive_cell>
 <kpoints>
  <generation param="Monkhorst-Pack">
   <v type="int" name="divisions">      10       14        9 </v>
   <v name="usershift">      0.00000000       0.00000000       0.00000000 </v>
   <v name="genvec1">      0.10000000       0.00000000       0.00000000 </v>
   <v name="genvec2">      0.00000000       0.07142857       0.00000000 </v>
   <v name="genvec3">      0.00000000       0.00000000       0.11111111 </v>
   <v name="shift">      0.50000000       0.50000000       0.00000000 </v>
  </generation>
  <varray name="kpointlist" >
   <v>       0.05000000       0.03571429       0.00000000 </v>
   <v>       0.15000000       0.03571429       0.00000000 </v>
   <v>       0.25000000       0.03571429       0.00000000 </v>
   <v>       0.35000000       0.03571429       0.00000000 </v>
   <v>       0.45000000       0.03571429       0.00000000 </v>
   <v>       0.05000000       0.10714286       0.00000000 </v>
   <v>       0.15000000       0.10714286       0.00000000 </v>
   <v>       0.25000000       0.10714286       0.00000000 </v>
   <v>       0.35000000       0.10714286       0.00000000 </v>
   <v>       0.45000000       0.10714286       0.00000000 </v>
   <v>       0.05000000       0.17857143       0.00000000 </v>
   <v>       0.15000000       0.17857143       0.00000000 </v>
   <v>       0.25000000       0.17857143       0.00000000 </v>
   <v>       0.35000000       0.17857143       0.00000000 </v>
   <v>       0.45000000       0.17857143       0.00000000 </v>
   <v>       0.05000000       0.25000000       0.00000000 </v>
   <v>       0.15000000       0.25000000       0.00000000 </v>
   <v>       0.25000000       0.25000000       0.00000000 </v>
   <v>       0.35000000       0.25000000       0.00000000 </v>
   <v>       0.45000000       0.25000000       0.00000000 </v>
   <v>       0.05000000       0.32142857       0.00000000 </v>
   <v>       0.15000000       0.32142857       0.00000000 </v>
   <v>       0.25000000       0.32142857       0.00000000 </v>
   <v>       0.35000000       0.32142857       0.00000000 </v>
   <v>       0.45000000       0.32142857       0.00000000 </v>
   <v>       0.05000000       0.39285714       0.00000000 </v>
   <v>       0.15000000       0.39285714       0.00000000 </v>
   <v>       0.25000000       0.39285714       0.00000000 </v>
   <v>       0.35000000       0.39285714       0.00000000 </v>
   <v>       0.45000000       0.39285714       0.00000000 </v>
   <v>       0.05000000       0.46428571       0.00000000 </v>
   <v>       0.15000000       0.46428571       0.00000000 </v>
   <v>       0.25000000       0.46428571       0.00000000 </v>
   <v>       0.35000000       0.46428571       0.00000000 </v>
   <v>       0.45000000       0.46428571       0.00000000 </v>
   <v>       0.05000000       0.03571429       0.11111111 </v>
   <v>       0.15000000       0.03571429       0.11111111 </v>
   <v>       0.25000000       0.03571429       0.11111111 </v>
   <v>       0.35000000       0.03571429       0.11111111 </v>
   <v>       0.45000000       0.03571429       0.11111111 </v>
   <v>       0.05000000       0.10714286       0.11111111 </v>
   <v>       0.15000000       0.10714286       0.11111111 </v>
   <v>       0.25000000       0.10714286       0.11111111 </v>
   <v>       0.35000000       0.10714286       0.11111111 </v>
   <v>       0.45000000       0.10714286       0.11111111 </v>
   <v>       0.05000000       0.17857143       0.11111111 </v>
   <v>       0.15000000       0.17857143       0.11111111 </v>
   <v>       0.25000000       0.17857143       0.11111111 </v>
   <v>       0.35000000       0.17857143       0.11111111 </v>
   <v>       0.45000000       0.17857143       0.11111111 </v>
   <v>       0.05000000       0.25000000       0.11111111 </v>
   <v>       0.15000000       0.25000000       0.11111111 </v>
   <v>       0.25000000       0.25000000       0.11111111 </v>
   <v>       0.35000000       0.25000000       0.11111111 </v>
   <v>       0.45000000       0.25000000       0.11111111 </v>
   <v>       0.05000000       0.32142857       0.11111111 </v>
   <v>       0.15000000       0.32142857       0.11111111 </v>
   <v>       0.25000000       0.32142857       0.11111111 </v>
   <v>       0.35000000       0.32142857       0.11111111 </v>
   <v>       0.45000000       0.32142857       0.11111111 </v>
   <v>       0.05000000       0.39285714       0.11111111 </v>
   <v>       0.15000000       0.39285714       0.11111111 </v>
   <v>       0.25000000       0.39285714       0.11111111 </v>
   <v>       0.35000000       0.39285714       0.11111111 </v>
   <v>       0.45000000       0.39285714       0.11111111 </v>
   <v>       0.05000000       0.46428571       0.11111111 </v>
   <v>       0.15000000       0.46428571       0.11111111 </v>
   <v>       0.25000000       0.46428571       0.11111111 </v>
   <v>       0.35000000       0.46428571       0.11111111 </v>
   <v>       0.45000000       0.46428571       0.11111111 </v>
   <v>       0.05000000       0.03571429       0.22222222 </v>
   <v>       0.15000000       0.03571429       0.22222222 </v>
   <v>       0.25000000       0.03571429       0.22222222 </v>
   <v>       0.35000000       0.03571429       0.22222222 </v>
   <v>       0.45000000       0.03571429       0.22222222 </v>
   <v>       0.05000000       0.10714286       0.22222222 </v>
   <v>       0.15000000       0.10714286       0.22222222 </v>
   <v>       0.25000000       0.10714286       0.22222222 </v>
   <v>       0.35000000       0.10714286       0.22222222 </v>
   <v>       0.45000000       0.10714286       0.22222222 </v>
   <v>       0.05000000       0.17857143       0.22222222 </v>
   <v>       0.15000000       0.17857143       0.22222222 </v>
   <v>       0.25000000       0.17857143       0.22222222 </v>
   <v>       0.35000000       0.17857143       0.22222222 </v>
   <v>       0.45000000       0.17857143       0.22222222 </v>
   <v>       0.05000000       0.25000000       0.22222222 </v>
   <v>       0.15000000       0.25000000       0.22222222 </v>
   <v>       0.25000000       0.25000000       0.22222222 </v>
   <v>       0.35000000       0.25000000       0.22222222 </v>
   <v>       0.45000000       0.25000000       0.22222222 </v>
   <v>       0.05000000       0.32142857       0.22222222 </v>
   <v>       0.15000000       0.32142857       0.22222222 </v>
   <v>       0.25000000       0.32142857       0.22222222 </v>
   <v>       0.35000000       0.32142857       0.22222222 </v>
   <v>       0.45000000       0.32142857       0.22222222 </v>
   <v>       0.05000000       0.39285714       0.22222222 </v>
   <v>       0.15000000       0.39285714       0.22222222 </v>
   <v>       0.25000000       0.39285714       0.22222222 </v>
   <v>       0.35000000       0.39285714       0.22222222 </v>
   <v>       0.45000000       0.39285714       0.22222222 </v>
   <v>       0.05000000       0.46428571       0.22222222 </v>
   <v>       0.15000000       0.46428571       0.22222222 </v>
   <v>       0.25000000       0.46428571       0.22222222 </v>
   <v>       0.35000000       0.46428571       0.22222222 </v>
   <v>       0.45000000       0.46428571       0.22222222 </v>
   <v>       0.05000000       0.03571429       0.33333333 </v>
   <v>       0.15000000       0.03571429       0.33333333 </v>
   <v>       0.25000000       0.03571429       0.33333333 </v>
   <v>       0.35000000       0.03571429       0.33333333 </v>
   <v>       0.45000000       0.03571429       0.33333333 </v>
   <v>       0.05000000       0.10714286       0.33333333 </v>
   <v>       0.15000000       0.10714286       0.33333333 </v>
   <v>       0.25000000       0.10714286       0.33333333 </v>
   <v>       0.35000000       0.10714286       0.33333333 </v>
   <v>       0.45000000       0.10714286       0.33333333 </v>
   <v>       0.05000000       0.17857143       0.33333333 </v>
   <v>       0.15000000       0.17857143       0.33333333 </v>
   <v>       0.25000000       0.17857143       0.33333333 </v>
   <v>       0.35000000       0.17857143       0.33333333 </v>
   <v>       0.45000000       0.17857143       0.33333333 </v>
   <v>       0.05000000       0.25000000       0.33333333 </v>
   <v>       0.15000000       0.25000000       0.33333333 </v>
   <v>       0.25000000       0.25000000       0.33333333 </v>
   <v>       0.35000000       0.25000000       0.33333333 </v>
   <v>       0.45000000       0.25000000       0.33333333 </v>
   <v>       0.05000000       0.32142857       0.33333333 </v>
   <v>       0.15000000       0.32142857       0.33333333 </v>
   <v>       0.25000000       0.32142857       0.33333333 </v>
   <v>       0.35000000       0.32142857       0.33333333 </v>
   <v>       0.45000000       0.32142857       0.33333333 </v>
   <v>       0.05000000       0.39285714       0.33333333 </v>
   <v>       0.15000000       0.39285714       0.33333333 </v>
   <v>       0.25000000       0.39285714       0.33333333 </v>
   <v>       0.35000000       0.39285714       0.33333333 </v>
   <v>       0.45000000       0.39285714       0.33333333 </v>
   <v>       0.05000000       0.46428571       0.33333333 </v>
   <v>       0.15000000       0.46428571       0.33333333 </v>
   <v>       0.25000000       0.46428571       0.33333333 </v>
   <v>       0.35000000       0.46428571       0.33333333 </v>
   <v>       0.45000000       0.46428571       0.33333333 </v>
   <v>       0.05000000       0.03571429       0.44444444 </v>
   <v>       0.15000000       0.03571429       0.44444444 </v>
   <v>       0.25000000       0.03571429       0.44444444 </v>
   <v>       0.35000000       0.03571429       0.44444444 </v>
   <v>       0.45000000       0.03571429       0.44444444 </v>
   <v>       0.05000000       0.10714286       0.44444444 </v>
   <v>       0.15000000       0.10714286       0.44444444 </v>
   <v>       0.25000000       0.10714286       0.44444444 </v>
   <v>       0.35000000       0.10714286       0.44444444 </v>
   <v>       0.45000000       0.10714286       0.44444444 </v>
   <v>       0.05000000       0.17857143       0.44444444 </v>
   <v>       0.15000000       0.17857143       0.44444444 </v>
   <v>       0.25000000       0.17857143       0.44444444 </v>
   <v>       0.35000000       0.17857143       0.44444444 </v>
   <v>       0.45000000       0.17857143       0.44444444 </v>
   <v>       0.05000000       0.25000000       0.44444444 </v>
   <v>       0.15000000       0.25000000       0.44444444 </v>
   <v>       0.25000000       0.25000000       0.44444444 </v>
   <v>       0.35000000       0.25000000       0.44444444 </v>
   <v>       0.45000000       0.25000000       0.44444444 </v>
   <v>       0.05000000       0.32142857       0.44444444 </v>
   <v>       0.15000000       0.32142857       0.44444444 </v>
   <v>       0.25000000       0.32142857       0.44444444 </v>
   <v>       0.35000000       0.32142857       0.44444444 </v>
   <v>       0.45000000       0.32142857       0.44444444 </v>
   <v>       0.05000000       0.39285714       0.44444444 </v>
   <v>       0.15000000       0.39285714       0.44444444 </v>
   <v>       0.25000000       0.39285714       0.44444444 </v>
   <v>       0.35000000       0.39285714       0.44444444 </v>
   <v>       0.45000000       0.39285714       0.44444444 </v>
   <v>       0.05000000       0.46428571       0.44444444 </v>
   <v>       0.15000000       0.46428571       0.44444444 </v>
   <v>       0.25000000       0.46428571       0.44444444 </v>
   <v>       0.35000000       0.46428571       0.44444444 </v>
   <v>       0.45000000       0.46428571       0.44444444 </v>
  </varray>
  <varray name="weights" >
   <v>       0.00317460 </v>
   <v>       0.00317460 </v>
   <v>       0.00317460 </v>
   <v>       0.00317460 </v>
   <v>       0.00317460 </v>
   <v>       0.00317460 </v>
   <v>       0.00317460 </v>
   <v>       0.00317460 </v>
   <v>       0.00317460 </v>
   <v>       0.00317460 </v>
   <v>       0.00317460 </v>
   <v>       0.00317460 </v>
   <v>       0.00317460 </v>
   <v>       0.00317460 </v>
   <v>       0.00317460 </v>
   <v>       0.00317460 </v>
   <v>       0.00317460 </v>
   <v>       0.00317460 </v>
   <v>       0.00317460 </v>
   <v>       0.00317460 </v>
   <v>       0.00317460 </v>
   <v>       0.00317460 </v>
   <v>       0.00317460 </v>
   <v>       0.00317460 </v>
   <v>       0.00317460 </v>
   <v>       0.00317460 </v>
   <v>       0.00317460 </v>
   <v>       0.00317460 </v>
   <v>       0.00317460 </v>
   <v>       0.00317460 </v>
   <v>       0.00317460 </v>
   <v>       0.00317460 </v>
   <v>       0.00317460 </v>
   <v>       0.00317460 </v>
   <v>       0.00317460 </v>
   <v>       0.00634921 </v>
   <v>       0.00634921 </v>
   <v>       0.00634921 </v>
   <v>       0.00634921 </v>
   <v>       0.00634921 </v>
   <v>       0.00634921 </v>
   <v>       0.00634921 </v>
   <v>       0.00634921 </v>
   <v>       0.00634921 </v>
   <v>       0.00634921 </v>
   <v>       0.00634921 </v>
   <v>       0.00634921 </v>
   <v>       0.00634921 </v>
   <v>       0.00634921 </v>
   <v>       0.00634921 </v>
   <v>       0.00634921 </v>
   <v>       0.00634921 </v>
   <v>       0.00634921 </v>
   <v>       0.00634921 </v>
   <v>       0.00634921 </v>
   <v>       0.00634921 </v>
   <v>       0.00634921 </v>
   <v>       0.00634921 </v>
   <v>       0.00634921 </v>
   <v>       0.00634921 </v>
   <v>       0.00634921 </v>
   <v>       0.00634921 </v>
   <v>       0.00634921 </v>
   <v>       0.00634921 </v>
   <v>       0.00634921 </v>
   <v>       0.00634921 </v>
   <v>       0.00634921 </v>
   <v>       0.00634921 </v>
   <v>       0.00634921 </v>
   <v>       0.00634921 </v>
   <v>       0.00634921 </v>
   <v>       0.00634921 </v>
   <v>       0.00634921 </v>
   <v>       0.00634921 </v>
   <v>       0.00634921 </v>
   <v>       0.00634921 </v>
   <v>       0.00634921 </v>
   <v>       0.00634921 </v>
   <v>       0.00634921 </v>
   <v>       0.00634921 </v>
   <v>       0.00634921 </v>
   <v>       0.00634921 </v>
   <v>       0.00634921 </v>
   <v>       0.00634921 </v>
   <v>       0.00634921 </v>
   <v>       0.00634921 </v>
   <v>       0.00634921 </v>
   <v>       0.00634921 </v>
   <v>       0.00634921 </v>
   <v>       0.00634921 </v>
   <v>       0.00634921 </v>
   <v>       0.00634921 </v>
   <v>       0.00634921 </v>
   <v>       0.00634921 </v>
   <v>       0.00634921 </v>
   <v>       0.00634921 </v>
   <v>       0.00634921 </v>
   <v>       0.00634921 </v>
   <v>       0.00634921 </v>
   <v>       0.00634921 </v>
   <v>       0.00634921 </v>
   <v>       0.00634921 </v>
   <v>       0.00634921 </v>
   <v>       0.00634921 </v>
   <v>       0.00634921 </v>
   <v>       0.00634921 </v>
   <v>       0.00634921 </v>
   <v>       0.00634921 </v>
   <v>       0.00634921 </v>
   <v>       0.00634921 </v>
   <v>       0.00634921 </v>
   <v>       0.00634921 </v>
   <v>       0.00634921 </v>
   <v>       0.00634921 </v>
   <v>       0.00634921 </v>
   <v>       0.00634921 </v>
   <v>       0.00634921 </v>
   <v>       0.00634921 </v>
   <v>       0.00634921 </v>
   <v>       0.00634921 </v>
   <v>       0.00634921 </v>
   <v>       0.00634921 </v>
   <v>       0.00634921 </v>
   <v>       0.00634921 </v>
   <v>       0.00634921 </v>
   <v>       0.00634921 </v>
   <v>       0.00634921 </v>
   <v>       0.00634921 </v>
   <v>       0.00634921 </v>
   <v>       0.00634921 </v>
   <v>       0.00634921 </v>
   <v>       0.00634921 </v>
   <v>       0.00634921 </v>
   <v>       0.00634921 </v>
   <v>       0.00634921 </v>
   <v>       0.00634921 </v>
   <v>       0.00634921 </v>
   <v>       0.00634921 </v>
   <v>       0.00634921 </v>
   <v>       0.00634921 </v>
   <v>       0.00634921 </v>
   <v>       0.00634921 </v>
   <v>       0.00634921 </v>
   <v>       0.00634921 </v>
   <v>       0.00634921 </v>
   <v>       0.00634921 </v>
   <v>       0.00634921 </v>
   <v>       0.00634921 </v>
   <v>       0.00634921 </v>
   <v>       0.00634921 </v>
   <v>       0.00634921 </v>
   <v>       0.00634921 </v>
   <v>       0.00634921 </v>
   <v>       0.00634921 </v>
   <v>       0.00634921 </v>
   <v>       0.00634921 </v>
   <v>       0.00634921 </v>
   <v>       0.00634921 </v>
   <v>       0.00634921 </v>
   <v>       0.00634921 </v>
   <v>       0.00634921 </v>
   <v>       0.00634921 </v>
   <v>       0.00634921 </v>
   <v>       0.00634921 </v>
   <v>       0.00634921 </v>
   <v>       0.00634921 </v>
   <v>       0.00634921 </v>
   <v>       0.00634921 </v>
   <v>       0.00634921 </v>
   <v>       0.00634921 </v>
   <v>       0.00634921 </v>
   <v>       0.00634921 </v>
   <v>       0.00634921 </v>
   <v>       0.00634921 </v>
   <v>       0.00634921 </v>
  </varray>
 </kpoints>
 <parameters>
  <separator name="general" >
   <i type="string" name="SYSTEM">Convergence</i>
   <i type="logical" name="LCOMPAT"> F  </i>
  </separator>
  <separator name="electronic" >
   <i type="string" name="PREC">accura</i>
   <i name="ENMAX">    600.00000000</i>
   <i name="ENAUG">    535.51400000</i>
   <i name="EDIFF">      0.00000100</i>
   <i type="int" name="IALGO">    38</i>
   <i type="int" name="IWAVPR">    10</i>
   <i type="int" name="NBANDS">    48</i>
   <i type="int" name="NBANDSLOW">    -1</i>
   <i type="int" name="NBANDSHIGH">    -1</i>
   <i name="NELECT">     42.00000000</i>
   <i type="int" name="TURBO">     0</i>
   <i type="int" name="IRESTART">     0</i>
   <i type="int" name="NREBOOT">     0</i>
   <i type="int" name="NMIN">     0</i>
   <i name="EREF">      0.00000000</i>
   <separator name="electronic smearing" >
    <i type="int" name="ISMEAR">     0</i>
    <i name="SIGMA">      0.05000000</i>
    <i name="KSPACING">      0.50000000</i>
    <i type="logical" name="KGAMMA"> T  </i>
    <i type="logical" name="KBLOWUP"> T  </i>
   </separator>
   <separator name="electronic projectors" >
    <i type="logical" name="LREAL"> F  </i>
    <v name="ROPT">      0.00000000</v>
    <i type="int" name="LMAXPAW">  -100</i>
    <i type="int" name="LMAXMIX">     2</i>
    <i type="logical" name="NLSPLINE"> F  </i>
   </separator>
   <separator name="electronic startup" >
    <i type="int" name="ISTART">     0</i>
    <i type="int" name="ICHARG">     2</i>
    <i type="int" name="INIWAV">     1</i>
   </separator>
   <separator name="electronic spin" >
    <i type="int" name="ISPIN">     1</i>
    <i type="logical" name="LNONCOLLINEAR"> F  </i>
    <v name="MAGMOM">      1.00000000      1.00000000      1.00000000      1.00000000      1.00000000      1.00000000      1.00000000      1.00000000      1.00000000      1.00000000      1.00000000      1.00000000      1.00000000      1.00000000</v>
    <i name="NUPDOWN">     -1.00000000</i>
    <i type="logical" name="LSORBIT"> F  </i>
    <v name="SAXIS">      0.00000000      0.00000000      1.00000000</v>
    <i type="logical" name="LSPIRAL"> F  </i>
    <v name="QSPIRAL">      0.00000000      0.00000000      0.00000000</v>
    <i type="logical" name="LZEROZ"> F  </i>
   </separator>
   <separator name="electronic exchange-correlation" >
    <i type="logical" name="LASPH"> F  </i>
   </separator>
   <separator name="electronic convergence" >
    <i type="int" name="NELM">   100</i>
    <i type="int" name="NELMDL">    -5</i>
    <i type="int" name="NELMIN">     2</i>
    <i name="ENINI">    600.00000000</i>
    <separator name="electronic convergence detail" >
     <i type="logical" name="LDIAG"> T  </i>
     <i type="logical" name="LSUBROT"> F  </i>
     <i name="WEIMIN">      0.00000000</i>
     <i name="EBREAK">      0.00000001</i>
     <i name="DEPER">      0.30000000</i>
     <i type="int" name="NRMM">     4</i>
     <i name="TIME">      0.40000000</i>
    </separator>
   </separator>
   <separator name="electronic mixer" >
    <i name="AMIX">      0.40000000</i>
    <i name="BMIX">      1.00000000</i>
    <i name="AMIN">      0.10000000</i>
    <i name="AMIX_MAG">      1.60000000</i>
    <i name="BMIX_MAG">      1.00000000</i>
    <separator name="electronic mixer details" >
     <i type="int" name="IMIX">     4</i>
     <i type="logical" name="MIXFIRST"> F  </i>
     <i type="int" name="MAXMIX">   -45</i>
     <i name="WC">    100.00000000</i>
     <i type="int" name="INIMIX">     1</i>
     <i type="int" name="MIXPRE">     1</i>
     <i type="int" name="MREMOVE">     5</i>
    </separator>
   </separator>
   <separator name="electronic dipolcorrection" >
    <i type="logical" name="LDIPOL"> F  </i>
    <i type="logical" name="LMONO"> F  </i>
    <i type="int" name="IDIPOL">     0</i>
    <i name="EPSILON">      1.00000000</i>
    <v name="DIPOL">   -100.00000000   -100.00000000   -100.00000000</v>
    <i name="EFIELD">      0.00000000</i>
    <i type="logical" name="LVACPOTAV"> F  </i>
   </separator>
  </separator>
  <separator name="grids" >
   <i type="int" name="NGX">    48</i>
   <i type="int" name="NGY">    32</i>
   <i type="int" name="NGZ">    50</i>
   <i type="int" name="NGXF">    96</i>
   <i type="int" name="NGYF">    64</i>
   <i type="int" name="NGZF">   100</i>
   <i type="logical" name="ADDGRID"> F  </i>
  </separator>
  <separator name="ionic" >
   <i type="int" name="NSW">     0</i>
   <i type="int" name="IBRION">    -1</i>
   <i type="int" name="MDALGO">     0</i>
   <i type="int" name="ISIF">     2</i>
   <i name="PSTRESS">      0.00000000</i>
   <i name="EDIFFG">     -0.00100000</i>
   <i type="int" name="NFREE">     0</i>
   <i name="POTIM">      0.50000000</i>
   <i name="SMASS">     -3.00000000</i>
   <i name="SCALEE">      1.00000000</i>
  </separator>
  <separator name="ionic md" >
   <i name="TEBEG">      0.00010000</i>
   <i name="TEEND">      0.00010000</i>
   <i type="int" name="NBLOCK">     1</i>
   <i type="int" name="KBLOCK">     1</i>
   <i type="int" name="NPACO">   256</i>
   <i name="APACO">     10.00000000</i>
  </separator>
  <separator name="symmetry" >
   <i type="int" name="ISYM">     2</i>
   <i name="SYMPREC">      0.00001000</i>
  </separator>
  <separator name="dos" >
   <i type="int" name="LORBIT">     0</i>
   <v name="RWIGS">     -1.00000000</v>
   <i type="int" name="NEDOS">   301</i>
   <i name="EMIN">     10.00000000</i>
   <i name="EMAX">    -10.00000000</i>
   <i name="EFERMI">      0.00000000</i>
  </separator>
  <separator name="writing" >
   <i type="int" name="NWRITE">     2</i>
   <i type="logical" name="LWAVE"> F  </i>
   <i type="logical" name="LDOWNSAMPLE"> F  </i>
   <i type="logical" name="LCHARG"> F  </i>
   <i type="logical" name="LPARD"> F  </i>
   <i type="logical" name="LVTOT"> F  </i>
   <i type="logical" name="LVHAR"> F  </i>
   <i type="logical" name="LELF"> F  </i>
   <i type="logical" name="LOPTICS"> F  </i>
   <v name="STM">      0.00000000      0.00000000      0.00000000      0.00000000      0.00000000      0.00000000      0.00000000</v>
  </separator>
  <separator name="performance" >
   <i type="int" name="NPAR">    24</i>
   <i type="int" name="NSIM">     4</i>
   <i type="int" name="NBLK">    -1</i>
   <i type="logical" name="LPLANE"> T  </i>
   <i type="logical" name="LSCALAPACK"> T  </i>
   <i type="logical" name="LSCAAWARE"> F  </i>
   <i type="logical" name="LSCALU"> F  </i>
   <i type="logical" name="LASYNC"> F  </i>
   <i type="logical" name="LORBITALREAL"> F  </i>
  </separator>
  <separator name="miscellaneous" >
   <i type="int" name="IDIOT">     3</i>
   <i type="int" name="PHON_NSTRUCT">    -1</i>
   <i type="logical" name="LMUSIC"> F  </i>
   <v name="POMASS">     10.81100000</v>
   <v name="DARWINR">      0.00000000</v>
   <v name="DARWINV">      1.00000000</v>
   <i type="logical" name="LCORR"> T  </i>
  </separator>
  <i type="logical" name="GGA_COMPAT"> T  </i>
  <i type="logical" name="LBERRY"> F  </i>
  <i type="int" name="ICORELEVEL">     0</i>
  <i type="logical" name="LDAU"> F  </i>
  <i type="int" name="I_CONSTRAINED_M">     0</i>
  <separator name="electronic exchange-correlation" >
   <i type="string" name="GGA    ">PE</i>
   <i type="string" name="XC_C">1</i>
   <i type="int" name="VOSKOWN">     0</i>
   <i type="logical" name="LHFCALC"> F  </i>
   <i type="string" name="PRECFOCK"></i>
   <i type="logical" name="LSYMGRAD"> F  </i>
   <i type="logical" name="LHFONE"> F  </i>
   <i type="logical" name="LRHFCALC"> F  </i>
   <i type="logical" name="LTHOMAS"> F  </i>
   <i type="logical" name="LMODELHF"> F  </i>
   <i type="logical" name="LFOCKACE"> F  </i>
   <i name="ENCUT4O">     -1.00000000</i>
   <i type="int" name="EXXOEP">     0</i>
   <i type="int" name="FOURORBIT">     0</i>
   <i name="AEXX">      0.00000000</i>
   <i name="HFALPHA">      0.00000000</i>
   <i name="MCALPHA">      0.00000000</i>
   <i name="ALDAX">      1.00000000</i>
   <i name="AGGAX">      1.00000000</i>
   <i name="AMGGAX">      1.00000000</i>
   <i name="ALDAC">      1.00000000</i>
   <i name="AGGAC">      1.00000000</i>
   <i name="AMGGAC">      1.00000000</i>
   <i type="int" name="NKREDX">     1</i>
   <i type="int" name="NKREDY">     1</i>
   <i type="int" name="NKREDZ">     1</i>
   <i type="logical" name="SHIFTRED"> F  </i>
   <i type="logical" name="ODDONLY"> F  </i>
   <i type="logical" name="EVENONLY"> F  </i>
   <i type="int" name="LMAXFOCK">     0</i>
   <i type="int" name="NMAXFOCKAE">     0</i>
   <i type="logical" name="LFOCKAEDFT"> F  </i>
   <i name="HFSCREEN">      0.00000000</i>
   <i name="HFSCREENC">      0.00000000</i>
   <i type="int" name="NBANDSGWLOW">     0</i>
  </separator>
  <separator name="vdW DFT" >
   <i type="logical" name="LUSE_VDW"> F  </i>
   <i type="int" name="IVDW_NL">    -1</i>
   <i type="logical" name="LSPIN_VDW"> F  </i>
   <i name="ZAB_VDW">     -0.84910000</i>
   <i name="GAMMA_VDW">      1.39626340</i>
   <i name="ALPHA_VDW">      0.00000000</i>
   <i name="PARAM1">      0.12340000</i>
   <i name="PARAM2">      1.00000000</i>
   <i name="BPARAM">      6.30000000</i>
   <i name="CPARAM">      0.00930000</i>
  </separator>
  <separator name="model GW" >
   <i type="int" name="MODEL_GW">     0</i>
   <i name="MODEL_EPS0">      6.17601259</i>
   <i name="MODEL_ALPHA">      1.00000000</i>
  </separator>
  <separator name="linear response parameters" >
   <i type="logical" name="LEPSILON"> F  </i>
   <i type="logical" name="LRPA"> F  </i>
   <i type="logical" name="LNABLA"> F  </i>
   <i type="logical" name="LVEL"> F  </i>
   <i name="CSHIFT">      0.10000000</i>
   <i name="OMEGAMAX">     -1.00000000</i>
   <i name="DEG_THRESHOLD">      0.00200000</i>
   <i name="RTIME">     -0.10000000</i>
   <i name="WPLASMAI">      0.00000000</i>
   <v name="DFIELD">      0.00000000      0.00000000      0.00000000</v>
   <v name="WPLASMA">      0.00000000      0.00000000      0.00000000      0.00000000      0.00000000      0.00000000      0.00000000      0.00000000      0.00000000</v>
  </separator>
  <separator name="orbital magnetization" >
   <i type="logical" name="NUCIND"> F  </i>
   <v name="MAGPOS">      0.00000000      0.00000000      0.00000000</v>
   <i type="logical" name="LNICSALL"> T  </i>
   <i type="logical" name="ORBITALMAG"> F  </i>
   <i type="logical" name="LMAGBLOCH"> F  </i>
   <i type="logical" name="LCHIMAG"> F  </i>
   <i type="logical" name="LGAUGE"> T  </i>
   <i type="int" name="MAGATOM">     0</i>
   <v name="MAGDIPOL">      0.00000000      0.00000000      0.00000000</v>
   <v name="AVECCONST">      0.00000000      0.00000000      0.00000000</v>
  </separator>
  <separator name="response functions" >
   <i type="logical" name="LALL_IN_ONE"> F  </i>
   <i type="int" name="IALL_IN_ONE">    -1</i>
   <i type="int" name="NBANDS_WAVE">    -1</i>
   <i type="logical" name="LFINITE_TEMPERATURE"> F  </i>
   <i type="logical" name="LADDER"> F  </i>
   <i type="logical" name="LRPAFORCE"> F  </i>
   <i type="logical" name="LFXC"> F  </i>
   <i type="logical" name="LHARTREE"> T  </i>
   <i type="int" name="IBSE">     0</i>
   <v type="int" name="KPOINT">    -1     0     0     0</v>
   <i type="logical" name="LTCTC"> F  </i>
   <i type="logical" name="LTCTE"> F  </i>
   <i type="logical" name="LTETE"> F  </i>
   <i type="logical" name="LTRIPLET"> F  </i>
   <i type="logical" name="LFXCEPS"> F  </i>
   <i type="logical" name="LFXHEG"> F  </i>
   <i type="int" name="NATURALO">     2</i>
   <i type="logical" name="LHOLEGF"> F  </i>
   <i type="logical" name="L2ORDER"> F  </i>
   <i type="logical" name="LDMP1"> F  </i>
   <i type="logical" name="LMP2LT"> F  </i>
   <i type="logical" name="LSMP2LT"> F  </i>
   <i type="logical" name="LGWLF"> F  </i>
   <i name="ENCUTGW">     -1.60000002</i>
   <i name="ENCUTGWSOFT">     -1.60000002</i>
   <i name="ENCUTLF">     -1.00000000</i>
   <i type="logical" name="ESF_SPLINES"> F  </i>
   <i name="ESF_CONV">      0.01000000</i>
   <i type="int" name="ESF_NINTER">    15</i>
   <i type="int" name="LMAXMP2">    -1</i>
   <i name="SCISSOR">      0.00000000</i>
   <i type="int" name="NOMEGA">     0</i>
   <i type="int" name="NOMEGAR">     0</i>
   <i type="int" name="NBANDSGW">    -1</i>
   <i type="int" name="NBANDSO">    -1</i>
   <i type="int" name="NBANDSV">    -1</i>
   <i type="int" name="NELMGW">     1</i>
   <i type="int" name="NELMHF">     1</i>
   <i type="int" name="DIM">     3</i>
   <i type="int" name="IESPILON">     4</i>
   <i type="int" name="ANTIRES">     0</i>
   <i name="OMEGAMAX">    -30.00000000</i>
   <i name="OMEGAMIN">    -30.00000000</i>
   <i name="OMEGATL">   -200.00000000</i>
   <i type="int" name="OMEGAGRID">     0</i>
   <i name="CSHIFT">     -0.10000000</i>
   <i type="logical" name="LSELFENERGY"> F  </i>
   <i type="logical" name="LSPECTRAL"> F  </i>
   <i type="logical" name="LSPECTRALGW"> F  </i>
   <i type="logical" name="LSINGLES"> F  </i>
   <i type="logical" name="LFERMIGW"> F  </i>
   <i type="logical" name="ODDONLYGW"> F  </i>
   <i type="logical" name="EVENONLYGW"> F  </i>
   <i type="int" name="NKREDLFX">     1</i>
   <i type="int" name="NKREDLFY">     1</i>
   <i type="int" name="NKREDLFZ">     1</i>
   <i type="int" name="MAXMEM">  2800</i>
   <i type="int" name="TELESCOPE">     0</i>
   <i type="int" name="NTAUPAR">    -1</i>
   <i type="int" name="NOMEGAPAR">    -1</i>
   <i name="DAMP_NEWTON">      0.80000001</i>
   <i name="LAMBDA">      1.00000000</i>
  </separator>
  <separator name="External order field" >
   <i name="OFIELD_KAPPA">      0.00000000</i>
   <v name="OFIELD_K">      0.00000000      0.00000000      0.00000000</v>
   <i name="OFIELD_Q6_NEAR">      0.00000000</i>
   <i name="OFIELD_Q6_FAR">      0.00000000</i>
   <i name="OFIELD_A">      0.00000000</i>
  </separator>
  <separator name="optional k-points parameters" >
   <i type="int" name="KPOINTS_OPT_MODE">     1</i>
   <i type="logical" name="LKPOINTS_OPT"> F  </i>
  </separator>
 </parameters>
 <atominfo>
  <atoms>      14 </atoms>
  <types>       1 </types>
  <array name="atoms" >
   <dimension dim="1">ion</dimension>
   <field type="string">element</field>
   <field type="int">atomtype</field>
   <set>
    <rc><c>B </c><c>   1</c></rc>
    <rc><c>B </c><c>   1</c></rc>
    <rc><c>B </c><c>   1</c></rc>
    <rc><c>B </c><c>   1</c></rc>
    <rc><c>B </c><c>   1</c></rc>
    <rc><c>B </c><c>   1</c></rc>
    <rc><c>B </c><c>   1</c></rc>
    <rc><c>B </c><c>   1</c></rc>
    <rc><c>B </c><c>   1</c></rc>
    <rc><c>B </c><c>   1</c></rc>
    <rc><c>B </c><c>   1</c></rc>
    <rc><c>B </c><c>   1</c></rc>
    <rc><c>B </c><c>   1</c></rc>
    <rc><c>B </c><c>   1</c></rc>
   </set>
  </array>
  <array name="atomtypes" >
   <dimension dim="1">type</dimension>
   <field type="int">atomspertype</field>
   <field type="string">element</field>
   <field>mass</field>
   <field>valence</field>
   <field type="string">pseudopotential</field>
   <set>
    <rc><c>  14</c><c>B </c><c>     10.81100000</c><c>      3.00000000</c><c>  PAW_PBE B 06Sep2000                   </c></rc>
   </set>
  </array>
 </atominfo>
 <structure name="initialpos" >
  <crystal>
   <varray name="basis" >
    <v>       5.71067280       0.00000000       0.00000000 </v>
    <v>       0.00000000       4.05761496       0.00000000 </v>
    <v>       0.00000000       0.00000000       6.21909008 </v>
   </varray>
   <i name="volume">    144.10696041 </i>
   <varray name="rec_basis" >
    <v>       0.17511072       0.00000000       0.00000000 </v>
    <v>       0.00000000       0.24645020       0.00000000 </v>
    <v>       0.00000000       0.00000000       0.16079523 </v>
   </varray>
  </crystal>
  <varray name="positions" >
   <v>       0.52123000       0.50000000       0.63796000 </v>
   <v>       0.47877000       0.50000000       0.36204000 </v>
   <v>       0.97877000       0.50000000       0.63796000 </v>
   <v>       0.02123000       0.50000000       0.36204000 </v>
   <v>       0.60090000       0.50000000       0.89991000 </v>
   <v>       0.39910000       0.50000000       0.10009000 </v>
   <v>       0.89910000       0.50000000       0.89991000 </v>
   <v>       0.10090000       0.50000000       0.10009000 </v>
   <v>       0.75000000       0.79171000       0.72973000 </v>
   <v>       0.25000000       0.20829000       0.27027000 </v>
   <v>       0.75000000       0.20829000       0.72973000 </v>
   <v>       0.25000000       0.79171000       0.27027000 </v>
   <v>       0.25000000       0.50000000       0.52367000 </v>
   <v>       0.75000000       0.50000000       0.47633000 </v>
  </varray>
 </structure>
 <calculation>
  <scstep>
   <time name="dav">    4.90    4.90</time>
   <time name="total">    4.92    4.92</time>
   <energy>
    <i name="alphaZ">     93.56827022 </i>
    <i name="ewald">   -793.86131376 </i>
    <i name="hartreedc">   -272.05157132 </i>
    <i name="XCdc">     97.31944998 </i>
    <i name="pawpsdc">    608.99811708 </i>
    <i name="pawaedc">   -597.02363782 </i>
    <i name="eentropy">     -0.00240583 </i>
    <i name="bandstr">    -54.54289504 </i>
    <i name="atom">    996.37441054 </i>
    <i name="e_fr_energy">     78.77842405 </i>
    <i name="e_wo_entrp">     78.78082988 </i>
    <i name="e_0_energy">     78.77962697 </i>
   </energy>
  </scstep>
  <scstep>
   <time name="dav">    6.54    6.54</time>
   <time name="total">    6.54    6.54</time>
   <energy>
    <i name="e_fr_energy">    -91.64825773 </i>
    <i name="e_wo_entrp">    -91.64475797 </i>
    <i name="e_0_energy">    -91.64650785 </i>
   </energy>
  </scstep>
  <scstep>
   <time name="dav">    6.95    6.96</time>
   <time name="total">    6.95    6.96</time>
   <energy>
    <i name="e_fr_energy">    -97.47293296 </i>
    <i name="e_wo_entrp">    -97.46927057 </i>
    <i name="e_0_energy">    -97.47110176 </i>
   </energy>
  </scstep>
  <scstep>
   <time name="dav">    5.60    5.60</time>
   <time name="total">    5.60    5.60</time>
   <energy>
    <i name="e_fr_energy">    -97.50759031 </i>
    <i name="e_wo_entrp">    -97.50392335 </i>
    <i name="e_0_energy">    -97.50575683 </i>
   </energy>
  </scstep>
  <scstep>
   <time name="dav">    6.80    6.80</time>
   <time name="total">    6.90    6.91</time>
   <energy>
    <i name="e_fr_energy">    -97.50797942 </i>
    <i name="e_wo_entrp">    -97.50431241 </i>
    <i name="e_0_energy">    -97.50614592 </i>
   </energy>
  </scstep>
  <scstep>
   <time name="dav">    6.81    6.81</time>
   <time name="total">    6.91    6.92</time>
   <energy>
    <i name="e_fr_energy">    -92.19783849 </i>
    <i name="e_wo_entrp">    -92.19437726 </i>
    <i name="e_0_energy">    -92.19610787 </i>
   </energy>
  </scstep>
  <scstep>
   <time name="dav">    7.11    7.11</time>
   <time name="total">    7.22    7.22</time>
   <energy>
    <i name="e_fr_energy">    -90.57431305 </i>
    <i name="e_wo_entrp">    -90.57115795 </i>
    <i name="e_0_energy">    -90.57273550 </i>
   </energy>
  </scstep>
  <scstep>
   <time name="dav">    5.44    5.44</time>
   <time name="total">    5.54    5.54</time>
   <energy>
    <i name="e_fr_energy">    -90.58682544 </i>
    <i name="e_wo_entrp">    -90.58364013 </i>
    <i name="e_0_energy">    -90.58523279 </i>
   </energy>
  </scstep>
  <scstep>
   <time name="dav">    6.66    6.66</time>
   <time name="total">    6.76    6.76</time>
   <energy>
    <i name="e_fr_energy">    -90.60102544 </i>
    <i name="e_wo_entrp">    -90.59775845 </i>
    <i name="e_0_energy">    -90.59939194 </i>
   </energy>
  </scstep>
  <scstep>
   <time name="dav">    5.46    5.47</time>
   <time name="total">    5.57    5.57</time>
   <energy>
    <i name="e_fr_energy">    -90.60506075 </i>
    <i name="e_wo_entrp">    -90.60183858 </i>
    <i name="e_0_energy">    -90.60344967 </i>
   </energy>
  </scstep>
  <scstep>
   <time name="dav">    6.04    6.04</time>
   <time name="total">    6.14    6.14</time>
   <energy>
    <i name="e_fr_energy">    -90.60613002 </i>
    <i name="e_wo_entrp">    -90.60291805 </i>
    <i name="e_0_energy">    -90.60452404 </i>
   </energy>
  </scstep>
  <scstep>
   <time name="dav">    5.73    5.74</time>
   <time name="total">    5.83    5.84</time>
   <energy>
    <i name="e_fr_energy">    -90.60624323 </i>
    <i name="e_wo_entrp">    -90.60302529 </i>
    <i name="e_0_energy">    -90.60463426 </i>
   </energy>
  </scstep>
  <scstep>
   <time name="dav">    6.39    6.39</time>
   <time name="total">    6.49    6.49</time>
   <energy>
    <i name="e_fr_energy">    -90.60624810 </i>
    <i name="e_wo_entrp">    -90.60302999 </i>
    <i name="e_0_energy">    -90.60463905 </i>
   </energy>
  </scstep>
  <scstep>
   <time name="dav">    5.72    5.73</time>
   <time name="total">    5.74    5.74</time>
   <energy>
    <i name="alphaZ">     93.56827022 </i>
    <i name="ewald">   -793.86131376 </i>
    <i name="hartreedc">   -349.16273795 </i>
    <i name="XCdc">    101.38341354 </i>
    <i name="pawpsdc">   3689.52064076 </i>
    <i name="pawaedc">  -3678.68731407 </i>
    <i name="eentropy">     -0.00321824 </i>
    <i name="bandstr">   -149.73839981 </i>
    <i name="atom">    996.37441054 </i>
    <i name="e_fr_energy">    -90.60624878 </i>
    <i name="e_wo_entrp">    -90.60303053 </i>
    <i name="e_0_energy">    -90.60463966 </i>
   </energy>
  </scstep>
  <structure>
   <crystal>
    <varray name="basis" >
     <v>       5.71067280       0.00000000       0.00000000 </v>
     <v>       0.00000000       4.05761496       0.00000000 </v>
     <v>       0.00000000       0.00000000       6.21909008 </v>
    </varray>
    <i name="volume">    144.10696041 </i>
    <varray name="rec_basis" >
     <v>       0.17511072       0.00000000       0.00000000 </v>
     <v>       0.00000000       0.24645020       0.00000000 </v>
     <v>       0.00000000       0.00000000       0.16079523 </v>
    </varray>
   </crystal>
   <varray name="positions" >
    <v>       0.52123000       0.50000000       0.63796000 </v>
    <v>       0.47877000       0.50000000       0.36204000 </v>
    <v>       0.97877000       0.50000000       0.63796000 </v>
    <v>       0.02123000       0.50000000       0.36204000 </v>
    <v>       0.60090000       0.50000000       0.89991000 </v>
    <v>       0.39910000       0.50000000       0.10009000 </v>
    <v>       0.89910000       0.50000000       0.89991000 </v>
    <v>       0.10090000       0.50000000       0.10009000 </v>
    <v>       0.75000000       0.79171000       0.72973000 </v>
    <v>       0.25000000       0.20829000       0.27027000 </v>
    <v>       0.75000000       0.20829000       0.72973000 </v>
    <v>       0.25000000       0.79171000       0.27027000 </v>
    <v>       0.25000000       0.50000000       0.52367000 </v>
    <v>       0.75000000       0.50000000       0.47633000 </v>
   </varray>
  </structure>
  <varray name="forces" >
   <v>       0.03491494      -0.00000000       0.03627250 </v>
   <v>      -0.03491494      -0.00000000      -0.03627250 </v>
   <v>      -0.03491494      -0.00000000       0.03627250 </v>
   <v>       0.03491494      -0.00000000      -0.03627250 </v>
   <v>      -0.80295962      -0.00000000       0.23667295 </v>
   <v>       0.80295962      -0.00000000      -0.23667295 </v>
   <v>       0.80295962      -0.00000000       0.23667295 </v>
   <v>      -0.80295962      -0.00000000      -0.23667295 </v>
   <v>       0.00000000       0.05882631      -0.07037396 </v>
   <v>       0.00000000      -0.05882631       0.07037396 </v>
   <v>      -0.00000000      -0.05882631      -0.07037396 </v>
   <v>       0.00000000       0.05882631       0.07037396 </v>
   <v>      -0.00000000      -0.00000000       0.02876041 </v>
   <v>      -0.00000000      -0.00000000      -0.02876041 </v>
  </varray>
  <varray name="stress" >
   <v>       0.00493120       0.00000000      -0.00000000 </v>
   <v>       0.00000000      -6.84540733       0.00000000 </v>
   <v>       0.00000000       0.00000000     -19.41110656 </v>
  </varray>
  <energy>
   <i name="e_fr_energy">    -90.60624878 </i>
   <i name="e_wo_entrp">    -90.60303053 </i>
   <i name="e_0_energy">    -90.60463966 </i>
  </energy>
  <time name="totalsc">   91.85   91.92</time>
  <eigenvalues>
   <array>
    <dimension dim="1">band</dimension>
    <dimension dim="2">kpoint</dimension>
    <dimension dim="3">spin</dimension>
    <field>eigene</field>
    <field>occ</field>
    <set>
     <set comment="spin 1">
      <set comment="kpoint 1">
       <r>  -12.7166    1.0000 </r>
       <r>  -11.5755    1.0000 </r>
       <r>   -8.6682    1.0000 </r>
       <r>   -8.4325    1.0000 </r>
       <r>   -6.0837    1.0000 </r>
       <r>   -5.1508    1.0000 </r>
       <r>   -4.6887    1.0000 </r>
       <r>   -4.2876    1.0000 </r>
       <r>   -4.0518    1.0000 </r>
       <r>   -3.5655    1.0000 </r>
       <r>   -2.6252    1.0000 </r>
       <r>   -2.3569    1.0000 </r>
       <r>   -1.8678    1.0000 </r>
       <r>   -1.1268    1.0000 </r>
       <r>   -0.0980    1.0000 </r>
       <r>   -0.0675    1.0000 </r>
       <r>    0.1187    1.0000 </r>
       <r>    0.1378    1.0000 </r>
       <r>    0.5281    1.0000 </r>
       <r>    1.9798    0.0001 </r>
       <r>    2.0418    0.0000 </r>
       <r>    2.1714    0.0000 </r>
       <r>    5.4019    0.0000 </r>
       <r>    5.6920    0.0000 </r>
       <r>    5.7774    0.0000 </r>
       <r>    5.9026    0.0000 </r>
       <r>    6.7504    0.0000 </r>
       <r>    7.4846    0.0000 </r>
       <r>    7.8099    0.0000 </r>
       <r>    8.4526    0.0000 </r>
       <r>    8.7053    0.0000 </r>
       <r>    8.8633    0.0000 </r>
       <r>    8.9418    0.0000 </r>
       <r>   10.0534    0.0000 </r>
       <r>   11.1190    0.0000 </r>
       <r>   11.2416    0.0000 </r>
       <r>   11.5677    0.0000 </r>
       <r>   11.6926    0.0000 </r>
       <r>   11.8618    0.0000 </r>
       <r>   12.3297    0.0000 </r>
       <r>   12.7693    0.0000 </r>
       <r>   13.3505    0.0000 </r>
       <r>   13.3780    0.0000 </r>
       <r>   15.2554    0.0000 </r>
       <r>   15.4540    0.0000 </r>
       <r>   15.9372    0.0000 </r>
       <r>   16.2230    0.0000 </r>
       <r>   16.2416    0.0000 </r>
      </set>
      <set comment="kpoint 2">
       <r>  -12.6729    1.0000 </r>
       <r>  -11.6493    1.0000 </r>
       <r>   -8.6469    1.0000 </r>
       <r>   -8.4210    1.0000 </r>
       <r>   -6.0160    1.0000 </r>
       <r>   -5.4886    1.0000 </r>
       <r>   -4.8090    1.0000 </r>
       <r>   -4.0268    1.0000 </r>
       <r>   -3.8103    1.0000 </r>
       <r>   -3.2305    1.0000 </r>
       <r>   -2.6948    1.0000 </r>
       <r>   -2.3373    1.0000 </r>
       <r>   -1.9447    1.0000 </r>
       <r>   -1.4330    1.0000 </r>
       <r>   -0.0582    1.0000 </r>
       <r>   -0.0542    1.0000 </r>
       <r>    0.0607    1.0000 </r>
       <r>    0.1602    1.0000 </r>
       <r>    0.4329    1.0000 </r>
       <r>    1.8939    0.0724 </r>
       <r>    1.9642    0.0003 </r>
       <r>    2.0511    0.0000 </r>
       <r>    5.4916    0.0000 </r>
       <r>    5.6958    0.0000 </r>
       <r>    5.8105    0.0000 </r>
       <r>    6.2453    0.0000 </r>
       <r>    6.6658    0.0000 </r>
       <r>    7.1250    0.0000 </r>
       <r>    8.0143    0.0000 </r>
       <r>    8.5891    0.0000 </r>
       <r>    8.9536    0.0000 </r>
       <r>    9.0370    0.0000 </r>
       <r>    9.1185    0.0000 </r>
       <r>   10.1568    0.0000 </r>
       <r>   10.8521    0.0000 </r>
       <r>   11.0379    0.0000 </r>
       <r>   11.1909    0.0000 </r>
       <r>   11.6113    0.0000 </r>
       <r>   12.0784    0.0000 </r>
       <r>   12.4162    0.0000 </r>
       <r>   13.0184    0.0000 </r>
       <r>   13.0277    0.0000 </r>
       <r>   13.9045    0.0000 </r>
       <r>   14.7478    0.0000 </r>
       <r>   15.6388    0.0000 </r>
       <r>   15.7248    0.0000 </r>
       <r>   16.1080    0.0000 </r>
       <r>   16.3967    0.0000 </r>
      </set>
      <set comment="kpoint 3">
       <r>  -12.5874    1.0000 </r>
       <r>  -11.7824    1.0000 </r>
       <r>   -8.6032    1.0000 </r>
       <r>   -8.4062    1.0000 </r>
       <r>   -5.9940    1.0000 </r>
       <r>   -5.8136    1.0000 </r>
       <r>   -4.7624    1.0000 </r>
       <r>   -3.9011    1.0000 </r>
       <r>   -3.3004    1.0000 </r>
       <r>   -2.8615    1.0000 </r>
       <r>   -2.7413    1.0000 </r>
       <r>   -2.2978    1.0000 </r>
       <r>   -2.0532    1.0000 </r>
       <r>   -1.9361    1.0000 </r>
       <r>   -0.2597    1.0000 </r>
       <r>   -0.0186    1.0000 </r>
       <r>    0.1079    1.0000 </r>
       <r>    0.1272    1.0000 </r>
       <r>    0.4028    1.0000 </r>
       <r>    1.7461    0.9968 </r>
       <r>    1.8236    0.7020 </r>
       <r>    1.8321    0.6142 </r>
       <r>    5.6131    0.0000 </r>
       <r>    5.6521    0.0000 </r>
       <r>    6.1191    0.0000 </r>
       <r>    6.5411    0.0000 </r>
       <r>    6.7011    0.0000 </r>
       <r>    6.8713    0.0000 </r>
       <r>    8.1618    0.0000 </r>
       <r>    8.7383    0.0000 </r>
       <r>    8.9049    0.0000 </r>
       <r>    9.4818    0.0000 </r>
       <r>    9.5642    0.0000 </r>
       <r>   10.1952    0.0000 </r>
       <r>   10.3945    0.0000 </r>
       <r>   10.5325    0.0000 </r>
       <r>   11.3070    0.0000 </r>
       <r>   11.7559    0.0000 </r>
       <r>   12.3127    0.0000 </r>
       <r>   12.4638    0.0000 </r>
       <r>   12.7109    0.0000 </r>
       <r>   12.8140    0.0000 </r>
       <r>   14.5272    0.0000 </r>
       <r>   14.8034    0.0000 </r>
       <r>   15.1285    0.0000 </r>
       <r>   15.8679    0.0000 </r>
       <r>   15.8906    0.0000 </r>
       <r>   16.1678    0.0000 </r>
      </set>
      <set comment="kpoint 4">
       <r>  -12.4641    1.0000 </r>
       <r>  -11.9517    1.0000 </r>
       <r>   -8.5414    1.0000 </r>
       <r>   -8.4028    1.0000 </r>
       <r>   -6.0732    1.0000 </r>
       <r>   -6.0461    1.0000 </r>
       <r>   -4.4361    1.0000 </r>
       <r>   -3.7337    1.0000 </r>
       <r>   -3.0539    1.0000 </r>
       <r>   -2.9182    1.0000 </r>
       <r>   -2.4692    1.0000 </r>
       <r>   -2.2819    1.0000 </r>
       <r>   -2.1813    1.0000 </r>
       <r>   -2.1519    1.0000 </r>
       <r>   -0.5589    1.0000 </r>
       <r>   -0.2841    1.0000 </r>
       <r>    0.1424    1.0000 </r>
       <r>    0.2171    1.0000 </r>
       <r>    0.5752    1.0000 </r>
       <r>    1.4883    1.0000 </r>
       <r>    1.6253    1.0000 </r>
       <r>    1.6847    1.0000 </r>
       <r>    5.6380    0.0000 </r>
       <r>    5.6977    0.0000 </r>
       <r>    6.4415    0.0000 </r>
       <r>    6.6147    0.0000 </r>
       <r>    6.6400    0.0000 </r>
       <r>    7.3458    0.0000 </r>
       <r>    8.2839    0.0000 </r>
       <r>    8.6128    0.0000 </r>
       <r>    8.7220    0.0000 </r>
       <r>    9.4544    0.0000 </r>
       <r>    9.9634    0.0000 </r>
       <r>   10.0356    0.0000 </r>
       <r>   10.3066    0.0000 </r>
       <r>   11.0437    0.0000 </r>
       <r>   11.3247    0.0000 </r>
       <r>   11.8454    0.0000 </r>
       <r>   12.1111    0.0000 </r>
       <r>   12.1796    0.0000 </r>
       <r>   12.4379    0.0000 </r>
       <r>   13.1710    0.0000 </r>
       <r>   14.6214    0.0000 </r>
       <r>   14.8735    0.0000 </r>
       <r>   15.1425    0.0000 </r>
       <r>   15.2686    0.0000 </r>
       <r>   15.4610    0.0000 </r>
       <r>   16.2638    0.0000 </r>
      </set>
      <set comment="kpoint 5">
       <r>  -12.3096    1.0000 </r>
       <r>  -12.1340    1.0000 </r>
       <r>   -8.4756    1.0000 </r>
       <r>   -8.4250    1.0000 </r>
       <r>   -6.1601    1.0000 </r>
       <r>   -6.1568    1.0000 </r>
       <r>   -3.9226    1.0000 </r>
       <r>   -3.5263    1.0000 </r>
       <r>   -3.3249    1.0000 </r>
       <r>   -3.2906    1.0000 </r>
       <r>   -2.3844    1.0000 </r>
       <r>   -2.2597    1.0000 </r>
       <r>   -1.9958    1.0000 </r>
       <r>   -1.9386    1.0000 </r>
       <r>   -0.7795    1.0000 </r>
       <r>   -0.6430    1.0000 </r>
       <r>    0.2250    1.0000 </r>
       <r>    0.2581    1.0000 </r>
       <r>    0.8349    1.0000 </r>
       <r>    1.1509    1.0000 </r>
       <r>    1.5450    1.0000 </r>
       <r>    1.5718    1.0000 </r>
       <r>    5.6676    0.0000 </r>
       <r>    5.7070    0.0000 </r>
       <r>    6.4216    0.0000 </r>
       <r>    6.4862    0.0000 </r>
       <r>    7.3049    0.0000 </r>
       <r>    8.0023    0.0000 </r>
       <r>    8.0269    0.0000 </r>
       <r>    8.3995    0.0000 </r>
       <r>    8.5355    0.0000 </r>
       <r>    8.7135    0.0000 </r>
       <r>   10.4185    0.0000 </r>
       <r>   10.4306    0.0000 </r>
       <r>   10.6672    0.0000 </r>
       <r>   11.1236    0.0000 </r>
       <r>   11.3073    0.0000 </r>
       <r>   11.4955    0.0000 </r>
       <r>   11.8268    0.0000 </r>
       <r>   12.3882    0.0000 </r>
       <r>   12.6324    0.0000 </r>
       <r>   13.1638    0.0000 </r>
       <r>   14.5004    0.0000 </r>
       <r>   14.6276    0.0000 </r>
       <r>   14.7718    0.0000 </r>
       <r>   14.8322    0.0000 </r>
       <r>   15.9810    0.0000 </r>
       <r>   16.3271    0.0000 </r>
      </set>
      <set comment="kpoint 6">
       <r>  -12.6927    1.0000 </r>
       <r>  -11.5539    1.0000 </r>
       <r>   -8.6496    1.0000 </r>
       <r>   -8.4096    1.0000 </r>
       <r>   -6.0573    1.0000 </r>
       <r>   -5.1172    1.0000 </r>
       <r>   -4.6669    1.0000 </r>
       <r>   -4.5868    1.0000 </r>
       <r>   -4.1951    1.0000 </r>
       <r>   -3.5430    1.0000 </r>
       <r>   -3.3164    1.0000 </r>
       <r>   -1.8260    1.0000 </r>
       <r>   -1.1223    1.0000 </r>
       <r>   -1.0710    1.0000 </r>
       <r>   -0.3304    1.0000 </r>
       <r>   -0.3025    1.0000 </r>
       <r>    0.1322    1.0000 </r>
       <r>    0.2080    1.0000 </r>
       <r>    0.6059    1.0000 </r>
       <r>    1.7138    0.9999 </r>
       <r>    1.7927    0.9201 </r>
       <r>    2.2233    0.0000 </r>
       <r>    5.5231    0.0000 </r>
       <r>    5.6494    0.0000 </r>
       <r>    5.6870    0.0000 </r>
       <r>    5.9425    0.0000 </r>
       <r>    7.0337    0.0000 </r>
       <r>    7.7693    0.0000 </r>
       <r>    8.0007    0.0000 </r>
       <r>    8.1175    0.0000 </r>
       <r>    8.7106    0.0000 </r>
       <r>    8.9952    0.0000 </r>
       <r>    9.0561    0.0000 </r>
       <r>   10.5003    0.0000 </r>
       <r>   11.1749    0.0000 </r>
       <r>   11.3300    0.0000 </r>
       <r>   11.5025    0.0000 </r>
       <r>   11.7947    0.0000 </r>
       <r>   11.9729    0.0000 </r>
       <r>   12.6066    0.0000 </r>
       <r>   12.7712    0.0000 </r>
       <r>   13.0916    0.0000 </r>
       <r>   13.0942    0.0000 </r>
       <r>   15.2132    0.0000 </r>
       <r>   15.2581    0.0000 </r>
       <r>   15.7415    0.0000 </r>
       <r>   15.7461    0.0000 </r>
       <r>   16.1014    0.0000 </r>
      </set>
      <set comment="kpoint 7">
       <r>  -12.6491    1.0000 </r>
       <r>  -11.6277    1.0000 </r>
       <r>   -8.6282    1.0000 </r>
       <r>   -8.3984    1.0000 </r>
       <r>   -5.9877    1.0000 </r>
       <r>   -5.4586    1.0000 </r>
       <r>   -4.7892    1.0000 </r>
       <r>   -4.5066    1.0000 </r>
       <r>   -3.7724    1.0000 </r>
       <r>   -3.3960    1.0000 </r>
       <r>   -3.1930    1.0000 </r>
       <r>   -1.8045    1.0000 </r>
       <r>   -1.4276    1.0000 </r>
       <r>   -1.1875    1.0000 </r>
       <r>   -0.2920    1.0000 </r>
       <r>   -0.2260    1.0000 </r>
       <r>    0.0991    1.0000 </r>
       <r>    0.1817    1.0000 </r>
       <r>    0.5030    1.0000 </r>
       <r>    1.6338    1.0000 </r>
       <r>    1.7166    0.9998 </r>
       <r>    2.0933    0.0000 </r>
       <r>    5.5994    0.0000 </r>
       <r>    5.7491    0.0000 </r>
       <r>    5.8714    0.0000 </r>
       <r>    6.0536    0.0000 </r>
       <r>    6.9511    0.0000 </r>
       <r>    7.4452    0.0000 </r>
       <r>    8.1466    0.0000 </r>
       <r>    8.2830    0.0000 </r>
       <r>    9.0242    0.0000 </r>
       <r>    9.0680    0.0000 </r>
       <r>    9.3268    0.0000 </r>
       <r>   10.4186    0.0000 </r>
       <r>   10.7851    0.0000 </r>
       <r>   10.9914    0.0000 </r>
       <r>   11.3838    0.0000 </r>
       <r>   11.7840    0.0000 </r>
       <r>   12.1916    0.0000 </r>
       <r>   12.6539    0.0000 </r>
       <r>   12.7729    0.0000 </r>
       <r>   13.0515    0.0000 </r>
       <r>   13.6251    0.0000 </r>
       <r>   14.8320    0.0000 </r>
       <r>   15.2828    0.0000 </r>
       <r>   15.6442    0.0000 </r>
       <r>   15.6768    0.0000 </r>
       <r>   16.2813    0.0000 </r>
      </set>
      <set comment="kpoint 8">
       <r>  -12.5639    1.0000 </r>
       <r>  -11.7604    1.0000 </r>
       <r>   -8.5842    1.0000 </r>
       <r>   -8.3844    1.0000 </r>
       <r>   -5.9631    1.0000 </r>
       <r>   -5.7834    1.0000 </r>
       <r>   -4.7459    1.0000 </r>
       <r>   -4.3993    1.0000 </r>
       <r>   -3.5168    1.0000 </r>
       <r>   -3.2484    1.0000 </r>
       <r>   -2.7287    1.0000 </r>
       <r>   -1.9315    1.0000 </r>
       <r>   -1.7607    1.0000 </r>
       <r>   -1.3481    1.0000 </r>
       <r>   -0.2616    1.0000 </r>
       <r>   -0.2468    1.0000 </r>
       <r>    0.0214    1.0000 </r>
       <r>    0.1688    1.0000 </r>
       <r>    0.4271    1.0000 </r>
       <r>    1.4995    1.0000 </r>
       <r>    1.5871    1.0000 </r>
       <r>    1.8465    0.4541 </r>
       <r>    5.7934    0.0000 </r>
       <r>    5.8775    0.0000 </r>
       <r>    5.9564    0.0000 </r>
       <r>    6.4993    0.0000 </r>
       <r>    6.8316    0.0000 </r>
       <r>    7.2187    0.0000 </r>
       <r>    8.3536    0.0000 </r>
       <r>    8.4135    0.0000 </r>
       <r>    9.0018    0.0000 </r>
       <r>    9.5206    0.0000 </r>
       <r>    9.7880    0.0000 </r>
       <r>   10.0409    0.0000 </r>
       <r>   10.2645    0.0000 </r>
       <r>   10.7275    0.0000 </r>
       <r>   11.4452    0.0000 </r>
       <r>   12.0196    0.0000 </r>
       <r>   12.2106    0.0000 </r>
       <r>   12.4736    0.0000 </r>
       <r>   12.8536    0.0000 </r>
       <r>   12.9382    0.0000 </r>
       <r>   14.2001    0.0000 </r>
       <r>   14.9674    0.0000 </r>
       <r>   15.0538    0.0000 </r>
       <r>   15.5314    0.0000 </r>
       <r>   15.6005    0.0000 </r>
       <r>   16.3020    0.0000 </r>
      </set>
      <set comment="kpoint 9">
       <r>  -12.4408    1.0000 </r>
       <r>  -11.9294    1.0000 </r>
       <r>   -8.5222    1.0000 </r>
       <r>   -8.3818    1.0000 </r>
       <r>   -6.0410    1.0000 </r>
       <r>   -6.0151    1.0000 </r>
       <r>   -4.4218    1.0000 </r>
       <r>   -4.2536    1.0000 </r>
       <r>   -3.6865    1.0000 </r>
       <r>   -2.8712    1.0000 </r>
       <r>   -2.3885    1.0000 </r>
       <r>   -2.2473    1.0000 </r>
       <r>   -1.6972    1.0000 </r>
       <r>   -1.5094    1.0000 </r>
       <r>   -0.5213    1.0000 </r>
       <r>   -0.3439    1.0000 </r>
       <r>    0.0521    1.0000 </r>
       <r>    0.0837    1.0000 </r>
       <r>    0.5857    1.0000 </r>
       <r>    1.3602    1.0000 </r>
       <r>    1.4426    1.0000 </r>
       <r>    1.5244    1.0000 </r>
       <r>    5.8106    0.0000 </r>
       <r>    5.9502    0.0000 </r>
       <r>    6.4604    0.0000 </r>
       <r>    6.7438    0.0000 </r>
       <r>    6.8177    0.0000 </r>
       <r>    7.3074    0.0000 </r>
       <r>    8.3457    0.0000 </r>
       <r>    8.5197    0.0000 </r>
       <r>    8.8504    0.0000 </r>
       <r>    9.2919    0.0000 </r>
       <r>    9.9838    0.0000 </r>
       <r>   10.0061    0.0000 </r>
       <r>   10.3564    0.0000 </r>
       <r>   11.1196    0.0000 </r>
       <r>   11.2777    0.0000 </r>
       <r>   11.7482    0.0000 </r>
       <r>   12.1845    0.0000 </r>
       <r>   12.4613    0.0000 </r>
       <r>   12.6361    0.0000 </r>
       <r>   13.3708    0.0000 </r>
       <r>   14.6602    0.0000 </r>
       <r>   14.6704    0.0000 </r>
       <r>   15.0410    0.0000 </r>
       <r>   15.2015    0.0000 </r>
       <r>   15.5351    0.0000 </r>
       <r>   16.2783    0.0000 </r>
      </set>
      <set comment="kpoint 10">
       <r>  -12.2866    1.0000 </r>
       <r>  -12.1113    1.0000 </r>
       <r>   -8.4560    1.0000 </r>
       <r>   -8.4049    1.0000 </r>
       <r>   -6.1283    1.0000 </r>
       <r>   -6.1246    1.0000 </r>
       <r>   -4.0763    1.0000 </r>
       <r>   -3.9149    1.0000 </r>
       <r>   -3.8747    1.0000 </r>
       <r>   -3.3123    1.0000 </r>
       <r>   -2.1327    1.0000 </r>
       <r>   -1.9417    1.0000 </r>
       <r>   -1.6291    1.0000 </r>
       <r>   -1.6225    1.0000 </r>
       <r>   -0.7419    1.0000 </r>
       <r>   -0.6388    1.0000 </r>
       <r>    0.0868    1.0000 </r>
       <r>    0.1177    1.0000 </r>
       <r>    0.8442    1.0000 </r>
       <r>    1.1574    1.0000 </r>
       <r>    1.3073    1.0000 </r>
       <r>    1.3310    1.0000 </r>
       <r>    5.8631    0.0000 </r>
       <r>    5.9309    0.0000 </r>
       <r>    6.7345    0.0000 </r>
       <r>    6.7854    0.0000 </r>
       <r>    7.1239    0.0000 </r>
       <r>    7.8312    0.0000 </r>
       <r>    7.8728    0.0000 </r>
       <r>    8.5501    0.0000 </r>
       <r>    8.6105    0.0000 </r>
       <r>    8.7215    0.0000 </r>
       <r>   10.2310    0.0000 </r>
       <r>   10.4808    0.0000 </r>
       <r>   10.7202    0.0000 </r>
       <r>   10.8158    0.0000 </r>
       <r>   11.4547    0.0000 </r>
       <r>   11.5539    0.0000 </r>
       <r>   11.9037    0.0000 </r>
       <r>   12.5540    0.0000 </r>
       <r>   12.9377    0.0000 </r>
       <r>   13.3924    0.0000 </r>
       <r>   14.4460    0.0000 </r>
       <r>   14.6317    0.0000 </r>
       <r>   14.7319    0.0000 </r>
       <r>   14.9499    0.0000 </r>
       <r>   16.0074    0.0000 </r>
       <r>   16.3024    0.0000 </r>
      </set>
      <set comment="kpoint 11">
       <r>  -12.6486    1.0000 </r>
       <r>  -11.5142    1.0000 </r>
       <r>   -8.6157    1.0000 </r>
       <r>   -8.3673    1.0000 </r>
       <r>   -6.0083    1.0000 </r>
       <r>   -5.1430    1.0000 </r>
       <r>   -5.0275    1.0000 </r>
       <r>   -4.6255    1.0000 </r>
       <r>   -4.1782    1.0000 </r>
       <r>   -3.9367    1.0000 </r>
       <r>   -3.4901    1.0000 </r>
       <r>   -1.2351    1.0000 </r>
       <r>   -1.1131    1.0000 </r>
       <r>   -0.6714    1.0000 </r>
       <r>   -0.5690    1.0000 </r>
       <r>   -0.2150    1.0000 </r>
       <r>    0.1532    1.0000 </r>
       <r>    0.2600    1.0000 </r>
       <r>    0.6837    1.0000 </r>
       <r>    1.3339    1.0000 </r>
       <r>    1.3963    1.0000 </r>
       <r>    2.2608    0.0000 </r>
       <r>    5.2378    0.0000 </r>
       <r>    5.4006    0.0000 </r>
       <r>    6.0600    0.0000 </r>
       <r>    6.1282    0.0000 </r>
       <r>    7.4639    0.0000 </r>
       <r>    7.5529    0.0000 </r>
       <r>    8.2481    0.0000 </r>
       <r>    8.6411    0.0000 </r>
       <r>    8.7998    0.0000 </r>
       <r>    9.1350    0.0000 </r>
       <r>    9.2795    0.0000 </r>
       <r>   10.7965    0.0000 </r>
       <r>   11.2303    0.0000 </r>
       <r>   11.4804    0.0000 </r>
       <r>   11.6255    0.0000 </r>
       <r>   11.9936    0.0000 </r>
       <r>   12.1886    0.0000 </r>
       <r>   12.6548    0.0000 </r>
       <r>   12.6665    0.0000 </r>
       <r>   12.8999    0.0000 </r>
       <r>   13.1405    0.0000 </r>
       <r>   14.5507    0.0000 </r>
       <r>   15.0455    0.0000 </r>
       <r>   15.2193    0.0000 </r>
       <r>   15.3297    0.0000 </r>
       <r>   15.8391    0.0000 </r>
      </set>
      <set comment="kpoint 12">
       <r>  -12.6052    1.0000 </r>
       <r>  -11.5877    1.0000 </r>
       <r>   -8.5939    1.0000 </r>
       <r>   -8.3569    1.0000 </r>
       <r>   -5.9354    1.0000 </r>
       <r>   -5.4099    1.0000 </r>
       <r>   -5.0473    1.0000 </r>
       <r>   -4.7519    1.0000 </r>
       <r>   -4.0020    1.0000 </r>
       <r>   -3.7310    1.0000 </r>
       <r>   -3.1537    1.0000 </r>
       <r>   -1.4193    1.0000 </r>
       <r>   -1.2094    1.0000 </r>
       <r>   -0.7799    1.0000 </r>
       <r>   -0.5312    1.0000 </r>
       <r>   -0.1331    1.0000 </r>
       <r>    0.1313    1.0000 </r>
       <r>    0.2067    1.0000 </r>
       <r>    0.5710    1.0000 </r>
       <r>    1.2552    1.0000 </r>
       <r>    1.3269    1.0000 </r>
       <r>    2.1259    0.0000 </r>
       <r>    5.3184    0.0000 </r>
       <r>    5.7436    0.0000 </r>
       <r>    6.0743    0.0000 </r>
       <r>    6.1758    0.0000 </r>
       <r>    7.3837    0.0000 </r>
       <r>    7.7094    0.0000 </r>
       <r>    7.9806    0.0000 </r>
       <r>    8.7343    0.0000 </r>
       <r>    9.1500    0.0000 </r>
       <r>    9.2001    0.0000 </r>
       <r>    9.5622    0.0000 </r>
       <r>   10.4323    0.0000 </r>
       <r>   10.6915    0.0000 </r>
       <r>   11.1859    0.0000 </r>
       <r>   11.6432    0.0000 </r>
       <r>   12.1081    0.0000 </r>
       <r>   12.3398    0.0000 </r>
       <r>   12.4160    0.0000 </r>
       <r>   13.0622    0.0000 </r>
       <r>   13.1858    0.0000 </r>
       <r>   13.3349    0.0000 </r>
       <r>   14.5646    0.0000 </r>
       <r>   14.7104    0.0000 </r>
       <r>   15.1504    0.0000 </r>
       <r>   15.3940    0.0000 </r>
       <r>   15.8747    0.0000 </r>
      </set>
      <set comment="kpoint 13">
       <r>  -12.5203    1.0000 </r>
       <r>  -11.7200    1.0000 </r>
       <r>   -8.5495    1.0000 </r>
       <r>   -8.3441    1.0000 </r>
       <r>   -5.9054    1.0000 </r>
       <r>   -5.7288    1.0000 </r>
       <r>   -4.9559    1.0000 </r>
       <r>   -4.7152    1.0000 </r>
       <r>   -4.1241    1.0000 </r>
       <r>   -3.1993    1.0000 </r>
       <r>   -2.6851    1.0000 </r>
       <r>   -1.9152    1.0000 </r>
       <r>   -1.1692    1.0000 </r>
       <r>   -0.9195    1.0000 </r>
       <r>   -0.4790    1.0000 </r>
       <r>   -0.1290    1.0000 </r>
       <r>   -0.0203    1.0000 </r>
       <r>    0.2176    1.0000 </r>
       <r>    0.4565    1.0000 </r>
       <r>    1.1245    1.0000 </r>
       <r>    1.2091    1.0000 </r>
       <r>    1.8708    0.2109 </r>
       <r>    5.6381    0.0000 </r>
       <r>    6.0295    0.0000 </r>
       <r>    6.2163    0.0000 </r>
       <r>    6.3066    0.0000 </r>
       <r>    7.2827    0.0000 </r>
       <r>    7.7931    0.0000 </r>
       <r>    7.9437    0.0000 </r>
       <r>    8.8635    0.0000 </r>
       <r>    9.1500    0.0000 </r>
       <r>    9.6296    0.0000 </r>
       <r>    9.7706    0.0000 </r>
       <r>   10.0447    0.0000 </r>
       <r>   10.1682    0.0000 </r>
       <r>   10.9671    0.0000 </r>
       <r>   11.5036    0.0000 </r>
       <r>   12.0155    0.0000 </r>
       <r>   12.4166    0.0000 </r>
       <r>   12.7174    0.0000 </r>
       <r>   12.9415    0.0000 </r>
       <r>   13.3547    0.0000 </r>
       <r>   13.8564    0.0000 </r>
       <r>   14.4774    0.0000 </r>
       <r>   14.7591    0.0000 </r>
       <r>   15.1770    0.0000 </r>
       <r>   15.4096    0.0000 </r>
       <r>   16.0857    0.0000 </r>
      </set>
      <set comment="kpoint 14">
       <r>  -12.3977    1.0000 </r>
       <r>  -11.8884    1.0000 </r>
       <r>   -8.4870    1.0000 </r>
       <r>   -8.3433    1.0000 </r>
       <r>   -5.9810    1.0000 </r>
       <r>   -5.9579    1.0000 </r>
       <r>   -4.8212    1.0000 </r>
       <r>   -4.3954    1.0000 </r>
       <r>   -4.2868    1.0000 </r>
       <r>   -2.8335    1.0000 </r>
       <r>   -2.3483    1.0000 </r>
       <r>   -2.2062    1.0000 </r>
       <r>   -1.1132    1.0000 </r>
       <r>   -1.0570    1.0000 </r>
       <r>   -0.4873    1.0000 </r>
       <r>   -0.4130    1.0000 </r>
       <r>    0.0231    1.0000 </r>
       <r>    0.0243    1.0000 </r>
       <r>    0.6031    1.0000 </r>
       <r>    0.9954    1.0000 </r>
       <r>    1.0770    1.0000 </r>
       <r>    1.5375    1.0000 </r>
       <r>    6.0419    0.0000 </r>
       <r>    6.1697    0.0000 </r>
       <r>    6.3371    0.0000 </r>
       <r>    6.7393    0.0000 </r>
       <r>    7.2289    0.0000 </r>
       <r>    7.7156    0.0000 </r>
       <r>    8.0021    0.0000 </r>
       <r>    8.9628    0.0000 </r>
       <r>    9.0250    0.0000 </r>
       <r>    9.0921    0.0000 </r>
       <r>    9.7971    0.0000 </r>
       <r>   10.0951    0.0000 </r>
       <r>   10.6174    0.0000 </r>
       <r>   10.9891    0.0000 </r>
       <r>   11.2181    0.0000 </r>
       <r>   11.8609    0.0000 </r>
       <r>   12.2463    0.0000 </r>
       <r>   12.8969    0.0000 </r>
       <r>   12.9479    0.0000 </r>
       <r>   13.6947    0.0000 </r>
       <r>   14.2676    0.0000 </r>
       <r>   14.2881    0.0000 </r>
       <r>   14.9194    0.0000 </r>
       <r>   15.0149    0.0000 </r>
       <r>   15.4970    0.0000 </r>
       <r>   16.2652    0.0000 </r>
      </set>
      <set comment="kpoint 15">
       <r>  -12.2441    1.0000 </r>
       <r>  -12.0695    1.0000 </r>
       <r>   -8.4202    1.0000 </r>
       <r>   -8.3679    1.0000 </r>
       <r>   -6.0693    1.0000 </r>
       <r>   -6.0646    1.0000 </r>
       <r>   -4.6549    1.0000 </r>
       <r>   -4.4711    1.0000 </r>
       <r>   -3.8846    1.0000 </r>
       <r>   -3.2900    1.0000 </r>
       <r>   -2.0659    1.0000 </r>
       <r>   -1.9019    1.0000 </r>
       <r>   -1.1309    1.0000 </r>
       <r>   -1.0723    1.0000 </r>
       <r>   -0.6660    1.0000 </r>
       <r>   -0.6624    1.0000 </r>
       <r>   -0.0257    1.0000 </r>
       <r>    0.0178    1.0000 </r>
       <r>    0.8598    1.0000 </r>
       <r>    0.9330    1.0000 </r>
       <r>    0.9731    1.0000 </r>
       <r>    1.1857    1.0000 </r>
       <r>    6.1340    0.0000 </r>
       <r>    6.2538    0.0000 </r>
       <r>    6.8183    0.0000 </r>
       <r>    7.1516    0.0000 </r>
       <r>    7.2085    0.0000 </r>
       <r>    7.5590    0.0000 </r>
       <r>    7.8615    0.0000 </r>
       <r>    8.3683    0.0000 </r>
       <r>    9.0179    0.0000 </r>
       <r>    9.0491    0.0000 </r>
       <r>    9.9223    0.0000 </r>
       <r>   10.3953    0.0000 </r>
       <r>   10.6171    0.0000 </r>
       <r>   10.8948    0.0000 </r>
       <r>   11.6341    0.0000 </r>
       <r>   11.6438    0.0000 </r>
       <r>   12.0216    0.0000 </r>
       <r>   12.8058    0.0000 </r>
       <r>   13.3234    0.0000 </r>
       <r>   13.6669    0.0000 </r>
       <r>   14.1211    0.0000 </r>
       <r>   14.2750    0.0000 </r>
       <r>   14.8908    0.0000 </r>
       <r>   15.0289    0.0000 </r>
       <r>   15.8756    0.0000 </r>
       <r>   16.1773    0.0000 </r>
      </set>
      <set comment="kpoint 16">
       <r>  -12.5915    1.0000 </r>
       <r>  -11.4629    1.0000 </r>
       <r>   -8.5723    1.0000 </r>
       <r>   -8.3126    1.0000 </r>
       <r>   -5.9449    1.0000 </r>
       <r>   -5.6226    1.0000 </r>
       <r>   -4.9581    1.0000 </r>
       <r>   -4.5700    1.0000 </r>
       <r>   -4.4554    1.0000 </r>
       <r>   -4.1392    1.0000 </r>
       <r>   -3.4287    1.0000 </r>
       <r>   -1.2416    1.0000 </r>
       <r>   -1.0989    1.0000 </r>
       <r>   -1.0226    1.0000 </r>
       <r>   -0.2298    1.0000 </r>
       <r>    0.1812    1.0000 </r>
       <r>    0.3027    1.0000 </r>
       <r>    0.5540    1.0000 </r>
       <r>    0.7468    1.0000 </r>
       <r>    0.9508    1.0000 </r>
       <r>    0.9646    1.0000 </r>
       <r>    2.2946    0.0000 </r>
       <r>    4.8980    0.0000 </r>
       <r>    5.1098    0.0000 </r>
       <r>    6.2869    0.0000 </r>
       <r>    6.5168    0.0000 </r>
       <r>    7.1975    0.0000 </r>
       <r>    7.8878    0.0000 </r>
       <r>    8.6097    0.0000 </r>
       <r>    8.9843    0.0000 </r>
       <r>    9.3612    0.0000 </r>
       <r>    9.5000    0.0000 </r>
       <r>    9.5605    0.0000 </r>
       <r>   10.6578    0.0000 </r>
       <r>   11.1767    0.0000 </r>
       <r>   11.8793    0.0000 </r>
       <r>   11.9381    0.0000 </r>
       <r>   12.1983    0.0000 </r>
       <r>   12.3348    0.0000 </r>
       <r>   12.3633    0.0000 </r>
       <r>   12.4733    0.0000 </r>
       <r>   12.8844    0.0000 </r>
       <r>   13.6711    0.0000 </r>
       <r>   13.7866    0.0000 </r>
       <r>   14.3031    0.0000 </r>
       <r>   15.0009    0.0000 </r>
       <r>   15.3039    0.0000 </r>
       <r>   15.7273    0.0000 </r>
      </set>
      <set comment="kpoint 17">
       <r>  -12.5484    1.0000 </r>
       <r>  -11.5360    1.0000 </r>
       <r>   -8.5501    1.0000 </r>
       <r>   -8.3031    1.0000 </r>
       <r>   -5.8674    1.0000 </r>
       <r>   -5.5878    1.0000 </r>
       <r>   -5.2930    1.0000 </r>
       <r>   -4.7026    1.0000 </r>
       <r>   -4.5200    1.0000 </r>
       <r>   -3.6779    1.0000 </r>
       <r>   -3.0926    1.0000 </r>
       <r>   -1.4127    1.0000 </r>
       <r>   -1.1857    1.0000 </r>
       <r>   -1.0378    1.0000 </r>
       <r>   -0.2307    1.0000 </r>
       <r>    0.1634    1.0000 </r>
       <r>    0.2381    1.0000 </r>
       <r>    0.5341    1.0000 </r>
       <r>    0.6254    1.0000 </r>
       <r>    0.8851    1.0000 </r>
       <r>    0.9229    1.0000 </r>
       <r>    2.1577    0.0000 </r>
       <r>    4.9940    0.0000 </r>
       <r>    5.4387    0.0000 </r>
       <r>    6.2328    0.0000 </r>
       <r>    6.6504    0.0000 </r>
       <r>    7.3324    0.0000 </r>
       <r>    7.8462    0.0000 </r>
       <r>    8.5532    0.0000 </r>
       <r>    9.0911    0.0000 </r>
       <r>    9.3318    0.0000 </r>
       <r>    9.7080    0.0000 </r>
       <r>    9.7989    0.0000 </r>
       <r>   10.2517    0.0000 </r>
       <r>   10.6195    0.0000 </r>
       <r>   11.6139    0.0000 </r>
       <r>   11.8023    0.0000 </r>
       <r>   12.1582    0.0000 </r>
       <r>   12.3824    0.0000 </r>
       <r>   12.5564    0.0000 </r>
       <r>   12.8621    0.0000 </r>
       <r>   13.2889    0.0000 </r>
       <r>   13.6769    0.0000 </r>
       <r>   13.8213    0.0000 </r>
       <r>   14.1464    0.0000 </r>
       <r>   14.9539    0.0000 </r>
       <r>   15.3332    0.0000 </r>
       <r>   15.6135    0.0000 </r>
      </set>
      <set comment="kpoint 18">
       <r>  -12.4639    1.0000 </r>
       <r>  -11.6677    1.0000 </r>
       <r>   -8.5051    1.0000 </r>
       <r>   -8.2921    1.0000 </r>
       <r>   -5.8299    1.0000 </r>
       <r>   -5.6756    1.0000 </r>
       <r>   -5.4373    1.0000 </r>
       <r>   -4.6758    1.0000 </r>
       <r>   -4.6408    1.0000 </r>
       <r>   -3.1409    1.0000 </r>
       <r>   -2.6251    1.0000 </r>
       <r>   -1.8964    1.0000 </r>
       <r>   -1.1254    1.0000 </r>
       <r>   -1.0575    1.0000 </r>
       <r>   -0.2484    1.0000 </r>
       <r>   -0.0898    1.0000 </r>
       <r>    0.2754    1.0000 </r>
       <r>    0.4686    1.0000 </r>
       <r>    0.4837    1.0000 </r>
       <r>    0.7953    1.0000 </r>
       <r>    0.8554    1.0000 </r>
       <r>    1.8990    0.0547 </r>
       <r>    5.3182    0.0000 </r>
       <r>    5.9098    0.0000 </r>
       <r>    6.2052    0.0000 </r>
       <r>    6.7648    0.0000 </r>
       <r>    7.4984    0.0000 </r>
       <r>    7.8699    0.0000 </r>
       <r>    8.4848    0.0000 </r>
       <r>    9.2755    0.0000 </r>
       <r>    9.3071    0.0000 </r>
       <r>    9.5130    0.0000 </r>
       <r>    9.9574    0.0000 </r>
       <r>   10.0154    0.0000 </r>
       <r>   10.4668    0.0000 </r>
       <r>   11.2939    0.0000 </r>
       <r>   11.3106    0.0000 </r>
       <r>   12.1530    0.0000 </r>
       <r>   12.6371    0.0000 </r>
       <r>   12.8677    0.0000 </r>
       <r>   13.0827    0.0000 </r>
       <r>   13.4159    0.0000 </r>
       <r>   13.6495    0.0000 </r>
       <r>   13.9122    0.0000 </r>
       <r>   14.2817    0.0000 </r>
       <r>   15.0457    0.0000 </r>
       <r>   15.2548    0.0000 </r>
       <r>   15.8789    0.0000 </r>
      </set>
      <set comment="kpoint 19">
       <r>  -12.3420    1.0000 </r>
       <r>  -11.8352    1.0000 </r>
       <r>   -8.4419    1.0000 </r>
       <r>   -8.2936    1.0000 </r>
       <r>   -5.9023    1.0000 </r>
       <r>   -5.8857    1.0000 </r>
       <r>   -5.3237    1.0000 </r>
       <r>   -4.8032    1.0000 </r>
       <r>   -4.3601    1.0000 </r>
       <r>   -2.7894    1.0000 </r>
       <r>   -2.3063    1.0000 </r>
       <r>   -2.1507    1.0000 </r>
       <r>   -1.0675    1.0000 </r>
       <r>   -1.0422    1.0000 </r>
       <r>   -0.4123    1.0000 </r>
       <r>   -0.3642    1.0000 </r>
       <r>    0.1143    1.0000 </r>
       <r>    0.3411    1.0000 </r>
       <r>    0.6229    1.0000 </r>
       <r>    0.7378    1.0000 </r>
       <r>    0.7883    1.0000 </r>
       <r>    1.5619    1.0000 </r>
       <r>    5.8425    0.0000 </r>
       <r>    6.2387    0.0000 </r>
       <r>    6.4833    0.0000 </r>
       <r>    6.7157    0.0000 </r>
       <r>    7.4999    0.0000 </r>
       <r>    7.9334    0.0000 </r>
       <r>    8.4416    0.0000 </r>
       <r>    8.8406    0.0000 </r>
       <r>    9.1915    0.0000 </r>
       <r>    9.4952    0.0000 </r>
       <r>    9.8075    0.0000 </r>
       <r>   10.2548    0.0000 </r>
       <r>   10.7081    0.0000 </r>
       <r>   11.0070    0.0000 </r>
       <r>   11.3363    0.0000 </r>
       <r>   12.0764    0.0000 </r>
       <r>   12.3115    0.0000 </r>
       <r>   13.0622    0.0000 </r>
       <r>   13.1880    0.0000 </r>
       <r>   13.5431    0.0000 </r>
       <r>   13.7895    0.0000 </r>
       <r>   14.0457    0.0000 </r>
       <r>   14.6515    0.0000 </r>
       <r>   14.8838    0.0000 </r>
       <r>   15.3181    0.0000 </r>
       <r>   16.2059    0.0000 </r>
      </set>
      <set comment="kpoint 20">
       <r>  -12.1892    1.0000 </r>
       <r>  -12.0155    1.0000 </r>
       <r>   -8.3742    1.0000 </r>
       <r>   -8.3204    1.0000 </r>
       <r>   -5.9926    1.0000 </r>
       <r>   -5.9860    1.0000 </r>
       <r>   -5.1637    1.0000 </r>
       <r>   -4.9840    1.0000 </r>
       <r>   -3.8528    1.0000 </r>
       <r>   -3.2602    1.0000 </r>
       <r>   -2.0096    1.0000 </r>
       <r>   -1.8558    1.0000 </r>
       <r>   -1.0081    1.0000 </r>
       <r>   -0.9481    1.0000 </r>
       <r>   -0.7076    1.0000 </r>
       <r>   -0.6648    1.0000 </r>
       <r>    0.0932    1.0000 </r>
       <r>    0.1946    1.0000 </r>
       <r>    0.7220    1.0000 </r>
       <r>    0.7386    1.0000 </r>
       <r>    0.8852    1.0000 </r>
       <r>    1.2070    1.0000 </r>
       <r>    6.3718    0.0000 </r>
       <r>    6.4985    0.0000 </r>
       <r>    6.5515    0.0000 </r>
       <r>    7.0700    0.0000 </r>
       <r>    7.1434    0.0000 </r>
       <r>    7.6243    0.0000 </r>
       <r>    8.4317    0.0000 </r>
       <r>    8.4952    0.0000 </r>
       <r>    9.3856    0.0000 </r>
       <r>    9.5520    0.0000 </r>
       <r>    9.7500    0.0000 </r>
       <r>   10.0538    0.0000 </r>
       <r>   10.7692    0.0000 </r>
       <r>   11.1497    0.0000 </r>
       <r>   11.7633    0.0000 </r>
       <r>   11.8457    0.0000 </r>
       <r>   12.1409    0.0000 </r>
       <r>   13.0350    0.0000 </r>
       <r>   13.3329    0.0000 </r>
       <r>   13.5118    0.0000 </r>
       <r>   13.7400    0.0000 </r>
       <r>   13.8412    0.0000 </r>
       <r>   14.9957    0.0000 </r>
       <r>   15.0121    0.0000 </r>
       <r>   15.5544    0.0000 </r>
       <r>   15.8548    0.0000 </r>
      </set>
      <set comment="kpoint 21">
       <r>  -12.5318    1.0000 </r>
[...]
       <r>   -2.3539    1.0000 </r>
       <r>   -2.1584    1.0000 </r>
       <r>   -1.9975    1.0000 </r>
       <r>   -1.5275    1.0000 </r>
       <r>   -0.7669    1.0000 </r>
       <r>   -0.2382    1.0000 </r>
       <r>    0.1382    1.0000 </r>
       <r>    0.3566    1.0000 </r>
       <r>    0.4701    1.0000 </r>
       <r>    1.5474    1.0000 </r>
       <r>    1.5730    1.0000 </r>
       <r>    1.8276    0.6625 </r>
       <r>    5.4608    0.0000 </r>
       <r>    6.0889    0.0000 </r>
       <r>    6.6083    0.0000 </r>
       <r>    7.1372    0.0000 </r>
       <r>    7.6958    0.0000 </r>
       <r>    8.1592    0.0000 </r>
       <r>    8.9167    0.0000 </r>
       <r>    9.0675    0.0000 </r>
       <r>    9.6411    0.0000 </r>
       <r>    9.8735    0.0000 </r>
       <r>   10.4980    0.0000 </r>
       <r>   10.9586    0.0000 </r>
       <r>   11.0989    0.0000 </r>
       <r>   11.3631    0.0000 </r>
       <r>   11.4722    0.0000 </r>
       <r>   11.8629    0.0000 </r>
       <r>   12.7392    0.0000 </r>
       <r>   13.0168    0.0000 </r>
       <r>   13.2673    0.0000 </r>
       <r>   13.6402    0.0000 </r>
       <r>   13.7490    0.0000 </r>
       <r>   14.0496    0.0000 </r>
       <r>   14.3590    0.0000 </r>
       <r>   14.8688    0.0000 </r>
       <r>   14.9807    0.0000 </r>
       <r>   15.2797    0.0000 </r>
      </set>
      <set comment="kpoint 175">
       <r>  -12.0145    1.0000 </r>
       <r>  -11.8753    1.0000 </r>
       <r>   -8.5589    1.0000 </r>
       <r>   -8.4467    1.0000 </r>
       <r>   -5.9417    1.0000 </r>
       <r>   -5.8370    1.0000 </r>
       <r>   -4.9155    1.0000 </r>
       <r>   -4.5948    1.0000 </r>
       <r>   -4.4348    1.0000 </r>
       <r>   -3.9999    1.0000 </r>
       <r>   -2.2110    1.0000 </r>
       <r>   -2.1501    1.0000 </r>
       <r>   -2.0961    1.0000 </r>
       <r>   -1.8118    1.0000 </r>
       <r>   -0.2530    1.0000 </r>
       <r>   -0.0432    1.0000 </r>
       <r>    0.3594    1.0000 </r>
       <r>    0.4470    1.0000 </r>
       <r>    0.5088    1.0000 </r>
       <r>    0.8368    1.0000 </r>
       <r>    1.5870    1.0000 </r>
       <r>    1.6864    1.0000 </r>
       <r>    5.8034    0.0000 </r>
       <r>    5.9869    0.0000 </r>
       <r>    6.8118    0.0000 </r>
       <r>    7.3226    0.0000 </r>
       <r>    7.4110    0.0000 </r>
       <r>    7.4911    0.0000 </r>
       <r>    9.3216    0.0000 </r>
       <r>    9.5002    0.0000 </r>
       <r>    9.7070    0.0000 </r>
       <r>    9.8843    0.0000 </r>
       <r>   10.3705    0.0000 </r>
       <r>   10.7138    0.0000 </r>
       <r>   11.1648    0.0000 </r>
       <r>   11.4057    0.0000 </r>
       <r>   11.4164    0.0000 </r>
       <r>   11.5236    0.0000 </r>
       <r>   12.9796    0.0000 </r>
       <r>   13.0827    0.0000 </r>
       <r>   13.5895    0.0000 </r>
       <r>   13.9419    0.0000 </r>
       <r>   14.0720    0.0000 </r>
       <r>   14.1671    0.0000 </r>
       <r>   14.4804    0.0000 </r>
       <r>   14.6372    0.0000 </r>
       <r>   14.7889    0.0000 </r>
       <r>   14.9217    0.0000 </r>
      </set>
     </set>
    </set>
   </array>
  </eigenvalues>
  <separator name="orbital magnetization" >
   <v name="MAGDIPOLOUT">      0.00000000      0.00000000      0.00000000</v>
  </separator>
  <dos>
   <i name="efermi">      1.84238659 </i>
   <total>
    <array>
     <dimension dim="1">gridpoints</dimension>
     <dimension dim="2">spin</dimension>
     <field>energy</field>
     <field>total</field>
     <field>integrated</field>
     <set>
      <set comment="spin 1">
       <r>   -14.1722     0.0000     0.0000 </r>
       <r>   -14.0655     0.0000     0.0000 </r>
       <r>   -13.9588     0.0000     0.0000 </r>
       <r>   -13.8520     0.0000     0.0000 </r>
       <r>   -13.7453     0.0000     0.0000 </r>
       <r>   -13.6385     0.0000     0.0000 </r>
       <r>   -13.5318     0.0000     0.0000 </r>
       <r>   -13.4250     0.0000     0.0000 </r>
       <r>   -13.3183     0.0000     0.0000 </r>
       <r>   -13.2115     0.0000     0.0000 </r>
       <r>   -13.1048     0.0000     0.0000 </r>
       <r>   -12.9980     0.0000     0.0000 </r>
       <r>   -12.8913     0.0000     0.0000 </r>
       <r>   -12.7845     0.0039     0.0004 </r>
       <r>   -12.6778     0.5113     0.0550 </r>
       <r>   -12.5710     2.3985     0.3110 </r>
       <r>   -12.4643     3.5811     0.6933 </r>
       <r>   -12.3575     4.3843     1.1613 </r>
       <r>   -12.2508     3.5393     1.5391 </r>
       <r>   -12.1440     2.7391     1.8315 </r>
       <r>   -12.0373     2.7586     2.1260 </r>
       <r>   -11.9305     2.4942     2.3923 </r>
       <r>   -11.8238     2.7728     2.6883 </r>
       <r>   -11.7170     3.3993     3.0511 </r>
       <r>   -11.6103     3.5387     3.4289 </r>
       <r>   -11.5035     3.1562     3.7658 </r>
       <r>   -11.3968     1.7217     3.9496 </r>
       <r>   -11.2900     0.4622     3.9989 </r>
       <r>   -11.1833     0.0099     4.0000 </r>
       <r>   -11.0765     0.0000     4.0000 </r>
       <r>   -10.9698     0.0000     4.0000 </r>
       <r>   -10.8630     0.0000     4.0000 </r>
       <r>   -10.7563     0.0000     4.0000 </r>
       <r>   -10.6495     0.0000     4.0000 </r>
       <r>   -10.5428     0.0000     4.0000 </r>
       <r>   -10.4360     0.0000     4.0000 </r>
       <r>   -10.3293     0.0000     4.0000 </r>
       <r>   -10.2225     0.0000     4.0000 </r>
       <r>   -10.1158     0.0000     4.0000 </r>
       <r>   -10.0090     0.0000     4.0000 </r>
       <r>    -9.9023     0.0000     4.0000 </r>
       <r>    -9.7955     0.0000     4.0000 </r>
       <r>    -9.6888     0.0000     4.0000 </r>
       <r>    -9.5820     0.0000     4.0000 </r>
       <r>    -9.4753     0.0000     4.0000 </r>
       <r>    -9.3685     0.0000     4.0000 </r>
       <r>    -9.2618     0.0000     4.0000 </r>
       <r>    -9.1551     0.0000     4.0000 </r>
       <r>    -9.0483     0.0000     4.0000 </r>
       <r>    -8.9416     0.0007     4.0001 </r>
       <r>    -8.8348     0.2865     4.0307 </r>
       <r>    -8.7281     2.1286     4.2579 </r>
       <r>    -8.6213     5.4147     4.8359 </r>
       <r>    -8.5146     7.0362     5.5870 </r>
       <r>    -8.4078     6.2710     6.2564 </r>
       <r>    -8.3011     5.3333     6.8258 </r>
       <r>    -8.1943     4.8568     7.3442 </r>
       <r>    -8.0876     3.8549     7.7557 </r>
       <r>    -7.9808     1.6592     7.9328 </r>
       <r>    -7.8741     0.5766     7.9944 </r>
       <r>    -7.7673     0.0525     8.0000 </r>
       <r>    -7.6606     0.0000     8.0000 </r>
       <r>    -7.5538     0.0000     8.0000 </r>
       <r>    -7.4471     0.0000     8.0000 </r>
       <r>    -7.3403     0.0000     8.0000 </r>
       <r>    -7.2336     0.0000     8.0000 </r>
       <r>    -7.1268     0.0000     8.0000 </r>
       <r>    -7.0201     0.0003     8.0000 </r>
       <r>    -6.9133     0.1074     8.0115 </r>
       <r>    -6.8066     0.2611     8.0394 </r>
       <r>    -6.6998     0.4229     8.0845 </r>
       <r>    -6.5931     0.7666     8.1664 </r>
       <r>    -6.4863     0.8413     8.2562 </r>
       <r>    -6.3796     1.4219     8.4079 </r>
       <r>    -6.2728     1.9130     8.6122 </r>
       <r>    -6.1661     3.0466     8.9374 </r>
       <r>    -6.0593     3.8145     9.3446 </r>
       <r>    -5.9526     4.1299     9.7854 </r>
       <r>    -5.8458     4.0604    10.2189 </r>
       <r>    -5.7391     3.9073    10.6360 </r>
       <r>    -5.6323     4.0798    11.0715 </r>
       <r>    -5.5256     4.2127    11.5212 </r>
       <r>    -5.4188     4.5870    12.0108 </r>
       <r>    -5.3121     4.6462    12.5068 </r>
       <r>    -5.2053     4.5056    12.9878 </r>
       <r>    -5.0986     3.8969    13.4038 </r>
       <r>    -4.9918     3.2180    13.7473 </r>
       <r>    -4.8851     2.9934    14.0668 </r>
       <r>    -4.7783     2.2830    14.3105 </r>
       <r>    -4.6716     2.9002    14.6201 </r>
       <r>    -4.5649     3.3738    14.9803 </r>
       <r>    -4.4581     3.4248    15.3459 </r>
       <r>    -4.3514     3.3895    15.7077 </r>
       <r>    -4.2446     2.9735    16.0251 </r>
       <r>    -4.1379     2.9151    16.3363 </r>
       <r>    -4.0311     2.9175    16.6477 </r>
       <r>    -3.9244     2.9066    16.9580 </r>
       <r>    -3.8176     3.0931    17.2882 </r>
       <r>    -3.7109     2.9180    17.5997 </r>
       <r>    -3.6041     2.7133    17.8893 </r>
       <r>    -3.4974     3.0877    18.2189 </r>
       <r>    -3.3906     2.6818    18.5052 </r>
       <r>    -3.2839     2.8017    18.8043 </r>
       <r>    -3.1771     2.8397    19.1074 </r>
       <r>    -3.0704     2.6834    19.3939 </r>
       <r>    -2.9636     3.1180    19.7267 </r>
       <r>    -2.8569     2.9960    20.0466 </r>
       <r>    -2.7501     2.4632    20.3095 </r>
       <r>    -2.6434     2.6166    20.5888 </r>
       <r>    -2.5366     3.0001    20.9091 </r>
       <r>    -2.4299     3.0260    21.2321 </r>
       <r>    -2.3231     3.1695    21.5704 </r>
       <r>    -2.2164     4.0014    21.9976 </r>
       <r>    -2.1096     3.6494    22.3872 </r>
       <r>    -2.0029     3.1379    22.7221 </r>
       <r>    -1.8961     4.8754    23.2426 </r>
       <r>    -1.7894     5.5062    23.8303 </r>
       <r>    -1.6826     5.6817    24.4369 </r>
       <r>    -1.5759     6.1486    25.0932 </r>
       <r>    -1.4691     6.1868    25.7537 </r>
       <r>    -1.3624     5.6537    26.3572 </r>
       <r>    -1.2556     4.7056    26.8595 </r>
       <r>    -1.1489     6.4516    27.5482 </r>
       <r>    -1.0421     4.3678    28.0145 </r>
       <r>    -0.9354     2.3111    28.2612 </r>
       <r>    -0.8286     2.7139    28.5509 </r>
       <r>    -0.7219     2.8940    28.8598 </r>
       <r>    -0.6151     4.3499    29.3242 </r>
       <r>    -0.5084     6.7538    30.0451 </r>
       <r>    -0.4016     5.7126    30.6549 </r>
       <r>    -0.2949     6.5606    31.3553 </r>
       <r>    -0.1881     6.4214    32.0408 </r>
       <r>    -0.0814     6.7215    32.7583 </r>
       <r>     0.0254     6.8978    33.4946 </r>
       <r>     0.1321     6.1867    34.1550 </r>
       <r>     0.2388     8.8639    35.1012 </r>
       <r>     0.3456     8.2058    35.9772 </r>
       <r>     0.4523     8.6613    36.9018 </r>
       <r>     0.5591     5.5459    37.4938 </r>
       <r>     0.6658     3.0954    37.8242 </r>
       <r>     0.7726     3.1674    38.1623 </r>
       <r>     0.8793     3.5961    38.5462 </r>
       <r>     0.9861     3.5959    38.9301 </r>
       <r>     1.0928     2.8329    39.2325 </r>
       <r>     1.1996     3.3398    39.5890 </r>
       <r>     1.3063     4.4381    40.0628 </r>
       <r>     1.4131     3.8703    40.4759 </r>
       <r>     1.5198     3.6784    40.8686 </r>
       <r>     1.6266     4.5976    41.3594 </r>
       <r>     1.7333     3.4714    41.7300 </r>
       <r>     1.8401     2.4741    41.9941 </r>
       <r>     1.9468     2.6928    42.2815 </r>
       <r>     2.0536     2.1101    42.5068 </r>
       <r>     2.1603     2.6383    42.7884 </r>
       <r>     2.2671     2.6481    43.0711 </r>
       <r>     2.3738     2.0185    43.2866 </r>
       <r>     2.4806     0.9616    43.3892 </r>
       <r>     2.5873     0.3840    43.4302 </r>
       <r>     2.6941     0.5774    43.4918 </r>
       <r>     2.8008     0.4224    43.5369 </r>
       <r>     2.9076     0.3073    43.5697 </r>
       <r>     3.0143     0.7079    43.6453 </r>
       <r>     3.1211     1.0344    43.7557 </r>
       <r>     3.2278     0.6018    43.8200 </r>
       <r>     3.3346     0.0214    43.8223 </r>
       <r>     3.4413     0.1089    43.8339 </r>
       <r>     3.5481     0.3884    43.8753 </r>
       <r>     3.6548     0.3503    43.9127 </r>
       <r>     3.7616     0.3557    43.9507 </r>
       <r>     3.8683     0.4239    43.9960 </r>
       <r>     3.9751     0.0378    44.0000 </r>
       <r>     4.0818     0.0000    44.0000 </r>
       <r>     4.1886     0.0110    44.0012 </r>
       <r>     4.2953     0.1528    44.0175 </r>
       <r>     4.4021     0.3585    44.0558 </r>
       <r>     4.5088     0.4338    44.1021 </r>
       <r>     4.6156     0.6114    44.1673 </r>
       <r>     4.7223     0.8482    44.2579 </r>
       <r>     4.8291     0.8430    44.3479 </r>
       <r>     4.9358     0.8793    44.4417 </r>
       <r>     5.0425     1.2197    44.5719 </r>
       <r>     5.1493     1.2095    44.7010 </r>
       <r>     5.2560     1.5508    44.8666 </r>
       <r>     5.3628     2.0881    45.0895 </r>
       <r>     5.4695     2.5220    45.3587 </r>
       <r>     5.5763     2.8008    45.6577 </r>
       <r>     5.6830     3.2371    46.0032 </r>
       <r>     5.7898     3.3201    46.3577 </r>
       <r>     5.8965     4.1526    46.8009 </r>
       <r>     6.0033     4.8458    47.3182 </r>
       <r>     6.1100     4.1442    47.7606 </r>
       <r>     6.2168     4.5788    48.2494 </r>
       <r>     6.3235     4.3801    48.7170 </r>
       <r>     6.4303     3.9250    49.1360 </r>
       <r>     6.5370     4.5483    49.6215 </r>
       <r>     6.6438     3.2988    49.9736 </r>
       <r>     6.7505     3.9289    50.3930 </r>
       <r>     6.8573     4.5936    50.8834 </r>
       <r>     6.9640     4.6249    51.3771 </r>
       <r>     7.0708     4.3404    51.8404 </r>
       <r>     7.1775     5.5539    52.4333 </r>
       <r>     7.2843     5.0589    52.9733 </r>
       <r>     7.3910     4.5101    53.4548 </r>
       <r>     7.4978     4.2616    53.9097 </r>
       <r>     7.6045     3.6199    54.2961 </r>
       <r>     7.7113     3.0931    54.6263 </r>
       <r>     7.8180     3.0447    54.9513 </r>
       <r>     7.9248     2.9708    55.2685 </r>
       <r>     8.0315     4.1414    55.7105 </r>
       <r>     8.1383     3.9602    56.1333 </r>
       <r>     8.2450     3.7889    56.5377 </r>
       <r>     8.3518     4.0375    56.9687 </r>
       <r>     8.4585     4.2770    57.4253 </r>
       <r>     8.5653     4.5237    57.9082 </r>
       <r>     8.6720     4.3544    58.3730 </r>
       <r>     8.7788     5.4087    58.9504 </r>
       <r>     8.8855     4.7034    59.4525 </r>
       <r>     8.9923     5.2612    60.0141 </r>
       <r>     9.0990     5.2284    60.5722 </r>
       <r>     9.2058     5.0428    61.1106 </r>
       <r>     9.3125     4.6499    61.6069 </r>
       <r>     9.4193     4.4367    62.0806 </r>
       <r>     9.5260     5.0752    62.6223 </r>
       <r>     9.6327     5.0504    63.1615 </r>
       <r>     9.7395     5.2701    63.7240 </r>
       <r>     9.8462     4.5083    64.2053 </r>
       <r>     9.9530     3.7359    64.6041 </r>
       <r>    10.0597     5.1977    65.1589 </r>
       <r>    10.1665     4.7301    65.6639 </r>
       <r>    10.2732     4.1969    66.1119 </r>
       <r>    10.3800     5.2782    66.6753 </r>
       <r>    10.4867     5.8443    67.2992 </r>
       <r>    10.5935     4.1005    67.7369 </r>
       <r>    10.7002     3.9386    68.1574 </r>
       <r>    10.8070     3.3129    68.5110 </r>
       <r>    10.9137     4.7209    69.0150 </r>
       <r>    11.0205     5.3465    69.5857 </r>
       <r>    11.1272     6.3725    70.2660 </r>
       <r>    11.2340     6.0079    70.9073 </r>
       <r>    11.3407     5.1215    71.4540 </r>
       <r>    11.4475     4.5137    71.9358 </r>
       <r>    11.5542     4.4787    72.4139 </r>
       <r>    11.6610     5.0229    72.9501 </r>
       <r>    11.7677     4.8485    73.4677 </r>
       <r>    11.8745     5.9491    74.1027 </r>
       <r>    11.9812     6.0693    74.7506 </r>
       <r>    12.0880     6.0947    75.4012 </r>
       <r>    12.1947     5.4954    75.9879 </r>
       <r>    12.3015     5.0131    76.5230 </r>
       <r>    12.4082     5.7348    77.1352 </r>
       <r>    12.5150     5.9609    77.7715 </r>
       <r>    12.6217     5.8818    78.3994 </r>
       <r>    12.7285     5.9987    79.0397 </r>
       <r>    12.8352     5.9119    79.6708 </r>
       <r>    12.9420     5.6457    80.2735 </r>
       <r>    13.0487     6.3454    80.9509 </r>
       <r>    13.1555     6.3620    81.6300 </r>
       <r>    13.2622     5.5158    82.2188 </r>
       <r>    13.3690     6.1150    82.8716 </r>
       <r>    13.4757     5.4925    83.4579 </r>
       <r>    13.5825     4.8740    83.9782 </r>
       <r>    13.6892     6.2215    84.6423 </r>
       <r>    13.7960     5.5123    85.2308 </r>
       <r>    13.9027     5.3920    85.8064 </r>
       <r>    14.0095     5.4772    86.3910 </r>
       <r>    14.1162     4.6753    86.8901 </r>
       <r>    14.2230     5.0030    87.4242 </r>
       <r>    14.3297     4.9221    87.9496 </r>
       <r>    14.4364     4.9276    88.4756 </r>
       <r>    14.5432     5.2723    89.0384 </r>
       <r>    14.6499     5.2273    89.5965 </r>
       <r>    14.7567     4.1105    90.0352 </r>
       <r>    14.8634     4.9651    90.5653 </r>
       <r>    14.9702     6.1068    91.2172 </r>
       <r>    15.0769     5.7544    91.8314 </r>
       <r>    15.1837     5.7564    92.4459 </r>
       <r>    15.2904     5.9762    93.0839 </r>
       <r>    15.3972     5.7993    93.7030 </r>
       <r>    15.5039     6.0592    94.3498 </r>
       <r>    15.6107     4.6503    94.8462 </r>
       <r>    15.7174     2.5523    95.1186 </r>
       <r>    15.8242     2.7075    95.4077 </r>
       <r>    15.9309     1.8304    95.6030 </r>
       <r>    16.0377     1.1224    95.7229 </r>
       <r>    16.1444     0.8778    95.8166 </r>
       <r>    16.2512     0.7200    95.8934 </r>
       <r>    16.3579     0.8187    95.9808 </r>
       <r>    16.4647     0.1780    95.9998 </r>
       <r>    16.5714     0.0017    96.0000 </r>
       <r>    16.6782     0.0000    96.0000 </r>
       <r>    16.7849     0.0000    96.0000 </r>
       <r>    16.8917     0.0000    96.0000 </r>
       <r>    16.9984     0.0000    96.0000 </r>
       <r>    17.1052     0.0000    96.0000 </r>
       <r>    17.2119     0.0000    96.0000 </r>
       <r>    17.3187     0.0000    96.0000 </r>
       <r>    17.4254     0.0000    96.0000 </r>
       <r>    17.5322     0.0000    96.0000 </r>
       <r>    17.6389     0.0000    96.0000 </r>
       <r>    17.7457     0.0000    96.0000 </r>
       <r>    17.8524     0.0000    96.0000 </r>
      </set>
     </set>
    </array>
   </total>
  </dos>
 </calculation>
 <structure name="finalpos" >
  <crystal>
   <varray name="basis" >
    <v>       5.71067280       0.00000000       0.00000000 </v>
    <v>       0.00000000       4.05761496       0.00000000 </v>
    <v>       0.00000000       0.00000000       6.21909008 </v>
   </varray>
   <i name="volume">    144.10696041 </i>
   <varray name="rec_basis" >
    <v>       0.17511072       0.00000000       0.00000000 </v>
    <v>       0.00000000       0.24645020       0.00000000 </v>
    <v>       0.00000000       0.00000000       0.16079523 </v>
   </varray>
  </crystal>
  <varray name="positions" >
   <v>       0.52123000       0.50000000       0.63796000 </v>
   <v>       0.47877000       0.50000000       0.36204000 </v>
   <v>       0.97877000       0.50000000       0.63796000 </v>
   <v>       0.02123000       0.50000000       0.36204000 </v>
   <v>       0.60090000       0.50000000       0.89991000 </v>
   <v>       0.39910000       0.50000000       0.10009000 </v>
   <v>       0.89910000       0.50000000       0.89991000 </v>
   <v>       0.10090000       0.50000000       0.10009000 </v>
   <v>       0.75000000       0.79171000       0.72973000 </v>
   <v>       0.25000000       0.20829000       0.27027000 </v>
   <v>       0.75000000       0.20829000       0.72973000 </v>
   <v>       0.25000000       0.79171000       0.27027000 </v>
   <v>       0.25000000       0.50000000       0.52367000 </v>
   <v>       0.75000000       0.50000000       0.47633000 </v>
  </varray>
 </structure>
</modeling>
