   1   1   0   0
  0.3380065E+04  0.1500750E-08  0.1250625E-08  0.1800900E-08  0.5000000E-15
  1.000000000000000E-004
  CAR 
 Convergence                             
      2.49169676     -9.97669554  301     -3.60724475      1.00000000
     -9.977  0.0000E+00  0.0000E+00
     -9.935  0.0000E+00  0.0000E+00
     -9.894  0.0000E+00  0.0000E+00
     -9.852  0.0000E+00  0.0000E+00
     -9.810  0.0000E+00  0.0000E+00
     -9.769  0.0000E+00  0.0000E+00
     -9.727  0.0000E+00  0.0000E+00
     -9.686  0.1469E-12  0.6106E-14
     -9.644  0.8312E-09  0.3455E-10
     -9.603  0.1210E-05  0.5031E-07
     -9.561  0.4594E-03  0.1914E-04
     -9.520  0.4624E-01  0.1941E-02
     -9.478  0.1262E+01  0.5440E-01
     -9.436  0.9625E+01  0.4544E+00
     -9.395  0.2109E+02  0.1331E+01
     -9.353  0.1348E+02  0.1891E+01
     -9.312  0.2490E+01  0.1995E+01
     -9.270  0.1295E+00  0.2000E+01
     -9.229  0.1842E-02  0.2000E+01
     -9.187  0.6980E-05  0.2000E+01
     -9.145  0.6928E-08  0.2000E+01
     -9.104  0.1779E-11  0.2000E+01
     -9.062  0.0000E+00  0.2000E+01
     -9.021  0.0000E+00  0.2000E+01
     -8.979  0.0000E+00  0.2000E+01
     -8.938  0.0000E+00  0.2000E+01
     -8.896  0.0000E+00  0.2000E+01
     -8.855  0.0000E+00  0.2000E+01
     -8.813  0.0000E+00  0.2000E+01
     -8.771  0.0000E+00  0.2000E+01
     -8.730  0.0000E+00  0.2000E+01
     -8.688  0.0000E+00  0.2000E+01
     -8.647  0.0000E+00  0.2000E+01
     -8.605  0.0000E+00  0.2000E+01
     -8.564  0.0000E+00  0.2000E+01
     -8.522  0.0000E+00  0.2000E+01
     -8.480  0.0000E+00  0.2000E+01
     -8.439  0.0000E+00  0.2000E+01
     -8.397  0.0000E+00  0.2000E+01
     -8.356  0.0000E+00  0.2000E+01
     -8.314  0.0000E+00  0.2000E+01
     -8.273  0.0000E+00  0.2000E+01
     -8.231  0.0000E+00  0.2000E+01
     -8.190  0.0000E+00  0.2000E+01
     -8.148  0.0000E+00  0.2000E+01
     -8.106  0.0000E+00  0.2000E+01
     -8.065  0.0000E+00  0.2000E+01
     -8.023  0.0000E+00  0.2000E+01
     -7.982  0.0000E+00  0.2000E+01
     -7.940  0.0000E+00  0.2000E+01
     -7.899  0.0000E+00  0.2000E+01
     -7.857  0.0000E+00  0.2000E+01
     -7.816  0.0000E+00  0.2000E+01
     -7.774  0.0000E+00  0.2000E+01
     -7.732  0.0000E+00  0.2000E+01
     -7.691  0.0000E+00  0.2000E+01
     -7.649  0.0000E+00  0.2000E+01
     -7.608  0.0000E+00  0.2000E+01
     -7.566  0.0000E+00  0.2000E+01
     -7.525  0.0000E+00  0.2000E+01
     -7.483  0.0000E+00  0.2000E+01
     -7.441  0.0000E+00  0.2000E+01
     -7.400  0.0000E+00  0.2000E+01
     -7.358  0.0000E+00  0.2000E+01
     -7.317  0.0000E+00  0.2000E+01
     -7.275  0.0000E+00  0.2000E+01
     -7.234  0.0000E+00  0.2000E+01
     -7.192  0.0000E+00  0.2000E+01
     -7.151  0.0000E+00  0.2000E+01
     -7.109  0.0000E+00  0.2000E+01
     -7.067  0.0000E+00  0.2000E+01
     -7.026  0.0000E+00  0.2000E+01
     -6.984  0.0000E+00  0.2000E+01
     -6.943  0.0000E+00  0.2000E+01
     -6.901  0.0000E+00  0.2000E+01
     -6.860  0.0000E+00  0.2000E+01
     -6.818  0.0000E+00  0.2000E+01
     -6.776  0.0000E+00  0.2000E+01
     -6.735  0.0000E+00  0.2000E+01
     -6.693  0.0000E+00  0.2000E+01
     -6.652  0.0000E+00  0.2000E+01
     -6.610  0.0000E+00  0.2000E+01
     -6.569  0.0000E+00  0.2000E+01
     -6.527  0.0000E+00  0.2000E+01
     -6.486  0.0000E+00  0.2000E+01
     -6.444  0.0000E+00  0.2000E+01
     -6.402  0.0000E+00  0.2000E+01
     -6.361  0.0000E+00  0.2000E+01
     -6.319  0.0000E+00  0.2000E+01
     -6.278  0.0000E+00  0.2000E+01
     -6.236  0.0000E+00  0.2000E+01
     -6.195  0.0000E+00  0.2000E+01
     -6.153  0.0000E+00  0.2000E+01
     -6.111  0.0000E+00  0.2000E+01
     -6.070  0.0000E+00  0.2000E+01
     -6.028  0.0000E+00  0.2000E+01
     -5.987  0.0000E+00  0.2000E+01
     -5.945  0.0000E+00  0.2000E+01
     -5.904  0.0000E+00  0.2000E+01
     -5.862  0.0000E+00  0.2000E+01
     -5.821  0.0000E+00  0.2000E+01
     -5.779  0.0000E+00  0.2000E+01
     -5.737  0.0000E+00  0.2000E+01
     -5.696  0.0000E+00  0.2000E+01
     -5.654  0.0000E+00  0.2000E+01
     -5.613  0.0000E+00  0.2000E+01
     -5.571  0.0000E+00  0.2000E+01
     -5.530  0.0000E+00  0.2000E+01
     -5.488  0.0000E+00  0.2000E+01
     -5.447  0.0000E+00  0.2000E+01
     -5.405  0.0000E+00  0.2000E+01
     -5.363  0.0000E+00  0.2000E+01
     -5.322  0.0000E+00  0.2000E+01
     -5.280  0.0000E+00  0.2000E+01
     -5.239  0.0000E+00  0.2000E+01
     -5.197  0.0000E+00  0.2000E+01
     -5.156  0.0000E+00  0.2000E+01
     -5.114  0.0000E+00  0.2000E+01
     -5.072  0.0000E+00  0.2000E+01
     -5.031  0.0000E+00  0.2000E+01
     -4.989  0.0000E+00  0.2000E+01
     -4.948  0.0000E+00  0.2000E+01
     -4.906  0.0000E+00  0.2000E+01
     -4.865  0.0000E+00  0.2000E+01
     -4.823  0.0000E+00  0.2000E+01
     -4.782  0.0000E+00  0.2000E+01
     -4.740  0.0000E+00  0.2000E+01
     -4.698  0.0000E+00  0.2000E+01
     -4.657  0.0000E+00  0.2000E+01
     -4.615  0.0000E+00  0.2000E+01
     -4.574  0.0000E+00  0.2000E+01
     -4.532  0.0000E+00  0.2000E+01
     -4.491  0.0000E+00  0.2000E+01
     -4.449  0.0000E+00  0.2000E+01
     -4.407  0.0000E+00  0.2000E+01
     -4.366  0.0000E+00  0.2000E+01
     -4.324  0.0000E+00  0.2000E+01
     -4.283  0.0000E+00  0.2000E+01
     -4.241  0.0000E+00  0.2000E+01
     -4.200  0.0000E+00  0.2000E+01
     -4.158  0.0000E+00  0.2000E+01
     -4.117  0.0000E+00  0.2000E+01
     -4.075  0.0000E+00  0.2000E+01
     -4.033  0.0000E+00  0.2000E+01
     -3.992  0.0000E+00  0.2000E+01
     -3.950  0.0000E+00  0.2000E+01
     -3.909  0.0000E+00  0.2000E+01
     -3.867  0.8014E-14  0.2000E+01
     -3.826  0.6540E-10  0.2000E+01
     -3.784  0.1727E-06  0.2000E+01
     -3.742  0.1184E-03  0.2000E+01
     -3.701  0.2136E-01  0.2001E+01
     -3.659  0.1033E+01  0.2044E+01
     -3.618  0.1377E+02  0.2616E+01
     -3.576  0.5213E+02  0.4783E+01
     -3.535  0.5734E+02  0.7166E+01
     -3.493  0.1835E+02  0.7929E+01
     -3.452  0.1676E+01  0.7998E+01
     -3.410  0.4237E-01  0.8000E+01
     -3.368  0.2884E-03  0.8000E+01
     -3.327  0.5177E-06  0.8000E+01
     -3.285  0.2416E-09  0.8000E+01
     -3.244  0.3206E-13  0.8000E+01
     -3.202  0.0000E+00  0.8000E+01
     -3.161  0.0000E+00  0.8000E+01
     -3.119  0.0000E+00  0.8000E+01
     -3.078  0.0000E+00  0.8000E+01
     -3.036  0.0000E+00  0.8000E+01
     -2.994  0.0000E+00  0.8000E+01
     -2.953  0.0000E+00  0.8000E+01
     -2.911  0.0000E+00  0.8000E+01
     -2.870  0.0000E+00  0.8000E+01
     -2.828  0.0000E+00  0.8000E+01
     -2.787  0.0000E+00  0.8000E+01
     -2.745  0.0000E+00  0.8000E+01
     -2.703  0.0000E+00  0.8000E+01
     -2.662  0.0000E+00  0.8000E+01
     -2.620  0.0000E+00  0.8000E+01
     -2.579  0.0000E+00  0.8000E+01
     -2.537  0.0000E+00  0.8000E+01
     -2.496  0.0000E+00  0.8000E+01
     -2.454  0.0000E+00  0.8000E+01
     -2.413  0.0000E+00  0.8000E+01
     -2.371  0.0000E+00  0.8000E+01
     -2.329  0.0000E+00  0.8000E+01
     -2.288  0.0000E+00  0.8000E+01
     -2.246  0.0000E+00  0.8000E+01
     -2.205  0.0000E+00  0.8000E+01
     -2.163  0.0000E+00  0.8000E+01
     -2.122  0.0000E+00  0.8000E+01
     -2.080  0.0000E+00  0.8000E+01
     -2.038  0.0000E+00  0.8000E+01
     -1.997  0.0000E+00  0.8000E+01
     -1.955  0.0000E+00  0.8000E+01
     -1.914  0.0000E+00  0.8000E+01
     -1.872  0.0000E+00  0.8000E+01
     -1.831  0.0000E+00  0.8000E+01
     -1.789  0.0000E+00  0.8000E+01
     -1.748  0.0000E+00  0.8000E+01
     -1.706  0.0000E+00  0.8000E+01
     -1.664  0.0000E+00  0.8000E+01
     -1.623  0.0000E+00  0.8000E+01
     -1.581  0.0000E+00  0.8000E+01
     -1.540  0.0000E+00  0.8000E+01
     -1.498  0.0000E+00  0.8000E+01
     -1.457  0.0000E+00  0.8000E+01
     -1.415  0.0000E+00  0.8000E+01
     -1.374  0.0000E+00  0.8000E+01
     -1.332  0.0000E+00  0.8000E+01
     -1.290  0.0000E+00  0.8000E+01
     -1.249  0.0000E+00  0.8000E+01
     -1.207  0.0000E+00  0.8000E+01
     -1.166  0.0000E+00  0.8000E+01
     -1.124  0.0000E+00  0.8000E+01
     -1.083  0.0000E+00  0.8000E+01
     -1.041  0.0000E+00  0.8000E+01
     -0.999  0.0000E+00  0.8000E+01
     -0.958  0.0000E+00  0.8000E+01
     -0.916  0.0000E+00  0.8000E+01
     -0.875  0.0000E+00  0.8000E+01
     -0.833  0.0000E+00  0.8000E+01
     -0.792  0.0000E+00  0.8000E+01
     -0.750  0.0000E+00  0.8000E+01
     -0.709  0.0000E+00  0.8000E+01
     -0.667  0.0000E+00  0.8000E+01
     -0.625  0.0000E+00  0.8000E+01
     -0.584  0.0000E+00  0.8000E+01
     -0.542  0.4155E-15  0.8000E+01
     -0.501  0.3340E-11  0.8000E+01
     -0.459  0.6864E-08  0.8000E+01
     -0.418  0.3881E-05  0.8000E+01
     -0.376  0.6267E-03  0.8000E+01
     -0.334  0.3055E-01  0.8001E+01
     -0.293  0.4885E+00  0.8022E+01
     -0.251  0.2891E+01  0.8142E+01
     -0.210  0.7525E+01  0.8455E+01
     -0.168  0.1068E+02  0.8898E+01
     -0.127  0.1048E+02  0.9334E+01
     -0.085  0.8605E+01  0.9691E+01
     -0.044  0.5287E+01  0.9911E+01
     -0.002  0.1864E+01  0.9989E+01
      0.040  0.6525E+00  0.1002E+02
      0.081  0.1992E+01  0.1010E+02
      0.123  0.5575E+01  0.1033E+02
      0.164  0.1020E+02  0.1075E+02
      0.206  0.1390E+02  0.1133E+02
      0.247  0.1561E+02  0.1198E+02
      0.289  0.1580E+02  0.1264E+02
      0.331  0.1593E+02  0.1330E+02
      0.372  0.1621E+02  0.1397E+02
      0.414  0.1651E+02  0.1466E+02
      0.455  0.1755E+02  0.1539E+02
      0.497  0.1849E+02  0.1616E+02
      0.538  0.1850E+02  0.1693E+02
      0.580  0.1897E+02  0.1772E+02
      0.621  0.1990E+02  0.1854E+02
      0.663  0.2037E+02  0.1939E+02
      0.705  0.2100E+02  0.2026E+02
      0.746  0.2240E+02  0.2119E+02
      0.788  0.2246E+02  0.2213E+02
      0.829  0.2188E+02  0.2304E+02
      0.871  0.2331E+02  0.2400E+02
      0.912  0.2455E+02  0.2503E+02
      0.954  0.2426E+02  0.2603E+02
      0.995  0.2486E+02  0.2707E+02
      1.037  0.2592E+02  0.2814E+02
      1.079  0.2604E+02  0.2923E+02
      1.120  0.2609E+02  0.3031E+02
      1.162  0.2684E+02  0.3143E+02
      1.203  0.2774E+02  0.3258E+02
      1.245  0.2737E+02  0.3372E+02
      1.286  0.2751E+02  0.3486E+02
      1.328  0.2858E+02  0.3605E+02
      1.370  0.2865E+02  0.3724E+02
      1.411  0.2835E+02  0.3842E+02
      1.453  0.2935E+02  0.3964E+02
      1.494  0.3092E+02  0.4092E+02
      1.536  0.3008E+02  0.4217E+02
      1.577  0.2960E+02  0.4340E+02
      1.619  0.3012E+02  0.4465E+02
      1.660  0.2778E+02  0.4581E+02
      1.702  0.2131E+02  0.4669E+02
      1.744  0.1413E+02  0.4728E+02
      1.785  0.8379E+01  0.4763E+02
      1.827  0.4826E+01  0.4783E+02
      1.868  0.2586E+01  0.4794E+02
      1.910  0.1096E+01  0.4798E+02
      1.951  0.3478E+00  0.4800E+02
      1.993  0.7334E-01  0.4800E+02
      2.035  0.7095E-02  0.4800E+02
      2.076  0.2269E-03  0.4800E+02
      2.118  0.2075E-05  0.4800E+02
      2.159  0.5132E-08  0.4800E+02
      2.201  0.3349E-11  0.4800E+02
      2.242  0.5767E-15  0.4800E+02
      2.284  0.0000E+00  0.4800E+02
      2.325  0.0000E+00  0.4800E+02
      2.367  0.0000E+00  0.4800E+02
      2.409  0.0000E+00  0.4800E+02
      2.450  0.0000E+00  0.4800E+02
      2.492  0.0000E+00  0.4800E+02
