   1   1   0   0
  0.3389195E+04  0.1502100E-08  0.1251750E-08  0.1802520E-08  0.5000000E-15
  1.000000000000000E-004
  CAR 
 Convergence                             
      2.48816102     -9.97663849  301     -3.60735010      1.00000000
     -9.977  0.0000E+00  0.0000E+00
     -9.935  0.0000E+00  0.0000E+00
     -9.894  0.0000E+00  0.0000E+00
     -9.852  0.0000E+00  0.0000E+00
     -9.810  0.0000E+00  0.0000E+00
     -9.769  0.0000E+00  0.0000E+00
     -9.727  0.0000E+00  0.0000E+00
     -9.686  0.1496E-12  0.6217E-14
     -9.644  0.8423E-09  0.3500E-10
     -9.603  0.1221E-05  0.5076E-07
     -9.561  0.4620E-03  0.1925E-04
     -9.520  0.4639E-01  0.1947E-02
     -9.478  0.1264E+01  0.5447E-01
     -9.436  0.9629E+01  0.4545E+00
     -9.395  0.2109E+02  0.1331E+01
     -9.353  0.1348E+02  0.1891E+01
     -9.312  0.2493E+01  0.1995E+01
     -9.270  0.1299E+00  0.2000E+01
     -9.229  0.1851E-02  0.2000E+01
     -9.187  0.7037E-05  0.2000E+01
     -9.146  0.7011E-08  0.2000E+01
     -9.104  0.1806E-11  0.2000E+01
     -9.063  0.0000E+00  0.2000E+01
     -9.021  0.0000E+00  0.2000E+01
     -8.979  0.0000E+00  0.2000E+01
     -8.938  0.0000E+00  0.2000E+01
     -8.896  0.0000E+00  0.2000E+01
     -8.855  0.0000E+00  0.2000E+01
     -8.813  0.0000E+00  0.2000E+01
     -8.772  0.0000E+00  0.2000E+01
     -8.730  0.0000E+00  0.2000E+01
     -8.689  0.0000E+00  0.2000E+01
     -8.647  0.0000E+00  0.2000E+01
     -8.606  0.0000E+00  0.2000E+01
     -8.564  0.0000E+00  0.2000E+01
     -8.522  0.0000E+00  0.2000E+01
     -8.481  0.0000E+00  0.2000E+01
     -8.439  0.0000E+00  0.2000E+01
     -8.398  0.0000E+00  0.2000E+01
     -8.356  0.0000E+00  0.2000E+01
     -8.315  0.0000E+00  0.2000E+01
     -8.273  0.0000E+00  0.2000E+01
     -8.232  0.0000E+00  0.2000E+01
     -8.190  0.0000E+00  0.2000E+01
     -8.148  0.0000E+00  0.2000E+01
     -8.107  0.0000E+00  0.2000E+01
     -8.065  0.0000E+00  0.2000E+01
     -8.024  0.0000E+00  0.2000E+01
     -7.982  0.0000E+00  0.2000E+01
     -7.941  0.0000E+00  0.2000E+01
     -7.899  0.0000E+00  0.2000E+01
     -7.858  0.0000E+00  0.2000E+01
     -7.816  0.0000E+00  0.2000E+01
     -7.775  0.0000E+00  0.2000E+01
     -7.733  0.0000E+00  0.2000E+01
     -7.691  0.0000E+00  0.2000E+01
     -7.650  0.0000E+00  0.2000E+01
     -7.608  0.0000E+00  0.2000E+01
     -7.567  0.0000E+00  0.2000E+01
     -7.525  0.0000E+00  0.2000E+01
     -7.484  0.0000E+00  0.2000E+01
     -7.442  0.0000E+00  0.2000E+01
     -7.401  0.0000E+00  0.2000E+01
     -7.359  0.0000E+00  0.2000E+01
     -7.317  0.0000E+00  0.2000E+01
     -7.276  0.0000E+00  0.2000E+01
     -7.234  0.0000E+00  0.2000E+01
     -7.193  0.0000E+00  0.2000E+01
     -7.151  0.0000E+00  0.2000E+01
     -7.110  0.0000E+00  0.2000E+01
     -7.068  0.0000E+00  0.2000E+01
     -7.027  0.0000E+00  0.2000E+01
     -6.985  0.0000E+00  0.2000E+01
     -6.944  0.0000E+00  0.2000E+01
     -6.902  0.0000E+00  0.2000E+01
     -6.860  0.0000E+00  0.2000E+01
     -6.819  0.0000E+00  0.2000E+01
     -6.777  0.0000E+00  0.2000E+01
     -6.736  0.0000E+00  0.2000E+01
     -6.694  0.0000E+00  0.2000E+01
     -6.653  0.0000E+00  0.2000E+01
     -6.611  0.0000E+00  0.2000E+01
     -6.570  0.0000E+00  0.2000E+01
     -6.528  0.0000E+00  0.2000E+01
     -6.486  0.0000E+00  0.2000E+01
     -6.445  0.0000E+00  0.2000E+01
     -6.403  0.0000E+00  0.2000E+01
     -6.362  0.0000E+00  0.2000E+01
     -6.320  0.0000E+00  0.2000E+01
     -6.279  0.0000E+00  0.2000E+01
     -6.237  0.0000E+00  0.2000E+01
     -6.196  0.0000E+00  0.2000E+01
     -6.154  0.0000E+00  0.2000E+01
     -6.113  0.0000E+00  0.2000E+01
     -6.071  0.0000E+00  0.2000E+01
     -6.029  0.0000E+00  0.2000E+01
     -5.988  0.0000E+00  0.2000E+01
     -5.946  0.0000E+00  0.2000E+01
     -5.905  0.0000E+00  0.2000E+01
     -5.863  0.0000E+00  0.2000E+01
     -5.822  0.0000E+00  0.2000E+01
     -5.780  0.0000E+00  0.2000E+01
     -5.739  0.0000E+00  0.2000E+01
     -5.697  0.0000E+00  0.2000E+01
     -5.656  0.0000E+00  0.2000E+01
     -5.614  0.0000E+00  0.2000E+01
     -5.572  0.0000E+00  0.2000E+01
     -5.531  0.0000E+00  0.2000E+01
     -5.489  0.0000E+00  0.2000E+01
     -5.448  0.0000E+00  0.2000E+01
     -5.406  0.0000E+00  0.2000E+01
     -5.365  0.0000E+00  0.2000E+01
     -5.323  0.0000E+00  0.2000E+01
     -5.282  0.0000E+00  0.2000E+01
     -5.240  0.0000E+00  0.2000E+01
     -5.198  0.0000E+00  0.2000E+01
     -5.157  0.0000E+00  0.2000E+01
     -5.115  0.0000E+00  0.2000E+01
     -5.074  0.0000E+00  0.2000E+01
     -5.032  0.0000E+00  0.2000E+01
     -4.991  0.0000E+00  0.2000E+01
     -4.949  0.0000E+00  0.2000E+01
     -4.908  0.0000E+00  0.2000E+01
     -4.866  0.0000E+00  0.2000E+01
     -4.825  0.0000E+00  0.2000E+01
     -4.783  0.0000E+00  0.2000E+01
     -4.741  0.0000E+00  0.2000E+01
     -4.700  0.0000E+00  0.2000E+01
     -4.658  0.0000E+00  0.2000E+01
     -4.617  0.0000E+00  0.2000E+01
     -4.575  0.0000E+00  0.2000E+01
     -4.534  0.0000E+00  0.2000E+01
     -4.492  0.0000E+00  0.2000E+01
     -4.451  0.0000E+00  0.2000E+01
     -4.409  0.0000E+00  0.2000E+01
     -4.367  0.0000E+00  0.2000E+01
     -4.326  0.0000E+00  0.2000E+01
     -4.284  0.0000E+00  0.2000E+01
     -4.243  0.0000E+00  0.2000E+01
     -4.201  0.0000E+00  0.2000E+01
     -4.160  0.0000E+00  0.2000E+01
     -4.118  0.0000E+00  0.2000E+01
     -4.077  0.0000E+00  0.2000E+01
     -4.035  0.0000E+00  0.2000E+01
     -3.994  0.0000E+00  0.2000E+01
     -3.952  0.0000E+00  0.2000E+01
     -3.910  0.0000E+00  0.2000E+01
     -3.869  0.8016E-14  0.2000E+01
     -3.827  0.4691E-10  0.2000E+01
     -3.786  0.1303E-06  0.2000E+01
     -3.744  0.9399E-04  0.2000E+01
     -3.703  0.1783E-01  0.2001E+01
     -3.661  0.9075E+00  0.2038E+01
     -3.620  0.1272E+02  0.2567E+01
     -3.578  0.5061E+02  0.4670E+01
     -3.536  0.5850E+02  0.7100E+01
     -3.495  0.1970E+02  0.7919E+01
     -3.453  0.1896E+01  0.7998E+01
     -3.412  0.5063E-01  0.8000E+01
     -3.370  0.3646E-03  0.8000E+01
     -3.329  0.6934E-06  0.8000E+01
     -3.287  0.3433E-09  0.8000E+01
     -3.246  0.3436E-13  0.8000E+01
     -3.204  0.0000E+00  0.8000E+01
     -3.163  0.0000E+00  0.8000E+01
     -3.121  0.0000E+00  0.8000E+01
     -3.079  0.0000E+00  0.8000E+01
     -3.038  0.0000E+00  0.8000E+01
     -2.996  0.0000E+00  0.8000E+01
     -2.955  0.0000E+00  0.8000E+01
     -2.913  0.0000E+00  0.8000E+01
     -2.872  0.0000E+00  0.8000E+01
     -2.830  0.0000E+00  0.8000E+01
     -2.789  0.0000E+00  0.8000E+01
     -2.747  0.0000E+00  0.8000E+01
     -2.706  0.0000E+00  0.8000E+01
     -2.664  0.0000E+00  0.8000E+01
     -2.622  0.0000E+00  0.8000E+01
     -2.581  0.0000E+00  0.8000E+01
     -2.539  0.0000E+00  0.8000E+01
     -2.498  0.0000E+00  0.8000E+01
     -2.456  0.0000E+00  0.8000E+01
     -2.415  0.0000E+00  0.8000E+01
     -2.373  0.0000E+00  0.8000E+01
     -2.332  0.0000E+00  0.8000E+01
     -2.290  0.0000E+00  0.8000E+01
     -2.248  0.0000E+00  0.8000E+01
     -2.207  0.0000E+00  0.8000E+01
     -2.165  0.0000E+00  0.8000E+01
     -2.124  0.0000E+00  0.8000E+01
     -2.082  0.0000E+00  0.8000E+01
     -2.041  0.0000E+00  0.8000E+01
     -1.999  0.0000E+00  0.8000E+01
     -1.958  0.0000E+00  0.8000E+01
     -1.916  0.0000E+00  0.8000E+01
     -1.875  0.0000E+00  0.8000E+01
     -1.833  0.0000E+00  0.8000E+01
     -1.791  0.0000E+00  0.8000E+01
     -1.750  0.0000E+00  0.8000E+01
     -1.708  0.0000E+00  0.8000E+01
     -1.667  0.0000E+00  0.8000E+01
     -1.625  0.0000E+00  0.8000E+01
     -1.584  0.0000E+00  0.8000E+01
     -1.542  0.0000E+00  0.8000E+01
     -1.501  0.0000E+00  0.8000E+01
     -1.459  0.0000E+00  0.8000E+01
     -1.417  0.0000E+00  0.8000E+01
     -1.376  0.0000E+00  0.8000E+01
     -1.334  0.0000E+00  0.8000E+01
     -1.293  0.0000E+00  0.8000E+01
     -1.251  0.0000E+00  0.8000E+01
     -1.210  0.0000E+00  0.8000E+01
     -1.168  0.0000E+00  0.8000E+01
     -1.127  0.0000E+00  0.8000E+01
     -1.085  0.0000E+00  0.8000E+01
     -1.044  0.0000E+00  0.8000E+01
     -1.002  0.0000E+00  0.8000E+01
     -0.960  0.0000E+00  0.8000E+01
     -0.919  0.0000E+00  0.8000E+01
     -0.877  0.0000E+00  0.8000E+01
     -0.836  0.0000E+00  0.8000E+01
     -0.794  0.0000E+00  0.8000E+01
     -0.753  0.0000E+00  0.8000E+01
     -0.711  0.0000E+00  0.8000E+01
     -0.670  0.0000E+00  0.8000E+01
     -0.628  0.0000E+00  0.8000E+01
     -0.586  0.0000E+00  0.8000E+01
     -0.545  0.2206E-15  0.8000E+01
     -0.503  0.1875E-11  0.8000E+01
     -0.462  0.4214E-08  0.8000E+01
     -0.420  0.2602E-05  0.8000E+01
     -0.379  0.4577E-03  0.8000E+01
     -0.337  0.2420E-01  0.8001E+01
     -0.296  0.4171E+00  0.8018E+01
     -0.254  0.2635E+01  0.8128E+01
     -0.213  0.7219E+01  0.8428E+01
     -0.171  0.1060E+02  0.8868E+01
     -0.129  0.1059E+02  0.9308E+01
     -0.088  0.8784E+01  0.9673E+01
     -0.046  0.5526E+01  0.9903E+01
     -0.005  0.2016E+01  0.9987E+01
      0.037  0.6451E+00  0.1001E+02
      0.078  0.1832E+01  0.1009E+02
      0.120  0.5301E+01  0.1031E+02
      0.161  0.9937E+01  0.1072E+02
      0.203  0.1376E+02  0.1129E+02
      0.244  0.1559E+02  0.1194E+02
      0.286  0.1583E+02  0.1260E+02
      0.328  0.1594E+02  0.1326E+02
      0.369  0.1623E+02  0.1394E+02
      0.411  0.1652E+02  0.1462E+02
      0.452  0.1751E+02  0.1535E+02
      0.494  0.1851E+02  0.1612E+02
      0.535  0.1854E+02  0.1689E+02
      0.577  0.1896E+02  0.1768E+02
      0.618  0.1989E+02  0.1850E+02
      0.660  0.2039E+02  0.1935E+02
      0.702  0.2099E+02  0.2022E+02
      0.743  0.2239E+02  0.2115E+02
      0.785  0.2253E+02  0.2209E+02
      0.826  0.2191E+02  0.2300E+02
      0.868  0.2328E+02  0.2397E+02
      0.909  0.2458E+02  0.2499E+02
      0.951  0.2431E+02  0.2600E+02
      0.992  0.2486E+02  0.2703E+02
      1.034  0.2595E+02  0.2811E+02
      1.075  0.2608E+02  0.2919E+02
      1.117  0.2613E+02  0.3028E+02
      1.159  0.2685E+02  0.3139E+02
      1.200  0.2777E+02  0.3255E+02
      1.242  0.2743E+02  0.3369E+02
      1.283  0.2754E+02  0.3483E+02
      1.325  0.2862E+02  0.3602E+02
      1.366  0.2872E+02  0.3721E+02
      1.408  0.2840E+02  0.3839E+02
      1.449  0.2937E+02  0.3961E+02
      1.491  0.3096E+02  0.4090E+02
      1.533  0.3016E+02  0.4215E+02
      1.574  0.2964E+02  0.4339E+02
      1.616  0.3017E+02  0.4464E+02
      1.657  0.2787E+02  0.4580E+02
      1.699  0.2142E+02  0.4669E+02
      1.740  0.1421E+02  0.4728E+02
      1.782  0.8427E+01  0.4763E+02
      1.823  0.4847E+01  0.4783E+02
      1.865  0.2595E+01  0.4794E+02
      1.906  0.1101E+01  0.4798E+02
      1.948  0.3503E+00  0.4800E+02
      1.990  0.7374E-01  0.4800E+02
      2.031  0.7114E-02  0.4800E+02
      2.073  0.2275E-03  0.4800E+02
      2.114  0.2083E-05  0.4800E+02
      2.156  0.5167E-08  0.4800E+02
      2.197  0.3385E-11  0.4800E+02
      2.239  0.5768E-15  0.4800E+02
      2.280  0.0000E+00  0.4800E+02
      2.322  0.0000E+00  0.4800E+02
      2.364  0.0000E+00  0.4800E+02
      2.405  0.0000E+00  0.4800E+02
      2.447  0.0000E+00  0.4800E+02
      2.488  0.0000E+00  0.4800E+02
