   14   14    1    1
  0.1021960E+02  0.5697000E-09  0.4047900E-09  0.6204200E-09  0.5000000E-15
  1.000000000000000E-004
  CAR 
 Kpoints                                 
     42   1260     48
 
  0.0000000E+00  0.0000000E+00  0.0000000E+00  0.1146657E-03
      1        -12.733337   1.000000
      2        -11.576229   1.000000
      3         -8.662005   1.000000
      4         -8.424725   1.000000
      5         -6.077251   1.000000
      6         -5.059161   1.000000
      7         -4.638097   1.000000
      8         -4.349305   1.000000
      9         -3.973190   1.000000
     10         -3.598345   1.000000
     11         -2.421691   1.000000
     12         -2.242239   1.000000
     13         -2.182901   1.000000
     14         -1.052353   1.000000
     15         -0.036734   1.000000
     16         -0.002854   1.000000
     17          0.149993   1.000000
     18          0.173457   1.000000
     19          0.565277   1.000000
     20          2.080336   0.000000
     21          2.126550   0.000000
     22          2.215340   0.000000
     23          5.412112   0.000000
     24          5.802436   0.000000
     25          5.817972   0.000000
     26          5.911337   0.000000
     27          6.786465   0.000000
     28          7.673472   0.000000
     29          7.701834   0.000000
     30          8.634784   0.000000
     31          8.753238   0.000000
     32          8.853466   0.000000
     33          9.041386   0.000000
     34         10.029738   0.000000
     35         11.144509   0.000000
     36         11.400358   0.000000
     37         11.770285   0.000000
     38         11.802713   0.000000
     39         11.899710   0.000000
     40         12.355090   0.000000
     41         12.805142   0.000000
     42         13.395661   0.000000
     43         13.574597   0.000000
     44         15.555139   0.000000
     45         15.568132   0.000000
     46         15.942521   0.000000
     47         16.359348   0.000000
     48         16.599599   0.000000
 
  0.5263158E-01  0.0000000E+00  0.0000000E+00  0.2293315E-03
      1        -12.727235   1.000000
      2        -11.586866   1.000000
      3         -8.659192   1.000000
      4         -8.422914   1.000000
      5         -6.064390   1.000000
      6         -5.141133   1.000000
      7         -4.669912   1.000000
      8         -4.252527   1.000000
      9         -3.964648   1.000000
     10         -3.539183   1.000000
     11         -2.419067   1.000000
     12         -2.243949   1.000000
     13         -2.202866   1.000000
     14         -1.098461   1.000000
     15         -0.030624   1.000000
     16          0.007334   1.000000
     17          0.154720   1.000000
     18          0.157138   1.000000
     19          0.551254   1.000000
     20          2.067403   0.000000
     21          2.115101   0.000000
     22          2.198865   0.000000
     23          5.426004   0.000000
     24          5.794483   0.000000
     25          5.797874   0.000000
     26          5.992633   0.000000
     27          6.773217   0.000000
     28          7.497786   0.000000
     29          7.847505   0.000000
     30          8.655101   0.000000
     31          8.808950   0.000000
     32          8.890353   0.000000
     33          9.044328   0.000000
     34         10.048076   0.000000
     35         11.154806   0.000000
     36         11.340577   0.000000
     37         11.665647   0.000000
     38         11.767117   0.000000
     39         11.932530   0.000000
     40         12.367266   0.000000
     41         12.874828   0.000000
     42         13.504546   0.000000
     43         13.517267   0.000000
     44         15.363510   0.000000
     45         15.602803   0.000000
     46         16.080690   0.000000
     47         16.345781   0.000000
     48         16.375277   0.000000
 
  0.1052632E+00  0.0000000E+00  0.0000000E+00  0.2293315E-03
      1        -12.708988   1.000000
      2        -11.618136   1.000000
      3         -8.650551   1.000000
      4         -8.417789   1.000000
      5         -6.031016   1.000000
      6         -5.313469   1.000000
      7         -4.738780   1.000000
      8         -4.036215   1.000000
      9         -3.939066   1.000000
     10         -3.384383   1.000000
     11         -2.411110   1.000000
     12         -2.260712   1.000000
     13         -2.249022   1.000000
     14         -1.231103   1.000000
     15         -0.012528   1.000000
     16          0.036336   1.000000
     17          0.099295   1.000000
     18          0.176530   1.000000
     19          0.509724   1.000000
     20          2.029766   0.000010
     21          2.081754   0.000000
     22          2.149337   0.000000
     23          5.464855   0.000000
     24          5.772637   0.000000
     25          5.815139   0.000000
     26          6.156970   0.000000
     27          6.735575   0.000000
     28          7.300499   0.000000
     29          7.969881   0.000000
     30          8.713007   0.000000
     31          8.958151   0.000000
     32          8.995614   0.000000
     33          9.051401   0.000000
     34         10.104356   0.000000
     35         11.169712   0.000000
     36         11.186152   0.000000
     37         11.411115   0.000000
     38         11.704208   0.000000
     39         12.027714   0.000000
     40         12.403401   0.000000
     41         13.025052   0.000000
     42         13.358052   0.000000
     43         13.772345   0.000000
     44         15.059713   0.000000
     45         15.696302   0.000000
     46         16.064223   0.000000
     47         16.246767   0.000000
     48         16.421356   0.000000
 
  0.1578947E+00  0.0000000E+00  0.0000000E+00  0.2293315E-03
      1        -12.678800   1.000000
      2        -11.668218   1.000000
      3         -8.635754   1.000000
      4         -8.410329   1.000000
      5         -5.992576   1.000000
      6         -5.502218   1.000000
      7         -4.794722   1.000000
      8         -3.896663   1.000000
      9         -3.775790   1.000000
     10         -3.172317   1.000000
     11         -2.397488   1.000000
     12         -2.350961   1.000000
     13         -2.257319   1.000000
     14         -1.435619   1.000000
     15          0.009693   1.000000
     16          0.016789   1.000000
     17          0.080001   1.000000
     18          0.196841   1.000000
     19          0.449421   1.000000
     20          1.971096   0.004493
     21          2.029319   0.000010
     22          2.066843   0.000000
     23          5.521161   0.000000
     24          5.742493   0.000000
     25          5.897837   0.000000
     26          6.370476   0.000000
     27          6.679431   0.000000
     28          7.114462   0.000000
     29          8.066815   0.000000
     30          8.798163   0.000000
     31          9.031671   0.000000
     32          9.162963   0.000000
     33          9.180725   0.000000
     34         10.204528   0.000000
     35         10.909699   0.000000
     36         11.093623   0.000000
     37         11.238350   0.000000
     38         11.678875   0.000000
     39         12.168434   0.000000
     40         12.469772   0.000000
     41         13.124099   0.000000
     42         13.134583   0.000000
     43         14.115476   0.000000
     44         14.820326   0.000000
     45         15.758579   0.000000
     46         15.827586   0.000000
     47         16.321638   0.000000
     48         16.493635   0.000000
 
  0.2105263E+00  0.0000000E+00  0.0000000E+00  0.2293315E-03
      1        -12.637042   1.000000
      2        -11.734375   1.000000
      3         -8.614624   1.000000
      4         -8.402129   1.000000
      5         -5.971320   1.000000
      6         -5.680586   1.000000
      7         -4.794787   1.000000
      8         -3.837817   1.000000
      9         -3.501595   1.000000
     10         -2.929913   1.000000
     11         -2.466362   1.000000
     12         -2.377720   1.000000
     13         -2.268472   1.000000
     14         -1.692722   1.000000
     15         -0.110187   1.000000
     16          0.056079   1.000000
     17          0.132693   1.000000
     18          0.173182   1.000000
     19          0.414639   1.000000
     20          1.897426   0.298430
     21          1.952847   0.018020
     22          1.962142   0.009153
     23          5.584952   0.000000
     24          5.711566   0.000000
     25          6.047102   0.000000
     26          6.613012   0.000000
     27          6.622928   0.000000
     28          6.950601   0.000000
     29          8.150018   0.000000
     30          8.887911   0.000000
     31          8.996469   0.000000
     32          9.392724   0.000000
     33          9.408052   0.000000
     34         10.361275   0.000000
     35         10.584831   0.000000
     36         10.774516   0.000000
     37         11.305569   0.000000
     38         11.723450   0.000000
     39         12.303912   0.000000
     40         12.601760   0.000000
     41         12.840786   0.000000
     42         13.080572   0.000000
     43         14.488608   0.000000
     44         14.747691   0.000000
     45         15.442484   0.000000
     46         15.978877   0.000000
     47         16.217121   0.000000
     48         16.491431   0.000000
 
  0.2631579E+00  0.0000000E+00  0.0000000E+00  0.2293315E-03
      1        -12.584238   1.000000
      2        -11.813291   1.000000
      3         -8.587512   1.000000
      4         -8.395300   1.000000
      5         -5.982959   1.000000
      6         -5.837486   1.000000
      7         -4.714327   1.000000
      8         -3.763082   1.000000
      9         -3.233304   1.000000
     10         -2.675387   1.000000
     11         -2.599407   1.000000
     12         -2.352915   1.000000
     13         -2.281159   1.000000
     14         -1.978007   1.000000
     15         -0.254580   1.000000
     16          0.058929   1.000000
     17          0.103239   1.000000
     18          0.188216   1.000000
     19          0.454869   1.000000
     20          1.811168   0.971987
     21          1.816725   0.960256
     22          1.885724   0.421554
     23          5.646054   0.000000
     24          5.687319   0.000000
     25          6.258753   0.000000
     26          6.545852   0.000000
     27          6.812242   0.000000
     28          6.907080   0.000000
     29          8.224520   0.000000
     30          8.930474   0.000000
     31          8.936156   0.000000
     32          9.633949   0.000000
     33          9.668691   0.000000
     34         10.214282   0.000000
     35         10.518163   0.000000
     36         10.589747   0.000000
     37         11.370331   0.000000
     38         11.841856   0.000000
     39         12.391061   0.000000
     40         12.526853   0.000000
     41         12.824680   0.000000
     42         12.842638   0.000000
     43         14.832758   0.000000
     44         14.869474   0.000000
     45         15.129750   0.000000
     46         15.967659   0.000000
     47         16.096118   0.000000
     48         16.137406   0.000000
 
  0.3157895E+00  0.0000000E+00  0.0000000E+00  0.2293315E-03
      1        -12.521086   1.000000
      2        -11.901398   1.000000
      3         -8.555531   1.000000
      4         -8.392266   1.000000
      5         -6.023700   1.000000
      6         -5.966670   1.000000
      7         -4.553981   1.000000
      8         -3.673158   1.000000
      9         -3.002318   1.000000
     10         -2.743191   1.000000
     11         -2.434106   1.000000
     12         -2.371663   1.000000
     13         -2.284305   1.000000
     14         -2.207043   1.000000
     15         -0.414669   1.000000
     16         -0.111763   1.000000
     17          0.155265   1.000000
     18          0.240121   1.000000
     19          0.542717   1.000000
     20          1.648204   1.000000
     21          1.738382   0.999964
     22          1.806513   0.979449
     23          5.674820   0.000000
     24          5.695408   0.000000
     25          6.487904   0.000000
     26          6.525822   0.000000
     27          6.698399   0.000000
     28          7.217152   0.000000
     29          8.292200   0.000000
     30          8.842370   0.000000
     31          8.870897   0.000000
     32          9.820003   0.000000
     33          9.884662   0.000000
     34          9.937295   0.000000
     35         10.398623   0.000000
     36         10.897920   0.000000
     37         11.404517   0.000000
     38         12.022743   0.000000
     39         12.195654   0.000000
     40         12.456592   0.000000
     41         12.503670   0.000000
     42         13.083229   0.000000
     43         14.841238   0.000000
     44         14.955130   0.000000
     45         15.244638   0.000000
     46         15.603360   0.000000
     47         15.659753   0.000000
     48         16.289598   0.000000
 
  0.3684211E+00  0.0000000E+00  0.0000000E+00  0.2293315E-03
      1        -12.448498   1.000000
      2        -11.995184   1.000000
      3         -8.520595   1.000000
      4         -8.395362   1.000000
      5         -6.076466   1.000000
      6         -6.064037   1.000000
      7         -4.330196   1.000000
      8         -3.569026   1.000000
      9         -2.919722   1.000000
     10         -2.891843   1.000000
     11         -2.525240   1.000000
     12         -2.348770   1.000000
     13         -2.176967   1.000000
     14         -2.153874   1.000000
     15         -0.574631   1.000000
     16         -0.307591   1.000000
     17          0.207938   1.000000
     18          0.281616   1.000000
     19          0.657704   1.000000
     20          1.472168   1.000000
     21          1.672393   1.000000
     22          1.731751   0.999984
     23          5.675771   0.000000
     24          5.726130   0.000000
     25          6.448429   0.000000
     26          6.606360   0.000000
     27          6.839739   0.000000
     28          7.548538   0.000000
     29          8.355304   0.000000
     30          8.653911   0.000000
     31          8.744990   0.000000
     32          9.420264   0.000000
     33         10.143792   0.000000
     34         10.192915   0.000000
     35         10.451778   0.000000
     36         11.276350   0.000000
     37         11.387308   0.000000
     38         11.857407   0.000000
     39         12.130752   0.000000
     40         12.254035   0.000000
     41         12.510613   0.000000
     42         13.289459   0.000000
     43         14.618691   0.000000
     44         15.013895   0.000000
     45         15.137592   0.000000
     46         15.334734   0.000000
     47         15.603102   0.000000
     48         16.413252   0.000000
 
  0.4210526E+00  0.0000000E+00  0.0000000E+00  0.2293315E-03
      1        -12.367644   1.000000
      2        -12.091410   1.000000
      3         -8.485348   1.000000
      4         -8.406329   1.000000
      5         -6.127313   1.000000
      6         -6.124002   1.000000
      7         -4.060956   1.000000
      8         -3.451920   1.000000
      9         -3.133447   1.000000
     10         -3.040565   1.000000
     11         -2.503322   1.000000
     12         -2.367325   1.000000
     13         -2.057929   1.000000
     14         -1.974652   1.000000
     15         -0.703004   1.000000
     16         -0.504859   1.000000
     17          0.255627   1.000000
     18          0.306351   1.000000
     19          0.793533   1.000000
     20          1.291670   1.000000
     21          1.628150   1.000000
     22          1.669294   1.000000
     23          5.688425   0.000000
     24          5.735444   0.000000
     25          6.433746   0.000000
     26          6.533687   0.000000
     27          7.190586   0.000000
     28          7.897579   0.000000
     29          8.328438   0.000000
     30          8.418065   0.000000
     31          8.649378   0.000000
     32          9.024766   0.000000
     33         10.396124   0.000000
     34         10.417322   0.000000
     35         10.635631   0.000000
     36         11.332396   0.000000
     37         11.521130   0.000000
     38         11.683313   0.000000
     39         11.784372   0.000000
     40         12.510307   0.000000
     41         12.514536   0.000000
     42         13.312200   0.000000
     43         14.540792   0.000000
     44         14.816864   0.000000
     45         14.972868   0.000000
     46         15.028039   0.000000
     47         15.932222   0.000000
     48         16.468635   0.000000
 
  0.4736842E+00  0.0000000E+00  0.0000000E+00  0.2293315E-03
      1        -12.279948   1.000000
      2        -12.187169   1.000000
      3         -8.452777   1.000000
      4         -8.425745   1.000000
      5         -6.156334   1.000000
      6         -6.153489   1.000000
      7         -3.761136   1.000000
      8         -3.444584   1.000000
      9         -3.323391   1.000000
     10         -3.185446   1.000000
     11         -2.443646   1.000000
     12         -2.399436   1.000000
     13         -1.934614   1.000000
     14         -1.890114   1.000000
     15         -0.746378   1.000000
     16         -0.668999   1.000000
     17          0.291754   1.000000
     18          0.309920   1.000000
     19          0.946926   1.000000
     20          1.114508   1.000000
     21          1.612458   1.000000
     22          1.627256   1.000000
     23          5.707916   0.000000
     24          5.726674   0.000000
     25          6.445063   0.000000
     26          6.479472   0.000000
     27          7.566865   0.000000
     28          7.953540   0.000000
     29          8.261401   0.000000
     30          8.485642   0.000000
     31          8.562181   0.000000
     32          8.637774   0.000000
     33         10.574647   0.000000
     34         10.577484   0.000000
     35         10.894949   0.000000
     36         11.196329   0.000000
     37         11.317676   0.000000
     38         11.470591   0.000000
     39         12.093602   0.000000
     40         12.382411   0.000000
     41         12.803380   0.000000
     42         13.102318   0.000000
     43         14.622116   0.000000
     44         14.738170   0.000000
     45         14.780239   0.000000
     46         14.852527   0.000000
     47         16.211847   0.000000
     48         16.404733   0.000000
 
  0.0000000E+00  0.3703704E-01  0.0000000E+00  0.2293315E-03
      1        -12.730023   1.000000
      2        -11.573249   1.000000
      3         -8.659412   1.000000
      4         -8.421524   1.000000
      5         -6.073576   1.000000
      6         -5.054031   1.000000
      7         -4.635038   1.000000
      8         -4.358788   1.000000
      9         -4.049172   1.000000
     10         -3.594926   1.000000
     11         -2.600658   1.000000
     12         -2.323717   1.000000
     13         -1.809465   1.000000
     14         -1.051721   1.000000
     15         -0.077034   1.000000
     16         -0.050377   1.000000
     17          0.152423   1.000000
     18          0.196086   1.000000
     19          0.581431   1.000000
     20          2.027856   0.000012
     21          2.089276   0.000000
     22          2.236114   0.000000
     23          5.448012   0.000000
     24          5.760285   0.000000
     25          5.861630   0.000000
     26          5.878310   0.000000
     27          6.829203   0.000000
     28          7.729045   0.000000
     29          7.729937   0.000000
     30          8.509652   0.000000
     31          8.753006   0.000000
     32          8.921324   0.000000
     33          9.049615   0.000000
     34         10.115607   0.000000
     35         11.178163   0.000000
     36         11.388733   0.000000
     37         11.759086   0.000000
     38         11.818076   0.000000
     39         11.913856   0.000000
     40         12.394987   0.000000
     41         12.806692   0.000000
     42         13.349866   0.000000
     43         13.527268   0.000000
     44         15.539246   0.000000
     45         15.549911   0.000000
     46         15.953962   0.000000
     47         16.332868   0.000000
     48         16.484504   0.000000
 
  0.5263158E-01  0.3703704E-01  0.0000000E+00  0.4586630E-03
      1        -12.723918   1.000000
      2        -11.583883   1.000000
      3         -8.656585   1.000000
      4         -8.419715   1.000000
      5         -6.060693   1.000000
      6         -5.136414   1.000000
      7         -4.666895   1.000000
      8         -4.266378   1.000000
      9         -4.035995   1.000000
     10         -3.535797   1.000000
     11         -2.610162   1.000000
     12         -2.320960   1.000000
     13         -1.822109   1.000000
     14         -1.097822   1.000000
     15         -0.071083   1.000000
     16         -0.041629   1.000000
     17          0.159773   1.000000
     18          0.179233   1.000000
     19          0.567340   1.000000
     20          2.015214   0.000057
     21          2.077851   0.000000
     22          2.219227   0.000000
     23          5.462166   0.000000
     24          5.747731   0.000000
     25          5.840123   0.000000
     26          5.965324   0.000000
     27          6.815982   0.000000
     28          7.541418   0.000000
     29          7.887463   0.000000
     30          8.531012   0.000000
     31          8.809406   0.000000
     32          8.957656   0.000000
     33          9.053798   0.000000
     34         10.130186   0.000000
     35         11.188102   0.000000
     36         11.329005   0.000000
     37         11.655429   0.000000
     38         11.781150   0.000000
     39         11.946760   0.000000
     40         12.407019   0.000000
     41         12.876599   0.000000
     42         13.459414   0.000000
     43         13.470227   0.000000
     44         15.368942   0.000000
     45         15.572587   0.000000
     46         16.068426   0.000000
     47         16.317158   0.000000
     48         16.357304   0.000000
 
  0.1052632E+00  0.3703704E-01  0.0000000E+00  0.4586630E-03
      1        -12.705676   1.000000
      2        -11.615143   1.000000
      3         -8.647932   1.000000
      4         -8.414606   1.000000
      5         -6.027207   1.000000
      6         -5.309121   1.000000
      7         -4.735865   1.000000
      8         -4.092988   1.000000
      9         -3.967545   1.000000
     10         -3.381241   1.000000
     11         -2.638972   1.000000
     12         -2.312629   1.000000
     13         -1.857394   1.000000
     14         -1.230424   1.000000
     15         -0.053791   1.000000
     16         -0.020975   1.000000
     17          0.133355   1.000000
     18          0.180081   1.000000
     19          0.525653   1.000000
     20          1.978361   0.002415
     21          2.044549   0.000001
     22          2.168636   0.000000
     23          5.501711   0.000000
     24          5.754876   0.000000
     25          5.829722   0.000000
     26          6.127425   0.000000
     27          6.778471   0.000000
     28          7.345952   0.000000
     29          8.008353   0.000000
     30          8.591563   0.000000
     31          8.960161   0.000000
     32          9.058476   0.000000
     33          9.068167   0.000000
     34         10.174841   0.000000
     35         11.158319   0.000000
     36         11.218368   0.000000
     37         11.399448   0.000000
     38         11.721403   0.000000
     39         12.042148   0.000000
     40         12.442677   0.000000
     41         13.027687   0.000000
     42         13.311758   0.000000
     43         13.725795   0.000000
     44         15.074246   0.000000
     45         15.661308   0.000000
     46         16.056982   0.000000
     47         16.186017   0.000000
     48         16.432284   0.000000
 
  0.1578947E+00  0.3703704E-01  0.0000000E+00  0.4586630E-03
      1        -12.675497   1.000000
      2        -11.665213   1.000000
      3         -8.633121   1.000000
      4         -8.407182   1.000000
      5         -5.988600   1.000000
      6         -5.498003   1.000000
      7         -4.792001   1.000000
      8         -4.006875   1.000000
      9         -3.751276   1.000000
     10         -3.169999   1.000000
     11         -2.687398   1.000000
     12         -2.298536   1.000000
     13         -1.908534   1.000000
     14         -1.434837   1.000000
     15         -0.026973   1.000000
     16         -0.025785   1.000000
     17          0.093731   1.000000
     18          0.203961   1.000000
     19          0.464207   1.000000
     20          1.920458   0.118929
     21          1.992182   0.000666
     22          2.084924   0.000000
     23          5.558913   0.000000
     24          5.756934   0.000000
     25          5.880991   0.000000
     26          6.338021   0.000000
     27          6.722484   0.000000
     28          7.163673   0.000000
     29          8.103695   0.000000
     30          8.679739   0.000000
     31          9.059683   0.000000
     32          9.166355   0.000000
     33          9.238480   0.000000
     34         10.254742   0.000000
     35         10.898833   0.000000
     36         11.081663   0.000000
     37         11.268716   0.000000
     38         11.702776   0.000000
     39         12.183570   0.000000
     40         12.507727   0.000000
     41         13.079017   0.000000
     42         13.138583   0.000000
     43         14.059585   0.000000
     44         14.847755   0.000000
     45         15.736774   0.000000
     46         15.814653   0.000000
     47         16.220640   0.000000
     48         16.528272   0.000000
 
  0.2105263E+00  0.3703704E-01  0.0000000E+00  0.4586630E-03
      1        -12.633752   1.000000
      2        -11.731354   1.000000
      3         -8.611981   1.000000
      4         -8.399031   1.000000
      5         -5.967135   1.000000
      6         -5.676384   1.000000
      7         -4.792323   1.000000
      8         -3.943235   1.000000
      9         -3.482335   1.000000
     10         -2.933480   1.000000
     11         -2.751083   1.000000
     12         -2.278484   1.000000
     13         -1.967407   1.000000
     14         -1.691779   1.000000
     15         -0.116982   1.000000
     16          0.003718   1.000000
     17          0.119230   1.000000
     18          0.194549   1.000000
     19          0.423595   1.000000
     20          1.846461   0.819272
     21          1.925096   0.094837
     22          1.970663   0.004656
     23          5.623510   0.000000
     24          5.733687   0.000000
     25          6.023239   0.000000
     26          6.582979   0.000000
     27          6.656290   0.000000
     28          7.008756   0.000000
     29          8.185615   0.000000
     30          8.771192   0.000000
     31          9.036827   0.000000
     32          9.396997   0.000000
     33          9.463487   0.000000
     34         10.373175   0.000000
     35         10.581778   0.000000
     36         10.769435   0.000000
     37         11.333016   0.000000
     38         11.755563   0.000000
     39         12.322978   0.000000
     40         12.633232   0.000000
     41         12.799552   0.000000
     42         13.085550   0.000000
     43         14.402545   0.000000
     44         14.808327   0.000000
     45         15.454154   0.000000
     46         15.925195   0.000000
     47         16.145162   0.000000
     48         16.502286   0.000000
 
  0.2631579E+00  0.3703704E-01  0.0000000E+00  0.4586630E-03
      1        -12.580963   1.000000
      2        -11.810244   1.000000
      3         -8.584857   1.000000
      4         -8.392261   1.000000
      5         -5.978600   1.000000
      6         -5.833256   1.000000
      7         -4.712088   1.000000
      8         -3.869643   1.000000
      9         -3.212714   1.000000
     10         -2.862138   1.000000
     11         -2.655441   1.000000
     12         -2.254761   1.000000
     13         -2.027233   1.000000
     14         -1.976213   1.000000
     15         -0.254359   1.000000
     16          0.002288   1.000000
     17          0.134239   1.000000
     18          0.168981   1.000000
     19          0.458460   1.000000
     20          1.760165   0.999601
     21          1.834006   0.897042
     22          1.848806   0.801301
     23          5.684994   0.000000
     24          5.712155   0.000000
     25          6.233000   0.000000
     26          6.589472   0.000000
     27          6.791059   0.000000
     28          6.948033   0.000000
     29          8.259027   0.000000
     30          8.820381   0.000000
     31          8.987975   0.000000
     32          9.638802   0.000000
     33          9.716712   0.000000
     34         10.188519   0.000000
     35         10.462199   0.000000
     36         10.653889   0.000000
     37         11.393025   0.000000
     38         11.881656   0.000000
     39         12.414174   0.000000
     40         12.484816   0.000000
     41         12.848180   0.000000
     42         12.856078   0.000000
     43         14.696886   0.000000
     44         14.983280   0.000000
     45         15.151093   0.000000
     46         15.938464   0.000000
     47         15.950660   0.000000
     48         16.251735   0.000000
 
  0.3157895E+00  0.3703704E-01  0.0000000E+00  0.4586630E-03
      1        -12.517828   1.000000
      2        -11.898322   1.000000
      3         -8.552854   1.000000
      4         -8.389291   1.000000
      5         -6.019245   1.000000
      6         -5.962379   1.000000
      7         -4.551897   1.000000
      8         -3.783409   1.000000