       N       E                     dE             d eps       ncg     rms          rms(c)
DAV:   1     0.624624279164E+02    0.62462E+02   -0.18453E+04120960   0.770E+02
DAV:   2    -0.925370897566E+02   -0.15500E+03   -0.14569E+03167856   0.157E+02
DAV:   3    -0.975913851535E+02   -0.50543E+01   -0.50271E+01177168   0.252E+01
DAV:   4    -0.976209288684E+02   -0.29544E-01   -0.29542E-01147672   0.222E+00
DAV:   5    -0.976212645731E+02   -0.33570E-03   -0.33570E-03176640   0.227E-01    0.123E+01
DAV:   6    -0.922077139462E+02    0.54136E+01   -0.39472E+00175008   0.658E+00    0.679E+00
