   14   14    1    1
  0.1021960E+02  0.5697000E-09  0.4047900E-09  0.6204200E-09  0.5000000E-15
  1.000000000000000E-004
  CAR 
 Kpoints                                 
     42   1260     48
 
  0.0000000E+00  0.0000000E+00  0.0000000E+00  0.1146657E-03
      1        -12.733342   1.000000
      2        -11.576200   1.000000
      3         -8.661940   1.000000
      4         -8.424660   1.000000
      5         -6.077089   1.000000
      6         -5.059036   1.000000
      7         -4.637963   1.000000
      8         -4.349179   1.000000
      9         -3.973036   1.000000
     10         -3.598168   1.000000
     11         -2.421524   1.000000
     12         -2.242079   1.000000
     13         -2.182699   1.000000
     14         -1.052052   1.000000
     15         -0.036526   1.000000
     16         -0.002638   1.000000
     17          0.150228   1.000000
     18          0.173692   1.000000
     19          0.565558   1.000000
     20          2.080624   0.000000
     21          2.126843   0.000000
     22          2.215593   0.000000
     23          5.412483   0.000000
     24          5.802792   0.000000
     25          5.818256   0.000000
     26          5.911572   0.000000
     27          6.786740   0.000000
     28          7.673853   0.000000
     29          7.702272   0.000000
     30          8.635088   0.000000
     31          8.753628   0.000000
     32          8.853830   0.000000
     33          9.041769   0.000000
     34         10.030110   0.000000
     35         11.144863   0.000000
     36         11.400775   0.000000
     37         11.770628   0.000000
     38         11.803149   0.000000
     39         11.900131   0.000000
     40         12.355388   0.000000
     41         12.805544   0.000000
     42         13.396027   0.000000
     43         13.574947   0.000000
     44         15.555632   0.000000
     45         15.568567   0.000000
     46         15.942975   0.000000
     47         16.359826   0.000000
     48         16.600309   0.000000
 
  0.5263158E-01  0.0000000E+00  0.0000000E+00  0.2293315E-03
      1        -12.727242   1.000000
      2        -11.586837   1.000000
      3         -8.659111   1.000000
      4         -8.422840   1.000000
      5         -6.064228   1.000000
      6         -5.141018   1.000000
      7         -4.669785   1.000000
      8         -4.252382   1.000000
      9         -3.964483   1.000000
     10         -3.538989   1.000000
     11         -2.418903   1.000000
     12         -2.243782   1.000000
     13         -2.202663   1.000000
     14         -1.098136   1.000000
     15         -0.030413   1.000000
     16          0.007556   1.000000
     17          0.154939   1.000000
     18          0.157380   1.000000
     19          0.551532   1.000000
     20          2.067675   0.000000
     21          2.115402   0.000000
     22          2.199130   0.000000
     23          5.426392   0.000000
     24          5.794864   0.000000
     25          5.798150   0.000000
     26          5.992881   0.000000
     27          6.773501   0.000000
     28          7.498188   0.000000
     29          7.847930   0.000000
     30          8.655407   0.000000
     31          8.809349   0.000000
     32          8.890734   0.000000
     33          9.044697   0.000000
     34         10.048440   0.000000
     35         11.155181   0.000000
     36         11.340991   0.000000
     37         11.665980   0.000000
     38         11.767556   0.000000
     39         11.932935   0.000000
     40         12.367580   0.000000
     41         12.875242   0.000000
     42         13.504924   0.000000
     43         13.517662   0.000000
     44         15.364008   0.000000
     45         15.603244   0.000000
     46         16.081155   0.000000
     47         16.346304   0.000000
     48         16.375732   0.000000
 
  0.1052632E+00  0.0000000E+00  0.0000000E+00  0.2293315E-03
      1        -12.708991   1.000000
      2        -11.618105   1.000000
      3         -8.650468   1.000000
      4         -8.417717   1.000000
      5         -6.030862   1.000000
      6         -5.313343   1.000000
      7         -4.738662   1.000000
      8         -4.036071   1.000000
      9         -3.938899   1.000000
     10         -3.384182   1.000000
     11         -2.410936   1.000000
     12         -2.260505   1.000000
     13         -2.248857   1.000000
     14         -1.230792   1.000000
     15         -0.012317   1.000000
     16          0.036565   1.000000
     17          0.099523   1.000000
     18          0.176788   1.000000
     19          0.510011   1.000000
     20          2.030032   0.000010
     21          2.082052   0.000000
     22          2.149618   0.000000
     23          5.465269   0.000000
     24          5.773027   0.000000
     25          5.815409   0.000000
     26          6.157219   0.000000
     27          6.735867   0.000000
     28          7.300903   0.000000
     29          7.970269   0.000000
     30          8.713317   0.000000
     31          8.958579   0.000000
     32          8.996012   0.000000
     33          9.051819   0.000000
     34         10.104724   0.000000
     35         11.170120   0.000000
     36         11.186545   0.000000
     37         11.411467   0.000000
     38         11.704654   0.000000
     39         12.028105   0.000000
     40         12.403708   0.000000
     41         13.025536   0.000000
     42         13.358473   0.000000
     43         13.772736   0.000000
     44         15.060169   0.000000
     45         15.696731   0.000000
     46         16.064743   0.000000
     47         16.247249   0.000000
     48         16.421823   0.000000
 
  0.1578947E+00  0.0000000E+00  0.0000000E+00  0.2293315E-03
      1        -12.678803   1.000000
      2        -11.668189   1.000000
      3         -8.635671   1.000000
      4         -8.410263   1.000000
      5         -5.992432   1.000000
      6         -5.502107   1.000000
      7         -4.794619   1.000000
      8         -3.896491   1.000000
      9         -3.775640   1.000000
     10         -3.172111   1.000000
     11         -2.397322   1.000000
     12         -2.350766   1.000000
     13         -2.257157   1.000000
     14         -1.435334   1.000000
     15          0.009903   1.000000
     16          0.017042   1.000000
     17          0.080228   1.000000
     18          0.197132   1.000000
     19          0.449684   1.000000
     20          1.971371   0.004492
     21          2.029615   0.000010
     22          2.067134   0.000000
     23          5.521588   0.000000
     24          5.742881   0.000000
     25          5.898105   0.000000
     26          6.370724   0.000000
     27          6.679707   0.000000
     28          7.114850   0.000000
     29          8.067203   0.000000
     30          8.798478   0.000000
     31          9.032075   0.000000
     32          9.163394   0.000000
     33          9.181161   0.000000
     34         10.204891   0.000000
     35         10.910103   0.000000
     36         11.093963   0.000000
     37         11.238734   0.000000
     38         11.679306   0.000000
     39         12.168794   0.000000
     40         12.470071   0.000000
     41         13.124498   0.000000
     42         13.135091   0.000000
     43         14.115879   0.000000
     44         14.820710   0.000000
     45         15.759069   0.000000
     46         15.827985   0.000000
     47         16.322130   0.000000
     48         16.494045   0.000000
 
  0.2105263E+00  0.0000000E+00  0.0000000E+00  0.2293315E-03
      1        -12.637043   1.000000
      2        -11.734352   1.000000
      3         -8.614545   1.000000
      4         -8.402063   1.000000
      5         -5.971178   1.000000
      6         -5.680479   1.000000
      7         -4.794685   1.000000
      8         -3.837642   1.000000
      9         -3.501442   1.000000
     10         -2.929693   1.000000
     11         -2.466181   1.000000
     12         -2.377553   1.000000
     13         -2.268312   1.000000
     14         -1.692474   1.000000
     15         -0.109963   1.000000
     16          0.056327   1.000000
     17          0.132923   1.000000
     18          0.173445   1.000000
     19          0.414881   1.000000
     20          1.897708   0.298341
     21          1.953121   0.018020
     22          1.962422   0.009148
     23          5.585372   0.000000
     24          5.711975   0.000000
     25          6.047371   0.000000
     26          6.613304   0.000000
     27          6.623183   0.000000
     28          6.950979   0.000000
     29          8.150398   0.000000
     30          8.888249   0.000000
     31          8.996904   0.000000
     32          9.393155   0.000000
     33          9.408487   0.000000
     34         10.361641   0.000000
     35         10.585224   0.000000
     36         10.774845   0.000000
     37         11.305959   0.000000
     38         11.723860   0.000000
     39         12.304278   0.000000
     40         12.602070   0.000000
     41         12.841181   0.000000
     42         13.081087   0.000000
     43         14.489007   0.000000
     44         14.748056   0.000000
     45         15.442944   0.000000
     46         15.979264   0.000000
     47         16.217597   0.000000
     48         16.492029   0.000000
 
  0.2631579E+00  0.0000000E+00  0.0000000E+00  0.2293315E-03
      1        -12.584244   1.000000
      2        -11.813272   1.000000
      3         -8.587446   1.000000
      4         -8.395243   1.000000
      5         -5.982827   1.000000
      6         -5.837377   1.000000
      7         -4.714200   1.000000
      8         -3.762900   1.000000
      9         -3.233176   1.000000
     10         -2.675147   1.000000
     11         -2.599206   1.000000
     12         -2.352755   1.000000
     13         -2.280999   1.000000
     14         -1.977780   1.000000
     15         -0.254370   1.000000
     16          0.059185   1.000000
     17          0.103494   1.000000
     18          0.188458   1.000000
     19          0.455106   1.000000
     20          1.811438   0.971992
     21          1.817003   0.960242
     22          1.886003   0.421481
     23          5.646447   0.000000
     24          5.687701   0.000000
     25          6.259027   0.000000
     26          6.546162   0.000000
     27          6.812628   0.000000
     28          6.907320   0.000000
     29          8.224927   0.000000
     30          8.930873   0.000000
     31          8.936530   0.000000
     32          9.634375   0.000000
     33          9.669141   0.000000
     34         10.214642   0.000000
     35         10.518536   0.000000
     36         10.590121   0.000000
     37         11.370735   0.000000
     38         11.842269   0.000000
     39         12.391397   0.000000
     40         12.527277   0.000000
     41         12.825037   0.000000
     42         12.843113   0.000000
     43         14.833126   0.000000
     44         14.869881   0.000000
     45         15.130203   0.000000
     46         15.968113   0.000000
     47         16.096771   0.000000
     48         16.137776   0.000000
 
  0.3157895E+00  0.0000000E+00  0.0000000E+00  0.2293315E-03
      1        -12.521091   1.000000
      2        -11.901379   1.000000
      3         -8.555462   1.000000
      4         -8.392210   1.000000
      5         -6.023575   1.000000
      6         -5.966555   1.000000
      7         -4.553838   1.000000
      8         -3.672957   1.000000
      9         -3.002193   1.000000
     10         -2.742977   1.000000
     11         -2.433884   1.000000
     12         -2.371497   1.000000
     13         -2.284136   1.000000
     14         -2.206803   1.000000
     15         -0.414467   1.000000
     16         -0.111516   1.000000
     17          0.155536   1.000000
     18          0.240351   1.000000
     19          0.542966   1.000000
     20          1.648475   1.000000
     21          1.738664   0.999964
     22          1.806789   0.979445
     23          5.675171   0.000000
     24          5.695782   0.000000
     25          6.488225   0.000000
     26          6.526137   0.000000
     27          6.698765   0.000000
     28          7.217406   0.000000
     29          8.292521   0.000000
     30          8.842771   0.000000
     31          8.871275   0.000000
     32          9.820363   0.000000
     33          9.885061   0.000000
     34          9.937753   0.000000
     35         10.399012   0.000000
     36         10.898326   0.000000
     37         11.404924   0.000000
     38         12.023153   0.000000
     39         12.196071   0.000000
     40         12.456901   0.000000
     41         12.504118   0.000000
     42         13.083600   0.000000
     43         14.841665   0.000000
     44         14.955505   0.000000
     45         15.245055   0.000000
     46         15.604010   0.000000
     47         15.660197   0.000000
     48         16.289964   0.000000
 
  0.3684211E+00  0.0000000E+00  0.0000000E+00  0.2293315E-03
      1        -12.448506   1.000000
      2        -11.995170   1.000000
      3         -8.520542   1.000000
      4         -8.395316   1.000000
      5         -6.076353   1.000000
      6         -6.063926   1.000000
      7         -4.330060   1.000000
      8         -3.568825   1.000000
      9         -2.919592   1.000000
     10         -2.891637   1.000000
     11         -2.525074   1.000000
     12         -2.348614   1.000000
     13         -2.176761   1.000000
     14         -2.153652   1.000000
     15         -0.574432   1.000000
     16         -0.307365   1.000000
     17          0.208205   1.000000
     18          0.281841   1.000000
     19          0.657951   1.000000
     20          1.472417   1.000000
     21          1.672673   1.000000
     22          1.731998   0.999984
     23          5.676114   0.000000
     24          5.726473   0.000000
     25          6.448759   0.000000
     26          6.606701   0.000000
     27          6.840057   0.000000
     28          7.548813   0.000000
     29          8.355599   0.000000
     30          8.654281   0.000000
     31          8.745358   0.000000
     32          9.420548   0.000000
     33         10.144187   0.000000
     34         10.193347   0.000000
     35         10.452166   0.000000
     36         11.276761   0.000000
     37         11.387708   0.000000
     38         11.857808   0.000000
     39         12.131088   0.000000
     40         12.254459   0.000000
     41         12.510910   0.000000
     42         13.289809   0.000000
     43         14.619108   0.000000
     44         15.014261   0.000000
     45         15.138257   0.000000
     46         15.335156   0.000000
     47         15.603504   0.000000
     48         16.413627   0.000000
 
  0.4210526E+00  0.0000000E+00  0.0000000E+00  0.2293315E-03
      1        -12.367640   1.000000
      2        -12.091392   1.000000
      3         -8.485287   1.000000
      4         -8.406272   1.000000
      5         -6.127203   1.000000
      6         -6.123880   1.000000
      7         -4.060811   1.000000
      8         -3.451709   1.000000
      9         -3.133290   1.000000
     10         -3.040349   1.000000
     11         -2.503178   1.000000
     12         -2.367172   1.000000
     13         -2.057700   1.000000
     14         -1.974397   1.000000
     15         -0.702796   1.000000
     16         -0.504615   1.000000
     17          0.255919   1.000000
     18          0.306585   1.000000
     19          0.793812   1.000000
     20          1.291938   1.000000
     21          1.628432   1.000000
     22          1.669538   1.000000
     23          5.688804   0.000000
     24          5.735825   0.000000
     25          6.434106   0.000000
     26          6.534050   0.000000
     27          7.190953   0.000000
     28          7.897875   0.000000
     29          8.328803   0.000000
     30          8.418455   0.000000
     31          8.649758   0.000000
     32          9.025055   0.000000
     33         10.396574   0.000000
     34         10.417804   0.000000
     35         10.636033   0.000000
     36         11.332818   0.000000
     37         11.521565   0.000000
     38         11.683730   0.000000
     39         11.784773   0.000000
     40         12.510623   0.000000
     41         12.514952   0.000000
     42         13.312582   0.000000
     43         14.541234   0.000000
     44         14.817531   0.000000
     45         14.973308   0.000000
     46         15.028495   0.000000
     47         15.932658   0.000000
     48         16.469036   0.000000
 
  0.4736842E+00  0.0000000E+00  0.0000000E+00  0.2293315E-03
      1        -12.279939   1.000000
      2        -12.187151   1.000000
      3         -8.452715   1.000000
      4         -8.425682   1.000000
      5         -6.156221   1.000000
      6         -6.153361   1.000000
      7         -3.760964   1.000000
      8         -3.444409   1.000000
      9         -3.323191   1.000000
     10         -3.185243   1.000000
     11         -2.443514   1.000000
     12         -2.399299   1.000000
     13         -1.934356   1.000000
     14         -1.889842   1.000000
     15         -0.746138   1.000000
     16         -0.668755   1.000000
     17          0.292011   1.000000
     18          0.310149   1.000000
     19          0.947217   1.000000
     20          1.114793   1.000000
     21          1.612712   1.000000
     22          1.627505   1.000000
     23          5.708279   0.000000
     24          5.727036   0.000000
     25          6.445421   0.000000
     26          6.479852   0.000000
     27          7.567214   0.000000
     28          7.953909   0.000000
     29          8.261703   0.000000
     30          8.486035   0.000000
     31          8.562598   0.000000
     32          8.638051   0.000000
     33         10.575147   0.000000
     34         10.577958   0.000000
     35         10.895366   0.000000
     36         11.196736   0.000000
     37         11.318083   0.000000
     38         11.470950   0.000000
     39         12.094029   0.000000
     40         12.382800   0.000000
     41         12.803784   0.000000
     42         13.102730   0.000000
     43         14.622554   0.000000
     44         14.738740   0.000000
     45         14.780697   0.000000
     46         14.852993   0.000000
     47         16.212265   0.000000
     48         16.405130   0.000000
 
  0.0000000E+00  0.3703704E-01  0.0000000E+00  0.2293315E-03
      1        -12.730026   1.000000
      2        -11.573218   1.000000
      3         -8.659334   1.000000
      4         -8.421449   1.000000
      5         -6.073414   1.000000
      6         -5.053894   1.000000
      7         -4.634906   1.000000
      8         -4.358660   1.000000
      9         -4.048999   1.000000
     10         -3.594730   1.000000
     11         -2.600488   1.000000
     12         -2.323556   1.000000
     13         -1.809277   1.000000
     14         -1.051409   1.000000
     15         -0.076804   1.000000
     16         -0.050178   1.000000
     17          0.152674   1.000000
     18          0.196304   1.000000
     19          0.581681   1.000000
     20          2.028120   0.000012
     21          2.089584   0.000000
     22          2.236390   0.000000
     23          5.448401   0.000000
     24          5.760583   0.000000
     25          5.861966   0.000000
     26          5.878542   0.000000
     27          6.829503   0.000000
     28          7.729441   0.000000
     29          7.730375   0.000000
     30          8.509964   0.000000
     31          8.753390   0.000000
     32          8.921689   0.000000
     33          9.049983   0.000000
     34         10.115973   0.000000
     35         11.178535   0.000000
     36         11.389149   0.000000
     37         11.759432   0.000000
     38         11.818494   0.000000
     39         11.914274   0.000000
     40         12.395304   0.000000
     41         12.807078   0.000000
     42         13.350240   0.000000
     43         13.527629   0.000000
     44         15.539677   0.000000
     45         15.550401   0.000000
     46         15.954423   0.000000
     47         16.333336   0.000000
     48         16.485140   0.000000
 
  0.5263158E-01  0.3703704E-01  0.0000000E+00  0.4586630E-03
      1        -12.723924   1.000000
      2        -11.583851   1.000000
      3         -8.656504   1.000000
      4         -8.419635   1.000000
      5         -6.060524   1.000000
      6         -5.136288   1.000000
      7         -4.666762   1.000000
      8         -4.266237   1.000000
      9         -4.035821   1.000000
     10         -3.535598   1.000000
     11         -2.609995   1.000000
     12         -2.320791   1.000000
     13         -1.821913   1.000000
     14         -1.097498   1.000000
     15         -0.070857   1.000000
     16         -0.041425   1.000000
     17          0.160030   1.000000
     18          0.179455   1.000000
     19          0.567621   1.000000
     20          2.015488   0.000057
     21          2.078150   0.000000
     22          2.219497   0.000000
     23          5.462570   0.000000
     24          5.748032   0.000000
     25          5.840465   0.000000
     26          5.965582   0.000000
     27          6.816288   0.000000
     28          7.541842   0.000000
     29          7.887886   0.000000
     30          8.531329   0.000000
     31          8.809812   0.000000
     32          8.958036   0.000000
     33          9.054186   0.000000
     34         10.130553   0.000000
     35         11.188485   0.000000
     36         11.329421   0.000000
     37         11.655782   0.000000
     38         11.781585   0.000000
     39         11.947172   0.000000
     40         12.407337   0.000000
     41         12.877022   0.000000
     42         13.459812   0.000000
     43         13.470616   0.000000
     44         15.369441   0.000000
     45         15.573024   0.000000
     46         16.068897   0.000000
     47         16.317721   0.000000
     48         16.357764   0.000000
 
  0.1052632E+00  0.3703704E-01  0.0000000E+00  0.4586630E-03
      1        -12.705677   1.000000
      2        -11.615110   1.000000
      3         -8.647848   1.000000
      4         -8.414532   1.000000
      5         -6.027053   1.000000
      6         -5.308994   1.000000
      7         -4.735746   1.000000
      8         -4.092826   1.000000
      9         -3.967373   1.000000
     10         -3.381032   1.000000
     11         -2.638808   1.000000
     12         -2.312456   1.000000
     13         -1.857190   1.000000
     14         -1.230114   1.000000
     15         -0.053562   1.000000
     16         -0.020758   1.000000
     17          0.133574   1.000000
     18          0.180342   1.000000
     19          0.525932   1.000000
     20          1.978640   0.002414
     21          2.044838   0.000001
     22          2.168898   0.000000
     23          5.502127   0.000000
     24          5.755206   0.000000
     25          5.830049   0.000000
     26          6.127674   0.000000
     27          6.778766   0.000000
     28          7.346363   0.000000
     29          8.008740   0.000000
     30          8.591894   0.000000
     31          8.960593   0.000000
     32          9.058882   0.000000
     33          9.068557   0.000000
     34         10.175209   0.000000
     35         11.158723   0.000000
     36         11.218759   0.000000
     37         11.399807   0.000000
     38         11.721843   0.000000
     39         12.042535   0.000000
     40         12.442984   0.000000
     41         13.028165   0.000000
     42         13.312161   0.000000
     43         13.726195   0.000000
     44         15.074699   0.000000
     45         15.661727   0.000000
     46         16.057529   0.000000
     47         16.186469   0.000000
     48         16.432762   0.000000
 
  0.1578947E+00  0.3703704E-01  0.0000000E+00  0.4586630E-03
      1        -12.675500   1.000000
      2        -11.665183   1.000000
      3         -8.633042   1.000000
      4         -8.407117   1.000000
      5         -5.988459   1.000000
      6         -5.497890   1.000000
      7         -4.791899   1.000000
      8         -4.006700   1.000000
      9         -3.751119   1.000000
     10         -3.169789   1.000000
     11         -2.687231   1.000000
     12         -2.298367   1.000000
     13         -1.908341   1.000000
     14         -1.434563   1.000000
     15         -0.026745   1.000000
     16         -0.025563   1.000000
     17          0.093941   1.000000
     18          0.204234   1.000000
     19          0.464468   1.000000
     20          1.920734   0.118913
     21          1.992462   0.000665
     22          2.085189   0.000000
     23          5.559334   0.000000
     24          5.757314   0.000000
     25          5.881266   0.000000
     26          6.338257   0.000000
     27          6.722765   0.000000
     28          7.164066   0.000000
     29          8.104083   0.000000
     30          8.680076   0.000000
     31          9.060108   0.000000
     32          9.166784   0.000000
     33          9.238891   0.000000
     34         10.255105   0.000000
     35         10.899234   0.000000
     36         11.082022   0.000000
     37         11.269101   0.000000
     38         11.703194   0.000000
     39         12.183940   0.000000
     40         12.508018   0.000000
     41         13.079408   0.000000
     42         13.139079   0.000000
     43         14.059987   0.000000
     44         14.848166   0.000000
     45         15.737252   0.000000
     46         15.815095   0.000000
     47         16.221097   0.000000
     48         16.528723   0.000000
 
  0.2105263E+00  0.3703704E-01  0.0000000E+00  0.4586630E-03
      1        -12.633752   1.000000
      2        -11.731326   1.000000
      3         -8.611900   1.000000
      4         -8.398968   1.000000
      5         -5.966990   1.000000
      6         -5.676270   1.000000
      7         -4.792210   1.000000
      8         -3.943049   1.000000
      9         -3.482175   1.000000
     10         -2.933256   1.000000
     11         -2.750907   1.000000
     12         -2.278314   1.000000
     13         -1.967213   1.000000
     14         -1.691516   1.000000
     15         -0.116750   1.000000
     16          0.003958   1.000000
     17          0.119447   1.000000
     18          0.194843   1.000000
     19          0.423854   1.000000
     20          1.846750   0.819151
     21          1.925378   0.094795
     22          1.970946   0.004652
     23          5.623931   0.000000
     24          5.734097   0.000000
     25          6.023516   0.000000
     26          6.583227   0.000000
     27          6.656590   0.000000
     28          7.009139   0.000000
     29          8.186011   0.000000
     30          8.771561   0.000000
     31          9.037272   0.000000
     32          9.397444   0.000000
     33          9.463935   0.000000
     34         10.373540   0.000000
     35         10.582170   0.000000
     36         10.769812   0.000000
     37         11.333413   0.000000
     38         11.755976   0.000000
     39         12.323346   0.000000
     40         12.633553   0.000000
     41         12.799972   0.000000
     42         13.086068   0.000000
     43         14.402966   0.000000
     44         14.808714   0.000000
     45         15.454660   0.000000
     46         15.925594   0.000000
     47         16.145654   0.000000
     48         16.502885   0.000000
 
  0.2631579E+00  0.3703704E-01  0.0000000E+00  0.4586630E-03
      1        -12.580966   1.000000
      2        -11.810221   1.000000
      3         -8.584784   1.000000
      4         -8.392202   1.000000
      5         -5.978466   1.000000
      6         -5.833140   1.000000
      7         -4.711958   1.000000
      8         -3.869450   1.000000
      9         -3.212571   1.000000
     10         -2.861952   1.000000
     11         -2.655207   1.000000
     12         -2.254594   1.000000
     13         -2.027054   1.000000
     14         -1.975968   1.000000
     15         -0.254142   1.000000
     16          0.002547   1.000000
     17          0.134504   1.000000
     18          0.169215   1.000000
     19          0.458715   1.000000
     20          1.760444   0.999601
     21          1.834290   0.896983
     22          1.849084   0.801257
     23          5.685401   0.000000
     24          5.712536   0.000000
     25          6.233288   0.000000
     26          6.589786   0.000000
     27          6.791387   0.000000
     28          6.948357   0.000000
     29          8.259403   0.000000
     30          8.820758   0.000000
     31          8.988385   0.000000
     32          9.639228   0.000000
     33          9.717175   0.000000
     34         10.188887   0.000000
     35         10.462595   0.000000
     36         10.654272   0.000000
     37         11.393438   0.000000
     38         11.882083   0.000000
     39         12.414515   0.000000
     40         12.485237   0.000000
     41         12.848665   0.000000
     42         12.856443   0.000000
     43         14.697288   0.000000
     44         14.983679   0.000000
     45         15.151558   0.000000
     46         15.938950   0.000000
     47         15.951185   0.000000
     48         16.252249   0.000000
 
  0.3157895E+00  0.3703704E-01  0.0000000E+00  0.4586630E-03
      1        -12.517834   1.000000
      2        -11.898305   1.000000
      3         -8.552787   1.000000
      4         -8.389234   1.000000
      5         -6.019120   1.000000
      6         -5.962269   1.000000
      7         -4.551757   1.000000
      8         -3.783211   1.000000