       N       E                     dE             d eps       ncg     rms          rms(c)
DAV:   1     0.616262149526E+02    0.61626E+02   -0.18448E+04 16800   0.771E+02
DAV:   2    -0.925695075449E+02   -0.15420E+03   -0.14507E+03 23616   0.156E+02
DAV:   3    -0.975997752841E+02   -0.50303E+01   -0.50058E+01 24672   0.252E+01
DAV:   4    -0.976291935738E+02   -0.29418E-01   -0.29417E-01 21000   0.221E+00
DAV:   5    -0.976295315869E+02   -0.33801E-03   -0.33801E-03 24504   0.228E-01    0.123E+01
DAV:   6    -0.922141750623E+02    0.54154E+01   -0.39482E+00 24240   0.658E+00    0.679E+00
DAV:   7    -0.905628398546E+02    0.16513E+01   -0.32162E+00 25152   0.585E+00    0.171E+00
DAV:   8    -0.905752568573E+02   -0.12417E-01   -0.23473E-01 18432   0.167E+00    0.705E-01
DAV:   9    -0.905894282920E+02   -0.14171E-01   -0.16890E-02 23448   0.437E-01    0.198E-01
DAV:  10    -0.905934704946E+02   -0.40422E-02   -0.20919E-03 18912   0.161E-01    0.609E-02
DAV:  11    -0.905945376354E+02   -0.10671E-02   -0.62339E-04 21960   0.859E-02    0.320E-02
DAV:  12    -0.905946524397E+02   -0.11480E-03   -0.90926E-05 20592   0.361E-02    0.428E-03
DAV:  13    -0.905946571561E+02   -0.47164E-05   -0.39629E-06 23664   0.843E-03    0.181E-03
DAV:  14    -0.905946578117E+02   -0.65563E-06   -0.26899E-07 20232   0.217E-03
   1 F= -.90594658E+02 E0= -.90593051E+02  d E =-.321295E-02
