  14  14   0   0
  0.1021960E+02  0.5697000E-09  0.4047900E-09  0.6204200E-09  0.5000000E-15
  1.000000000000000E-004
  CAR 
 Kpoints                                 
     17.82858389    -14.15536131  301      1.72861480      1.00000000
    -14.155  0.0000E+00  0.0000E+00
    -14.049  0.0000E+00  0.0000E+00
    -13.942  0.0000E+00  0.0000E+00
    -13.836  0.0000E+00  0.0000E+00
    -13.729  0.0000E+00  0.0000E+00
    -13.622  0.0000E+00  0.0000E+00
    -13.516  0.0000E+00  0.0000E+00
    -13.409  0.0000E+00  0.0000E+00
    -13.302  0.0000E+00  0.0000E+00
    -13.196  0.0000E+00  0.0000E+00
    -13.089  0.0000E+00  0.0000E+00
    -12.983  0.9835E-15  0.1049E-15
    -12.876  0.4189E-06  0.4466E-07
    -12.769  0.2871E-01  0.3061E-02
    -12.663  0.1192E+01  0.1301E+00
    -12.556  0.1966E+01  0.3398E+00
    -12.450  0.3789E+01  0.7437E+00
    -12.343  0.5497E+01  0.1330E+01
    -12.236  0.3584E+01  0.1712E+01
    -12.130  0.2691E+01  0.1999E+01
    -12.023  0.4323E-01  0.2003E+01
    -11.916  0.3731E+01  0.2401E+01
    -11.810  0.2781E+01  0.2698E+01
    -11.703  0.5795E+01  0.3316E+01
    -11.597  0.2346E+01  0.3566E+01
    -11.490  0.2251E+01  0.3806E+01
    -11.383  0.1247E+01  0.3939E+01
    -11.277  0.5742E+00  0.4000E+01
    -11.170  0.2044E-02  0.4000E+01
    -11.064  0.1897E-08  0.4000E+01
    -10.957  0.0000E+00  0.4000E+01
    -10.850  0.0000E+00  0.4000E+01
    -10.744  0.0000E+00  0.4000E+01
    -10.637  0.0000E+00  0.4000E+01
    -10.531  0.0000E+00  0.4000E+01
    -10.424  0.0000E+00  0.4000E+01
    -10.317  0.0000E+00  0.4000E+01
    -10.211  0.0000E+00  0.4000E+01
    -10.104  0.0000E+00  0.4000E+01
     -9.997  0.0000E+00  0.4000E+01
     -9.891  0.0000E+00  0.4000E+01
     -9.784  0.0000E+00  0.4000E+01
     -9.678  0.0000E+00  0.4000E+01
     -9.571  0.0000E+00  0.4000E+01
     -9.464  0.0000E+00  0.4000E+01
     -9.358  0.0000E+00  0.4000E+01
     -9.251  0.0000E+00  0.4000E+01
     -9.145  0.0000E+00  0.4000E+01
     -9.038  0.1365E-13  0.4000E+01
     -8.931  0.3692E-05  0.4000E+01
     -8.825  0.1626E+00  0.4017E+01
     -8.718  0.3576E+01  0.4399E+01
     -8.611  0.2857E+01  0.4703E+01
     -8.505  0.6462E+01  0.5392E+01
     -8.398  0.6754E+01  0.6112E+01
     -8.292  0.6331E+01  0.6787E+01
     -8.185  0.5651E+01  0.7390E+01
     -8.078  0.3571E+01  0.7770E+01
     -7.972  0.1233E+01  0.7902E+01
     -7.865  0.9183E+00  0.8000E+01
     -7.759  0.1627E-02  0.8000E+01
     -7.652  0.6743E-09  0.8000E+01
     -7.545  0.0000E+00  0.8000E+01
     -7.439  0.0000E+00  0.8000E+01
     -7.332  0.0000E+00  0.8000E+01
     -7.226  0.0000E+00  0.8000E+01
     -7.119  0.0000E+00  0.8000E+01
     -7.012  0.0000E+00  0.8000E+01
     -6.906  0.2956E-07  0.8000E+01
     -6.799  0.1169E-01  0.8001E+01
     -6.692  0.1415E+01  0.8152E+01
     -6.586  0.6627E+00  0.8223E+01
     -6.479  0.1203E+01  0.8351E+01
     -6.373  0.8764E+00  0.8444E+01
     -6.266  0.4959E+00  0.8497E+01
     -6.159  0.7707E+00  0.8579E+01
     -6.053  0.2406E+01  0.8836E+01
     -5.946  0.8025E+01  0.9692E+01
     -5.840  0.7186E+01  0.1046E+02
     -5.733  0.2576E+01  0.1073E+02
     -5.626  0.7602E+01  0.1154E+02
     -5.520  0.1665E+01  0.1172E+02
     -5.413  0.4429E+01  0.1219E+02
     -5.306  0.4455E+01  0.1267E+02
     -5.200  0.1036E+01  0.1278E+02
     -5.093  0.1897E+01  0.1298E+02
     -4.987  0.4024E+01  0.1341E+02
     -4.880  0.4343E+00  0.1346E+02
     -4.773  0.3590E+01  0.1384E+02
     -4.667  0.3112E+01  0.1417E+02
     -4.560  0.5421E+01  0.1475E+02
     -4.454  0.4753E+01  0.1525E+02
     -4.347  0.7048E+01  0.1601E+02
     -4.240  0.5605E+01  0.1660E+02
     -4.134  0.1133E+01  0.1672E+02
     -4.027  0.4993E+00  0.1678E+02
     -3.920  0.3168E+00  0.1681E+02
     -3.814  0.4359E+01  0.1728E+02
     -3.707  0.3532E+01  0.1765E+02
     -3.601  0.2282E+01  0.1790E+02
     -3.494  0.1745E+01  0.1808E+02
     -3.387  0.3244E+01  0.1843E+02
     -3.281  0.2315E+01  0.1867E+02
     -3.174  0.3928E+01  0.1909E+02
     -3.068  0.2425E+01  0.1935E+02
     -2.961  0.3594E+01  0.1974E+02
     -2.854  0.1295E+01  0.1987E+02
     -2.748  0.1200E+01  0.2000E+02
     -2.641  0.3820E+01  0.2041E+02
     -2.535  0.4570E+01  0.2090E+02
     -2.428  0.4140E+01  0.2134E+02
     -2.321  0.2880E+01  0.2164E+02
     -2.215  0.3619E+01  0.2203E+02
     -2.108  0.1961E+01  0.2224E+02
     -2.001  0.1896E+01  0.2244E+02
     -1.895  0.3392E+01  0.2280E+02
     -1.788  0.8646E+00  0.2289E+02
     -1.682  0.6263E+01  0.2356E+02
     -1.575  0.6352E+01  0.2424E+02
     -1.468  0.8959E+01  0.2519E+02
     -1.362  0.1020E+02  0.2628E+02
     -1.255  0.1065E+02  0.2742E+02
     -1.149  0.5050E+01  0.2796E+02
     -1.042  0.2056E+01  0.2818E+02
     -0.935  0.1451E+01  0.2833E+02
     -0.829  0.4937E+00  0.2838E+02
     -0.722  0.2045E+01  0.2860E+02
     -0.615  0.3388E+01  0.2896E+02
     -0.509  0.5955E+01  0.2960E+02
     -0.402  0.1084E+02  0.3075E+02
     -0.296  0.9953E+01  0.3181E+02
     -0.189  0.5099E+01  0.3236E+02
     -0.082  0.7549E+01  0.3316E+02
      0.024  0.5269E+01  0.3372E+02
      0.131  0.8473E+01  0.3463E+02
      0.237  0.1704E+01  0.3481E+02
      0.344  0.6064E+01  0.3545E+02
      0.451  0.8408E+01  0.3635E+02
      0.557  0.5215E+01  0.3691E+02
      0.664  0.6407E+01  0.3759E+02
      0.770  0.3656E+01  0.3798E+02
      0.877  0.2096E+00  0.3800E+02
      0.984  0.8542E+00  0.3809E+02
      1.090  0.1816E+00  0.3811E+02
      1.197  0.3181E+01  0.3845E+02
      1.304  0.7361E+01  0.3924E+02
      1.410  0.5129E+01  0.3978E+02
      1.517  0.1433E+01  0.3994E+02
      1.623  0.9697E+01  0.4097E+02
      1.730  0.9802E+01  0.4202E+02
      1.837  0.7335E+01  0.4280E+02
      1.943  0.8705E+00  0.4289E+02
      2.050  0.2710E+01  0.4318E+02
      2.156  0.1447E+01  0.4333E+02
      2.263  0.8045E-01  0.4334E+02
      2.370  0.9526E+00  0.4344E+02
      2.476  0.9584E+00  0.4355E+02
      2.583  0.9423E-01  0.4356E+02
      2.690  0.6978E-05  0.4356E+02
      2.796  0.8956E-13  0.4356E+02
      2.903  0.0000E+00  0.4356E+02
      3.009  0.0000E+00  0.4356E+02
      3.116  0.0000E+00  0.4356E+02
      3.223  0.0000E+00  0.4356E+02
      3.329  0.0000E+00  0.4356E+02
      3.436  0.3071E-07  0.4356E+02
      3.542  0.1192E-01  0.4356E+02
      3.649  0.1433E+01  0.4371E+02
      3.756  0.2110E+01  0.4393E+02
      3.862  0.6137E+00  0.4400E+02
      3.969  0.3922E-03  0.4400E+02
      4.075  0.5187E-10  0.4400E+02
      4.182  0.5585E-12  0.4400E+02
      4.289  0.2103E-04  0.4400E+02
      4.395  0.1437E+00  0.4402E+02
      4.502  0.8703E+00  0.4411E+02
      4.609  0.1037E+00  0.4412E+02
      4.715  0.2327E+01  0.4437E+02
      4.822  0.7231E+00  0.4444E+02
      4.928  0.1049E-02  0.4444E+02
      5.035  0.9590E-08  0.4444E+02
      5.142  0.6429E-02  0.4445E+02
      5.248  0.1288E+01  0.4458E+02
      5.355  0.2408E+01  0.4484E+02
      5.461  0.5153E+00  0.4489E+02
      5.568  0.4131E+01  0.4533E+02
      5.675  0.4720E+01  0.4584E+02
      5.781  0.3951E+01  0.4626E+02
      5.888  0.1003E+01  0.4637E+02
      5.995  0.8840E+01  0.4731E+02
      6.101  0.7370E+01  0.4809E+02
      6.208  0.1199E+01  0.4822E+02
      6.314  0.2504E+00  0.4825E+02
      6.421  0.3970E+01  0.4867E+02
      6.528  0.2811E+01  0.4897E+02
      6.634  0.5089E+01  0.4951E+02
      6.741  0.4304E+01  0.4997E+02
      6.847  0.4167E+01  0.5042E+02
      6.954  0.1065E+02  0.5155E+02
      7.061  0.2290E+01  0.5180E+02
      7.167  0.4729E+01  0.5230E+02
      7.274  0.5399E+01  0.5288E+02
      7.380  0.3532E+01  0.5325E+02
      7.487  0.4786E+01  0.5376E+02
      7.594  0.2951E+00  0.5380E+02
      7.700  0.4238E+01  0.5425E+02
      7.807  0.1849E+01  0.5444E+02
      7.914  0.3236E+00  0.5448E+02
      8.020  0.4122E+01  0.5492E+02
      8.127  0.4742E+01  0.5542E+02
      8.233  0.5811E+01  0.5604E+02
      8.340  0.7312E+01  0.5682E+02
      8.447  0.6113E+01  0.5747E+02
      8.553  0.1386E+01  0.5762E+02
      8.660  0.5106E+01  0.5817E+02
      8.766  0.6172E+01  0.5882E+02
      8.873  0.2659E+01  0.5911E+02
      8.980  0.7012E+00  0.5918E+02
      9.086  0.7405E+01  0.5997E+02
      9.193  0.5231E+01  0.6053E+02
      9.300  0.5527E+01  0.6112E+02
      9.406  0.4702E+01  0.6162E+02
      9.513  0.8604E+01  0.6254E+02
      9.619  0.2635E+01  0.6282E+02
      9.726  0.2698E+01  0.6311E+02
      9.833  0.6734E+00  0.6318E+02
      9.939  0.6403E+01  0.6386E+02
     10.046  0.8842E+01  0.6480E+02
     10.152  0.5619E+01  0.6540E+02
     10.259  0.5881E+00  0.6547E+02
     10.366  0.4996E+01  0.6600E+02
     10.472  0.7418E+01  0.6679E+02
     10.579  0.3244E+01  0.6713E+02
     10.686  0.2753E+01  0.6743E+02
     10.792  0.3821E+01  0.6784E+02
     10.899  0.6261E+01  0.6850E+02
     11.005  0.5141E+01  0.6905E+02
     11.112  0.5338E+01  0.6962E+02
     11.219  0.6599E+01  0.7032E+02
     11.325  0.6399E+01  0.7101E+02
     11.432  0.3040E+01  0.7133E+02
     11.538  0.1697E+01  0.7151E+02
     11.645  0.4621E+01  0.7200E+02
     11.752  0.4180E+01  0.7245E+02
     11.858  0.4061E+01  0.7288E+02
     11.965  0.1065E+02  0.7402E+02
     12.071  0.9719E+01  0.7505E+02
     12.178  0.3544E+01  0.7543E+02
     12.285  0.5496E+01  0.7602E+02
     12.391  0.6924E+01  0.7676E+02
     12.498  0.7678E+01  0.7757E+02
     12.605  0.7551E+01  0.7838E+02
     12.711  0.3840E+01  0.7879E+02
     12.818  0.7545E+01  0.7959E+02
     12.924  0.5878E+01  0.8022E+02
     13.031  0.8069E+01  0.8108E+02
     13.138  0.5183E+01  0.8163E+02
     13.244  0.4156E+01  0.8208E+02
     13.351  0.7824E+01  0.8291E+02
     13.457  0.7056E+01  0.8366E+02
     13.564  0.3156E+01  0.8400E+02
     13.671  0.1822E+00  0.8402E+02
     13.777  0.4979E+01  0.8455E+02
     13.884  0.4748E+01  0.8506E+02
     13.991  0.5729E+00  0.8512E+02
     14.097  0.3277E+01  0.8547E+02
     14.204  0.4031E+01  0.8590E+02
     14.310  0.3097E+01  0.8623E+02
     14.417  0.7207E+01  0.8699E+02
     14.524  0.1107E+02  0.8817E+02
     14.630  0.4187E+01  0.8862E+02
     14.737  0.2800E+01  0.8892E+02
     14.843  0.5143E+01  0.8947E+02
     14.950  0.3859E+01  0.8988E+02
     15.057  0.7688E+01  0.9070E+02
     15.163  0.6432E+01  0.9138E+02
     15.270  0.5380E+01  0.9196E+02
     15.376  0.5331E+01  0.9253E+02
     15.483  0.8916E+01  0.9348E+02
     15.590  0.6235E+01  0.9414E+02
     15.696  0.4729E+01  0.9465E+02
     15.803  0.2762E+01  0.9494E+02
     15.910  0.1748E+01  0.9513E+02
     16.016  0.3953E+01  0.9555E+02
     16.123  0.1486E+01  0.9571E+02
     16.229  0.6624E+00  0.9578E+02
     16.336  0.2883E+00  0.9581E+02
     16.443  0.1743E+01  0.9599E+02
     16.549  0.5731E-01  0.9600E+02
     16.656  0.8378E-06  0.9600E+02
     16.762  0.1851E-14  0.9600E+02
     16.869  0.0000E+00  0.9600E+02
     16.976  0.0000E+00  0.9600E+02
     17.082  0.0000E+00  0.9600E+02
     17.189  0.0000E+00  0.9600E+02
     17.296  0.0000E+00  0.9600E+02
     17.402  0.0000E+00  0.9600E+02
     17.509  0.0000E+00  0.9600E+02
     17.615  0.0000E+00  0.9600E+02
     17.722  0.0000E+00  0.9600E+02
     17.829  0.0000E+00  0.9600E+02
