<?xml version="1.0" encoding="ISO-8859-1"?>
<modeling>
 <generator>
  <i name="program" type="string">vasp </i>
  <i name="version" type="string">6.4.3  </i>
  <i name="subversion" type="string">19Mar24 (build May 31 2024 16:31:43) complex                          parallel </i>
  <i name="platform" type="string">LinuxIFC </i>
  <i name="date" type="string">2024 10 31 </i>
  <i name="time" type="string">00:21:50 </i>
 </generator>
 <incar>
  <i type="string" name="SYSTEM">Kpoints</i>
  <i type="int" name="ISTART">     0</i>
  <i type="string" name="PREC">Accurate</i>
  <i type="string" name="ALGO">Normal</i>
  <i type="int" name="ISPIN">     1</i>
  <i type="int" name="ICHARG">     2</i>
  <i type="int" name="NELM">   100</i>
  <i type="int" name="IBRION">    -1</i>
  <i name="EDIFF">      0.00000100</i>
  <i name="EDIFFG">     -0.00100000</i>
  <i type="int" name="NSW">     0</i>
  <i type="int" name="ISIF">     2</i>
  <i name="ENCUT">    480.00000000</i>
  <i name="POTIM">      0.50000000</i>
  <i type="int" name="ISMEAR">     0</i>
  <i name="SIGMA">      0.05000000</i>
  <i type="logical" name="LWAVE"> F  </i>
  <i type="logical" name="LCHARG"> F  </i>
  <i type="string" name="GGA">PE</i>
 </incar>
 <primitive_cell>
  <structure name="primitive_cell" >
   <crystal>
    <varray name="basis" >
     <v>       5.69700000       0.00000000       0.00000000 </v>
     <v>       0.00000000       4.04790000       0.00000000 </v>
     <v>       0.00000000       0.00000000       6.20420000 </v>
    </varray>
    <i name="volume">    143.07435078 </i>
    <varray name="rec_basis" >
     <v>       0.17553098       0.00000000       0.00000000 </v>
     <v>       0.00000000       0.24704168       0.00000000 </v>
     <v>       0.00000000       0.00000000       0.16118114 </v>
    </varray>
   </crystal>
   <varray name="positions" >
    <v>       0.52123000       0.50000000       0.63796000 </v>
    <v>       0.47877000       0.50000000       0.36204000 </v>
    <v>       0.97877000       0.50000000       0.63796000 </v>
    <v>       0.02123000       0.50000000       0.36204000 </v>
    <v>       0.60090000       0.50000000       0.89991000 </v>
    <v>       0.39910000       0.50000000       0.10009000 </v>
    <v>       0.89910000       0.50000000       0.89991000 </v>
    <v>       0.10090000       0.50000000       0.10009000 </v>
    <v>       0.75000000       0.79171000       0.72973000 </v>
    <v>       0.25000000       0.20829000       0.27027000 </v>
    <v>       0.75000000       0.20829000       0.72973000 </v>
    <v>       0.25000000       0.79171000       0.27027000 </v>
    <v>       0.25000000       0.50000000       0.52367000 </v>
    <v>       0.75000000       0.50000000       0.47633000 </v>
   </varray>
  </structure>
  <varray name="primitive_index" >
   <v type="int" >        1 </v>
   <v type="int" >        2 </v>
   <v type="int" >        3 </v>
   <v type="int" >        4 </v>
   <v type="int" >        5 </v>
   <v type="int" >        6 </v>
   <v type="int" >        7 </v>
   <v type="int" >        8 </v>
   <v type="int" >        9 </v>
   <v type="int" >       10 </v>
   <v type="int" >       11 </v>
   <v type="int" >       12 </v>
   <v type="int" >       13 </v>
   <v type="int" >       14 </v>
  </varray>
 </primitive_cell>
 <kpoints>
  <generation param="Monkhorst-Pack">
   <v type="int" name="divisions">       3        4        3 </v>
   <v name="usershift">      0.00000000       0.00000000       0.00000000 </v>
   <v name="genvec1">      0.33333333       0.00000000       0.00000000 </v>
   <v name="genvec2">      0.00000000       0.25000000       0.00000000 </v>
   <v name="genvec3">      0.00000000       0.00000000       0.33333333 </v>
   <v name="shift">      0.00000000       0.50000000       0.00000000 </v>
  </generation>
  <varray name="kpointlist" >
   <v>       0.00000000       0.12500000       0.00000000 </v>
   <v>       0.33333333       0.12500000       0.00000000 </v>
   <v>       0.00000000       0.37500000       0.00000000 </v>
   <v>       0.33333333       0.37500000       0.00000000 </v>
   <v>       0.00000000       0.12500000       0.33333333 </v>
   <v>       0.33333333       0.12500000       0.33333333 </v>
   <v>       0.00000000       0.37500000       0.33333333 </v>
   <v>       0.33333333       0.37500000       0.33333333 </v>
  </varray>
  <varray name="weights" >
   <v>       0.05555556 </v>
   <v>       0.11111111 </v>
   <v>       0.05555556 </v>
   <v>       0.11111111 </v>
   <v>       0.11111111 </v>
   <v>       0.22222222 </v>
   <v>       0.11111111 </v>
   <v>       0.22222222 </v>
  </varray>
 </kpoints>
 <parameters>
  <separator name="general" >
   <i type="string" name="SYSTEM">Kpoints</i>
   <i type="logical" name="LCOMPAT"> F  </i>
  </separator>
  <separator name="electronic" >
   <i type="string" name="PREC">accura</i>
   <i name="ENMAX">    480.00000000</i>
   <i name="ENAUG">    535.51400000</i>
   <i name="EDIFF">      0.00000100</i>
   <i type="int" name="IALGO">    38</i>
   <i type="int" name="IWAVPR">    10</i>
   <i type="int" name="NBANDS">    48</i>
   <i type="int" name="NBANDSLOW">    -1</i>
   <i type="int" name="NBANDSHIGH">    -1</i>
   <i name="NELECT">     42.00000000</i>
   <i type="int" name="TURBO">     0</i>
   <i type="int" name="IRESTART">     0</i>
   <i type="int" name="NREBOOT">     0</i>
   <i type="int" name="NMIN">     0</i>
   <i name="EREF">      0.00000000</i>
   <separator name="electronic smearing" >
    <i type="int" name="ISMEAR">     0</i>
    <i name="SIGMA">      0.05000000</i>
    <i name="KSPACING">      0.50000000</i>
    <i type="logical" name="KGAMMA"> T  </i>
    <i type="logical" name="KBLOWUP"> T  </i>
   </separator>
   <separator name="electronic projectors" >
    <i type="logical" name="LREAL"> F  </i>
    <v name="ROPT">      0.00000000</v>
    <i type="int" name="LMAXPAW">  -100</i>
    <i type="int" name="LMAXMIX">     2</i>
    <i type="logical" name="NLSPLINE"> F  </i>
   </separator>
   <separator name="electronic startup" >
    <i type="int" name="ISTART">     0</i>
    <i type="int" name="ICHARG">     2</i>
    <i type="int" name="INIWAV">     1</i>
   </separator>
   <separator name="electronic spin" >
    <i type="int" name="ISPIN">     1</i>
    <i type="logical" name="LNONCOLLINEAR"> F  </i>
    <v name="MAGMOM">      1.00000000      1.00000000      1.00000000      1.00000000      1.00000000      1.00000000      1.00000000      1.00000000      1.00000000      1.00000000      1.00000000      1.00000000      1.00000000      1.00000000</v>
    <i name="NUPDOWN">     -1.00000000</i>
    <i type="logical" name="LSORBIT"> F  </i>
    <v name="SAXIS">      0.00000000      0.00000000      1.00000000</v>
    <i type="logical" name="LSPIRAL"> F  </i>
    <v name="QSPIRAL">      0.00000000      0.00000000      0.00000000</v>
    <i type="logical" name="LZEROZ"> F  </i>
   </separator>
   <separator name="electronic exchange-correlation" >
    <i type="logical" name="LASPH"> F  </i>
   </separator>
   <separator name="electronic convergence" >
    <i type="int" name="NELM">   100</i>
    <i type="int" name="NELMDL">    -5</i>
    <i type="int" name="NELMIN">     2</i>
    <i name="ENINI">    480.00000000</i>
    <separator name="electronic convergence detail" >
     <i type="logical" name="LDIAG"> T  </i>
     <i type="logical" name="LSUBROT"> F  </i>
     <i name="WEIMIN">      0.00000000</i>
     <i name="EBREAK">      0.00000001</i>
     <i name="DEPER">      0.30000000</i>
     <i type="int" name="NRMM">     4</i>
     <i name="TIME">      0.40000000</i>
    </separator>
   </separator>
   <separator name="electronic mixer" >
    <i name="AMIX">      0.40000000</i>
    <i name="BMIX">      1.00000000</i>
    <i name="AMIN">      0.10000000</i>
    <i name="AMIX_MAG">      1.60000000</i>
    <i name="BMIX_MAG">      1.00000000</i>
    <separator name="electronic mixer details" >
     <i type="int" name="IMIX">     4</i>
     <i type="logical" name="MIXFIRST"> F  </i>
     <i type="int" name="MAXMIX">   -45</i>
     <i name="WC">    100.00000000</i>
     <i type="int" name="INIMIX">     1</i>
     <i type="int" name="MIXPRE">     1</i>
     <i type="int" name="MREMOVE">     5</i>
    </separator>
   </separator>
   <separator name="electronic dipolcorrection" >
    <i type="logical" name="LDIPOL"> F  </i>
    <i type="logical" name="LMONO"> F  </i>
    <i type="int" name="IDIPOL">     0</i>
    <i name="EPSILON">      1.00000000</i>
    <v name="DIPOL">   -100.00000000   -100.00000000   -100.00000000</v>
    <i name="EFIELD">      0.00000000</i>
    <i type="logical" name="LVACPOTAV"> F  </i>
   </separator>
  </separator>
  <separator name="grids" >
   <i type="int" name="NGX">    42</i>
   <i type="int" name="NGY">    30</i>
   <i type="int" name="NGZ">    48</i>
   <i type="int" name="NGXF">    84</i>
   <i type="int" name="NGYF">    60</i>
   <i type="int" name="NGZF">    96</i>
   <i type="logical" name="ADDGRID"> F  </i>
  </separator>
  <separator name="ionic" >
   <i type="int" name="NSW">     0</i>
   <i type="int" name="IBRION">    -1</i>
   <i type="int" name="MDALGO">     0</i>
   <i type="int" name="ISIF">     2</i>
   <i name="PSTRESS">      0.00000000</i>
   <i name="EDIFFG">     -0.00100000</i>
   <i type="int" name="NFREE">     0</i>
   <i name="POTIM">      0.50000000</i>
   <i name="SMASS">     -3.00000000</i>
   <i name="SCALEE">      1.00000000</i>
  </separator>
  <separator name="ionic md" >
   <i name="TEBEG">      0.00010000</i>
   <i name="TEEND">      0.00010000</i>
   <i type="int" name="NBLOCK">     1</i>
   <i type="int" name="KBLOCK">     1</i>
   <i type="int" name="NPACO">   256</i>
   <i name="APACO">     10.00000000</i>
  </separator>
  <separator name="symmetry" >
   <i type="int" name="ISYM">     2</i>
   <i name="SYMPREC">      0.00001000</i>
  </separator>
  <separator name="dos" >
   <i type="int" name="LORBIT">     0</i>
   <v name="RWIGS">     -1.00000000</v>
   <i type="int" name="NEDOS">   301</i>
   <i name="EMIN">     10.00000000</i>
   <i name="EMAX">    -10.00000000</i>
   <i name="EFERMI">      0.00000000</i>
  </separator>
  <separator name="writing" >
   <i type="int" name="NWRITE">     2</i>
   <i type="logical" name="LWAVE"> F  </i>
   <i type="logical" name="LDOWNSAMPLE"> F  </i>
   <i type="logical" name="LCHARG"> F  </i>
   <i type="logical" name="LPARD"> F  </i>
   <i type="logical" name="LVTOT"> F  </i>
   <i type="logical" name="LVHAR"> F  </i>
   <i type="logical" name="LELF"> F  </i>
   <i type="logical" name="LOPTICS"> F  </i>
   <v name="STM">      0.00000000      0.00000000      0.00000000      0.00000000      0.00000000      0.00000000      0.00000000</v>
  </separator>
  <separator name="performance" >
   <i type="int" name="NPAR">    24</i>
   <i type="int" name="NSIM">     4</i>
   <i type="int" name="NBLK">    -1</i>
   <i type="logical" name="LPLANE"> T  </i>
   <i type="logical" name="LSCALAPACK"> T  </i>
   <i type="logical" name="LSCAAWARE"> F  </i>
   <i type="logical" name="LSCALU"> F  </i>
   <i type="logical" name="LASYNC"> F  </i>
   <i type="logical" name="LORBITALREAL"> F  </i>
  </separator>
  <separator name="miscellaneous" >
   <i type="int" name="IDIOT">     3</i>
   <i type="int" name="PHON_NSTRUCT">    -1</i>
   <i type="logical" name="LMUSIC"> F  </i>
   <v name="POMASS">     10.81100000</v>
   <v name="DARWINR">      0.00000000</v>
   <v name="DARWINV">      1.00000000</v>
   <i type="logical" name="LCORR"> T  </i>
  </separator>
  <i type="logical" name="GGA_COMPAT"> T  </i>
  <i type="logical" name="LBERRY"> F  </i>
  <i type="int" name="ICORELEVEL">     0</i>
  <i type="logical" name="LDAU"> F  </i>
  <i type="int" name="I_CONSTRAINED_M">     0</i>
  <separator name="electronic exchange-correlation" >
   <i type="string" name="GGA    ">PE</i>
   <i type="string" name="XC_C">1</i>
   <i type="int" name="VOSKOWN">     0</i>
   <i type="logical" name="LHFCALC"> F  </i>
   <i type="string" name="PRECFOCK"></i>
   <i type="logical" name="LSYMGRAD"> F  </i>
   <i type="logical" name="LHFONE"> F  </i>
   <i type="logical" name="LRHFCALC"> F  </i>
   <i type="logical" name="LTHOMAS"> F  </i>
   <i type="logical" name="LMODELHF"> F  </i>
   <i type="logical" name="LFOCKACE"> F  </i>
   <i name="ENCUT4O">     -1.00000000</i>
   <i type="int" name="EXXOEP">     0</i>
   <i type="int" name="FOURORBIT">     0</i>
   <i name="AEXX">      0.00000000</i>
   <i name="HFALPHA">      0.00000000</i>
   <i name="MCALPHA">      0.00000000</i>
   <i name="ALDAX">      1.00000000</i>
   <i name="AGGAX">      1.00000000</i>
   <i name="AMGGAX">      1.00000000</i>
   <i name="ALDAC">      1.00000000</i>
   <i name="AGGAC">      1.00000000</i>
   <i name="AMGGAC">      1.00000000</i>
   <i type="int" name="NKREDX">     1</i>
   <i type="int" name="NKREDY">     1</i>
   <i type="int" name="NKREDZ">     1</i>
   <i type="logical" name="SHIFTRED"> F  </i>
   <i type="logical" name="ODDONLY"> F  </i>
   <i type="logical" name="EVENONLY"> F  </i>
   <i type="int" name="LMAXFOCK">     0</i>
   <i type="int" name="NMAXFOCKAE">     0</i>
   <i type="logical" name="LFOCKAEDFT"> F  </i>
   <i name="HFSCREEN">      0.00000000</i>
   <i name="HFSCREENC">      0.00000000</i>
   <i type="int" name="NBANDSGWLOW">     0</i>
  </separator>
  <separator name="vdW DFT" >
   <i type="logical" name="LUSE_VDW"> F  </i>
   <i type="int" name="IVDW_NL">    -1</i>
   <i type="logical" name="LSPIN_VDW"> F  </i>
   <i name="ZAB_VDW">     -0.84910000</i>
   <i name="GAMMA_VDW">      1.39626340</i>
   <i name="ALPHA_VDW">      0.00000000</i>
   <i name="PARAM1">      0.12340000</i>
   <i name="PARAM2">      1.00000000</i>
   <i name="BPARAM">      6.30000000</i>
   <i name="CPARAM">      0.00930000</i>
  </separator>
  <separator name="model GW" >
   <i type="int" name="MODEL_GW">     0</i>
   <i name="MODEL_EPS0">      6.13175789</i>
   <i name="MODEL_ALPHA">      1.00000000</i>
  </separator>
  <separator name="linear response parameters" >
   <i type="logical" name="LEPSILON"> F  </i>
   <i type="logical" name="LRPA"> F  </i>
   <i type="logical" name="LNABLA"> F  </i>
   <i type="logical" name="LVEL"> F  </i>
   <i name="CSHIFT">      0.10000000</i>
   <i name="OMEGAMAX">     -1.00000000</i>
   <i name="DEG_THRESHOLD">      0.00200000</i>
   <i name="RTIME">     -0.10000000</i>
   <i name="WPLASMAI">      0.00000000</i>
   <v name="DFIELD">      0.00000000      0.00000000      0.00000000</v>
   <v name="WPLASMA">      0.00000000      0.00000000      0.00000000      0.00000000      0.00000000      0.00000000      0.00000000      0.00000000      0.00000000</v>
  </separator>
  <separator name="orbital magnetization" >
   <i type="logical" name="NUCIND"> F  </i>
   <v name="MAGPOS">      0.00000000      0.00000000      0.00000000</v>
   <i type="logical" name="LNICSALL"> T  </i>
   <i type="logical" name="ORBITALMAG"> F  </i>
   <i type="logical" name="LMAGBLOCH"> F  </i>
   <i type="logical" name="LCHIMAG"> F  </i>
   <i type="logical" name="LGAUGE"> T  </i>
   <i type="int" name="MAGATOM">     0</i>
   <v name="MAGDIPOL">      0.00000000      0.00000000      0.00000000</v>
   <v name="AVECCONST">      0.00000000      0.00000000      0.00000000</v>
  </separator>
  <separator name="response functions" >
   <i type="logical" name="LALL_IN_ONE"> F  </i>
   <i type="int" name="IALL_IN_ONE">    -1</i>
   <i type="int" name="NBANDS_WAVE">    -1</i>
   <i type="logical" name="LFINITE_TEMPERATURE"> F  </i>
   <i type="logical" name="LADDER"> F  </i>
   <i type="logical" name="LRPAFORCE"> F  </i>
   <i type="logical" name="LFXC"> F  </i>
   <i type="logical" name="LHARTREE"> T  </i>
   <i type="int" name="IBSE">     0</i>
   <v type="int" name="KPOINT">    -1     0     0     0</v>
   <i type="logical" name="LTCTC"> F  </i>
   <i type="logical" name="LTCTE"> F  </i>
   <i type="logical" name="LTETE"> F  </i>
   <i type="logical" name="LTRIPLET"> F  </i>
   <i type="logical" name="LFXCEPS"> F  </i>
   <i type="logical" name="LFXHEG"> F  </i>
   <i type="int" name="NATURALO">     2</i>
   <i type="logical" name="LHOLEGF"> F  </i>
   <i type="logical" name="L2ORDER"> F  </i>
   <i type="logical" name="LDMP1"> F  </i>
   <i type="logical" name="LMP2LT"> F  </i>
   <i type="logical" name="LSMP2LT"> F  </i>
   <i type="logical" name="LGWLF"> F  </i>
   <i name="ENCUTGW">     -1.60000002</i>
   <i name="ENCUTGWSOFT">     -1.60000002</i>
   <i name="ENCUTLF">     -1.00000000</i>
   <i type="logical" name="ESF_SPLINES"> F  </i>
   <i name="ESF_CONV">      0.01000000</i>
   <i type="int" name="ESF_NINTER">    15</i>
   <i type="int" name="LMAXMP2">    -1</i>
   <i name="SCISSOR">      0.00000000</i>
   <i type="int" name="NOMEGA">     0</i>
   <i type="int" name="NOMEGAR">     0</i>
   <i type="int" name="NBANDSGW">    -1</i>
   <i type="int" name="NBANDSO">    -1</i>
   <i type="int" name="NBANDSV">    -1</i>
   <i type="int" name="NELMGW">     1</i>
   <i type="int" name="NELMHF">     1</i>
   <i type="int" name="DIM">     3</i>
   <i type="int" name="IESPILON">     4</i>
   <i type="int" name="ANTIRES">     0</i>
   <i name="OMEGAMAX">    -30.00000000</i>
   <i name="OMEGAMIN">    -30.00000000</i>
   <i name="OMEGATL">   -200.00000000</i>
   <i type="int" name="OMEGAGRID">     0</i>
   <i name="CSHIFT">     -0.10000000</i>
   <i type="logical" name="LSELFENERGY"> F  </i>
   <i type="logical" name="LSPECTRAL"> F  </i>
   <i type="logical" name="LSPECTRALGW"> F  </i>
   <i type="logical" name="LSINGLES"> F  </i>
   <i type="logical" name="LFERMIGW"> F  </i>
   <i type="logical" name="ODDONLYGW"> F  </i>
   <i type="logical" name="EVENONLYGW"> F  </i>
   <i type="int" name="NKREDLFX">     1</i>
   <i type="int" name="NKREDLFY">     1</i>
   <i type="int" name="NKREDLFZ">     1</i>
   <i type="int" name="MAXMEM">  2800</i>
   <i type="int" name="TELESCOPE">     0</i>
   <i type="int" name="NTAUPAR">    -1</i>
   <i type="int" name="NOMEGAPAR">    -1</i>
   <i name="DAMP_NEWTON">      0.80000001</i>
   <i name="LAMBDA">      1.00000000</i>
  </separator>
  <separator name="External order field" >
   <i name="OFIELD_KAPPA">      0.00000000</i>
   <v name="OFIELD_K">      0.00000000      0.00000000      0.00000000</v>
   <i name="OFIELD_Q6_NEAR">      0.00000000</i>
   <i name="OFIELD_Q6_FAR">      0.00000000</i>
   <i name="OFIELD_A">      0.00000000</i>
  </separator>
  <separator name="optional k-points parameters" >
   <i type="int" name="KPOINTS_OPT_MODE">     1</i>
   <i type="logical" name="LKPOINTS_OPT"> F  </i>
  </separator>
 </parameters>
 <atominfo>
  <atoms>      14 </atoms>
  <types>       1 </types>
  <array name="atoms" >
   <dimension dim="1">ion</dimension>
   <field type="string">element</field>
   <field type="int">atomtype</field>
   <set>
    <rc><c>B </c><c>   1</c></rc>
    <rc><c>B </c><c>   1</c></rc>
    <rc><c>B </c><c>   1</c></rc>
    <rc><c>B </c><c>   1</c></rc>
    <rc><c>B </c><c>   1</c></rc>
    <rc><c>B </c><c>   1</c></rc>
    <rc><c>B </c><c>   1</c></rc>
    <rc><c>B </c><c>   1</c></rc>
    <rc><c>B </c><c>   1</c></rc>
    <rc><c>B </c><c>   1</c></rc>
    <rc><c>B </c><c>   1</c></rc>
    <rc><c>B </c><c>   1</c></rc>
    <rc><c>B </c><c>   1</c></rc>
    <rc><c>B </c><c>   1</c></rc>
   </set>
  </array>
  <array name="atomtypes" >
   <dimension dim="1">type</dimension>
   <field type="int">atomspertype</field>
   <field type="string">element</field>
   <field>mass</field>
   <field>valence</field>
   <field type="string">pseudopotential</field>
   <set>
    <rc><c>  14</c><c>B </c><c>     10.81100000</c><c>      3.00000000</c><c>  PAW_PBE B 06Sep2000                   </c></rc>
   </set>
  </array>
 </atominfo>
 <structure name="initialpos" >
  <crystal>
   <varray name="basis" >
    <v>       5.69700000       0.00000000       0.00000000 </v>
    <v>       0.00000000       4.04790000       0.00000000 </v>
    <v>       0.00000000       0.00000000       6.20420000 </v>
   </varray>
   <i name="volume">    143.07435078 </i>
   <varray name="rec_basis" >
    <v>       0.17553098       0.00000000       0.00000000 </v>
    <v>       0.00000000       0.24704168       0.00000000 </v>
    <v>       0.00000000       0.00000000       0.16118114 </v>
   </varray>
  </crystal>
  <varray name="positions" >
   <v>       0.52123000       0.50000000       0.63796000 </v>
   <v>       0.47877000       0.50000000       0.36204000 </v>
   <v>       0.97877000       0.50000000       0.63796000 </v>
   <v>       0.02123000       0.50000000       0.36204000 </v>
   <v>       0.60090000       0.50000000       0.89991000 </v>
   <v>       0.39910000       0.50000000       0.10009000 </v>
   <v>       0.89910000       0.50000000       0.89991000 </v>
   <v>       0.10090000       0.50000000       0.10009000 </v>
   <v>       0.75000000       0.79171000       0.72973000 </v>
   <v>       0.25000000       0.20829000       0.27027000 </v>
   <v>       0.75000000       0.20829000       0.72973000 </v>
   <v>       0.25000000       0.79171000       0.27027000 </v>
   <v>       0.25000000       0.50000000       0.52367000 </v>
   <v>       0.75000000       0.50000000       0.47633000 </v>
  </varray>
 </structure>
 <calculation>
  <scstep>
   <time name="dav">    0.26    0.33</time>
   <time name="total">    0.27    0.43</time>
   <energy>
    <i name="alphaZ">     94.24357992 </i>
    <i name="ewald">   -795.76658092 </i>
    <i name="hartreedc">   -271.33601302 </i>
    <i name="XCdc">     97.50108136 </i>
    <i name="pawpsdc">    608.99811708 </i>
    <i name="pawaedc">   -597.02363782 </i>
    <i name="eentropy">     -0.00564360 </i>
    <i name="bandstr">    -79.63507111 </i>
    <i name="atom">    996.36613177 </i>
    <i name="e_fr_energy">     53.34196366 </i>
    <i name="e_wo_entrp">     53.34760726 </i>
    <i name="e_0_energy">     53.34478546 </i>
   </energy>
  </scstep>
  <scstep>
   <time name="dav">    0.28    0.29</time>
   <time name="total">    0.28    0.29</time>
   <energy>
    <i name="e_fr_energy">    -92.73374040 </i>
    <i name="e_wo_entrp">    -92.72383815 </i>
    <i name="e_0_energy">    -92.72878927 </i>
   </energy>
  </scstep>
  <scstep>
   <time name="dav">    0.29    0.29</time>
   <time name="total">    0.29    0.29</time>
   <energy>
    <i name="e_fr_energy">    -97.35582945 </i>
    <i name="e_wo_entrp">    -97.33924534 </i>
    <i name="e_0_energy">    -97.34753740 </i>
   </energy>
  </scstep>
  <scstep>
   <time name="dav">    0.24    0.25</time>
   <time name="total">    0.24    0.25</time>
   <energy>
    <i name="e_fr_energy">    -97.38239031 </i>
    <i name="e_wo_entrp">    -97.36585448 </i>
    <i name="e_0_energy">    -97.37412240 </i>
   </energy>
  </scstep>
  <scstep>
   <time name="dav">    0.28    0.29</time>
   <time name="total">    0.30    0.30</time>
   <energy>
    <i name="e_fr_energy">    -97.38269933 </i>
    <i name="e_wo_entrp">    -97.36616386 </i>
    <i name="e_0_energy">    -97.37443160 </i>
   </energy>
  </scstep>
  <scstep>
   <time name="dav">    0.29    0.29</time>
   <time name="total">    0.32    0.32</time>
   <energy>
    <i name="e_fr_energy">    -91.88687145 </i>
    <i name="e_wo_entrp">    -91.86862902 </i>
    <i name="e_0_energy">    -91.87775023 </i>
   </energy>
  </scstep>
  <scstep>
   <time name="dav">    0.29    0.29</time>
   <time name="total">    0.31    0.32</time>
   <energy>
    <i name="e_fr_energy">    -90.22609349 </i>
    <i name="e_wo_entrp">    -90.21438572 </i>
    <i name="e_0_energy">    -90.22023961 </i>
   </energy>
  </scstep>
  <scstep>
   <time name="dav">    0.22    0.23</time>
   <time name="total">    0.25    0.26</time>
   <energy>
    <i name="e_fr_energy">    -90.24306279 </i>
    <i name="e_wo_entrp">    -90.22924061 </i>
    <i name="e_0_energy">    -90.23615170 </i>
   </energy>
  </scstep>
  <scstep>
   <time name="dav">    0.29    0.29</time>
   <time name="total">    0.31    0.32</time>
   <energy>
    <i name="e_fr_energy">    -90.25389125 </i>
    <i name="e_wo_entrp">    -90.24158454 </i>
    <i name="e_0_energy">    -90.24773789 </i>
   </energy>
  </scstep>
  <scstep>
   <time name="dav">    0.24    0.25</time>
   <time name="total">    0.26    0.27</time>
   <energy>
    <i name="e_fr_energy">    -90.25846637 </i>
    <i name="e_wo_entrp">    -90.24447890 </i>
    <i name="e_0_energy">    -90.25147264 </i>
   </energy>
  </scstep>
  <scstep>
   <time name="dav">    0.23    0.24</time>
   <time name="total">    0.25    0.26</time>
   <energy>
    <i name="e_fr_energy">    -90.26012096 </i>
    <i name="e_wo_entrp">    -90.24656121 </i>
    <i name="e_0_energy">    -90.25334108 </i>
   </energy>
  </scstep>
  <scstep>
   <time name="dav">    0.24    0.25</time>
   <time name="total">    0.26    0.27</time>
   <energy>
    <i name="e_fr_energy">    -90.26078353 </i>
    <i name="e_wo_entrp">    -90.24713736 </i>
    <i name="e_0_energy">    -90.25396045 </i>
   </energy>
  </scstep>
  <scstep>
   <time name="dav">    0.27    0.28</time>
   <time name="total">    0.29    0.30</time>
   <energy>
    <i name="e_fr_energy">    -90.26081681 </i>
    <i name="e_wo_entrp">    -90.24715271 </i>
    <i name="e_0_energy">    -90.25398476 </i>
   </energy>
  </scstep>
  <scstep>
   <time name="dav">    0.23    0.24</time>
   <time name="total">    0.25    0.26</time>
   <energy>
    <i name="e_fr_energy">    -90.26082352 </i>
    <i name="e_wo_entrp">    -90.24716815 </i>
    <i name="e_0_energy">    -90.25399584 </i>
   </energy>
  </scstep>
  <scstep>
   <time name="dav">    0.26    0.26</time>
   <time name="total">    0.27    0.27</time>
   <energy>
    <i name="alphaZ">     94.24357992 </i>
    <i name="ewald">   -795.76658092 </i>
    <i name="hartreedc">   -349.19473657 </i>
    <i name="XCdc">    101.59811728 </i>
    <i name="pawpsdc">   3723.61354151 </i>
    <i name="pawaedc">  -3712.80787227 </i>
    <i name="eentropy">     -0.01366136 </i>
    <i name="bandstr">   -148.29934334 </i>
    <i name="atom">    996.36613177 </i>
    <i name="e_fr_energy">    -90.26082398 </i>
    <i name="e_wo_entrp">    -90.24716262 </i>
    <i name="e_0_energy">    -90.25399330 </i>
   </energy>
  </scstep>
  <structure>
   <crystal>
    <varray name="basis" >
     <v>       5.69700000       0.00000000       0.00000000 </v>
     <v>       0.00000000       4.04790000       0.00000000 </v>
     <v>       0.00000000       0.00000000       6.20420000 </v>
    </varray>
    <i name="volume">    143.07435078 </i>
    <varray name="rec_basis" >
     <v>       0.17553098       0.00000000       0.00000000 </v>
     <v>       0.00000000       0.24704168       0.00000000 </v>
     <v>       0.00000000       0.00000000       0.16118114 </v>
    </varray>
   </crystal>
   <varray name="positions" >
    <v>       0.52123000       0.50000000       0.63796000 </v>
    <v>       0.47877000       0.50000000       0.36204000 </v>
    <v>       0.97877000       0.50000000       0.63796000 </v>
    <v>       0.02123000       0.50000000       0.36204000 </v>
    <v>       0.60090000       0.50000000       0.89991000 </v>
    <v>       0.39910000       0.50000000       0.10009000 </v>
    <v>       0.89910000       0.50000000       0.89991000 </v>
    <v>       0.10090000       0.50000000       0.10009000 </v>
    <v>       0.75000000       0.79171000       0.72973000 </v>
    <v>       0.25000000       0.20829000       0.27027000 </v>
    <v>       0.75000000       0.20829000       0.72973000 </v>
    <v>       0.25000000       0.79171000       0.27027000 </v>
    <v>       0.25000000       0.50000000       0.52367000 </v>
    <v>       0.75000000       0.50000000       0.47633000 </v>
   </varray>
  </structure>
  <varray name="forces" >
   <v>      -0.11217987      -0.00000000       0.07344779 </v>
   <v>       0.11217987      -0.00000000      -0.07344779 </v>
   <v>       0.11217987      -0.00000000       0.07344779 </v>
   <v>      -0.11217987       0.00000000      -0.07344779 </v>
   <v>      -0.76080480      -0.00000000       0.33957518 </v>
   <v>       0.76080480       0.00000000      -0.33957518 </v>
   <v>       0.76080480       0.00000000       0.33957518 </v>
   <v>      -0.76080480      -0.00000000      -0.33957518 </v>
   <v>      -0.00000000       0.10824882      -0.06569279 </v>
   <v>      -0.00000000      -0.10824882       0.06569279 </v>
   <v>      -0.00000000      -0.10824882      -0.06569279 </v>
   <v>      -0.00000000       0.10824882       0.06569279 </v>
   <v>      -0.00000000      -0.00000000       0.10424449 </v>
   <v>      -0.00000000       0.00000000      -0.10424449 </v>
  </varray>
  <varray name="stress" >
   <v>      16.36520110       0.00000000      -0.00000000 </v>
   <v>       0.00000000       3.41021484       0.00000000 </v>
   <v>       0.00000000       0.00000000      -2.26343100 </v>
  </varray>
  <energy>
   <i name="e_fr_energy">    -90.26082398 </i>
   <i name="e_wo_entrp">    -90.24716262 </i>
   <i name="e_0_energy">    -90.25399330 </i>
  </energy>
  <time name="totalsc">    4.37    4.62</time>
  <eigenvalues>
   <array>
    <dimension dim="1">band</dimension>
    <dimension dim="2">kpoint</dimension>
    <dimension dim="3">spin</dimension>
    <field>eigene</field>
    <field>occ</field>
    <set>
     <set comment="spin 1">
      <set comment="kpoint 1">
       <r>  -12.7015    1.0000 </r>
       <r>  -11.5503    1.0000 </r>
       <r>   -8.6313    1.0000 </r>
       <r>   -8.3800    1.0000 </r>
       <r>   -6.0307    1.0000 </r>
       <r>   -5.0054    1.0000 </r>
       <r>   -4.7321    1.0000 </r>
       <r>   -4.5931    1.0000 </r>
       <r>   -4.2442    1.0000 </r>
       <r>   -3.5483    1.0000 </r>
       <r>   -3.4512    1.0000 </r>
       <r>   -1.6503    1.0000 </r>
       <r>   -1.0371    1.0000 </r>
       <r>   -0.8237    1.0000 </r>
       <r>   -0.3773    1.0000 </r>
       <r>   -0.3745    1.0000 </r>
       <r>    0.1843    1.0000 </r>
       <r>    0.2916    1.0000 </r>
       <r>    0.6961    1.0000 </r>
       <r>    1.6724    0.9441 </r>
       <r>    1.7391    0.3835 </r>
       <r>    2.3137    0.0000 </r>
       <r>    5.5597    0.0000 </r>
       <r>    5.5863    0.0000 </r>
       <r>    5.7905    0.0000 </r>
       <r>    6.0662    0.0000 </r>
       <r>    7.2144    0.0000 </r>
       <r>    7.9344    0.0000 </r>
       <r>    8.0286    0.0000 </r>
       <r>    8.2439    0.0000 </r>
       <r>    8.7598    0.0000 </r>
       <r>    9.1395    0.0000 </r>
       <r>    9.1496    0.0000 </r>
       <r>   10.7178    0.0000 </r>
       <r>   11.3035    0.0000 </r>
       <r>   11.4728    0.0000 </r>
       <r>   11.6782    0.0000 </r>
       <r>   11.9676    0.0000 </r>
       <r>   12.0750    0.0000 </r>
       <r>   12.7767    0.0000 </r>
       <r>   12.7936    0.0000 </r>
       <r>   13.0280    0.0000 </r>
       <r>   13.1363    0.0000 </r>
       <r>   15.1967    0.0000 </r>
       <r>   15.4774    0.0000 </r>
       <r>   15.7118    0.0000 </r>
       <r>   15.7725    0.0000 </r>
       <r>   16.1350    0.0000 </r>
      </set>
      <set comment="kpoint 2">
       <r>  -12.4672    1.0000 </r>
       <r>  -11.9044    1.0000 </r>
       <r>   -8.5108    1.0000 </r>
       <r>   -8.3525    1.0000 </r>
       <r>   -5.9849    1.0000 </r>
       <r>   -5.9507    1.0000 </r>
       <r>   -4.4524    1.0000 </r>
       <r>   -4.4167    1.0000 </r>
       <r>   -3.8007    1.0000 </r>
       <r>   -2.8481    1.0000 </r>
       <r>   -2.3051    1.0000 </r>
       <r>   -2.2716    1.0000 </r>
       <r>   -1.5313    1.0000 </r>
       <r>   -1.3151    1.0000 </r>
       <r>   -0.3976    1.0000 </r>
       <r>   -0.3025    1.0000 </r>
       <r>    0.0605    1.0000 </r>
       <r>    0.0932    1.0000 </r>
       <r>    0.6108    1.0000 </r>
       <r>    1.3315    1.0000 </r>
       <r>    1.4064    1.0000 </r>
       <r>    1.6413    0.9932 </r>
       <r>    5.9337    0.0000 </r>
       <r>    6.0998    0.0000 </r>
       <r>    6.3567    0.0000 </r>
       <r>    6.8564    0.0000 </r>
       <r>    6.9243    0.0000 </r>
       <r>    7.3815    0.0000 </r>
       <r>    8.3643    0.0000 </r>
       <r>    8.6761    0.0000 </r>
       <r>    9.0155    0.0000 </r>
       <r>    9.4372    0.0000 </r>
       <r>   10.0398    0.0000 </r>
       <r>   10.0419    0.0000 </r>
       <r>   10.4207    0.0000 </r>
       <r>   11.1609    0.0000 </r>
       <r>   11.3812    0.0000 </r>
       <r>   11.9005    0.0000 </r>
       <r>   12.4132    0.0000 </r>
       <r>   12.5933    0.0000 </r>
       <r>   12.7739    0.0000 </r>
       <r>   13.4701    0.0000 </r>
       <r>   14.6318    0.0000 </r>
       <r>   14.7722    0.0000 </r>
       <r>   15.2660    0.0000 </r>
       <r>   15.3156    0.0000 </r>
       <r>   15.5527    0.0000 </r>
       <r>   16.3748    0.0000 </r>
      </set>
      <set comment="kpoint 3">
       <r>  -12.5090    1.0000 </r>
       <r>  -11.3788    1.0000 </r>
       <r>   -8.4854    1.0000 </r>
       <r>   -8.1944    1.0000 </r>
       <r>   -6.2638    1.0000 </r>
       <r>   -5.8157    1.0000 </r>
       <r>   -5.0749    1.0000 </r>
       <r>   -4.6884    1.0000 </r>
       <r>   -4.3928    1.0000 </r>
       <r>   -4.1356    1.0000 </r>
       <r>   -3.3248    1.0000 </r>
       <r>   -1.7104    1.0000 </r>
       <r>   -1.5548    1.0000 </r>
       <r>   -1.0029    1.0000 </r>
       <r>    0.2601    1.0000 </r>
       <r>    0.3378    1.0000 </r>
       <r>    0.3564    1.0000 </r>
       <r>    0.4393    1.0000 </r>
       <r>    0.7339    1.0000 </r>
       <r>    0.9483    1.0000 </r>
       <r>    1.8569    0.0001 </r>
       <r>    2.4290    0.0000 </r>
       <r>    4.4339    0.0000 </r>
       <r>    4.7123    0.0000 </r>
       <r>    6.5452    0.0000 </r>
       <r>    6.9554    0.0000 </r>
       <r>    7.2174    0.0000 </r>
       <r>    8.4388    0.0000 </r>
       <r>    8.6237    0.0000 </r>
       <r>    9.8733    0.0000 </r>
       <r>   10.0088    0.0000 </r>
       <r>   10.1407    0.0000 </r>
       <r>   10.6594    0.0000 </r>
       <r>   10.7778    0.0000 </r>
       <r>   11.1603    0.0000 </r>
       <r>   11.6011    0.0000 </r>
       <r>   12.1110    0.0000 </r>
       <r>   12.1973    0.0000 </r>
       <r>   12.5090    0.0000 </r>
       <r>   12.5747    0.0000 </r>
       <r>   12.9883    0.0000 </r>
       <r>   13.0389    0.0000 </r>
       <r>   13.3475    0.0000 </r>
       <r>   14.1556    0.0000 </r>
       <r>   15.0269    0.0000 </r>
       <r>   15.0558    0.0000 </r>
       <r>   15.6749    0.0000 </r>
       <r>   16.0282    0.0000 </r>
      </set>
      <set comment="kpoint 4">
       <r>  -12.2791    1.0000 </r>
       <r>  -11.7267    1.0000 </r>
       <r>   -8.3596    1.0000 </r>
       <r>   -8.1836    1.0000 </r>
       <r>   -6.0136    1.0000 </r>
       <r>   -5.7158    1.0000 </r>
       <r>   -5.6645    1.0000 </r>
       <r>   -5.4046    1.0000 </r>
       <r>   -4.3298    1.0000 </r>
       <r>   -2.6566    1.0000 </r>
       <r>   -2.1841    1.0000 </r>
       <r>   -2.0609    1.0000 </r>
       <r>   -1.5037    1.0000 </r>
       <r>   -1.4630    1.0000 </r>
       <r>   -0.2988    1.0000 </r>
       <r>   -0.1964    1.0000 </r>
       <r>   -0.0457    1.0000 </r>
       <r>    0.0576    1.0000 </r>
       <r>    0.6802    1.0000 </r>
       <r>    1.2992    1.0000 </r>
       <r>    1.7007    0.7850 </r>
       <r>    1.7249    0.5419 </r>
       <r>    5.3279    0.0000 </r>
       <r>    5.9988    0.0000 </r>
       <r>    6.5561    0.0000 </r>
       <r>    7.2146    0.0000 </r>
       <r>    7.3347    0.0000 </r>
       <r>    8.2537    0.0000 </r>
       <r>    9.1028    0.0000 </r>
       <r>    9.2059    0.0000 </r>
       <r>    9.4934    0.0000 </r>
       <r>   10.0067    0.0000 </r>
       <r>   10.4432    0.0000 </r>
       <r>   10.6899    0.0000 </r>
       <r>   11.5688    0.0000 </r>
       <r>   11.5835    0.0000 </r>
       <r>   12.0500    0.0000 </r>
       <r>   12.1967    0.0000 </r>
       <r>   12.3032    0.0000 </r>
       <r>   12.5901    0.0000 </r>
       <r>   12.7705    0.0000 </r>
       <r>   13.1894    0.0000 </r>
       <r>   13.7244    0.0000 </r>
       <r>   14.4302    0.0000 </r>
       <r>   14.4562    0.0000 </r>
       <r>   15.0065    0.0000 </r>
       <r>   15.0520    0.0000 </r>
       <r>   15.6559    0.0000 </r>
      </set>
      <set comment="kpoint 5">
       <r>  -12.6267    1.0000 </r>
       <r>  -11.6850    1.0000 </r>
       <r>   -8.5932    1.0000 </r>
       <r>   -8.1432    1.0000 </r>
       <r>   -6.7094    1.0000 </r>
       <r>   -5.6363    1.0000 </r>
       <r>   -4.5583    1.0000 </r>
       <r>   -3.7079    1.0000 </r>
       <r>   -3.7014    1.0000 </r>
       <r>   -3.3811    1.0000 </r>
       <r>   -2.6452    1.0000 </r>
       <r>   -1.6049    1.0000 </r>
       <r>   -1.3825    1.0000 </r>
       <r>   -1.2925    1.0000 </r>
       <r>   -1.1554    1.0000 </r>
       <r>   -0.4621    1.0000 </r>
       <r>   -0.1282    1.0000 </r>
       <r>    0.3238    1.0000 </r>
       <r>    0.3786    1.0000 </r>
       <r>    1.2249    1.0000 </r>
       <r>    1.3105    1.0000 </r>
       <r>    3.6318    0.0000 </r>
       <r>    5.2384    0.0000 </r>
       <r>    5.6396    0.0000 </r>
       <r>    5.7131    0.0000 </r>
       <r>    6.8279    0.0000 </r>
       <r>    7.6811    0.0000 </r>
       <r>    7.7033    0.0000 </r>
       <r>    8.1531    0.0000 </r>
       <r>    8.7951    0.0000 </r>
       <r>    9.0745    0.0000 </r>
       <r>    9.3321    0.0000 </r>
       <r>    9.6537    0.0000 </r>
       <r>   10.0442    0.0000 </r>
       <r>   10.5695    0.0000 </r>
       <r>   11.1662    0.0000 </r>
       <r>   11.2714    0.0000 </r>
       <r>   12.0389    0.0000 </r>
       <r>   12.2591    0.0000 </r>
       <r>   12.6697    0.0000 </r>
       <r>   13.2083    0.0000 </r>
       <r>   13.4448    0.0000 </r>
       <r>   14.1656    0.0000 </r>
       <r>   14.4419    0.0000 </r>
       <r>   14.5988    0.0000 </r>
       <r>   15.0815    0.0000 </r>
       <r>   15.6022    0.0000 </r>
       <r>   15.8183    0.0000 </r>
      </set>
      <set comment="kpoint 6">
       <r>  -12.4125    1.0000 </r>
       <r>  -11.9371    1.0000 </r>
       <r>   -8.7624    1.0000 </r>
       <r>   -8.4064    1.0000 </r>
       <r>   -5.9453    1.0000 </r>
       <r>   -5.0823    1.0000 </r>
       <r>   -4.6374    1.0000 </r>
       <r>   -4.3095    1.0000 </r>
       <r>   -3.8697    1.0000 </r>
       <r>   -3.1728    1.0000 </r>
       <r>   -2.6237    1.0000 </r>
       <r>   -1.7039    1.0000 </r>
       <r>   -1.4899    1.0000 </r>
       <r>   -1.2805    1.0000 </r>
       <r>   -0.7087    1.0000 </r>
       <r>   -0.5813    1.0000 </r>
       <r>   -0.4037    1.0000 </r>
       <r>   -0.0947    1.0000 </r>
       <r>    0.3560    1.0000 </r>
       <r>    1.5664    1.0000 </r>
       <r>    1.6282    0.9977 </r>
       <r>    2.0360    0.0000 </r>
       <r>    6.0074    0.0000 </r>
       <r>    6.4184    0.0000 </r>
       <r>    6.6197    0.0000 </r>
       <r>    6.7237    0.0000 </r>
       <r>    6.9292    0.0000 </r>
       <r>    7.4212    0.0000 </r>
       <r>    8.1188    0.0000 </r>
       <r>    8.3956    0.0000 </r>
       <r>    8.7283    0.0000 </r>
       <r>    9.2476    0.0000 </r>
       <r>   10.0372    0.0000 </r>
       <r>   10.3843    0.0000 </r>
       <r>   10.9321    0.0000 </r>
       <r>   11.0172    0.0000 </r>
       <r>   11.9412    0.0000 </r>
       <r>   12.4656    0.0000 </r>
       <r>   12.5092    0.0000 </r>
       <r>   13.0168    0.0000 </r>
       <r>   13.3149    0.0000 </r>
       <r>   13.7547    0.0000 </r>
       <r>   14.0708    0.0000 </r>
       <r>   14.4270    0.0000 </r>
       <r>   14.5091    0.0000 </r>
       <r>   15.0445    0.0000 </r>
       <r>   15.4376    0.0000 </r>
       <r>   15.9724    0.0000 </r>
      </set>
      <set comment="kpoint 7">
       <r>  -12.4391    1.0000 </r>
       <r>  -11.5034    1.0000 </r>
       <r>   -8.4532    1.0000 </r>
       <r>   -7.9770    1.0000 </r>
       <r>   -6.4863    1.0000 </r>
       <r>   -6.1157    1.0000 </r>
       <r>   -5.3417    1.0000 </r>
       <r>   -5.3216    1.0000 </r>
       <r>   -3.4797    1.0000 </r>
       <r>   -3.2333    1.0000 </r>
       <r>   -2.4133    1.0000 </r>
       <r>   -1.3750    1.0000 </r>
       <r>   -1.3498    1.0000 </r>
       <r>   -1.2586    1.0000 </r>
       <r>   -1.1699    1.0000 </r>
       <r>   -0.3990    1.0000 </r>
       <r>   -0.2414    1.0000 </r>
       <r>   -0.1286    1.0000 </r>
       <r>    0.4458    1.0000 </r>
       <r>    1.2599    1.0000 </r>
       <r>    1.7610    0.1798 </r>
       <r>    3.7365    0.0000 </r>
       <r>    4.6724    0.0000 </r>
       <r>    5.6937    0.0000 </r>
       <r>    5.9505    0.0000 </r>
       <r>    7.1100    0.0000 </r>
       <r>    7.6459    0.0000 </r>
       <r>    8.3025    0.0000 </r>
       <r>    9.3952    0.0000 </r>
       <r>    9.4891    0.0000 </r>
       <r>    9.6177    0.0000 </r>
       <r>    9.8806    0.0000 </r>
       <r>   10.4872    0.0000 </r>
       <r>   10.8206    0.0000 </r>
       <r>   11.0719    0.0000 </r>
       <r>   11.1372    0.0000 </r>
       <r>   11.7074    0.0000 </r>
       <r>   11.9433    0.0000 </r>
       <r>   12.2854    0.0000 </r>
       <r>   12.7646    0.0000 </r>
       <r>   12.9147    0.0000 </r>
       <r>   13.3274    0.0000 </r>
       <r>   13.4588    0.0000 </r>
       <r>   14.2319    0.0000 </r>
       <r>   14.4192    0.0000 </r>
       <r>   15.1497    0.0000 </r>
       <r>   15.3941    0.0000 </r>
       <r>   15.5464    0.0000 </r>
      </set>
      <set comment="kpoint 8">
       <r>  -12.2281    1.0000 </r>
       <r>  -11.7569    1.0000 </r>
       <r>   -8.5878    1.0000 </r>
       <r>   -8.2358    1.0000 </r>
       <r>   -5.9054    1.0000 </r>
       <r>   -5.7066    1.0000 </r>
       <r>   -5.4782    1.0000 </r>
       <r>   -4.8106    1.0000 </r>
       <r>   -4.4531    1.0000 </r>
       <r>   -3.0071    1.0000 </r>
       <r>   -2.4629    1.0000 </r>
       <r>   -1.9254    1.0000 </r>
       <r>   -1.6841    1.0000 </r>
       <r>   -1.4197    1.0000 </r>
       <r>   -0.5143    1.0000 </r>
       <r>   -0.4138    1.0000 </r>
       <r>    0.0521    1.0000 </r>
       <r>    0.4918    1.0000 </r>
       <r>    0.6186    1.0000 </r>
       <r>    1.1843    1.0000 </r>
       <r>    1.5854    1.0000 </r>
       <r>    1.7623    0.1704 </r>
       <r>    5.5422    0.0000 </r>
       <r>    5.9781    0.0000 </r>
       <r>    6.8896    0.0000 </r>
       <r>    7.1568    0.0000 </r>
       <r>    8.0003    0.0000 </r>
       <r>    8.2467    0.0000 </r>
       <r>    8.5908    0.0000 </r>
       <r>    9.0291    0.0000 </r>
       <r>    9.4310    0.0000 </r>
       <r>    9.8832    0.0000 </r>
       <r>   10.3184    0.0000 </r>
       <r>   10.8344    0.0000 </r>
       <r>   11.2908    0.0000 </r>
       <r>   11.7683    0.0000 </r>
       <r>   11.8922    0.0000 </r>
       <r>   12.0137    0.0000 </r>
       <r>   12.3613    0.0000 </r>
       <r>   12.8735    0.0000 </r>
       <r>   13.0251    0.0000 </r>
       <r>   13.3560    0.0000 </r>
       <r>   13.8433    0.0000 </r>
       <r>   14.3328    0.0000 </r>
       <r>   14.7618    0.0000 </r>
       <r>   14.8946    0.0000 </r>
       <r>   15.2618    0.0000 </r>
       <r>   15.4588    0.0000 </r>
      </set>
     </set>
    </set>
   </array>
  </eigenvalues>
  <separator name="orbital magnetization" >
   <v name="MAGDIPOLOUT">      0.00000000      0.00000000      0.00000000</v>
  </separator>
  <dos>
   <i name="efermi">      1.72861480 </i>
   <total>
    <array>
     <dimension dim="1">gridpoints</dimension>
     <dimension dim="2">spin</dimension>
     <field>energy</field>
     <field>total</field>
     <field>integrated</field>
     <set>
      <set comment="spin 1">
       <r>   -14.1554     0.0000     0.0000 </r>
       <r>   -14.0487     0.0000     0.0000 </r>
       <r>   -13.9421     0.0000     0.0000 </r>
       <r>   -13.8355     0.0000     0.0000 </r>
       <r>   -13.7289     0.0000     0.0000 </r>
       <r>   -13.6223     0.0000     0.0000 </r>
       <r>   -13.5157     0.0000     0.0000 </r>
       <r>   -13.4091     0.0000     0.0000 </r>
       <r>   -13.3025     0.0000     0.0000 </r>
       <r>   -13.1958     0.0000     0.0000 </r>
       <r>   -13.0892     0.0000     0.0000 </r>
       <r>   -12.9826     0.0000     0.0000 </r>
       <r>   -12.8760     0.0000     0.0000 </r>
       <r>   -12.7694     0.0287     0.0031 </r>
       <r>   -12.6628     1.1917     0.1301 </r>
       <r>   -12.5562     1.9663     0.3398 </r>
       <r>   -12.4496     3.7889     0.7437 </r>
       <r>   -12.3429     5.4972     1.3298 </r>
       <r>   -12.2363     3.5840     1.7119 </r>
       <r>   -12.1297     2.6913     1.9988 </r>
       <r>   -12.0231     0.0432     2.0034 </r>
       <r>   -11.9165     3.7312     2.4012 </r>
       <r>   -11.8099     2.7812     2.6977 </r>
       <r>   -11.7033     5.7952     3.3156 </r>
       <r>   -11.5966     2.3455     3.5656 </r>
       <r>   -11.4900     2.2508     3.8056 </r>
       <r>   -11.3834     1.2472     3.9386 </r>
       <r>   -11.2768     0.5742     3.9998 </r>
       <r>   -11.1702     0.0020     4.0000 </r>
       <r>   -11.0636     0.0000     4.0000 </r>
       <r>   -10.9570     0.0000     4.0000 </r>
       <r>   -10.8504     0.0000     4.0000 </r>
       <r>   -10.7437     0.0000     4.0000 </r>
       <r>   -10.6371     0.0000     4.0000 </r>
       <r>   -10.5305     0.0000     4.0000 </r>
       <r>   -10.4239     0.0000     4.0000 </r>
       <r>   -10.3173     0.0000     4.0000 </r>
       <r>   -10.2107     0.0000     4.0000 </r>
       <r>   -10.1041     0.0000     4.0000 </r>
       <r>    -9.9974     0.0000     4.0000 </r>
       <r>    -9.8908     0.0000     4.0000 </r>
       <r>    -9.7842     0.0000     4.0000 </r>
       <r>    -9.6776     0.0000     4.0000 </r>
       <r>    -9.5710     0.0000     4.0000 </r>
       <r>    -9.4644     0.0000     4.0000 </r>
       <r>    -9.3578     0.0000     4.0000 </r>
       <r>    -9.2512     0.0000     4.0000 </r>
       <r>    -9.1445     0.0000     4.0000 </r>
       <r>    -9.0379     0.0000     4.0000 </r>
       <r>    -8.9313     0.0000     4.0000 </r>
       <r>    -8.8247     0.1626     4.0173 </r>
       <r>    -8.7181     3.5763     4.3986 </r>
       <r>    -8.6115     2.8569     4.7032 </r>
       <r>    -8.5049     6.4619     5.3921 </r>
       <r>    -8.3983     6.7541     6.1122 </r>
       <r>    -8.2916     6.3312     6.7872 </r>
       <r>    -8.1850     5.6515     7.3897 </r>
       <r>    -8.0784     3.5709     7.7704 </r>
       <r>    -7.9718     1.2334     7.9019 </r>
       <r>    -7.8652     0.9183     7.9998 </r>
       <r>    -7.7586     0.0016     8.0000 </r>
       <r>    -7.6520     0.0000     8.0000 </r>
       <r>    -7.5453     0.0000     8.0000 </r>
       <r>    -7.4387     0.0000     8.0000 </r>
       <r>    -7.3321     0.0000     8.0000 </r>
       <r>    -7.2255     0.0000     8.0000 </r>
       <r>    -7.1189     0.0000     8.0000 </r>
       <r>    -7.0123     0.0000     8.0000 </r>
       <r>    -6.9057     0.0000     8.0000 </r>
       <r>    -6.7991     0.0117     8.0012 </r>
       <r>    -6.6924     1.4146     8.1521 </r>
       <r>    -6.5858     0.6627     8.2227 </r>
       <r>    -6.4792     1.2031     8.3510 </r>
       <r>    -6.3726     0.8764     8.4444 </r>
       <r>    -6.2660     0.4959     8.4973 </r>
       <r>    -6.1594     0.7707     8.5794 </r>
       <r>    -6.0528     2.4056     8.8359 </r>
       <r>    -5.9461     8.0255     9.6915 </r>
       <r>    -5.8395     7.1861    10.4577 </r>
       <r>    -5.7329     2.5757    10.7323 </r>
       <r>    -5.6263     7.6022    11.5428 </r>
       <r>    -5.5197     1.6647    11.7202 </r>
       <r>    -5.4131     4.4294    12.1925 </r>
       <r>    -5.3065     4.4553    12.6675 </r>
       <r>    -5.1999     1.0360    12.7779 </r>
       <r>    -5.0932     1.8966    12.9801 </r>
       <r>    -4.9866     4.0238    13.4091 </r>
       <r>    -4.8800     0.4343    13.4554 </r>
       <r>    -4.7734     3.5900    13.8382 </r>
       <r>    -4.6668     3.1122    14.1700 </r>
       <r>    -4.5602     5.4213    14.7479 </r>
       <r>    -4.4536     4.7532    15.2547 </r>
       <r>    -4.3470     7.0478    16.0061 </r>
       <r>    -4.2403     5.6047    16.6036 </r>
       <r>    -4.1337     1.1332    16.7244 </r>
       <r>    -4.0271     0.4993    16.7777 </r>
       <r>    -3.9205     0.3168    16.8114 </r>
       <r>    -3.8139     4.3590    17.2762 </r>
       <r>    -3.7073     3.5316    17.6527 </r>
       <r>    -3.6007     2.2816    17.8959 </r>
       <r>    -3.4940     1.7447    18.0819 </r>
       <r>    -3.3874     3.2444    18.4278 </r>
       <r>    -3.2808     2.3154    18.6747 </r>
       <r>    -3.1742     3.9277    19.0934 </r>
       <r>    -3.0676     2.4254    19.3520 </r>
       <r>    -2.9610     3.5942    19.7352 </r>
       <r>    -2.8544     1.2945    19.8732 </r>
       <r>    -2.7478     1.1998    20.0011 </r>
       <r>    -2.6411     3.8200    20.4084 </r>
       <r>    -2.5345     4.5699    20.8956 </r>
       <r>    -2.4279     4.1402    21.3370 </r>
       <r>    -2.3213     2.8800    21.6440 </r>
       <r>    -2.2147     3.6191    22.0299 </r>
       <r>    -2.1081     1.9612    22.2390 </r>
       <r>    -2.0015     1.8963    22.4411 </r>
       <r>    -1.8948     3.3918    22.8027 </r>
       <r>    -1.7882     0.8646    22.8949 </r>
       <r>    -1.6816     6.2628    23.5626 </r>
       <r>    -1.5750     6.3522    24.2398 </r>
       <r>    -1.4684     8.9588    25.1950 </r>
       <r>    -1.3618    10.2032    26.2828 </r>
       <r>    -1.2552    10.6461    27.4178 </r>
       <r>    -1.1486     5.0501    27.9562 </r>
       <r>    -1.0419     2.0564    28.1754 </r>
       <r>    -0.9353     1.4508    28.3301 </r>
       <r>    -0.8287     0.4937    28.3827 </r>
       <r>    -0.7221     2.0446    28.6007 </r>
       <r>    -0.6155     3.3881    28.9619 </r>
       <r>    -0.5089     5.9547    29.5968 </r>
       <r>    -0.4023    10.8364    30.7521 </r>
       <r>    -0.2957     9.9527    31.8132 </r>
       <r>    -0.1890     5.0986    32.3567 </r>
       <r>    -0.0824     7.5495    33.1616 </r>
       <r>     0.0242     5.2686    33.7233 </r>
       <r>     0.1308     8.4734    34.6267 </r>
       <r>     0.2374     1.7039    34.8084 </r>
       <r>     0.3440     6.0641    35.4549 </r>
       <r>     0.4506     8.4080    36.3513 </r>
       <r>     0.5573     5.2149    36.9073 </r>
       <r>     0.6639     6.4073    37.5904 </r>
       <r>     0.7705     3.6555    37.9801 </r>
       <r>     0.8771     0.2096    38.0024 </r>
       <r>     0.9837     0.8542    38.0935 </r>
       <r>     1.0903     0.1816    38.1129 </r>
       <r>     1.1969     3.1805    38.4520 </r>
       <r>     1.3035     7.3612    39.2368 </r>
       <r>     1.4102     5.1290    39.7836 </r>
       <r>     1.5168     1.4331    39.9364 </r>
       <r>     1.6234     9.6969    40.9702 </r>
       <r>     1.7300     9.8017    42.0152 </r>
       <r>     1.8366     7.3353    42.7972 </r>
       <r>     1.9432     0.8705    42.8900 </r>
       <r>     2.0498     2.7096    43.1789 </r>
       <r>     2.1565     1.4473    43.3332 </r>
       <r>     2.2631     0.0804    43.3418 </r>
       <r>     2.3697     0.9526    43.4433 </r>
       <r>     2.4763     0.9584    43.5455 </r>
       <r>     2.5829     0.0942    43.5556 </r>
       <r>     2.6895     0.0000    43.5556 </r>
       <r>     2.7961     0.0000    43.5556 </r>
       <r>     2.9027     0.0000    43.5556 </r>
       <r>     3.0094     0.0000    43.5556 </r>
       <r>     3.1160     0.0000    43.5556 </r>
       <r>     3.2226     0.0000    43.5556 </r>
       <r>     3.3292     0.0000    43.5556 </r>
       <r>     3.4358     0.0000    43.5556 </r>
       <r>     3.5424     0.0119    43.5568 </r>
       <r>     3.6490     1.4332    43.7096 </r>
       <r>     3.7556     2.1096    43.9345 </r>
       <r>     3.8623     0.6137    44.0000 </r>
       <r>     3.9689     0.0004    44.0000 </r>
       <r>     4.0755     0.0000    44.0000 </r>
       <r>     4.1821     0.0000    44.0000 </r>
       <r>     4.2887     0.0000    44.0000 </r>
       <r>     4.3953     0.1437    44.0153 </r>
       <r>     4.5019     0.8703    44.1081 </r>
       <r>     4.6086     0.1037    44.1192 </r>
       <r>     4.7152     2.3269    44.3672 </r>
       <r>     4.8218     0.7231    44.4443 </r>
       <r>     4.9284     0.0010    44.4444 </r>
       <r>     5.0350     0.0000    44.4444 </r>
       <r>     5.1416     0.0064    44.4451 </r>
       <r>     5.2482     1.2883    44.5825 </r>
       <r>     5.3548     2.4082    44.8392 </r>
       <r>     5.4615     0.5153    44.8942 </r>
       <r>     5.5681     4.1305    45.3345 </r>
       <r>     5.6747     4.7199    45.8377 </r>
       <r>     5.7813     3.9511    46.2590 </r>
       <r>     5.8879     1.0034    46.3659 </r>
       <r>     5.9945     8.8400    47.3084 </r>
       <r>     6.1011     7.3700    48.0941 </r>
       <r>     6.2078     1.1989    48.2220 </r>
       <r>     6.3144     0.2504    48.2487 </r>
       <r>     6.4210     3.9702    48.6719 </r>
       <r>     6.5276     2.8108    48.9716 </r>
       <r>     6.6342     5.0889    49.5142 </r>
       <r>     6.7408     4.3043    49.9731 </r>
       <r>     6.8474     4.1667    50.4173 </r>
       <r>     6.9540    10.6517    51.5529 </r>
       <r>     7.0607     2.2904    51.7971 </r>
       <r>     7.1673     4.7288    52.3012 </r>
       <r>     7.2739     5.3987    52.8768 </r>
       <r>     7.3805     3.5317    53.2533 </r>
       <r>     7.4871     4.7861    53.7636 </r>
       <r>     7.5937     0.2951    53.7951 </r>
       <r>     7.7003     4.2384    54.2469 </r>
       <r>     7.8069     1.8489    54.4440 </r>
       <r>     7.9136     0.3236    54.4785 </r>
       <r>     8.0202     4.1224    54.9180 </r>
       <r>     8.1268     4.7419    55.4236 </r>
       <r>     8.2334     5.8107    56.0431 </r>
       <r>     8.3400     7.3119    56.8226 </r>
       <r>     8.4466     6.1132    57.4744 </r>
       <r>     8.5532     1.3856    57.6221 </r>
       <r>     8.6599     5.1065    58.1665 </r>
       <r>     8.7665     6.1720    58.8245 </r>
       <r>     8.8731     2.6586    59.1080 </r>
       <r>     8.9797     0.7012    59.1827 </r>
       <r>     9.0863     7.4048    59.9722 </r>
       <r>     9.1929     5.2314    60.5299 </r>
       <r>     9.2995     5.5271    61.1192 </r>
       <r>     9.4061     4.7019    61.6205 </r>
       <r>     9.5128     8.6038    62.5377 </r>
       <r>     9.6194     2.6351    62.8187 </r>
       <r>     9.7260     2.6981    63.1063 </r>
       <r>     9.8326     0.6734    63.1781 </r>
       <r>     9.9392     6.4033    63.8608 </r>
       <r>    10.0458     8.8425    64.8035 </r>
       <r>    10.1524     5.6185    65.4025 </r>
       <r>    10.2591     0.5881    65.4652 </r>
       <r>    10.3657     4.9965    65.9979 </r>
       <r>    10.4723     7.4180    66.7888 </r>
       <r>    10.5789     3.2443    67.1347 </r>
       <r>    10.6855     2.7529    67.4282 </r>
       <r>    10.7921     3.8211    67.8356 </r>
       <r>    10.8987     6.2607    68.5030 </r>
       <r>    11.0053     5.1406    69.0511 </r>
       <r>    11.1120     5.3378    69.6202 </r>
       <r>    11.2186     6.5993    70.3237 </r>
       <r>    11.3252     6.3990    71.0059 </r>
       <r>    11.4318     3.0402    71.3301 </r>
       <r>    11.5384     1.6966    71.5109 </r>
       <r>    11.6450     4.6214    72.0037 </r>
       <r>    11.7516     4.1800    72.4493 </r>
       <r>    11.8582     4.0607    72.8822 </r>
       <r>    11.9649    10.6507    74.0177 </r>
       <r>    12.0715     9.7188    75.0539 </r>
       <r>    12.1781     3.5441    75.4317 </r>
       <r>    12.2847     5.4959    76.0177 </r>
       <r>    12.3913     6.9242    76.7559 </r>
       <r>    12.4979     7.6783    77.5745 </r>
       <r>    12.6045     7.5507    78.3795 </r>
       <r>    12.7112     3.8395    78.7888 </r>
       <r>    12.8178     7.5448    79.5932 </r>
       <r>    12.9244     5.8784    80.2199 </r>
       <r>    13.0310     8.0693    81.0802 </r>
       <r>    13.1376     5.1829    81.6328 </r>
       <r>    13.2442     4.1558    82.0758 </r>
       <r>    13.3508     7.8242    82.9100 </r>
       <r>    13.4574     7.0557    83.6622 </r>
       <r>    13.5641     3.1563    83.9987 </r>
       <r>    13.6707     0.1822    84.0181 </r>
       <r>    13.7773     4.9792    84.5490 </r>
       <r>    13.8839     4.7481    85.0552 </r>
       <r>    13.9905     0.5729    85.1163 </r>
       <r>    14.0971     3.2770    85.4656 </r>
       <r>    14.2037     4.0312    85.8954 </r>
       <r>    14.3103     3.0975    86.2257 </r>
       <r>    14.4170     7.2066    86.9940 </r>
       <r>    14.5236    11.0734    88.1745 </r>
       <r>    14.6302     4.1870    88.6209 </r>
       <r>    14.7368     2.7995    88.9194 </r>
       <r>    14.8434     5.1429    89.4677 </r>
       <r>    14.9500     3.8588    89.8791 </r>
       <r>    15.0566     7.6882    90.6988 </r>
       <r>    15.1633     6.4323    91.3845 </r>
       <r>    15.2699     5.3799    91.9581 </r>
       <r>    15.3765     5.3311    92.5265 </r>
       <r>    15.4831     8.9159    93.4770 </r>
       <r>    15.5897     6.2348    94.1417 </r>
       <r>    15.6963     4.7292    94.6459 </r>
       <r>    15.8029     2.7621    94.9404 </r>
       <r>    15.9095     1.7485    95.1268 </r>
       <r>    16.0162     3.9535    95.5483 </r>
       <r>    16.1228     1.4863    95.7067 </r>
       <r>    16.2294     0.6624    95.7774 </r>
       <r>    16.3360     0.2883    95.8081 </r>
       <r>    16.4426     1.7427    95.9939 </r>
       <r>    16.5492     0.0573    96.0000 </r>
       <r>    16.6558     0.0000    96.0000 </r>
       <r>    16.7625     0.0000    96.0000 </r>
       <r>    16.8691     0.0000    96.0000 </r>
       <r>    16.9757     0.0000    96.0000 </r>
       <r>    17.0823     0.0000    96.0000 </r>
       <r>    17.1889     0.0000    96.0000 </r>
       <r>    17.2955     0.0000    96.0000 </r>
       <r>    17.4021     0.0000    96.0000 </r>
       <r>    17.5087     0.0000    96.0000 </r>
       <r>    17.6154     0.0000    96.0000 </r>
       <r>    17.7220     0.0000    96.0000 </r>
       <r>    17.8286     0.0000    96.0000 </r>
      </set>
     </set>
    </array>
   </total>
  </dos>
 </calculation>
 <structure name="finalpos" >
  <crystal>
   <varray name="basis" >
    <v>       5.69700000       0.00000000       0.00000000 </v>
    <v>       0.00000000       4.04790000       0.00000000 </v>
    <v>       0.00000000       0.00000000       6.20420000 </v>
   </varray>
   <i name="volume">    143.07435078 </i>
   <varray name="rec_basis" >
    <v>       0.17553098       0.00000000       0.00000000 </v>
    <v>       0.00000000       0.24704168       0.00000000 </v>
    <v>       0.00000000       0.00000000       0.16118114 </v>
   </varray>
  </crystal>
  <varray name="positions" >
   <v>       0.52123000       0.50000000       0.63796000 </v>
   <v>       0.47877000       0.50000000       0.36204000 </v>
   <v>       0.97877000       0.50000000       0.63796000 </v>
   <v>       0.02123000       0.50000000       0.36204000 </v>
   <v>       0.60090000       0.50000000       0.89991000 </v>
   <v>       0.39910000       0.50000000       0.10009000 </v>
   <v>       0.89910000       0.50000000       0.89991000 </v>
   <v>       0.10090000       0.50000000       0.10009000 </v>
   <v>       0.75000000       0.79171000       0.72973000 </v>
   <v>       0.25000000       0.20829000       0.27027000 </v>
   <v>       0.75000000       0.20829000       0.72973000 </v>
   <v>       0.25000000       0.79171000       0.27027000 </v>
   <v>       0.25000000       0.50000000       0.52367000 </v>
   <v>       0.75000000       0.50000000       0.47633000 </v>
  </varray>
 </structure>
</modeling>
