    1    1    1    1
  0.3375000E+04  0.1500000E-08  0.1250000E-08  0.1800000E-08  0.5000000E-15
  1.000000000000000E-004
  CAR 
 Convergence                             
      3    175      8
 
  0.5000000E-01  0.3571429E-01  0.0000000E+00  0.3174603E-02
      1         -9.409830   1.000000
      2         -3.572589   0.166734
      3         -3.572579   0.166665
      4         -3.572468   0.165878
      5         -0.261722   0.000000
      6          0.296905   0.000000
      7          0.310044   0.000000
      8          0.439976   0.000000
 
  0.1500000E+00  0.3571429E-01  0.0000000E+00  0.3174603E-02
      1         -9.409830   1.000000
      2         -3.572589   0.166733
      3         -3.572584   0.166695
      4         -3.572467   0.165875
      5         -0.251879   0.000000
      6          0.270338   0.000000
      7          0.321262   0.000000
      8          0.376016   0.000000
 
  0.2500000E+00  0.3571429E-01  0.0000000E+00  0.3174603E-02
      1         -9.409830   1.000000
      2         -3.572589   0.166732
      3         -3.572588   0.166728
      4         -3.572467   0.165873
      5         -0.233750   0.000000
      6          0.199900   0.000000
      7          0.342848   0.000000
      8          0.378849   0.000000
 
  0.3500000E+00  0.3571429E-01  0.0000000E+00  0.3174603E-02
      1         -9.409830   1.000000
      2         -3.572593   0.166760
      3         -3.572588   0.166724
      4         -3.572467   0.165869
      5         -0.211592   0.000000
      6          0.132055   0.000000
      7          0.371892   0.000000
      8          0.410433   0.000000
 
  0.4500000E+00  0.3571429E-01  0.0000000E+00  0.3174603E-02
      1         -9.409830   1.000000
      2         -3.572596   0.166784
      3         -3.572587   0.166717
      4         -3.572467   0.165873
      5         -0.194596   0.000000
      6          0.090940   0.000000
      7          0.398265   0.000000
      8          0.449329   0.000000
 
  0.5000000E-01  0.1071429E+00  0.0000000E+00  0.3174603E-02
      1         -9.409830   1.000000
      2         -3.572587   0.166720
      3         -3.572578   0.166656
      4         -3.572490   0.166035
      5         -0.252596   0.000000
      6          0.305005   0.000000
      7          0.319013   0.000000
      8          0.448841   0.000000
 
  0.1500000E+00  0.1071429E+00  0.0000000E+00  0.3174603E-02
      1         -9.409830   1.000000
      2         -3.572587   0.166718
      3         -3.572582   0.166681
      4         -3.572490   0.166032
      5         -0.242767   0.000000
      6          0.278827   0.000000
      7          0.330208   0.000000
      8          0.384961   0.000000
 
  0.2500000E+00  0.1071429E+00  0.0000000E+00  0.3174603E-02
      1         -9.409830   1.000000
      2         -3.572587   0.166718
      3         -3.572587   0.166716
      4         -3.572489   0.166029
      5         -0.224670   0.000000
      6          0.208948   0.000000
      7          0.351740   0.000000
      8          0.387435   0.000000
 
  0.3500000E+00  0.1071429E+00  0.0000000E+00  0.3174603E-02
      1         -9.409830   1.000000
      2         -3.572592   0.166752
      3         -3.572586   0.166713
      4         -3.572489   0.166025
      5         -0.202560   0.000000
      6          0.141339   0.000000
      7          0.380678   0.000000
      8          0.418888   0.000000
 
  0.4500000E+00  0.1071429E+00  0.0000000E+00  0.3174603E-02
      1         -9.409830   1.000000
      2         -3.572594   0.166769
      3         -3.572585   0.166704
      4         -3.572488   0.166021
      5         -0.185614   0.000000
      6          0.100338   0.000000
      7          0.406891   0.000000
      8          0.457669   0.000000
 
  0.5000000E-01  0.1785714E+00  0.0000000E+00  0.3174603E-02
      1         -9.409830   1.000000
      2         -3.572584   0.166695
      3         -3.572575   0.166632
      4         -3.572529   0.166309
      5         -0.234659   0.000000
      6          0.317765   0.000000
      7          0.336840   0.000000
      8          0.462531   0.000000
 
  0.1500000E+00  0.1785714E+00  0.0000000E+00  0.3174603E-02
      1         -9.409830   1.000000
      2         -3.572584   0.166697
      3         -3.572578   0.166659
      4         -3.572530   0.166315
      5         -0.224864   0.000000
      6          0.293970   0.000000
      7          0.347985   0.000000
      8          0.401241   0.000000
 
  0.2500000E+00  0.1785714E+00  0.0000000E+00  0.3174603E-02
      1         -9.409830   1.000000
      2         -3.572584   0.166696
      3         -3.572583   0.166694
      4         -3.572529   0.166310
      5         -0.206844   0.000000
      6          0.226590   0.000000
      7          0.369400   0.000000
      8          0.401248   0.000000
 
  0.3500000E+00  0.1785714E+00  0.0000000E+00  0.3174603E-02
      1         -9.409830   1.000000
      2         -3.572589   0.166730
      3         -3.572583   0.166692
      4         -3.572529   0.166306
      5         -0.184856   0.000000
      6          0.159759   0.000000
      7          0.398111   0.000000
      8          0.431510   0.000000
 
  0.4500000E+00  0.1785714E+00  0.0000000E+00  0.3174603E-02
      1         -9.409830   1.000000
      2         -3.572592   0.166752
      3         -3.572582   0.166686
      4         -3.572529   0.166307
      5         -0.168034   0.000000
      6          0.119073   0.000000
      7          0.423986   0.000000
      8          0.468362   0.000000
 
  0.5000000E-01  0.2500000E+00  0.0000000E+00  0.3174603E-02
      1         -9.409830   1.000000
      2         -3.572581   0.166677
      3         -3.572580   0.166667
      4         -3.572571   0.166607
      5         -0.208709   0.000000
      6          0.308700   0.000000
      7          0.363219   0.000000
      8          0.401156   0.000000
 
  0.1500000E+00  0.2500000E+00  0.0000000E+00  0.3174603E-02
      1         -9.409830   1.000000
      2         -3.572581   0.166676
      3         -3.572579   0.166665
      4         -3.572574   0.166630
      5         -0.198984   0.000000
      6          0.301704   0.000000
      7          0.374277   0.000000
      8          0.384706   0.000000
 
  0.2500000E+00  0.2500000E+00  0.0000000E+00  0.3174603E-02
      1         -9.409830   1.000000
      2         -3.572580   0.166668
      3         -3.572580   0.166666
      4         -3.572578   0.166657
      5         -0.181118   0.000000
      6          0.250645   0.000000
      7          0.375066   0.000000
      8          0.395490   0.000000
 
  0.3500000E+00  0.2500000E+00  0.0000000E+00  0.3174603E-02
      1         -9.409830   1.000000
      2         -3.572584   0.166700
      3         -3.572579   0.166661
      4         -3.572578   0.166657
      5         -0.159379   0.000000
      6          0.186829   0.000000
      7          0.397692   0.000000
      8          0.423814   0.000000
 
  0.4500000E+00  0.2500000E+00  0.0000000E+00  0.3174603E-02
      1         -9.409830   1.000000
      2         -3.572588   0.166726
      3         -3.572579   0.166662
      4         -3.572578   0.166656
      5         -0.142811   0.000000
      6          0.146975   0.000000
      7          0.422245   0.000000
      8          0.449121   0.000000
 
  0.5000000E-01  0.3214286E+00  0.0000000E+00  0.3174603E-02
      1         -9.409830   1.000000
      2         -3.572631   0.167029
      3         -3.572577   0.166651
      4         -3.572567   0.166576
      5         -0.176557   0.000000
      6          0.243650   0.000000
      7          0.397358   0.000000
      8          0.416190   0.000000
 
  0.1500000E+00  0.3214286E+00  0.0000000E+00  0.3174603E-02
      1         -9.409830   1.000000
      2         -3.572630   0.167020
      3         -3.572577   0.166649
      4         -3.572570   0.166599
      5         -0.166964   0.000000
      6          0.252513   0.000000
      7          0.385154   0.000000
      8          0.408270   0.000000
 
  0.2500000E+00  0.3214286E+00  0.0000000E+00  0.3174603E-02
      1         -9.409830   1.000000
      2         -3.572630   0.167022
      3         -3.572576   0.166644
      4         -3.572576   0.166643
      5         -0.149390   0.000000
      6          0.259119   0.000000
      7          0.321729   0.000000
      8          0.429143   0.000000
 
  0.3500000E+00  0.3214286E+00  0.0000000E+00  0.3174603E-02
      1         -9.409830   1.000000
      2         -3.572629   0.167017
      3         -3.572580   0.166673
      4         -3.572575   0.166634
      5         -0.128123   0.000000
      6          0.220438   0.000000
      7          0.319670   0.000000
      8          0.456827   0.000000
 
  0.4500000E+00  0.3214286E+00  0.0000000E+00  0.3174603E-02
      1         -9.409830   1.000000
      2         -3.572630   0.167020
      3         -3.572584   0.166697
      4         -3.572574   0.166630
      5         -0.112040   0.000000
      6          0.183568   0.000000
      7          0.340654   0.000000
      8          0.481221   0.000000
 
  0.5000000E-01  0.3928571E+00  0.0000000E+00  0.3174603E-02
      1         -9.409830   1.000000
      2         -3.572670   0.167310
      3         -3.572574   0.166630
      4         -3.572564   0.166557
      5         -0.142571   0.000000
      6          0.176491   0.000000
      7          0.436819   0.000000
      8          0.458719   0.000000
 
  0.1500000E+00  0.3928571E+00  0.0000000E+00  0.3174603E-02
      1         -9.409830   1.000000
      2         -3.572671   0.167311
      3         -3.572574   0.166628
      4         -3.572567   0.166581
      5         -0.133204   0.000000
      6          0.187535   0.000000
      7          0.422759   0.000000
      8          0.447467   0.000000
 
  0.2500000E+00  0.3928571E+00  0.0000000E+00  0.3174603E-02
      1         -9.409830   1.000000
      2         -3.572670   0.167307
      3         -3.572573   0.166622
      4         -3.572573   0.166618
      5         -0.116131   0.000000
      6          0.208321   0.000000
      7          0.345177   0.000000
      8          0.467738   0.000000
 
  0.3500000E+00  0.3928571E+00  0.0000000E+00  0.3174603E-02
      1         -9.409830   1.000000
      2         -3.572670   0.167303
      3         -3.572577   0.166650
      4         -3.572572   0.166612
      5         -0.095673   0.000000
      6          0.232447   0.000000
      7          0.281774   0.000000
      8          0.497719   0.000000
 
  0.4500000E+00  0.3928571E+00  0.0000000E+00  0.3174603E-02
      1         -9.409830   1.000000
      2         -3.572669   0.167301
      3         -3.572581   0.166674
      4         -3.572573   0.166618
      5         -0.080411   0.000000
      6          0.226810   0.000000
      7          0.273398   0.000000
      8          0.448105   0.000000
 
  0.5000000E-01  0.4642857E+00  0.0000000E+00  0.3174603E-02
      1         -9.409830   1.000000
      2         -3.572693   0.167472
      3         -3.572572   0.166616
      4         -3.572563   0.166546
      5         -0.117378   0.000000
      6          0.133643   0.000000
      7          0.471745   0.000000
      8          0.507020   0.000000
 
  0.1500000E+00  0.4642857E+00  0.0000000E+00  0.3174603E-02
      1         -9.409830   1.000000
      2         -3.572693   0.167467
      3         -3.572572   0.166613
      4         -3.572565   0.166566
      5         -0.108280   0.000000
      6          0.145317   0.000000
      7          0.462714   0.000000
      8          0.481952   0.000000
 
  0.2500000E+00  0.4642857E+00  0.0000000E+00  0.3174603E-02
      1         -9.409830   1.000000
      2         -3.572692   0.167465
      3         -3.572572   0.166613
      4         -3.572572   0.166611
      5         -0.091802   0.000000
      6          0.167966   0.000000
      7          0.382042   0.000000
      8          0.503338   0.000000
 
  0.3500000E+00  0.4642857E+00  0.0000000E+00  0.3174603E-02
      1         -9.409830   1.000000
      2         -3.572693   0.167467
      3         -3.572576   0.166644
      4         -3.572571   0.166607
      5         -0.072286   0.000000
      6          0.199147   0.000000
      7          0.314085   0.000000
      8          0.439113   0.000000
 
  0.4500000E+00  0.4642857E+00  0.0000000E+00  0.3174603E-02
      1         -9.409830   1.000000
      2         -3.572692   0.167463
      3         -3.572579   0.166664
      4         -3.572572   0.166611
      5         -0.057948   0.000000
      6          0.229574   0.000000
      7          0.273702   0.000000
      8          0.385881   0.000000
 
  0.5000000E-01  0.3571429E-01  0.1111111E+00  0.6349206E-02
      1         -9.409830   1.000000
      2         -3.572589   0.166734
      3         -3.572579   0.166665
      4         -3.572467   0.165875
      5         -0.258706   0.000000
      6          0.219219   0.000000
      7          0.388869   0.000000
      8          0.453362   0.000000
 
  0.1500000E+00  0.3571429E-01  0.1111111E+00  0.6349206E-02
      1         -9.409830   1.000000
      2         -3.572589   0.166736
      3         -3.572583   0.166694
      4         -3.572468   0.165877
      5         -0.248911   0.000000
      6          0.224487   0.000000
      7          0.319536   0.000000
      8          0.440151   0.000000
 
  0.2500000E+00  0.3571429E-01  0.1111111E+00  0.6349206E-02
      1         -9.409830   1.000000
      2         -3.572589   0.166733
      3         -3.572588   0.166726
      4         -3.572467   0.165873
      5         -0.230891   0.000000
      6          0.197977   0.000000
      7          0.280096   0.000000
      8          0.460063   0.000000
 
  0.3500000E+00  0.3571429E-01  0.1111111E+00  0.6349206E-02
      1         -9.409830   1.000000
      2         -3.572592   0.166758
      3         -3.572588   0.166724
      4         -3.572467   0.165870
      5         -0.208910   0.000000
      6          0.136050   0.000000
      7          0.302856   0.000000
      8          0.488732   0.000000
 
  0.4500000E+00  0.3571429E-01  0.1111111E+00  0.6349206E-02
      1         -9.409830   1.000000
      2         -3.572596   0.166784
      3         -3.572588   0.166724
      4         -3.572467   0.165871
      5         -0.192101   0.000000
      6          0.095806   0.000000
      7          0.333375   0.000000
      8          0.473046   0.000000
 
  0.5000000E-01  0.1071429E+00  0.1111111E+00  0.6349206E-02
      1         -9.409830   1.000000
      2         -3.572588   0.166728
      3         -3.572578   0.166655
      4         -3.572490   0.166036
      5         -0.249589   0.000000
      6          0.228225   0.000000
      7          0.396366   0.000000
      8          0.462092   0.000000
 
  0.1500000E+00  0.1071429E+00  0.1111111E+00  0.6349206E-02
      1         -9.409830   1.000000
      2         -3.572588   0.166723
      3         -3.572581   0.166680
      4         -3.572490   0.166034
      5         -0.239808   0.000000
      6          0.233450   0.000000
      7          0.328381   0.000000
      8          0.448101   0.000000
 
  0.2500000E+00  0.1071429E+00  0.1111111E+00  0.6349206E-02
      1         -9.409830   1.000000
      2         -3.572587   0.166719
      3         -3.572587   0.166717
      4         -3.572489   0.166030
      5         -0.221819   0.000000
      6          0.207034   0.000000
      7          0.289226   0.000000
      8          0.467811   0.000000
 
  0.3500000E+00  0.1071429E+00  0.1111111E+00  0.6349206E-02
      1         -9.409830   1.000000
      2         -3.572591   0.166747
      3         -3.572586   0.166711
      4         -3.572489   0.166026
      5         -0.199887   0.000000
      6          0.145330   0.000000
      7          0.311888   0.000000
      8          0.496528   0.000000
 
  0.4500000E+00  0.1071429E+00  0.1111111E+00  0.6349206E-02
      1         -9.409830   1.000000
      2         -3.572594   0.166772
      3         -3.572585   0.166709
      4         -3.572488   0.166023
      5         -0.183127   0.000000
      6          0.105197   0.000000
      7          0.342285   0.000000
      8          0.482327   0.000000
 
  0.5000000E-01  0.1785714E+00  0.1111111E+00  0.6349206E-02
      1         -9.409830   1.000000
      2         -3.572585   0.166705
      3         -3.572575   0.166634
      4         -3.572530   0.166316
      5         -0.231676   0.000000
      6          0.245580   0.000000
      7          0.402919   0.000000
      8          0.471402   0.000000
 
  0.1500000E+00  0.1785714E+00  0.1111111E+00  0.6349206E-02
      1         -9.409830   1.000000
      2         -3.572584   0.166701
      3         -3.572579   0.166661
      4         -3.572530   0.166314
      5         -0.221929   0.000000
      6          0.250649   0.000000
      7          0.345326   0.000000
      8          0.450163   0.000000
 
  0.2500000E+00  0.1785714E+00  0.1111111E+00  0.6349206E-02
      1         -9.409830   1.000000
      2         -3.572584   0.166698
      3         -3.572583   0.166693
      4         -3.572529   0.166311
      5         -0.204016   0.000000
      6          0.224687   0.000000
      7          0.307325   0.000000
      8          0.467683   0.000000
 
  0.3500000E+00  0.1785714E+00  0.1111111E+00  0.6349206E-02
      1         -9.409830   1.000000
      2         -3.572588   0.166728
      3         -3.572583   0.166690
      4         -3.572528   0.166306
      5         -0.182204   0.000000
      6          0.163738   0.000000
      7          0.329604   0.000000
      8          0.496020   0.000000
 
  0.4500000E+00  0.1785714E+00  0.1111111E+00  0.6349206E-02
      1         -9.409830   1.000000
      2         -3.572591   0.166750
      3         -3.572582   0.166687
      4         -3.572528   0.166304
      5         -0.165566   0.000000
      6          0.123916   0.000000
      7          0.359684   0.000000
      8          0.500502   0.000000
 
  0.5000000E-01  0.2500000E+00  0.1111111E+00  0.6349206E-02
      1         -9.409830   1.000000
      2         -3.572581   0.166675
      3         -3.572579   0.166666
      4         -3.572571   0.166606
      5         -0.205773   0.000000
      6          0.266756   0.000000
      7          0.351985   0.000000
      8          0.458904   0.000000
 
  0.1500000E+00  0.2500000E+00  0.1111111E+00  0.6349206E-02
      1         -9.409830   1.000000
      2         -3.572580   0.166671
      3         -3.572579   0.166663
      4         -3.572574   0.166629
      5         -0.196096   0.000000
      6          0.271435   0.000000
      7          0.355965   0.000000
      8          0.390371   0.000000
 
  0.2500000E+00  0.2500000E+00  0.1111111E+00  0.6349206E-02
      1         -9.409830   1.000000
      2         -3.572580   0.166671
      3         -3.572579   0.166666
      4         -3.572579   0.166659
      5         -0.178336   0.000000
      6          0.248780   0.000000
      7          0.333415   0.000000
      8          0.389435   0.000000
 
  0.3500000E+00  0.2500000E+00  0.1111111E+00  0.6349206E-02
      1         -9.409830   1.000000
      2         -3.572585   0.166705
      3         -3.572580   0.166669
      4         -3.572579   0.166663
      5         -0.156770   0.000000
      6          0.190781   0.000000
      7          0.353250   0.000000
      8          0.415611   0.000000
 
  0.4500000E+00  0.2500000E+00  0.1111111E+00  0.6349206E-02
      1         -9.409830   1.000000
      2         -3.572588   0.166726
      3         -3.572579   0.166664
      4         -3.572579   0.166659
      5         -0.140382   0.000000
      6          0.151791   0.000000
      7          0.381977   0.000000
      8          0.439368   0.000000
 
  0.5000000E-01  0.3214286E+00  0.1111111E+00  0.6349206E-02
      1         -9.409830   1.000000
      2         -3.572630   0.167023
      3         -3.572577   0.166646
      4         -3.572567   0.166579
      5         -0.173709   0.000000
      6          0.243860   0.000000
      7          0.327581   0.000000
      8          0.490028   0.000000
 
  0.1500000E+00  0.3214286E+00  0.1111111E+00  0.6349206E-02
      1         -9.409830   1.000000
      2         -3.572630   0.167022
      3         -3.572576   0.166644
      4         -3.572570   0.166599
      5         -0.164164   0.000000
      6          0.252625   0.000000
      7          0.336772   0.000000
      8          0.412677   0.000000
 
  0.2500000E+00  0.3214286E+00  0.1111111E+00  0.6349206E-02
      1         -9.409830   1.000000
      2         -3.572630   0.167022
      3         -3.572576   0.166644
      4         -3.572575   0.166637
      5         -0.146693   0.000000
      6          0.259623   0.000000
      7          0.324933   0.000000
      8          0.371851   0.000000
 
  0.3500000E+00  0.3214286E+00  0.1111111E+00  0.6349206E-02
      1         -9.409830   1.000000
      2         -3.572629   0.167020
      3         -3.572581   0.166674
      4         -3.572576   0.166640
      5         -0.125593   0.000000
      6          0.224312   0.000000
      7          0.322288   0.000000
      8          0.398218   0.000000
 
  0.4500000E+00  0.3214286E+00  0.1111111E+00  0.6349206E-02
      1         -9.409830   1.000000
      2         -3.572630   0.167022
      3         -3.572584   0.166699
      4         -3.572576   0.166638
      5         -0.109681   0.000000
      6          0.188333   0.000000
      7          0.342727   0.000000
      8          0.427422   0.000000
 
  0.5000000E-01  0.3928571E+00  0.1111111E+00  0.6349206E-02
      1         -9.409830   1.000000
      2         -3.572670   0.167307
      3         -3.572574   0.166625
      4         -3.572564   0.166555
      5         -0.139875   0.000000
      6          0.180372   0.000000
      7          0.364050   0.000000
      8          0.530027   0.000000
 
  0.1500000E+00  0.3928571E+00  0.1111111E+00  0.6349206E-02
      1         -9.409830   1.000000
      2         -3.572670   0.167308
      3         -3.572573   0.166618
      4         -3.572567   0.166578
      5         -0.130554   0.000000
      6          0.191389   0.000000
      7          0.371471   0.000000
      8          0.452130   0.000000
 
  0.2500000E+00  0.3928571E+00  0.1111111E+00  0.6349206E-02
      1         -9.409830   1.000000
      2         -3.572670   0.167308
      3         -3.572573   0.166622
      4         -3.572573   0.166617
      5         -0.113579   0.000000
      6          0.212120   0.000000
      7          0.345337   0.000000
      8          0.412506   0.000000
 
  0.3500000E+00  0.3928571E+00  0.1111111E+00  0.6349206E-02
      1         -9.409830   1.000000
      2         -3.572670   0.167305
      3         -3.572578   0.166655
      4         -3.572573   0.166617
      5         -0.093277   0.000000
      6          0.236260   0.000000
      7          0.285837   0.000000
      8          0.437164   0.000000
 
  0.4500000E+00  0.3928571E+00  0.1111111E+00  0.6349206E-02
      1         -9.409830   1.000000
      2         -3.572670   0.167303
      3         -3.572581   0.166676
      4         -3.572572   0.166615
      5         -0.078167   0.000000
      6          0.231456   0.000000
      7          0.276959   0.000000
      8          0.452616   0.000000
 
  0.5000000E-01  0.4642857E+00  0.1111111E+00  0.6349206E-02
      1         -9.409830   1.000000
      2         -3.572693   0.167468
      3         -3.572572   0.166610
      4         -3.572562   0.166544
      5         -0.114867   0.000000
      6          0.138074   0.000000
      7          0.404678   0.000000
      8          0.525607   0.000000
 
  0.1500000E+00  0.4642857E+00  0.1111111E+00  0.6349206E-02
      1         -9.409830   1.000000
      2         -3.572693   0.167467
      3         -3.572571   0.166609
      4         -3.572565   0.166562
      5         -0.105810   0.000000
      6          0.149715   0.000000
      7          0.411633   0.000000
      8          0.488261   0.000000
 
  0.2500000E+00  0.4642857E+00  0.1111111E+00  0.6349206E-02
      1         -9.409830   1.000000
      2         -3.572692   0.167466
      3         -3.572572   0.166610
      4         -3.572571   0.166605
      5         -0.089420   0.000000
      6          0.172285   0.000000
      7          0.382063   0.000000
      8          0.450990   0.000000
 
  0.3500000E+00  0.4642857E+00  0.1111111E+00  0.6349206E-02
      1         -9.409830   1.000000
      2         -3.572693   0.167466
      3         -3.572577   0.166648
      4         -3.572571   0.166604
      5         -0.070038   0.000000
      6          0.203302   0.000000
      7          0.317926   0.000000
      8          0.443361   0.000000
 
  0.4500000E+00  0.4642857E+00  0.1111111E+00  0.6349206E-02
      1         -9.409830   1.000000
      2         -3.572692   0.167460
      3         -3.572579   0.166663
      4         -3.572570   0.166599
      5         -0.055828   0.000000
      6          0.233431   0.000000
      7          0.278110   0.000000
      8          0.391036   0.000000
 
  0.5000000E-01  0.3571429E-01  0.2222222E+00  0.6349206E-02
      1         -9.409830   1.000000
      2         -3.572590   0.166737
      3         -3.572580   0.166668
      4         -3.572467   0.165876
      5         -0.250523   0.000000
      6          0.148102   0.000000
      7          0.433435   0.000000
      8          0.516622   0.000000
 
  0.1500000E+00  0.3571429E-01  0.2222222E+00  0.6349206E-02
      1         -9.409830   1.000000
      2         -3.572589   0.166730
      3         -3.572583   0.166689
      4         -3.572467   0.165873
      5         -0.240871   0.000000
      6          0.158621   0.000000
      7          0.330275   0.000000
      8          0.541514   0.000000
 
  0.2500000E+00  0.3571429E-01  0.2222222E+00  0.6349206E-02
      1         -9.409830   1.000000
      2         -3.572589   0.166731
      3         -3.572587   0.166721
      4         -3.572467   0.165870
      5         -0.223170   0.000000
      6          0.172874   0.000000
      7          0.247028   0.000000
      8          0.529945   0.000000
 
  0.3500000E+00  0.3571429E-01  0.2222222E+00  0.6349206E-02
      1         -9.409830   1.000000
      2         -3.572593   0.166764
      3         -3.572588   0.166724
      4         -3.572466   0.165868
      5         -0.201709   0.000000
      6          0.146466   0.000000
      7          0.234730   0.000000
      8          0.453233   0.000000
 
  0.4500000E+00  0.3571429E-01  0.2222222E+00  0.6349206E-02
      1         -9.409830   1.000000
      2         -3.572597   0.166789
      3         -3.572587   0.166720
      4         -3.572466   0.165868
      5         -0.185439   0.000000
      6          0.109967   0.000000
      7          0.263787   0.000000
      8          0.393870   0.000000
 
  0.5000000E-01  0.1071429E+00  0.2222222E+00  0.6349206E-02
      1         -9.409830   1.000000
      2         -3.572588   0.166723
      3         -3.572578   0.166655
      4         -3.572490   0.166033
      5         -0.241436   0.000000
      6          0.157383   0.000000
      7          0.441070   0.000000
      8          0.520431   0.000000
 
  0.1500000E+00  0.1071429E+00  0.2222222E+00  0.6349206E-02
      1         -9.409830   1.000000
      2         -3.572587   0.166720
      3         -3.572581   0.166677
      4         -3.572490   0.166031
      5         -0.231797   0.000000
      6          0.167890   0.000000
      7          0.339046   0.000000
      8          0.544502   0.000000
 
  0.2500000E+00  0.1071429E+00  0.2222222E+00  0.6349206E-02
      1         -9.409830   1.000000
      2         -3.572587   0.166719
      3         -3.572585   0.166708
      4         -3.572489   0.166027
      5         -0.214126   0.000000
      6          0.182107   0.000000
      7          0.256156   0.000000
      8          0.538316   0.000000
 
  0.3500000E+00  0.1071429E+00  0.2222222E+00  0.6349206E-02
      1         -9.409830   1.000000
      2         -3.572591   0.166750
      3         -3.572587   0.166716
      4         -3.572489   0.166026
      5         -0.192711   0.000000
      6          0.155739   0.000000
      7          0.243946   0.000000
      8          0.462550   0.000000
 
  0.4500000E+00  0.1071429E+00  0.2222222E+00  0.6349206E-02
      1         -9.409830   1.000000
      2         -3.572595   0.166774
      3         -3.572586   0.166715
      4         -3.572489   0.166026
      5         -0.176488   0.000000
      6          0.119333   0.000000
      7          0.272912   0.000000
      8          0.403348   0.000000
 
  0.5000000E-01  0.1785714E+00  0.2222222E+00  0.6349206E-02
      1         -9.409830   1.000000
      2         -3.572585   0.166704
      3         -3.572575   0.166634
      4         -3.572530   0.166320
      5         -0.223591   0.000000
      6          0.175705   0.000000
      7          0.440373   0.000000
      8          0.481869   0.000000
 
  0.1500000E+00  0.1785714E+00  0.2222222E+00  0.6349206E-02
      1         -9.409830   1.000000
      2         -3.572584   0.166701
      3         -3.572578   0.166656
      4         -3.572530   0.166317
      5         -0.213987   0.000000
      6          0.186176   0.000000
      7          0.355612   0.000000
      8          0.476292   0.000000
 
  0.2500000E+00  0.1785714E+00  0.2222222E+00  0.6349206E-02
      1         -9.409830   1.000000
      2         -3.572584   0.166696
      3         -3.572583   0.166689
      4         -3.572529   0.166313
      5         -0.196389   0.000000
      6          0.200284   0.000000
      7          0.274268   0.000000
      8          0.495583   0.000000
 