  14  14   0   0
  0.1021960E+02  0.5697000E-09  0.4047900E-09  0.6204200E-09  0.5000000E-15
  1.000000000000000E-004
  CAR 
 Kpoints                                 
     18.10838505    -14.21951282  301      1.94755266      1.00000000
    -14.220  0.0000E+00  0.0000E+00
    -14.112  0.0000E+00  0.0000E+00
    -14.004  0.0000E+00  0.0000E+00
    -13.896  0.0000E+00  0.0000E+00
    -13.788  0.0000E+00  0.0000E+00
    -13.681  0.0000E+00  0.0000E+00
    -13.573  0.0000E+00  0.0000E+00
    -13.465  0.0000E+00  0.0000E+00
    -13.357  0.0000E+00  0.0000E+00
    -13.250  0.0000E+00  0.0000E+00
    -13.142  0.0000E+00  0.0000E+00
    -13.034  0.3271E-16  0.3525E-17
    -12.926  0.2557E-07  0.2755E-08
    -12.819  0.3653E-02  0.3937E-03
    -12.711  0.4972E+00  0.5397E-01
    -12.603  0.2347E+01  0.3069E+00
    -12.495  0.3520E+01  0.6863E+00
    -12.388  0.4335E+01  0.1153E+01
    -12.280  0.3506E+01  0.1531E+01
    -12.172  0.2715E+01  0.1824E+01
    -12.064  0.2730E+01  0.2118E+01
    -11.957  0.2450E+01  0.2382E+01
    -11.849  0.2755E+01  0.2679E+01
    -11.741  0.3330E+01  0.3038E+01
    -11.633  0.3487E+01  0.3414E+01
    -11.526  0.3163E+01  0.3754E+01
    -11.418  0.1767E+01  0.3945E+01
    -11.310  0.4994E+00  0.3999E+01
    -11.202  0.1256E-01  0.4000E+01
    -11.094  0.5442E-06  0.4000E+01
    -10.987  0.5109E-14  0.4000E+01
    -10.879  0.0000E+00  0.4000E+01
    -10.771  0.0000E+00  0.4000E+01
    -10.663  0.0000E+00  0.4000E+01
    -10.556  0.0000E+00  0.4000E+01
    -10.448  0.0000E+00  0.4000E+01
    -10.340  0.0000E+00  0.4000E+01
    -10.232  0.0000E+00  0.4000E+01
    -10.125  0.0000E+00  0.4000E+01
    -10.017  0.0000E+00  0.4000E+01
     -9.909  0.0000E+00  0.4000E+01
     -9.801  0.0000E+00  0.4000E+01
     -9.694  0.0000E+00  0.4000E+01
     -9.586  0.0000E+00  0.4000E+01
     -9.478  0.0000E+00  0.4000E+01
     -9.370  0.0000E+00  0.4000E+01
     -9.263  0.0000E+00  0.4000E+01
     -9.155  0.0000E+00  0.4000E+01
     -9.047  0.2179E-08  0.4000E+01
     -8.939  0.9988E-03  0.4000E+01
     -8.832  0.3285E+00  0.4036E+01
     -8.724  0.2187E+01  0.4271E+01
     -8.616  0.5399E+01  0.4853E+01
     -8.508  0.6922E+01  0.5599E+01
     -8.400  0.6287E+01  0.6276E+01
     -8.293  0.5324E+01  0.6850E+01
     -8.185  0.4783E+01  0.7365E+01
     -8.077  0.3715E+01  0.7766E+01
     -7.969  0.1585E+01  0.7937E+01
     -7.862  0.5419E+00  0.7995E+01
     -7.754  0.4581E-01  0.8000E+01
     -7.646  0.1576E-04  0.8000E+01
     -7.538  0.1155E-11  0.8000E+01
     -7.431  0.0000E+00  0.8000E+01
     -7.323  0.0000E+00  0.8000E+01
     -7.215  0.0000E+00  0.8000E+01
     -7.107  0.1273E-08  0.8000E+01
     -7.000  0.6805E-03  0.8000E+01
     -6.892  0.1308E+00  0.8014E+01
     -6.784  0.2548E+00  0.8042E+01
     -6.676  0.4439E+00  0.8089E+01
     -6.569  0.7795E+00  0.8173E+01
     -6.461  0.8515E+00  0.8265E+01
     -6.353  0.1459E+01  0.8422E+01
     -6.245  0.2012E+01  0.8639E+01
     -6.138  0.3136E+01  0.8977E+01
     -6.030  0.3782E+01  0.9385E+01
     -5.922  0.4145E+01  0.9831E+01
     -5.814  0.4076E+01  0.1027E+02
     -5.706  0.3797E+01  0.1068E+02
     -5.599  0.4086E+01  0.1112E+02
     -5.491  0.4268E+01  0.1158E+02
     -5.383  0.4519E+01  0.1207E+02
     -5.275  0.4517E+01  0.1255E+02
     -5.168  0.4456E+01  0.1303E+02
     -5.060  0.3761E+01  0.1344E+02
     -4.952  0.3210E+01  0.1379E+02
     -4.844  0.2858E+01  0.1409E+02
     -4.737  0.2278E+01  0.1434E+02
     -4.629  0.2866E+01  0.1465E+02
     -4.521  0.3366E+01  0.1501E+02
     -4.413  0.3432E+01  0.1538E+02
     -4.306  0.3274E+01  0.1573E+02
     -4.198  0.2965E+01  0.1605E+02
     -4.090  0.2884E+01  0.1636E+02
     -3.982  0.2869E+01  0.1667E+02
     -3.875  0.2795E+01  0.1697E+02
     -3.767  0.3107E+01  0.1731E+02
     -3.659  0.2895E+01  0.1762E+02
     -3.551  0.2718E+01  0.1791E+02
     -3.444  0.3063E+01  0.1824E+02
     -3.336  0.2626E+01  0.1853E+02
     -3.228  0.2840E+01  0.1883E+02
     -3.120  0.2760E+01  0.1913E+02
     -3.013  0.2776E+01  0.1943E+02
     -2.905  0.3056E+01  0.1976E+02
     -2.797  0.2975E+01  0.2008E+02
     -2.689  0.2394E+01  0.2034E+02
     -2.581  0.2600E+01  0.2062E+02
     -2.474  0.3007E+01  0.2094E+02
     -2.366  0.2955E+01  0.2126E+02
     -2.258  0.3334E+01  0.2162E+02
     -2.150  0.3908E+01  0.2204E+02
     -2.043  0.3559E+01  0.2242E+02
     -1.935  0.3145E+01  0.2276E+02
     -1.827  0.4911E+01  0.2329E+02
     -1.719  0.5496E+01  0.2388E+02
     -1.612  0.5539E+01  0.2448E+02
     -1.504  0.6027E+01  0.2513E+02
     -1.396  0.5992E+01  0.2578E+02
     -1.288  0.5608E+01  0.2638E+02
     -1.181  0.4711E+01  0.2689E+02
     -1.073  0.6425E+01  0.2758E+02
     -0.965  0.4182E+01  0.2803E+02
     -0.857  0.2315E+01  0.2828E+02
     -0.750  0.2704E+01  0.2857E+02
     -0.642  0.2998E+01  0.2889E+02
     -0.534  0.4538E+01  0.2938E+02
     -0.426  0.6746E+01  0.3011E+02
     -0.319  0.5519E+01  0.3071E+02
     -0.211  0.6479E+01  0.3140E+02
     -0.103  0.6426E+01  0.3210E+02
      0.005  0.6664E+01  0.3281E+02
      0.113  0.6760E+01  0.3354E+02
      0.220  0.6269E+01  0.3422E+02
      0.328  0.8943E+01  0.3518E+02
      0.436  0.8030E+01  0.3605E+02
      0.544  0.8475E+01  0.3696E+02
      0.651  0.5161E+01  0.3752E+02
      0.759  0.2980E+01  0.3784E+02
      0.867  0.3199E+01  0.3818E+02
      0.975  0.3540E+01  0.3856E+02
      1.082  0.3554E+01  0.3895E+02
      1.190  0.2791E+01  0.3925E+02
      1.298  0.3311E+01  0.3960E+02
      1.406  0.4376E+01  0.4008E+02
      1.513  0.3708E+01  0.4048E+02
      1.621  0.3706E+01  0.4088E+02
      1.729  0.4535E+01  0.4136E+02
      1.837  0.3384E+01  0.4173E+02
      1.944  0.2447E+01  0.4199E+02
      2.052  0.2692E+01  0.4228E+02
      2.160  0.2051E+01  0.4250E+02
      2.268  0.2619E+01  0.4279E+02
      2.375  0.2668E+01  0.4307E+02
      2.483  0.2015E+01  0.4329E+02
      2.591  0.9371E+00  0.4339E+02
      2.699  0.3965E+00  0.4343E+02
      2.807  0.5480E+00  0.4349E+02
      2.914  0.3946E+00  0.4354E+02
      3.022  0.3180E+00  0.4357E+02
      3.130  0.6891E+00  0.4364E+02
      3.238  0.1002E+01  0.4375E+02
      3.345  0.6259E+00  0.4382E+02
      3.453  0.2770E-01  0.4382E+02
      3.561  0.1071E+00  0.4383E+02
      3.669  0.3635E+00  0.4387E+02
      3.776  0.3604E+00  0.4391E+02
      3.884  0.3379E+00  0.4395E+02
      3.992  0.4304E+00  0.4399E+02
      4.100  0.5015E-01  0.4400E+02
      4.207  0.8210E-04  0.4400E+02
      4.315  0.4497E-01  0.4400E+02
      4.423  0.1925E+00  0.4403E+02
      4.531  0.4143E+00  0.4407E+02
      4.638  0.5035E+00  0.4412E+02
      4.746  0.6420E+00  0.4419E+02
      4.854  0.8967E+00  0.4429E+02
      4.962  0.8366E+00  0.4438E+02
      5.069  0.8565E+00  0.4447E+02
      5.177  0.1257E+01  0.4461E+02
      5.285  0.1136E+01  0.4473E+02
      5.393  0.1671E+01  0.4491E+02
      5.501  0.2239E+01  0.4515E+02
      5.608  0.2457E+01  0.4542E+02
      5.716  0.2707E+01  0.4571E+02
      5.824  0.3351E+01  0.4607E+02
      5.932  0.3286E+01  0.4642E+02
      6.039  0.4454E+01  0.4690E+02
      6.147  0.4728E+01  0.4741E+02
      6.255  0.3974E+01  0.4784E+02
      6.363  0.4616E+01  0.4834E+02
      6.470  0.4045E+01  0.4877E+02
      6.578  0.4211E+01  0.4923E+02
      6.686  0.4440E+01  0.4971E+02
      6.794  0.3178E+01  0.5005E+02
      6.901  0.4216E+01  0.5050E+02
      7.009  0.4858E+01  0.5103E+02
      7.117  0.4483E+01  0.5151E+02
      7.225  0.4551E+01  0.5200E+02
      7.332  0.5782E+01  0.5262E+02
      7.440  0.4655E+01  0.5313E+02
      7.548  0.4453E+01  0.5361E+02
      7.656  0.4021E+01  0.5404E+02
      7.763  0.3349E+01  0.5440E+02
      7.871  0.3077E+01  0.5473E+02
      7.979  0.2808E+01  0.5503E+02
      8.087  0.3359E+01  0.5540E+02
      8.194  0.4060E+01  0.5583E+02
      8.302  0.3975E+01  0.5626E+02
      8.410  0.3649E+01  0.5665E+02
      8.518  0.4334E+01  0.5712E+02
      8.626  0.4130E+01  0.5757E+02
      8.733  0.4674E+01  0.5807E+02
      8.841  0.5148E+01  0.5863E+02
      8.949  0.5150E+01  0.5918E+02
      9.057  0.4403E+01  0.5965E+02
      9.164  0.5432E+01  0.6024E+02
      9.272  0.5024E+01  0.6078E+02
      9.380  0.4739E+01  0.6129E+02
      9.488  0.4760E+01  0.6180E+02
      9.595  0.4355E+01  0.6227E+02
      9.703  0.5229E+01  0.6284E+02
      9.811  0.4712E+01  0.6335E+02
      9.919  0.5159E+01  0.6390E+02
     10.026  0.4016E+01  0.6433E+02
     10.134  0.4150E+01  0.6478E+02
     10.242  0.5545E+01  0.6538E+02
     10.350  0.4234E+01  0.6583E+02
     10.457  0.4369E+01  0.6631E+02
     10.565  0.6232E+01  0.6698E+02
     10.673  0.4505E+01  0.6746E+02
     10.781  0.4444E+01  0.6794E+02
     10.888  0.3259E+01  0.6829E+02
     10.996  0.3881E+01  0.6871E+02
     11.104  0.5367E+01  0.6929E+02
     11.212  0.5555E+01  0.6989E+02
     11.320  0.6644E+01  0.7060E+02
     11.427  0.5213E+01  0.7117E+02
     11.535  0.5095E+01  0.7171E+02
     11.643  0.4430E+01  0.7219E+02
     11.751  0.4682E+01  0.7270E+02
     11.858  0.4932E+01  0.7323E+02
     11.966  0.5256E+01  0.7379E+02
     12.074  0.5605E+01  0.7440E+02
     12.182  0.6716E+01  0.7512E+02
     12.289  0.5226E+01  0.7569E+02
     12.397  0.5348E+01  0.7626E+02
     12.505  0.5124E+01  0.7681E+02
     12.613  0.5334E+01  0.7739E+02
     12.720  0.6252E+01  0.7806E+02
     12.828  0.5808E+01  0.7869E+02
     12.936  0.5464E+01  0.7928E+02
     13.044  0.6001E+01  0.7992E+02
     13.151  0.5679E+01  0.8054E+02
     13.259  0.6358E+01  0.8122E+02
     13.367  0.5694E+01  0.8183E+02
     13.475  0.5773E+01  0.8246E+02
     13.582  0.5893E+01  0.8309E+02
     13.690  0.5118E+01  0.8364E+02
     13.798  0.5031E+01  0.8419E+02
     13.906  0.6606E+01  0.8490E+02
     14.014  0.4848E+01  0.8542E+02
     14.121  0.5617E+01  0.8602E+02
     14.229  0.4901E+01  0.8655E+02
     14.337  0.4366E+01  0.8702E+02
     14.445  0.5287E+01  0.8759E+02
     14.552  0.5078E+01  0.8814E+02
     14.660  0.4924E+01  0.8867E+02
     14.768  0.5091E+01  0.8922E+02
     14.876  0.4950E+01  0.8975E+02
     14.983  0.4055E+01  0.9019E+02
     15.091  0.5601E+01  0.9079E+02
     15.199  0.6164E+01  0.9146E+02
     15.307  0.5394E+01  0.9204E+02
     15.414  0.6209E+01  0.9271E+02
     15.522  0.5713E+01  0.9332E+02
     15.630  0.5720E+01  0.9394E+02
     15.738  0.5408E+01  0.9452E+02
     15.845  0.3876E+01  0.9494E+02
     15.953  0.2384E+01  0.9520E+02
     16.061  0.2519E+01  0.9547E+02
     16.169  0.1457E+01  0.9563E+02
     16.276  0.1104E+01  0.9575E+02
     16.384  0.8261E+00  0.9583E+02
     16.492  0.6829E+00  0.9591E+02
     16.600  0.6916E+00  0.9598E+02
     16.708  0.1633E+00  0.9600E+02
     16.815  0.1717E-02  0.9600E+02
     16.923  0.1809E-07  0.9600E+02
     17.031  0.2617E-16  0.9600E+02
     17.139  0.0000E+00  0.9600E+02
     17.246  0.0000E+00  0.9600E+02
     17.354  0.0000E+00  0.9600E+02
     17.462  0.0000E+00  0.9600E+02
     17.570  0.0000E+00  0.9600E+02
     17.677  0.0000E+00  0.9600E+02
     17.785  0.0000E+00  0.9600E+02
     17.893  0.0000E+00  0.9600E+02
     18.001  0.0000E+00  0.9600E+02
     18.108  0.0000E+00  0.9600E+02
