  14  14   0   0
  0.1024414E+02  0.5701558E-09  0.4051138E-09  0.6209163E-09  0.5000000E-15
  1.000000000000000E-004
  CAR 
 Convergence                             
     17.93397534    -14.18192073  301      1.87015343      1.00000000
    -14.182  0.0000E+00  0.0000E+00
    -14.075  0.0000E+00  0.0000E+00
    -13.968  0.0000E+00  0.0000E+00
    -13.861  0.0000E+00  0.0000E+00
    -13.754  0.0000E+00  0.0000E+00
    -13.647  0.0000E+00  0.0000E+00
    -13.540  0.0000E+00  0.0000E+00
    -13.433  0.0000E+00  0.0000E+00
    -13.325  0.0000E+00  0.0000E+00
    -13.218  0.0000E+00  0.0000E+00
    -13.111  0.0000E+00  0.0000E+00
    -13.004  0.4938E-16  0.5287E-17
    -12.897  0.3084E-07  0.3302E-08
    -12.790  0.3854E-02  0.4126E-03
    -12.683  0.5095E+00  0.5495E-01
    -12.576  0.2393E+01  0.3111E+00
    -12.469  0.3570E+01  0.6933E+00
    -12.362  0.4376E+01  0.1162E+01
    -12.255  0.3539E+01  0.1541E+01
    -12.148  0.2736E+01  0.1834E+01
    -12.041  0.2754E+01  0.2128E+01
    -11.934  0.2501E+01  0.2396E+01
    -11.827  0.2772E+01  0.2693E+01
    -11.720  0.3418E+01  0.3059E+01
    -11.613  0.3536E+01  0.3437E+01
    -11.506  0.3129E+01  0.3772E+01
    -11.399  0.1685E+01  0.3953E+01
    -11.291  0.4344E+00  0.3999E+01
    -11.184  0.8027E-02  0.4000E+01
    -11.077  0.2217E-06  0.4000E+01
    -10.970  0.1409E-14  0.4000E+01
    -10.863  0.0000E+00  0.4000E+01
    -10.756  0.0000E+00  0.4000E+01
    -10.649  0.0000E+00  0.4000E+01
    -10.542  0.0000E+00  0.4000E+01
    -10.435  0.0000E+00  0.4000E+01
    -10.328  0.0000E+00  0.4000E+01
    -10.221  0.0000E+00  0.4000E+01
    -10.114  0.0000E+00  0.4000E+01
    -10.007  0.0000E+00  0.4000E+01
     -9.900  0.0000E+00  0.4000E+01
     -9.793  0.0000E+00  0.4000E+01
     -9.686  0.0000E+00  0.4000E+01
     -9.579  0.0000E+00  0.4000E+01
     -9.472  0.0000E+00  0.4000E+01
     -9.365  0.0000E+00  0.4000E+01
     -9.257  0.0000E+00  0.4000E+01
     -9.150  0.0000E+00  0.4000E+01
     -9.043  0.1026E-08  0.4000E+01
     -8.936  0.6452E-03  0.4000E+01
     -8.829  0.2795E+00  0.4030E+01
     -8.722  0.2103E+01  0.4255E+01
     -8.615  0.5359E+01  0.4829E+01
     -8.508  0.7004E+01  0.5579E+01
     -8.401  0.6289E+01  0.6252E+01
     -8.294  0.5328E+01  0.6822E+01
     -8.187  0.4842E+01  0.7341E+01
     -8.080  0.3867E+01  0.7755E+01
     -7.973  0.1663E+01  0.7933E+01
     -7.866  0.5767E+00  0.7994E+01
     -7.759  0.5201E-01  0.8000E+01
     -7.652  0.2441E-04  0.8000E+01
     -7.545  0.2848E-11  0.8000E+01
     -7.438  0.0000E+00  0.8000E+01
     -7.331  0.0000E+00  0.8000E+01
     -7.223  0.0000E+00  0.8000E+01
     -7.116  0.4435E-09  0.8000E+01
     -7.009  0.3744E-03  0.8000E+01
     -6.902  0.1111E+00  0.8012E+01
     -6.795  0.2588E+00  0.8040E+01
     -6.688  0.4250E+00  0.8085E+01
     -6.581  0.7663E+00  0.8167E+01
     -6.474  0.8473E+00  0.8258E+01
     -6.367  0.1437E+01  0.8412E+01
     -6.260  0.1946E+01  0.8620E+01
     -6.153  0.3053E+01  0.8947E+01
     -6.046  0.3794E+01  0.9353E+01
     -5.939  0.4120E+01  0.9794E+01
     -5.832  0.4050E+01  0.1023E+02
     -5.725  0.3877E+01  0.1064E+02
     -5.618  0.4075E+01  0.1108E+02
     -5.511  0.4218E+01  0.1153E+02
     -5.404  0.4559E+01  0.1202E+02
     -5.297  0.4615E+01  0.1251E+02
     -5.189  0.4495E+01  0.1299E+02
     -5.082  0.3879E+01  0.1341E+02
     -4.975  0.3224E+01  0.1375E+02
     -4.868  0.2967E+01  0.1407E+02
     -4.761  0.2318E+01  0.1432E+02
     -4.654  0.2897E+01  0.1463E+02
     -4.547  0.3372E+01  0.1499E+02
     -4.440  0.3456E+01  0.1536E+02
     -4.333  0.3352E+01  0.1572E+02
     -4.226  0.2960E+01  0.1604E+02
     -4.119  0.2910E+01  0.1635E+02
     -4.012  0.2936E+01  0.1666E+02
     -3.905  0.2875E+01  0.1697E+02
     -3.798  0.3111E+01  0.1730E+02
     -3.691  0.2890E+01  0.1761E+02
     -3.584  0.2707E+01  0.1790E+02
     -3.477  0.3074E+01  0.1823E+02
     -3.370  0.2652E+01  0.1852E+02
     -3.263  0.2842E+01  0.1882E+02
     -3.155  0.2776E+01  0.1912E+02
     -3.048  0.2721E+01  0.1941E+02
     -2.941  0.3070E+01  0.1974E+02
     -2.834  0.2982E+01  0.2006E+02
     -2.727  0.2441E+01  0.2032E+02
     -2.620  0.2644E+01  0.2060E+02
     -2.513  0.3015E+01  0.2092E+02
     -2.406  0.2998E+01  0.2124E+02
     -2.299  0.3186E+01  0.2159E+02
     -2.192  0.4003E+01  0.2201E+02
     -2.085  0.3657E+01  0.2241E+02
     -1.978  0.3234E+01  0.2275E+02
     -1.871  0.5040E+01  0.2329E+02
     -1.764  0.5546E+01  0.2388E+02
     -1.657  0.5635E+01  0.2449E+02
     -1.550  0.6176E+01  0.2515E+02
     -1.443  0.6135E+01  0.2581E+02
     -1.336  0.5598E+01  0.2641E+02
     -1.229  0.4685E+01  0.2691E+02
     -1.121  0.6494E+01  0.2760E+02
     -1.014  0.4103E+01  0.2804E+02
     -0.907  0.2280E+01  0.2829E+02
     -0.800  0.2703E+01  0.2857E+02
     -0.693  0.2882E+01  0.2888E+02
     -0.586  0.4462E+01  0.2936E+02
     -0.479  0.6835E+01  0.3009E+02
     -0.372  0.5672E+01  0.3070E+02
     -0.265  0.6662E+01  0.3141E+02
     -0.158  0.6373E+01  0.3210E+02
     -0.051  0.6739E+01  0.3282E+02
      0.056  0.6809E+01  0.3355E+02
      0.163  0.6260E+01  0.3422E+02
      0.270  0.8826E+01  0.3516E+02
      0.377  0.8059E+01  0.3602E+02
      0.484  0.8685E+01  0.3695E+02
      0.591  0.5341E+01  0.3752E+02
      0.698  0.2986E+01  0.3784E+02
      0.805  0.3252E+01  0.3819E+02
      0.913  0.3590E+01  0.3858E+02
      1.020  0.3577E+01  0.3896E+02
      1.127  0.2801E+01  0.3926E+02
      1.234  0.3372E+01  0.3962E+02
      1.341  0.4483E+01  0.4010E+02
      1.448  0.3806E+01  0.4051E+02
      1.555  0.3707E+01  0.4090E+02
      1.662  0.4586E+01  0.4140E+02
      1.769  0.3310E+01  0.4175E+02
      1.876  0.2476E+01  0.4202E+02
      1.983  0.2673E+01  0.4230E+02
      2.090  0.2095E+01  0.4253E+02
      2.197  0.2650E+01  0.4281E+02
      2.304  0.2597E+01  0.4309E+02
      2.411  0.1964E+01  0.4330E+02
      2.518  0.8854E+00  0.4339E+02
      2.625  0.3790E+00  0.4343E+02
      2.732  0.5746E+00  0.4349E+02
      2.840  0.4205E+00  0.4354E+02
      2.947  0.3055E+00  0.4357E+02
      3.054  0.7426E+00  0.4365E+02
      3.161  0.1021E+01  0.4376E+02
      3.268  0.5581E+00  0.4382E+02
      3.375  0.1525E-01  0.4382E+02
      3.482  0.1240E+00  0.4384E+02
      3.589  0.3936E+00  0.4388E+02
      3.696  0.3363E+00  0.4391E+02
      3.803  0.3673E+00  0.4395E+02
      3.910  0.4092E+00  0.4400E+02
      4.017  0.2975E-01  0.4400E+02
      4.124  0.1390E-04  0.4400E+02
      4.231  0.2288E-01  0.4400E+02
      4.338  0.1686E+00  0.4402E+02
      4.445  0.3918E+00  0.4406E+02
      4.552  0.4567E+00  0.4411E+02
      4.659  0.6247E+00  0.4418E+02
      4.766  0.8781E+00  0.4427E+02
      4.874  0.8385E+00  0.4436E+02
      4.981  0.8620E+00  0.4445E+02
      5.088  0.1262E+01  0.4459E+02
      5.195  0.1169E+01  0.4471E+02
      5.302  0.1608E+01  0.4489E+02
      5.409  0.2160E+01  0.4512E+02
      5.516  0.2496E+01  0.4539E+02
      5.623  0.2794E+01  0.4568E+02
      5.730  0.3323E+01  0.4604E+02
      5.837  0.3246E+01  0.4639E+02
      5.944  0.4268E+01  0.4684E+02
      6.051  0.4792E+01  0.4736E+02
      6.158  0.4070E+01  0.4779E+02
      6.265  0.4611E+01  0.4829E+02
      6.372  0.4230E+01  0.4874E+02
      6.479  0.3982E+01  0.4917E+02
      6.586  0.4509E+01  0.4965E+02
      6.693  0.3245E+01  0.5000E+02
      6.800  0.3975E+01  0.5042E+02
      6.908  0.4609E+01  0.5091E+02
      7.015  0.4574E+01  0.5140E+02
      7.122  0.4340E+01  0.5187E+02
      7.229  0.5585E+01  0.5247E+02
      7.336  0.4968E+01  0.5300E+02
      7.443  0.4471E+01  0.5348E+02
      7.550  0.4217E+01  0.5393E+02
      7.657  0.3583E+01  0.5431E+02
      7.764  0.3113E+01  0.5465E+02
      7.871  0.3023E+01  0.5497E+02
      7.978  0.2972E+01  0.5529E+02
      8.085  0.4162E+01  0.5573E+02
      8.192  0.3911E+01  0.5615E+02
      8.299  0.3723E+01  0.5655E+02
      8.406  0.4003E+01  0.5698E+02
      8.513  0.4238E+01  0.5743E+02
      8.620  0.4480E+01  0.5791E+02
      8.727  0.4262E+01  0.5837E+02
      8.834  0.5316E+01  0.5894E+02
      8.942  0.4861E+01  0.5946E+02
      9.049  0.5287E+01  0.6002E+02
      9.156  0.5231E+01  0.6058E+02
      9.263  0.4998E+01  0.6112E+02
      9.370  0.4674E+01  0.6162E+02
      9.477  0.4391E+01  0.6209E+02
      9.584  0.5097E+01  0.6264E+02
      9.691  0.5034E+01  0.6317E+02
      9.798  0.5290E+01  0.6374E+02
      9.905  0.4490E+01  0.6422E+02
     10.012  0.3666E+01  0.6461E+02
     10.119  0.5186E+01  0.6517E+02
     10.226  0.4720E+01  0.6567E+02
     10.333  0.4144E+01  0.6612E+02
     10.440  0.5367E+01  0.6669E+02
     10.547  0.5825E+01  0.6732E+02
     10.654  0.4077E+01  0.6775E+02
     10.761  0.3902E+01  0.6817E+02
     10.868  0.3262E+01  0.6852E+02
     10.976  0.4681E+01  0.6902E+02
     11.083  0.5440E+01  0.6960E+02
     11.190  0.6249E+01  0.7027E+02
     11.297  0.6003E+01  0.7091E+02
     11.404  0.5230E+01  0.7147E+02
     11.511  0.4369E+01  0.7194E+02
     11.618  0.4476E+01  0.7242E+02
     11.725  0.4962E+01  0.7295E+02
     11.832  0.4818E+01  0.7347E+02
     11.939  0.6012E+01  0.7411E+02
     12.046  0.5991E+01  0.7475E+02
     12.153  0.6035E+01  0.7540E+02
     12.260  0.5577E+01  0.7600E+02
     12.367  0.4999E+01  0.7653E+02
     12.474  0.5710E+01  0.7714E+02
     12.581  0.5976E+01  0.7778E+02
     12.688  0.5975E+01  0.7842E+02
     12.795  0.5926E+01  0.7906E+02
     12.902  0.5879E+01  0.7969E+02
     13.010  0.5612E+01  0.8029E+02
     13.117  0.6348E+01  0.8097E+02
     13.224  0.6295E+01  0.8164E+02
     13.331  0.5429E+01  0.8222E+02
     13.438  0.6126E+01  0.8288E+02
     13.545  0.5397E+01  0.8345E+02
     13.652  0.4827E+01  0.8397E+02
     13.759  0.6163E+01  0.8463E+02
     13.866  0.5521E+01  0.8522E+02
     13.973  0.5360E+01  0.8580E+02
     14.080  0.5477E+01  0.8638E+02
     14.187  0.4679E+01  0.8688E+02
     14.294  0.4941E+01  0.8741E+02
     14.401  0.4985E+01  0.8795E+02
     14.508  0.4950E+01  0.8848E+02
     14.615  0.5274E+01  0.8904E+02
     14.722  0.5187E+01  0.8960E+02
     14.829  0.4097E+01  0.9003E+02
     14.936  0.5042E+01  0.9057E+02
     15.044  0.6161E+01  0.9123E+02
     15.151  0.5677E+01  0.9184E+02
     15.258  0.5704E+01  0.9245E+02
     15.365  0.6010E+01  0.9310E+02
     15.472  0.5756E+01  0.9371E+02
     15.579  0.5987E+01  0.9435E+02
     15.686  0.4613E+01  0.9485E+02
     15.793  0.2496E+01  0.9511E+02
     15.900  0.2708E+01  0.9540E+02
     16.007  0.1851E+01  0.9560E+02
     16.114  0.1138E+01  0.9572E+02
     16.221  0.8918E+00  0.9582E+02
     16.328  0.6994E+00  0.9589E+02
     16.435  0.8153E+00  0.9598E+02
     16.542  0.1773E+00  0.9600E+02
     16.649  0.1700E-02  0.9600E+02
     16.756  0.2150E-07  0.9600E+02
     16.863  0.3951E-16  0.9600E+02
     16.970  0.0000E+00  0.9600E+02
     17.078  0.0000E+00  0.9600E+02
     17.185  0.0000E+00  0.9600E+02
     17.292  0.0000E+00  0.9600E+02
     17.399  0.0000E+00  0.9600E+02
     17.506  0.0000E+00  0.9600E+02
     17.613  0.0000E+00  0.9600E+02
     17.720  0.0000E+00  0.9600E+02
     17.827  0.0000E+00  0.9600E+02
     17.934  0.0000E+00  0.9600E+02
