  14  14   0   0
  0.1026873E+02  0.5706115E-09  0.4054377E-09  0.6214127E-09  0.5000000E-15
  1.000000000000000E-004
  CAR 
 Convergence                             
     17.89314024    -14.17708929  301      1.85625402      1.00000000
    -14.177  0.0000E+00  0.0000E+00
    -14.070  0.0000E+00  0.0000E+00
    -13.963  0.0000E+00  0.0000E+00
    -13.856  0.0000E+00  0.0000E+00
    -13.749  0.0000E+00  0.0000E+00
    -13.643  0.0000E+00  0.0000E+00
    -13.536  0.0000E+00  0.0000E+00
    -13.429  0.0000E+00  0.0000E+00
    -13.322  0.0000E+00  0.0000E+00
    -13.215  0.0000E+00  0.0000E+00
    -13.108  0.0000E+00  0.0000E+00
    -13.001  0.5275E-16  0.5639E-17
    -12.894  0.3207E-07  0.3428E-08
    -12.787  0.3892E-02  0.4160E-03
    -12.680  0.5104E+00  0.5498E-01
    -12.574  0.2396E+01  0.3111E+00
    -12.467  0.3575E+01  0.6933E+00
    -12.360  0.4380E+01  0.1162E+01
    -12.253  0.3539E+01  0.1540E+01
    -12.146  0.2738E+01  0.1833E+01
    -12.039  0.2756E+01  0.2127E+01
    -11.932  0.2498E+01  0.2394E+01
    -11.825  0.2772E+01  0.2691E+01
    -11.718  0.3409E+01  0.3055E+01
    -11.611  0.3537E+01  0.3433E+01
    -11.505  0.3143E+01  0.3769E+01
    -11.398  0.1704E+01  0.3951E+01
    -11.291  0.4482E+00  0.3999E+01
    -11.184  0.8932E-02  0.4000E+01
    -11.077  0.2853E-06  0.4000E+01
    -10.970  0.2183E-14  0.4000E+01
    -10.863  0.0000E+00  0.4000E+01
    -10.756  0.0000E+00  0.4000E+01
    -10.649  0.0000E+00  0.4000E+01
    -10.542  0.0000E+00  0.4000E+01
    -10.436  0.0000E+00  0.4000E+01
    -10.329  0.0000E+00  0.4000E+01
    -10.222  0.0000E+00  0.4000E+01
    -10.115  0.0000E+00  0.4000E+01
    -10.008  0.0000E+00  0.4000E+01
     -9.901  0.0000E+00  0.4000E+01
     -9.794  0.0000E+00  0.4000E+01
     -9.687  0.0000E+00  0.4000E+01
     -9.580  0.0000E+00  0.4000E+01
     -9.473  0.0000E+00  0.4000E+01
     -9.367  0.0000E+00  0.4000E+01
     -9.260  0.0000E+00  0.4000E+01
     -9.153  0.0000E+00  0.4000E+01
     -9.046  0.1124E-08  0.4000E+01
     -8.939  0.6692E-03  0.4000E+01
     -8.832  0.2830E+00  0.4030E+01
     -8.725  0.2116E+01  0.4256E+01
     -8.618  0.5387E+01  0.4832E+01
     -8.511  0.7020E+01  0.5583E+01
     -8.404  0.6280E+01  0.6254E+01
     -8.298  0.5331E+01  0.6824E+01
     -8.191  0.4850E+01  0.7342E+01
     -8.084  0.3861E+01  0.7755E+01
     -7.977  0.1661E+01  0.7933E+01
     -7.870  0.5767E+00  0.7994E+01
     -7.763  0.5224E-01  0.8000E+01
     -7.656  0.2501E-04  0.8000E+01
     -7.549  0.3055E-11  0.8000E+01
     -7.442  0.0000E+00  0.8000E+01
     -7.335  0.0000E+00  0.8000E+01
     -7.229  0.0000E+00  0.8000E+01
     -7.122  0.4065E-09  0.8000E+01
     -7.015  0.3535E-03  0.8000E+01
     -6.908  0.1092E+00  0.8012E+01
     -6.801  0.2600E+00  0.8040E+01
     -6.694  0.4240E+00  0.8085E+01
     -6.587  0.7664E+00  0.8167E+01
     -6.480  0.8441E+00  0.8257E+01
     -6.373  0.1430E+01  0.8410E+01
     -6.266  0.1930E+01  0.8616E+01
     -6.160  0.3050E+01  0.8942E+01
     -6.053  0.3804E+01  0.9349E+01
     -5.946  0.4125E+01  0.9790E+01
     -5.839  0.4055E+01  0.1022E+02
     -5.732  0.3892E+01  0.1064E+02
     -5.625  0.4077E+01  0.1108E+02
     -5.518  0.4216E+01  0.1153E+02
     -5.411  0.4573E+01  0.1201E+02
     -5.304  0.4631E+01  0.1251E+02
     -5.197  0.4500E+01  0.1299E+02
     -5.091  0.3888E+01  0.1341E+02
     -4.984  0.3221E+01  0.1375E+02
     -4.877  0.2981E+01  0.1407E+02
     -4.770  0.2300E+01  0.1432E+02
     -4.663  0.2899E+01  0.1463E+02
     -4.556  0.3373E+01  0.1499E+02
     -4.449  0.3440E+01  0.1535E+02
     -4.342  0.3371E+01  0.1571E+02
     -4.235  0.2966E+01  0.1603E+02
     -4.128  0.2913E+01  0.1634E+02
     -4.022  0.2927E+01  0.1666E+02
     -3.915  0.2891E+01  0.1696E+02
     -3.808  0.3102E+01  0.1730E+02
     -3.701  0.2904E+01  0.1761E+02
     -3.594  0.2709E+01  0.1790E+02
     -3.487  0.3081E+01  0.1823E+02
     -3.380  0.2667E+01  0.1851E+02
     -3.273  0.2822E+01  0.1881E+02
     -3.166  0.2808E+01  0.1911E+02
     -3.059  0.2702E+01  0.1940E+02
     -2.953  0.3094E+01  0.1973E+02
     -2.846  0.2989E+01  0.2005E+02
     -2.739  0.2451E+01  0.2031E+02
     -2.632  0.2630E+01  0.2059E+02
     -2.525  0.3008E+01  0.2092E+02
     -2.418  0.3011E+01  0.2124E+02
     -2.311  0.3178E+01  0.2158E+02
     -2.204  0.4000E+01  0.2201E+02
     -2.097  0.3655E+01  0.2240E+02
     -1.990  0.3188E+01  0.2274E+02
     -1.884  0.4955E+01  0.2327E+02
     -1.777  0.5522E+01  0.2386E+02
     -1.670  0.5662E+01  0.2446E+02
     -1.563  0.6165E+01  0.2512E+02
     -1.456  0.6161E+01  0.2578E+02
     -1.349  0.5627E+01  0.2638E+02
     -1.242  0.4692E+01  0.2688E+02
     -1.135  0.6479E+01  0.2758E+02
     -1.028  0.4233E+01  0.2803E+02
     -0.921  0.2294E+01  0.2827E+02
     -0.814  0.2709E+01  0.2856E+02
     -0.708  0.2886E+01  0.2887E+02
     -0.601  0.4404E+01  0.2934E+02
     -0.494  0.6798E+01  0.3007E+02
     -0.387  0.5690E+01  0.3068E+02
     -0.280  0.6613E+01  0.3138E+02
     -0.173  0.6394E+01  0.3207E+02
     -0.066  0.6731E+01  0.3279E+02
      0.041  0.6856E+01  0.3352E+02
      0.148  0.6222E+01  0.3419E+02
      0.255  0.8846E+01  0.3513E+02
      0.361  0.8134E+01  0.3600E+02
      0.468  0.8673E+01  0.3693E+02
      0.575  0.5442E+01  0.3751E+02
      0.682  0.3040E+01  0.3783E+02
      0.789  0.3210E+01  0.3818E+02
      0.896  0.3593E+01  0.3856E+02
      1.003  0.3588E+01  0.3895E+02
      1.110  0.2815E+01  0.3925E+02
      1.217  0.3355E+01  0.3960E+02
      1.324  0.4463E+01  0.4008E+02
      1.430  0.3837E+01  0.4049E+02
      1.537  0.3692E+01  0.4089E+02
      1.644  0.4593E+01  0.4138E+02
      1.751  0.3391E+01  0.4174E+02
      1.858  0.2474E+01  0.4200E+02
      1.965  0.2684E+01  0.4229E+02
      2.072  0.2100E+01  0.4252E+02
      2.179  0.2645E+01  0.4280E+02
      2.286  0.2623E+01  0.4308E+02
      2.393  0.1992E+01  0.4329E+02
      2.499  0.9228E+00  0.4339E+02
      2.606  0.3809E+00  0.4343E+02
      2.713  0.5763E+00  0.4349E+02
      2.820  0.4215E+00  0.4354E+02
      2.927  0.3061E+00  0.4357E+02
      3.034  0.7254E+00  0.4365E+02
      3.141  0.1028E+01  0.4376E+02
      3.248  0.5801E+00  0.4382E+02
      3.355  0.1808E-01  0.4382E+02
      3.462  0.1164E+00  0.4383E+02
      3.568  0.3911E+00  0.4388E+02
      3.675  0.3433E+00  0.4391E+02
      3.782  0.3615E+00  0.4395E+02
      3.889  0.4167E+00  0.4400E+02
      3.996  0.3362E-01  0.4400E+02
      4.103  0.8653E-05  0.4400E+02
      4.210  0.1614E-01  0.4400E+02
      4.317  0.1611E+00  0.4402E+02
      4.424  0.3769E+00  0.4406E+02
      4.531  0.4441E+00  0.4411E+02
      4.637  0.6174E+00  0.4417E+02
      4.744  0.8642E+00  0.4427E+02
      4.851  0.8390E+00  0.4435E+02
      4.958  0.8698E+00  0.4445E+02
      5.065  0.1243E+01  0.4458E+02
      5.172  0.1189E+01  0.4471E+02
      5.279  0.1581E+01  0.4488E+02
      5.386  0.2126E+01  0.4510E+02
      5.493  0.2508E+01  0.4537E+02
      5.600  0.2798E+01  0.4567E+02
      5.706  0.3279E+01  0.4602E+02
      5.813  0.3281E+01  0.4637E+02
      5.920  0.4214E+01  0.4682E+02
      6.027  0.4821E+01  0.4734E+02
      6.134  0.4103E+01  0.4778E+02
      6.241  0.4596E+01  0.4827E+02
      6.348  0.4306E+01  0.4873E+02
      6.455  0.3951E+01  0.4915E+02
      6.562  0.4532E+01  0.4964E+02
      6.669  0.3268E+01  0.4998E+02
      6.775  0.3952E+01  0.5041E+02
      6.882  0.4602E+01  0.5090E+02
      6.989  0.4599E+01  0.5139E+02
      7.096  0.4340E+01  0.5185E+02
      7.203  0.5570E+01  0.5245E+02
      7.310  0.5014E+01  0.5299E+02
      7.417  0.4490E+01  0.5347E+02
      7.524  0.4241E+01  0.5392E+02
      7.631  0.3601E+01  0.5430E+02
      7.738  0.3102E+01  0.5464E+02
      7.844  0.3035E+01  0.5496E+02
      7.951  0.2969E+01  0.5528E+02
      8.058  0.4153E+01  0.5572E+02
      8.165  0.3936E+01  0.5614E+02
      8.272  0.3756E+01  0.5654E+02
      8.379  0.4019E+01  0.5697E+02
      8.486  0.4259E+01  0.5743E+02
      8.593  0.4502E+01  0.5791E+02
      8.700  0.4307E+01  0.5837E+02
      8.807  0.5363E+01  0.5894E+02
      8.913  0.4781E+01  0.5946E+02
      9.020  0.5277E+01  0.6002E+02
      9.127  0.5228E+01  0.6058E+02
      9.234  0.5022E+01  0.6111E+02
      9.341  0.4661E+01  0.6161E+02
      9.448  0.4414E+01  0.6208E+02
      9.555  0.5087E+01  0.6263E+02
      9.662  0.5042E+01  0.6317E+02
      9.769  0.5280E+01  0.6373E+02
      9.876  0.4500E+01  0.6421E+02
      9.982  0.3700E+01  0.6461E+02
     10.089  0.5193E+01  0.6516E+02
     10.196  0.4725E+01  0.6567E+02
     10.303  0.4171E+01  0.6611E+02
     10.410  0.5321E+01  0.6668E+02
     10.517  0.5836E+01  0.6731E+02
     10.624  0.4088E+01  0.6774E+02
     10.731  0.3920E+01  0.6816E+02
     10.838  0.3287E+01  0.6852E+02
     10.945  0.4698E+01  0.6902E+02
     11.051  0.5395E+01  0.6959E+02
     11.158  0.6310E+01  0.7027E+02
     11.265  0.6009E+01  0.7091E+02
     11.372  0.5174E+01  0.7146E+02
     11.479  0.4441E+01  0.7194E+02
     11.586  0.4477E+01  0.7242E+02
     11.693  0.4992E+01  0.7295E+02
     11.800  0.4832E+01  0.7347E+02
     11.907  0.5983E+01  0.7411E+02
     12.014  0.6027E+01  0.7475E+02
     12.120  0.6070E+01  0.7540E+02
     12.227  0.5537E+01  0.7599E+02
     12.334  0.5001E+01  0.7653E+02
     12.441  0.5726E+01  0.7714E+02
     12.548  0.5966E+01  0.7778E+02
     12.655  0.5928E+01  0.7841E+02
     12.762  0.5963E+01  0.7905E+02
     12.869  0.5896E+01  0.7968E+02
     12.976  0.5629E+01  0.8028E+02
     13.083  0.6348E+01  0.8096E+02
     13.190  0.6328E+01  0.8163E+02
     13.296  0.5472E+01  0.8222E+02
     13.403  0.6119E+01  0.8287E+02
     13.510  0.5447E+01  0.8346E+02
     13.617  0.4848E+01  0.8397E+02
     13.724  0.6194E+01  0.8464E+02
     13.831  0.5517E+01  0.8523E+02
     13.938  0.5376E+01  0.8580E+02
     14.045  0.5478E+01  0.8639E+02
     14.152  0.4676E+01  0.8689E+02
     14.259  0.4974E+01  0.8742E+02
     14.365  0.4952E+01  0.8795E+02
     14.472  0.4938E+01  0.8848E+02
     14.579  0.5274E+01  0.8904E+02
     14.686  0.5207E+01  0.8960E+02
     14.793  0.4103E+01  0.9003E+02
     14.900  0.5003E+01  0.9057E+02
     15.007  0.6134E+01  0.9123E+02
     15.114  0.5715E+01  0.9184E+02
     15.221  0.5732E+01  0.9245E+02
     15.328  0.5993E+01  0.9309E+02
     15.434  0.5778E+01  0.9371E+02
     15.541  0.6023E+01  0.9435E+02
     15.648  0.4632E+01  0.9485E+02
     15.755  0.2524E+01  0.9512E+02
     15.862  0.2708E+01  0.9541E+02
     15.969  0.1840E+01  0.9560E+02
     16.076  0.1130E+01  0.9572E+02
     16.183  0.8770E+00  0.9582E+02
     16.290  0.7172E+00  0.9589E+02
     16.397  0.8178E+00  0.9598E+02
     16.503  0.1773E+00  0.9600E+02
     16.610  0.1714E-02  0.9600E+02
     16.717  0.2232E-07  0.9600E+02
     16.824  0.4616E-16  0.9600E+02
     16.931  0.0000E+00  0.9600E+02
     17.038  0.0000E+00  0.9600E+02
     17.145  0.0000E+00  0.9600E+02
     17.252  0.0000E+00  0.9600E+02
     17.359  0.0000E+00  0.9600E+02
     17.466  0.0000E+00  0.9600E+02
     17.572  0.0000E+00  0.9600E+02
     17.679  0.0000E+00  0.9600E+02
     17.786  0.0000E+00  0.9600E+02
     17.893  0.0000E+00  0.9600E+02
