<?xml version="1.0" encoding="ISO-8859-1"?>
<modeling>
 <generator>
  <i name="program" type="string">vasp </i>
  <i name="version" type="string">6.4.3  </i>
  <i name="subversion" type="string">19Mar24 (build May 31 2024 16:31:43) complex                          parallel </i>
  <i name="platform" type="string">LinuxIFC </i>
  <i name="date" type="string">2024 11 11 </i>
  <i name="time" type="string">15:58:31 </i>
 </generator>
 <incar>
  <i type="string" name="SYSTEM">Convergence</i>
  <i type="int" name="ISTART">     0</i>
  <i type="string" name="PREC">Accurate</i>
  <i type="string" name="ALGO">Normal</i>
  <i type="int" name="ISPIN">     1</i>
  <i type="int" name="ICHARG">     2</i>
  <i type="int" name="NELM">   100</i>
  <i type="int" name="IBRION">    -1</i>
  <i name="EDIFF">      0.00000100</i>
  <i name="EDIFFG">     -0.00100000</i>
  <i type="int" name="NSW">     0</i>
  <i type="int" name="ISIF">     2</i>
  <i name="ENCUT">    600.00000000</i>
  <i name="POTIM">      0.50000000</i>
  <i type="int" name="ISMEAR">     0</i>
  <i name="SIGMA">      0.05000000</i>
  <i type="logical" name="LWAVE"> F  </i>
  <i type="logical" name="LCHARG"> F  </i>
  <i type="string" name="GGA">PE</i>
 </incar>
 <primitive_cell>
  <structure name="primitive_cell" >
   <crystal>
    <varray name="basis" >
     <v>       5.70611520       0.00000000       0.00000000 </v>
     <v>       0.00000000       4.05437664       0.00000000 </v>
     <v>       0.00000000       0.00000000       6.21412672 </v>
    </varray>
    <i name="volume">    143.76220706 </i>
    <varray name="rec_basis" >
     <v>       0.17525058       0.00000000       0.00000000 </v>
     <v>       0.00000000       0.24664704       0.00000000 </v>
     <v>       0.00000000       0.00000000       0.16092366 </v>
    </varray>
   </crystal>
   <varray name="positions" >
    <v>       0.52123000       0.50000000       0.63796000 </v>
    <v>       0.47877000       0.50000000       0.36204000 </v>
    <v>       0.97877000       0.50000000       0.63796000 </v>
    <v>       0.02123000       0.50000000       0.36204000 </v>
    <v>       0.60090000       0.50000000       0.89991000 </v>
    <v>       0.39910000       0.50000000       0.10009000 </v>
    <v>       0.89910000       0.50000000       0.89991000 </v>
    <v>       0.10090000       0.50000000       0.10009000 </v>
    <v>       0.75000000       0.79171000       0.72973000 </v>
    <v>       0.25000000       0.20829000       0.27027000 </v>
    <v>       0.75000000       0.20829000       0.72973000 </v>
    <v>       0.25000000       0.79171000       0.27027000 </v>
    <v>       0.25000000       0.50000000       0.52367000 </v>
    <v>       0.75000000       0.50000000       0.47633000 </v>
   </varray>
  </structure>
  <varray name="primitive_index" >
   <v type="int" >        1 </v>
   <v type="int" >        2 </v>
   <v type="int" >        3 </v>
   <v type="int" >        4 </v>
   <v type="int" >        5 </v>
   <v type="int" >        6 </v>
   <v type="int" >        7 </v>
   <v type="int" >        8 </v>
   <v type="int" >        9 </v>
   <v type="int" >       10 </v>
   <v type="int" >       11 </v>
   <v type="int" >       12 </v>
   <v type="int" >       13 </v>
   <v type="int" >       14 </v>
  </varray>
 </primitive_cell>
 <kpoints>
  <generation param="Monkhorst-Pack">
   <v type="int" name="divisions">      10       14        9 </v>
   <v name="usershift">      0.00000000       0.00000000       0.00000000 </v>
   <v name="genvec1">      0.10000000       0.00000000       0.00000000 </v>
   <v name="genvec2">      0.00000000       0.07142857       0.00000000 </v>
   <v name="genvec3">      0.00000000       0.00000000       0.11111111 </v>
   <v name="shift">      0.50000000       0.50000000       0.00000000 </v>
  </generation>
  <varray name="kpointlist" >
   <v>       0.05000000       0.03571429       0.00000000 </v>
   <v>       0.15000000       0.03571429       0.00000000 </v>
   <v>       0.25000000       0.03571429       0.00000000 </v>
   <v>       0.35000000       0.03571429       0.00000000 </v>
   <v>       0.45000000       0.03571429       0.00000000 </v>
   <v>       0.05000000       0.10714286       0.00000000 </v>
   <v>       0.15000000       0.10714286       0.00000000 </v>
   <v>       0.25000000       0.10714286       0.00000000 </v>
   <v>       0.35000000       0.10714286       0.00000000 </v>
   <v>       0.45000000       0.10714286       0.00000000 </v>
   <v>       0.05000000       0.17857143       0.00000000 </v>
   <v>       0.15000000       0.17857143       0.00000000 </v>
   <v>       0.25000000       0.17857143       0.00000000 </v>
   <v>       0.35000000       0.17857143       0.00000000 </v>
   <v>       0.45000000       0.17857143       0.00000000 </v>
   <v>       0.05000000       0.25000000       0.00000000 </v>
   <v>       0.15000000       0.25000000       0.00000000 </v>
   <v>       0.25000000       0.25000000       0.00000000 </v>
   <v>       0.35000000       0.25000000       0.00000000 </v>
   <v>       0.45000000       0.25000000       0.00000000 </v>
   <v>       0.05000000       0.32142857       0.00000000 </v>
   <v>       0.15000000       0.32142857       0.00000000 </v>
   <v>       0.25000000       0.32142857       0.00000000 </v>
   <v>       0.35000000       0.32142857       0.00000000 </v>
   <v>       0.45000000       0.32142857       0.00000000 </v>
   <v>       0.05000000       0.39285714       0.00000000 </v>
   <v>       0.15000000       0.39285714       0.00000000 </v>
   <v>       0.25000000       0.39285714       0.00000000 </v>
   <v>       0.35000000       0.39285714       0.00000000 </v>
   <v>       0.45000000       0.39285714       0.00000000 </v>
   <v>       0.05000000       0.46428571       0.00000000 </v>
   <v>       0.15000000       0.46428571       0.00000000 </v>
   <v>       0.25000000       0.46428571       0.00000000 </v>
   <v>       0.35000000       0.46428571       0.00000000 </v>
   <v>       0.45000000       0.46428571       0.00000000 </v>
   <v>       0.05000000       0.03571429       0.11111111 </v>
   <v>       0.15000000       0.03571429       0.11111111 </v>
   <v>       0.25000000       0.03571429       0.11111111 </v>
   <v>       0.35000000       0.03571429       0.11111111 </v>
   <v>       0.45000000       0.03571429       0.11111111 </v>
   <v>       0.05000000       0.10714286       0.11111111 </v>
   <v>       0.15000000       0.10714286       0.11111111 </v>
   <v>       0.25000000       0.10714286       0.11111111 </v>
   <v>       0.35000000       0.10714286       0.11111111 </v>
   <v>       0.45000000       0.10714286       0.11111111 </v>
   <v>       0.05000000       0.17857143       0.11111111 </v>
   <v>       0.15000000       0.17857143       0.11111111 </v>
   <v>       0.25000000       0.17857143       0.11111111 </v>
   <v>       0.35000000       0.17857143       0.11111111 </v>
   <v>       0.45000000       0.17857143       0.11111111 </v>
   <v>       0.05000000       0.25000000       0.11111111 </v>
   <v>       0.15000000       0.25000000       0.11111111 </v>
   <v>       0.25000000       0.25000000       0.11111111 </v>
   <v>       0.35000000       0.25000000       0.11111111 </v>
   <v>       0.45000000       0.25000000       0.11111111 </v>
   <v>       0.05000000       0.32142857       0.11111111 </v>
   <v>       0.15000000       0.32142857       0.11111111 </v>
   <v>       0.25000000       0.32142857       0.11111111 </v>
   <v>       0.35000000       0.32142857       0.11111111 </v>
   <v>       0.45000000       0.32142857       0.11111111 </v>
   <v>       0.05000000       0.39285714       0.11111111 </v>
   <v>       0.15000000       0.39285714       0.11111111 </v>
   <v>       0.25000000       0.39285714       0.11111111 </v>
   <v>       0.35000000       0.39285714       0.11111111 </v>
   <v>       0.45000000       0.39285714       0.11111111 </v>
   <v>       0.05000000       0.46428571       0.11111111 </v>
   <v>       0.15000000       0.46428571       0.11111111 </v>
   <v>       0.25000000       0.46428571       0.11111111 </v>
   <v>       0.35000000       0.46428571       0.11111111 </v>
   <v>       0.45000000       0.46428571       0.11111111 </v>
   <v>       0.05000000       0.03571429       0.22222222 </v>
   <v>       0.15000000       0.03571429       0.22222222 </v>
   <v>       0.25000000       0.03571429       0.22222222 </v>
   <v>       0.35000000       0.03571429       0.22222222 </v>
   <v>       0.45000000       0.03571429       0.22222222 </v>
   <v>       0.05000000       0.10714286       0.22222222 </v>
   <v>       0.15000000       0.10714286       0.22222222 </v>
   <v>       0.25000000       0.10714286       0.22222222 </v>
   <v>       0.35000000       0.10714286       0.22222222 </v>
   <v>       0.45000000       0.10714286       0.22222222 </v>
   <v>       0.05000000       0.17857143       0.22222222 </v>
   <v>       0.15000000       0.17857143       0.22222222 </v>
   <v>       0.25000000       0.17857143       0.22222222 </v>
   <v>       0.35000000       0.17857143       0.22222222 </v>
   <v>       0.45000000       0.17857143       0.22222222 </v>
   <v>       0.05000000       0.25000000       0.22222222 </v>
   <v>       0.15000000       0.25000000       0.22222222 </v>
   <v>       0.25000000       0.25000000       0.22222222 </v>
   <v>       0.35000000       0.25000000       0.22222222 </v>
   <v>       0.45000000       0.25000000       0.22222222 </v>
   <v>       0.05000000       0.32142857       0.22222222 </v>
   <v>       0.15000000       0.32142857       0.22222222 </v>
   <v>       0.25000000       0.32142857       0.22222222 </v>
   <v>       0.35000000       0.32142857       0.22222222 </v>
   <v>       0.45000000       0.32142857       0.22222222 </v>
   <v>       0.05000000       0.39285714       0.22222222 </v>
   <v>       0.15000000       0.39285714       0.22222222 </v>
   <v>       0.25000000       0.39285714       0.22222222 </v>
   <v>       0.35000000       0.39285714       0.22222222 </v>
   <v>       0.45000000       0.39285714       0.22222222 </v>
   <v>       0.05000000       0.46428571       0.22222222 </v>
   <v>       0.15000000       0.46428571       0.22222222 </v>
   <v>       0.25000000       0.46428571       0.22222222 </v>
   <v>       0.35000000       0.46428571       0.22222222 </v>
   <v>       0.45000000       0.46428571       0.22222222 </v>
   <v>       0.05000000       0.03571429       0.33333333 </v>
   <v>       0.15000000       0.03571429       0.33333333 </v>
   <v>       0.25000000       0.03571429       0.33333333 </v>
   <v>       0.35000000       0.03571429       0.33333333 </v>
   <v>       0.45000000       0.03571429       0.33333333 </v>
   <v>       0.05000000       0.10714286       0.33333333 </v>
   <v>       0.15000000       0.10714286       0.33333333 </v>
   <v>       0.25000000       0.10714286       0.33333333 </v>
   <v>       0.35000000       0.10714286       0.33333333 </v>
   <v>       0.45000000       0.10714286       0.33333333 </v>
   <v>       0.05000000       0.17857143       0.33333333 </v>
   <v>       0.15000000       0.17857143       0.33333333 </v>
   <v>       0.25000000       0.17857143       0.33333333 </v>
   <v>       0.35000000       0.17857143       0.33333333 </v>
   <v>       0.45000000       0.17857143       0.33333333 </v>
   <v>       0.05000000       0.25000000       0.33333333 </v>
   <v>       0.15000000       0.25000000       0.33333333 </v>
   <v>       0.25000000       0.25000000       0.33333333 </v>
   <v>       0.35000000       0.25000000       0.33333333 </v>
   <v>       0.45000000       0.25000000       0.33333333 </v>
   <v>       0.05000000       0.32142857       0.33333333 </v>
   <v>       0.15000000       0.32142857       0.33333333 </v>
   <v>       0.25000000       0.32142857       0.33333333 </v>
   <v>       0.35000000       0.32142857       0.33333333 </v>
   <v>       0.45000000       0.32142857       0.33333333 </v>
   <v>       0.05000000       0.39285714       0.33333333 </v>
   <v>       0.15000000       0.39285714       0.33333333 </v>
   <v>       0.25000000       0.39285714       0.33333333 </v>
   <v>       0.35000000       0.39285714       0.33333333 </v>
   <v>       0.45000000       0.39285714       0.33333333 </v>
   <v>       0.05000000       0.46428571       0.33333333 </v>
   <v>       0.15000000       0.46428571       0.33333333 </v>
   <v>       0.25000000       0.46428571       0.33333333 </v>
   <v>       0.35000000       0.46428571       0.33333333 </v>
   <v>       0.45000000       0.46428571       0.33333333 </v>
   <v>       0.05000000       0.03571429       0.44444444 </v>
   <v>       0.15000000       0.03571429       0.44444444 </v>
   <v>       0.25000000       0.03571429       0.44444444 </v>
   <v>       0.35000000       0.03571429       0.44444444 </v>
   <v>       0.45000000       0.03571429       0.44444444 </v>
   <v>       0.05000000       0.10714286       0.44444444 </v>
   <v>       0.15000000       0.10714286       0.44444444 </v>
   <v>       0.25000000       0.10714286       0.44444444 </v>
   <v>       0.35000000       0.10714286       0.44444444 </v>
   <v>       0.45000000       0.10714286       0.44444444 </v>
   <v>       0.05000000       0.17857143       0.44444444 </v>
   <v>       0.15000000       0.17857143       0.44444444 </v>
   <v>       0.25000000       0.17857143       0.44444444 </v>
   <v>       0.35000000       0.17857143       0.44444444 </v>
   <v>       0.45000000       0.17857143       0.44444444 </v>
   <v>       0.05000000       0.25000000       0.44444444 </v>
   <v>       0.15000000       0.25000000       0.44444444 </v>
   <v>       0.25000000       0.25000000       0.44444444 </v>
   <v>       0.35000000       0.25000000       0.44444444 </v>
   <v>       0.45000000       0.25000000       0.44444444 </v>
   <v>       0.05000000       0.32142857       0.44444444 </v>
   <v>       0.15000000       0.32142857       0.44444444 </v>
   <v>       0.25000000       0.32142857       0.44444444 </v>
   <v>       0.35000000       0.32142857       0.44444444 </v>
   <v>       0.45000000       0.32142857       0.44444444 </v>
   <v>       0.05000000       0.39285714       0.44444444 </v>
   <v>       0.15000000       0.39285714       0.44444444 </v>
   <v>       0.25000000       0.39285714       0.44444444 </v>
   <v>       0.35000000       0.39285714       0.44444444 </v>
   <v>       0.45000000       0.39285714       0.44444444 </v>
   <v>       0.05000000       0.46428571       0.44444444 </v>
   <v>       0.15000000       0.46428571       0.44444444 </v>
   <v>       0.25000000       0.46428571       0.44444444 </v>
   <v>       0.35000000       0.46428571       0.44444444 </v>
   <v>       0.45000000       0.46428571       0.44444444 </v>
  </varray>
  <varray name="weights" >
   <v>       0.00317460 </v>
   <v>       0.00317460 </v>
   <v>       0.00317460 </v>
   <v>       0.00317460 </v>
   <v>       0.00317460 </v>
   <v>       0.00317460 </v>
   <v>       0.00317460 </v>
   <v>       0.00317460 </v>
   <v>       0.00317460 </v>
   <v>       0.00317460 </v>
   <v>       0.00317460 </v>
   <v>       0.00317460 </v>
   <v>       0.00317460 </v>
   <v>       0.00317460 </v>
   <v>       0.00317460 </v>
   <v>       0.00317460 </v>
   <v>       0.00317460 </v>
   <v>       0.00317460 </v>
   <v>       0.00317460 </v>
   <v>       0.00317460 </v>
   <v>       0.00317460 </v>
   <v>       0.00317460 </v>
   <v>       0.00317460 </v>
   <v>       0.00317460 </v>
   <v>       0.00317460 </v>
   <v>       0.00317460 </v>
   <v>       0.00317460 </v>
   <v>       0.00317460 </v>
   <v>       0.00317460 </v>
   <v>       0.00317460 </v>
   <v>       0.00317460 </v>
   <v>       0.00317460 </v>
   <v>       0.00317460 </v>
   <v>       0.00317460 </v>
   <v>       0.00317460 </v>
   <v>       0.00634921 </v>
   <v>       0.00634921 </v>
   <v>       0.00634921 </v>
   <v>       0.00634921 </v>
   <v>       0.00634921 </v>
   <v>       0.00634921 </v>
   <v>       0.00634921 </v>
   <v>       0.00634921 </v>
   <v>       0.00634921 </v>
   <v>       0.00634921 </v>
   <v>       0.00634921 </v>
   <v>       0.00634921 </v>
   <v>       0.00634921 </v>
   <v>       0.00634921 </v>
   <v>       0.00634921 </v>
   <v>       0.00634921 </v>
   <v>       0.00634921 </v>
   <v>       0.00634921 </v>
   <v>       0.00634921 </v>
   <v>       0.00634921 </v>
   <v>       0.00634921 </v>
   <v>       0.00634921 </v>
   <v>       0.00634921 </v>
   <v>       0.00634921 </v>
   <v>       0.00634921 </v>
   <v>       0.00634921 </v>
   <v>       0.00634921 </v>
   <v>       0.00634921 </v>
   <v>       0.00634921 </v>
   <v>       0.00634921 </v>
   <v>       0.00634921 </v>
   <v>       0.00634921 </v>
   <v>       0.00634921 </v>
   <v>       0.00634921 </v>
   <v>       0.00634921 </v>
   <v>       0.00634921 </v>
   <v>       0.00634921 </v>
   <v>       0.00634921 </v>
   <v>       0.00634921 </v>
   <v>       0.00634921 </v>
   <v>       0.00634921 </v>
   <v>       0.00634921 </v>
   <v>       0.00634921 </v>
   <v>       0.00634921 </v>
   <v>       0.00634921 </v>
   <v>       0.00634921 </v>
   <v>       0.00634921 </v>
   <v>       0.00634921 </v>
   <v>       0.00634921 </v>
   <v>       0.00634921 </v>
   <v>       0.00634921 </v>
   <v>       0.00634921 </v>
   <v>       0.00634921 </v>
   <v>       0.00634921 </v>
   <v>       0.00634921 </v>
   <v>       0.00634921 </v>
   <v>       0.00634921 </v>
   <v>       0.00634921 </v>
   <v>       0.00634921 </v>
   <v>       0.00634921 </v>
   <v>       0.00634921 </v>
   <v>       0.00634921 </v>
   <v>       0.00634921 </v>
   <v>       0.00634921 </v>
   <v>       0.00634921 </v>
   <v>       0.00634921 </v>
   <v>       0.00634921 </v>
   <v>       0.00634921 </v>
   <v>       0.00634921 </v>
   <v>       0.00634921 </v>
   <v>       0.00634921 </v>
   <v>       0.00634921 </v>
   <v>       0.00634921 </v>
   <v>       0.00634921 </v>
   <v>       0.00634921 </v>
   <v>       0.00634921 </v>
   <v>       0.00634921 </v>
   <v>       0.00634921 </v>
   <v>       0.00634921 </v>
   <v>       0.00634921 </v>
   <v>       0.00634921 </v>
   <v>       0.00634921 </v>
   <v>       0.00634921 </v>
   <v>       0.00634921 </v>
   <v>       0.00634921 </v>
   <v>       0.00634921 </v>
   <v>       0.00634921 </v>
   <v>       0.00634921 </v>
   <v>       0.00634921 </v>
   <v>       0.00634921 </v>
   <v>       0.00634921 </v>
   <v>       0.00634921 </v>
   <v>       0.00634921 </v>
   <v>       0.00634921 </v>
   <v>       0.00634921 </v>
   <v>       0.00634921 </v>
   <v>       0.00634921 </v>
   <v>       0.00634921 </v>
   <v>       0.00634921 </v>
   <v>       0.00634921 </v>
   <v>       0.00634921 </v>
   <v>       0.00634921 </v>
   <v>       0.00634921 </v>
   <v>       0.00634921 </v>
   <v>       0.00634921 </v>
   <v>       0.00634921 </v>
   <v>       0.00634921 </v>
   <v>       0.00634921 </v>
   <v>       0.00634921 </v>
   <v>       0.00634921 </v>
   <v>       0.00634921 </v>
   <v>       0.00634921 </v>
   <v>       0.00634921 </v>
   <v>       0.00634921 </v>
   <v>       0.00634921 </v>
   <v>       0.00634921 </v>
   <v>       0.00634921 </v>
   <v>       0.00634921 </v>
   <v>       0.00634921 </v>
   <v>       0.00634921 </v>
   <v>       0.00634921 </v>
   <v>       0.00634921 </v>
   <v>       0.00634921 </v>
   <v>       0.00634921 </v>
   <v>       0.00634921 </v>
   <v>       0.00634921 </v>
   <v>       0.00634921 </v>
   <v>       0.00634921 </v>
   <v>       0.00634921 </v>
   <v>       0.00634921 </v>
   <v>       0.00634921 </v>
   <v>       0.00634921 </v>
   <v>       0.00634921 </v>
   <v>       0.00634921 </v>
   <v>       0.00634921 </v>
   <v>       0.00634921 </v>
   <v>       0.00634921 </v>
   <v>       0.00634921 </v>
   <v>       0.00634921 </v>
   <v>       0.00634921 </v>
  </varray>
 </kpoints>
 <parameters>
  <separator name="general" >
   <i type="string" name="SYSTEM">Convergence</i>
   <i type="logical" name="LCOMPAT"> F  </i>
  </separator>
  <separator name="electronic" >
   <i type="string" name="PREC">accura</i>
   <i name="ENMAX">    600.00000000</i>
   <i name="ENAUG">    535.51400000</i>
   <i name="EDIFF">      0.00000100</i>
   <i type="int" name="IALGO">    38</i>
   <i type="int" name="IWAVPR">    10</i>
   <i type="int" name="NBANDS">    48</i>
   <i type="int" name="NBANDSLOW">    -1</i>
   <i type="int" name="NBANDSHIGH">    -1</i>
   <i name="NELECT">     42.00000000</i>
   <i type="int" name="TURBO">     0</i>
   <i type="int" name="IRESTART">     0</i>
   <i type="int" name="NREBOOT">     0</i>
   <i type="int" name="NMIN">     0</i>
   <i name="EREF">      0.00000000</i>
   <separator name="electronic smearing" >
    <i type="int" name="ISMEAR">     0</i>
    <i name="SIGMA">      0.05000000</i>
    <i name="KSPACING">      0.50000000</i>
    <i type="logical" name="KGAMMA"> T  </i>
    <i type="logical" name="KBLOWUP"> T  </i>
   </separator>
   <separator name="electronic projectors" >
    <i type="logical" name="LREAL"> F  </i>
    <v name="ROPT">      0.00000000</v>
    <i type="int" name="LMAXPAW">  -100</i>
    <i type="int" name="LMAXMIX">     2</i>
    <i type="logical" name="NLSPLINE"> F  </i>
   </separator>
   <separator name="electronic startup" >
    <i type="int" name="ISTART">     0</i>
    <i type="int" name="ICHARG">     2</i>
    <i type="int" name="INIWAV">     1</i>
   </separator>
   <separator name="electronic spin" >
    <i type="int" name="ISPIN">     1</i>
    <i type="logical" name="LNONCOLLINEAR"> F  </i>
    <v name="MAGMOM">      1.00000000      1.00000000      1.00000000      1.00000000      1.00000000      1.00000000      1.00000000      1.00000000      1.00000000      1.00000000      1.00000000      1.00000000      1.00000000      1.00000000</v>
    <i name="NUPDOWN">     -1.00000000</i>
    <i type="logical" name="LSORBIT"> F  </i>
    <v name="SAXIS">      0.00000000      0.00000000      1.00000000</v>
    <i type="logical" name="LSPIRAL"> F  </i>
    <v name="QSPIRAL">      0.00000000      0.00000000      0.00000000</v>
    <i type="logical" name="LZEROZ"> F  </i>
   </separator>
   <separator name="electronic exchange-correlation" >
    <i type="logical" name="LASPH"> F  </i>
   </separator>
   <separator name="electronic convergence" >
    <i type="int" name="NELM">   100</i>
    <i type="int" name="NELMDL">    -5</i>
    <i type="int" name="NELMIN">     2</i>
    <i name="ENINI">    600.00000000</i>
    <separator name="electronic convergence detail" >
     <i type="logical" name="LDIAG"> T  </i>
     <i type="logical" name="LSUBROT"> F  </i>
     <i name="WEIMIN">      0.00000000</i>
     <i name="EBREAK">      0.00000001</i>
     <i name="DEPER">      0.30000000</i>
     <i type="int" name="NRMM">     4</i>
     <i name="TIME">      0.40000000</i>
    </separator>
   </separator>
   <separator name="electronic mixer" >
    <i name="AMIX">      0.40000000</i>
    <i name="BMIX">      1.00000000</i>
    <i name="AMIN">      0.10000000</i>
    <i name="AMIX_MAG">      1.60000000</i>
    <i name="BMIX_MAG">      1.00000000</i>
    <separator name="electronic mixer details" >
     <i type="int" name="IMIX">     4</i>
     <i type="logical" name="MIXFIRST"> F  </i>
     <i type="int" name="MAXMIX">   -45</i>
     <i name="WC">    100.00000000</i>
     <i type="int" name="INIMIX">     1</i>
     <i type="int" name="MIXPRE">     1</i>
     <i type="int" name="MREMOVE">     5</i>
    </separator>
   </separator>
   <separator name="electronic dipolcorrection" >
    <i type="logical" name="LDIPOL"> F  </i>
    <i type="logical" name="LMONO"> F  </i>
    <i type="int" name="IDIPOL">     0</i>
    <i name="EPSILON">      1.00000000</i>
    <v name="DIPOL">   -100.00000000   -100.00000000   -100.00000000</v>
    <i name="EFIELD">      0.00000000</i>
    <i type="logical" name="LVACPOTAV"> F  </i>
   </separator>
  </separator>
  <separator name="grids" >
   <i type="int" name="NGX">    48</i>
   <i type="int" name="NGY">    32</i>
   <i type="int" name="NGZ">    50</i>
   <i type="int" name="NGXF">    96</i>
   <i type="int" name="NGYF">    64</i>
   <i type="int" name="NGZF">   100</i>
   <i type="logical" name="ADDGRID"> F  </i>
  </separator>
  <separator name="ionic" >
   <i type="int" name="NSW">     0</i>
   <i type="int" name="IBRION">    -1</i>
   <i type="int" name="MDALGO">     0</i>
   <i type="int" name="ISIF">     2</i>
   <i name="PSTRESS">      0.00000000</i>
   <i name="EDIFFG">     -0.00100000</i>
   <i type="int" name="NFREE">     0</i>
   <i name="POTIM">      0.50000000</i>
   <i name="SMASS">     -3.00000000</i>
   <i name="SCALEE">      1.00000000</i>
  </separator>
  <separator name="ionic md" >
   <i name="TEBEG">      0.00010000</i>
   <i name="TEEND">      0.00010000</i>
   <i type="int" name="NBLOCK">     1</i>
   <i type="int" name="KBLOCK">     1</i>
   <i type="int" name="NPACO">   256</i>
   <i name="APACO">     10.00000000</i>
  </separator>
  <separator name="symmetry" >
   <i type="int" name="ISYM">     2</i>
   <i name="SYMPREC">      0.00001000</i>
  </separator>
  <separator name="dos" >
   <i type="int" name="LORBIT">     0</i>
   <v name="RWIGS">     -1.00000000</v>
   <i type="int" name="NEDOS">   301</i>
   <i name="EMIN">     10.00000000</i>
   <i name="EMAX">    -10.00000000</i>
   <i name="EFERMI">      0.00000000</i>
  </separator>
  <separator name="writing" >
   <i type="int" name="NWRITE">     2</i>
   <i type="logical" name="LWAVE"> F  </i>
   <i type="logical" name="LDOWNSAMPLE"> F  </i>
   <i type="logical" name="LCHARG"> F  </i>
   <i type="logical" name="LPARD"> F  </i>
   <i type="logical" name="LVTOT"> F  </i>
   <i type="logical" name="LVHAR"> F  </i>
   <i type="logical" name="LELF"> F  </i>
   <i type="logical" name="LOPTICS"> F  </i>
   <v name="STM">      0.00000000      0.00000000      0.00000000      0.00000000      0.00000000      0.00000000      0.00000000</v>
  </separator>
  <separator name="performance" >
   <i type="int" name="NPAR">    24</i>
   <i type="int" name="NSIM">     4</i>
   <i type="int" name="NBLK">    -1</i>
   <i type="logical" name="LPLANE"> T  </i>
   <i type="logical" name="LSCALAPACK"> T  </i>
   <i type="logical" name="LSCAAWARE"> F  </i>
   <i type="logical" name="LSCALU"> F  </i>
   <i type="logical" name="LASYNC"> F  </i>
   <i type="logical" name="LORBITALREAL"> F  </i>
  </separator>
  <separator name="miscellaneous" >
   <i type="int" name="IDIOT">     3</i>
   <i type="int" name="PHON_NSTRUCT">    -1</i>
   <i type="logical" name="LMUSIC"> F  </i>
   <v name="POMASS">     10.81100000</v>
   <v name="DARWINR">      0.00000000</v>
   <v name="DARWINV">      1.00000000</v>
   <i type="logical" name="LCORR"> T  </i>
  </separator>
  <i type="logical" name="GGA_COMPAT"> T  </i>
  <i type="logical" name="LBERRY"> F  </i>
  <i type="int" name="ICORELEVEL">     0</i>
  <i type="logical" name="LDAU"> F  </i>
  <i type="int" name="I_CONSTRAINED_M">     0</i>
  <separator name="electronic exchange-correlation" >
   <i type="string" name="GGA    ">PE</i>
   <i type="string" name="XC_C">1</i>
   <i type="int" name="VOSKOWN">     0</i>
   <i type="logical" name="LHFCALC"> F  </i>
   <i type="string" name="PRECFOCK"></i>
   <i type="logical" name="LSYMGRAD"> F  </i>
   <i type="logical" name="LHFONE"> F  </i>
   <i type="logical" name="LRHFCALC"> F  </i>
   <i type="logical" name="LTHOMAS"> F  </i>
   <i type="logical" name="LMODELHF"> F  </i>
   <i type="logical" name="LFOCKACE"> F  </i>
   <i name="ENCUT4O">     -1.00000000</i>
   <i type="int" name="EXXOEP">     0</i>
   <i type="int" name="FOURORBIT">     0</i>
   <i name="AEXX">      0.00000000</i>
   <i name="HFALPHA">      0.00000000</i>
   <i name="MCALPHA">      0.00000000</i>
   <i name="ALDAX">      1.00000000</i>
   <i name="AGGAX">      1.00000000</i>
   <i name="AMGGAX">      1.00000000</i>
   <i name="ALDAC">      1.00000000</i>
   <i name="AGGAC">      1.00000000</i>
   <i name="AMGGAC">      1.00000000</i>
   <i type="int" name="NKREDX">     1</i>
   <i type="int" name="NKREDY">     1</i>
   <i type="int" name="NKREDZ">     1</i>
   <i type="logical" name="SHIFTRED"> F  </i>
   <i type="logical" name="ODDONLY"> F  </i>
   <i type="logical" name="EVENONLY"> F  </i>
   <i type="int" name="LMAXFOCK">     0</i>
   <i type="int" name="NMAXFOCKAE">     0</i>
   <i type="logical" name="LFOCKAEDFT"> F  </i>
   <i name="HFSCREEN">      0.00000000</i>
   <i name="HFSCREENC">      0.00000000</i>
   <i type="int" name="NBANDSGWLOW">     0</i>
  </separator>
  <separator name="vdW DFT" >
   <i type="logical" name="LUSE_VDW"> F  </i>
   <i type="int" name="IVDW_NL">    -1</i>
   <i type="logical" name="LSPIN_VDW"> F  </i>
   <i name="ZAB_VDW">     -0.84910000</i>
   <i name="GAMMA_VDW">      1.39626340</i>
   <i name="ALPHA_VDW">      0.00000000</i>
   <i name="PARAM1">      0.12340000</i>
   <i name="PARAM2">      1.00000000</i>
   <i name="BPARAM">      6.30000000</i>
   <i name="CPARAM">      0.00930000</i>
  </separator>
  <separator name="model GW" >
   <i type="int" name="MODEL_GW">     0</i>
   <i name="MODEL_EPS0">      6.16123745</i>
   <i name="MODEL_ALPHA">      1.00000000</i>
  </separator>
  <separator name="linear response parameters" >
   <i type="logical" name="LEPSILON"> F  </i>
   <i type="logical" name="LRPA"> F  </i>
   <i type="logical" name="LNABLA"> F  </i>
   <i type="logical" name="LVEL"> F  </i>
   <i name="CSHIFT">      0.10000000</i>
   <i name="OMEGAMAX">     -1.00000000</i>
   <i name="DEG_THRESHOLD">      0.00200000</i>
   <i name="RTIME">     -0.10000000</i>
   <i name="WPLASMAI">      0.00000000</i>
   <v name="DFIELD">      0.00000000      0.00000000      0.00000000</v>
   <v name="WPLASMA">      0.00000000      0.00000000      0.00000000      0.00000000      0.00000000      0.00000000      0.00000000      0.00000000      0.00000000</v>
  </separator>
  <separator name="orbital magnetization" >
   <i type="logical" name="NUCIND"> F  </i>
   <v name="MAGPOS">      0.00000000      0.00000000      0.00000000</v>
   <i type="logical" name="LNICSALL"> T  </i>
   <i type="logical" name="ORBITALMAG"> F  </i>
   <i type="logical" name="LMAGBLOCH"> F  </i>
   <i type="logical" name="LCHIMAG"> F  </i>
   <i type="logical" name="LGAUGE"> T  </i>
   <i type="int" name="MAGATOM">     0</i>
   <v name="MAGDIPOL">      0.00000000      0.00000000      0.00000000</v>
   <v name="AVECCONST">      0.00000000      0.00000000      0.00000000</v>
  </separator>
  <separator name="response functions" >
   <i type="logical" name="LALL_IN_ONE"> F  </i>
   <i type="int" name="IALL_IN_ONE">    -1</i>
   <i type="int" name="NBANDS_WAVE">    -1</i>
   <i type="logical" name="LFINITE_TEMPERATURE"> F  </i>
   <i type="logical" name="LADDER"> F  </i>
   <i type="logical" name="LRPAFORCE"> F  </i>
   <i type="logical" name="LFXC"> F  </i>
   <i type="logical" name="LHARTREE"> T  </i>
   <i type="int" name="IBSE">     0</i>
   <v type="int" name="KPOINT">    -1     0     0     0</v>
   <i type="logical" name="LTCTC"> F  </i>
   <i type="logical" name="LTCTE"> F  </i>
   <i type="logical" name="LTETE"> F  </i>
   <i type="logical" name="LTRIPLET"> F  </i>
   <i type="logical" name="LFXCEPS"> F  </i>
   <i type="logical" name="LFXHEG"> F  </i>
   <i type="int" name="NATURALO">     2</i>
   <i type="logical" name="LHOLEGF"> F  </i>
   <i type="logical" name="L2ORDER"> F  </i>
   <i type="logical" name="LDMP1"> F  </i>
   <i type="logical" name="LMP2LT"> F  </i>
   <i type="logical" name="LSMP2LT"> F  </i>
   <i type="logical" name="LGWLF"> F  </i>
   <i name="ENCUTGW">     -1.60000002</i>
   <i name="ENCUTGWSOFT">     -1.60000002</i>
   <i name="ENCUTLF">     -1.00000000</i>
   <i type="logical" name="ESF_SPLINES"> F  </i>
   <i name="ESF_CONV">      0.01000000</i>
   <i type="int" name="ESF_NINTER">    15</i>
   <i type="int" name="LMAXMP2">    -1</i>
   <i name="SCISSOR">      0.00000000</i>
   <i type="int" name="NOMEGA">     0</i>
   <i type="int" name="NOMEGAR">     0</i>
   <i type="int" name="NBANDSGW">    -1</i>
   <i type="int" name="NBANDSO">    -1</i>
   <i type="int" name="NBANDSV">    -1</i>
   <i type="int" name="NELMGW">     1</i>
   <i type="int" name="NELMHF">     1</i>
   <i type="int" name="DIM">     3</i>
   <i type="int" name="IESPILON">     4</i>
   <i type="int" name="ANTIRES">     0</i>
   <i name="OMEGAMAX">    -30.00000000</i>
   <i name="OMEGAMIN">    -30.00000000</i>
   <i name="OMEGATL">   -200.00000000</i>
   <i type="int" name="OMEGAGRID">     0</i>
   <i name="CSHIFT">     -0.10000000</i>
   <i type="logical" name="LSELFENERGY"> F  </i>
   <i type="logical" name="LSPECTRAL"> F  </i>
   <i type="logical" name="LSPECTRALGW"> F  </i>
   <i type="logical" name="LSINGLES"> F  </i>
   <i type="logical" name="LFERMIGW"> F  </i>
   <i type="logical" name="ODDONLYGW"> F  </i>
   <i type="logical" name="EVENONLYGW"> F  </i>
   <i type="int" name="NKREDLFX">     1</i>
   <i type="int" name="NKREDLFY">     1</i>
   <i type="int" name="NKREDLFZ">     1</i>
   <i type="int" name="MAXMEM">  2800</i>
   <i type="int" name="TELESCOPE">     0</i>
   <i type="int" name="NTAUPAR">    -1</i>
   <i type="int" name="NOMEGAPAR">    -1</i>
   <i name="DAMP_NEWTON">      0.80000001</i>
   <i name="LAMBDA">      1.00000000</i>
  </separator>
  <separator name="External order field" >
   <i name="OFIELD_KAPPA">      0.00000000</i>
   <v name="OFIELD_K">      0.00000000      0.00000000      0.00000000</v>
   <i name="OFIELD_Q6_NEAR">      0.00000000</i>
   <i name="OFIELD_Q6_FAR">      0.00000000</i>
   <i name="OFIELD_A">      0.00000000</i>
  </separator>
  <separator name="optional k-points parameters" >
   <i type="int" name="KPOINTS_OPT_MODE">     1</i>
   <i type="logical" name="LKPOINTS_OPT"> F  </i>
  </separator>
 </parameters>
 <atominfo>
  <atoms>      14 </atoms>
  <types>       1 </types>
  <array name="atoms" >
   <dimension dim="1">ion</dimension>
   <field type="string">element</field>
   <field type="int">atomtype</field>
   <set>
    <rc><c>B </c><c>   1</c></rc>
    <rc><c>B </c><c>   1</c></rc>
    <rc><c>B </c><c>   1</c></rc>
    <rc><c>B </c><c>   1</c></rc>
    <rc><c>B </c><c>   1</c></rc>
    <rc><c>B </c><c>   1</c></rc>
    <rc><c>B </c><c>   1</c></rc>
    <rc><c>B </c><c>   1</c></rc>
    <rc><c>B </c><c>   1</c></rc>
    <rc><c>B </c><c>   1</c></rc>
    <rc><c>B </c><c>   1</c></rc>
    <rc><c>B </c><c>   1</c></rc>
    <rc><c>B </c><c>   1</c></rc>
    <rc><c>B </c><c>   1</c></rc>
   </set>
  </array>
  <array name="atomtypes" >
   <dimension dim="1">type</dimension>
   <field type="int">atomspertype</field>
   <field type="string">element</field>
   <field>mass</field>
   <field>valence</field>
   <field type="string">pseudopotential</field>
   <set>
    <rc><c>  14</c><c>B </c><c>     10.81100000</c><c>      3.00000000</c><c>  PAW_PBE B 06Sep2000                   </c></rc>
   </set>
  </array>
 </atominfo>
 <structure name="initialpos" >
  <crystal>
   <varray name="basis" >
    <v>       5.70611520       0.00000000       0.00000000 </v>
    <v>       0.00000000       4.05437664       0.00000000 </v>
    <v>       0.00000000       0.00000000       6.21412672 </v>
   </varray>
   <i name="volume">    143.76220706 </i>
   <varray name="rec_basis" >
    <v>       0.17525058       0.00000000       0.00000000 </v>
    <v>       0.00000000       0.24664704       0.00000000 </v>
    <v>       0.00000000       0.00000000       0.16092366 </v>
   </varray>
  </crystal>
  <varray name="positions" >
   <v>       0.52123000       0.50000000       0.63796000 </v>
   <v>       0.47877000       0.50000000       0.36204000 </v>
   <v>       0.97877000       0.50000000       0.63796000 </v>
   <v>       0.02123000       0.50000000       0.36204000 </v>
   <v>       0.60090000       0.50000000       0.89991000 </v>
   <v>       0.39910000       0.50000000       0.10009000 </v>
   <v>       0.89910000       0.50000000       0.89991000 </v>
   <v>       0.10090000       0.50000000       0.10009000 </v>
   <v>       0.75000000       0.79171000       0.72973000 </v>
   <v>       0.25000000       0.20829000       0.27027000 </v>
   <v>       0.75000000       0.20829000       0.72973000 </v>
   <v>       0.25000000       0.79171000       0.27027000 </v>
   <v>       0.25000000       0.50000000       0.52367000 </v>
   <v>       0.75000000       0.50000000       0.47633000 </v>
  </varray>
 </structure>
 <calculation>
  <scstep>
   <time name="dav">    5.59    5.59</time>
   <time name="total">    5.61    5.61</time>
   <energy>
    <i name="alphaZ">     93.79265446 </i>
    <i name="ewald">   -794.49538829 </i>
    <i name="hartreedc">   -271.81348379 </i>
    <i name="XCdc">     97.37988927 </i>
    <i name="pawpsdc">    608.99811708 </i>
    <i name="pawaedc">   -597.02363782 </i>
    <i name="eentropy">     -0.00208999 </i>
    <i name="bandstr">    -54.56173976 </i>
    <i name="atom">    996.37441054 </i>
    <i name="e_fr_energy">     78.64873171 </i>
    <i name="e_wo_entrp">     78.65082170 </i>
    <i name="e_0_energy">     78.64977670 </i>
   </energy>
  </scstep>
  <scstep>
   <time name="dav">    7.33    7.33</time>
   <time name="total">    7.33    7.33</time>
   <energy>
    <i name="e_fr_energy">    -91.68301552 </i>
    <i name="e_wo_entrp">    -91.67985772 </i>
    <i name="e_0_energy">    -91.68143662 </i>
   </energy>
  </scstep>
  <scstep>
   <time name="dav">    7.93    7.93</time>
   <time name="total">    7.93    7.93</time>
   <energy>
    <i name="e_fr_energy">    -97.51867034 </i>
    <i name="e_wo_entrp">    -97.51500119 </i>
    <i name="e_0_energy">    -97.51683577 </i>
   </energy>
  </scstep>
  <scstep>
   <time name="dav">    6.32    6.32</time>
   <time name="total">    6.32    6.32</time>
   <energy>
    <i name="e_fr_energy">    -97.55319544 </i>
    <i name="e_wo_entrp">    -97.54953222 </i>
    <i name="e_0_energy">    -97.55136383 </i>
   </energy>
  </scstep>
  <scstep>
   <time name="dav">    7.92    7.92</time>
   <time name="total">    8.02    8.02</time>
   <energy>
    <i name="e_fr_energy">    -97.55358237 </i>
    <i name="e_wo_entrp">    -97.54991919 </i>
    <i name="e_0_energy">    -97.55175078 </i>
   </energy>
  </scstep>
  <scstep>
   <time name="dav">    7.78    7.78</time>
   <time name="total">    7.88    7.89</time>
   <energy>
    <i name="e_fr_energy">    -92.20845490 </i>
    <i name="e_wo_entrp">    -92.20500351 </i>
    <i name="e_0_energy">    -92.20672920 </i>
   </energy>
  </scstep>
  <scstep>
   <time name="dav">    8.02    8.02</time>
   <time name="total">    8.12    8.12</time>
   <energy>
    <i name="e_fr_energy">    -90.57564299 </i>
    <i name="e_wo_entrp">    -90.57249539 </i>
    <i name="e_0_energy">    -90.57406919 </i>
   </energy>
  </scstep>
  <scstep>
   <time name="dav">    6.11    6.11</time>
   <time name="total">    6.21    6.22</time>
   <energy>
    <i name="e_fr_energy">    -90.58813821 </i>
    <i name="e_wo_entrp">    -90.58495585 </i>
    <i name="e_0_energy">    -90.58654703 </i>
   </energy>
  </scstep>
  <scstep>
   <time name="dav">    7.44    7.44</time>
   <time name="total">    7.54    7.55</time>
   <energy>
    <i name="e_fr_energy">    -90.60232798 </i>
    <i name="e_wo_entrp">    -90.59906222 </i>
    <i name="e_0_energy">    -90.60069510 </i>
   </energy>
  </scstep>
  <scstep>
   <time name="dav">    6.30    6.31</time>
   <time name="total">    6.41    6.41</time>
   <energy>
    <i name="e_fr_energy">    -90.60636511 </i>
    <i name="e_wo_entrp">    -90.60314470 </i>
    <i name="e_0_energy">    -90.60475490 </i>
   </energy>
  </scstep>
  <scstep>
   <time name="dav">    6.92    6.92</time>
   <time name="total">    7.02    7.02</time>
   <energy>
    <i name="e_fr_energy">    -90.60743406 </i>
    <i name="e_wo_entrp">    -90.60422402 </i>
    <i name="e_0_energy">    -90.60582904 </i>
   </energy>
  </scstep>
  <scstep>
   <time name="dav">    6.82    6.82</time>
   <time name="total">    6.92    6.92</time>
   <energy>
    <i name="e_fr_energy">    -90.60754823 </i>
    <i name="e_wo_entrp">    -90.60433214 </i>
    <i name="e_0_energy">    -90.60594019 </i>
   </energy>
  </scstep>
  <scstep>
   <time name="dav">    7.45    7.45</time>
   <time name="total">    7.55    7.55</time>
   <energy>
    <i name="e_fr_energy">    -90.60755311 </i>
    <i name="e_wo_entrp">    -90.60433682 </i>
    <i name="e_0_energy">    -90.60594496 </i>
   </energy>
  </scstep>
  <scstep>
   <time name="dav">    6.79    6.79</time>
   <time name="total">    6.80    6.80</time>
   <energy>
    <i name="alphaZ">     93.79265446 </i>
    <i name="ewald">   -794.49538829 </i>
    <i name="hartreedc">   -349.14543849 </i>
    <i name="XCdc">    101.45411320 </i>
    <i name="pawpsdc">   3705.70115977 </i>
    <i name="pawaedc">  -3694.87472754 </i>
    <i name="eentropy">     -0.00321642 </i>
    <i name="bandstr">   -149.41112102 </i>
    <i name="atom">    996.37441054 </i>
    <i name="e_fr_energy">    -90.60755378 </i>
    <i name="e_wo_entrp">    -90.60433737 </i>
    <i name="e_0_energy">    -90.60594557 </i>
   </energy>
  </scstep>
  <structure>
   <crystal>
    <varray name="basis" >
     <v>       5.70611520       0.00000000       0.00000000 </v>
     <v>       0.00000000       4.05437664       0.00000000 </v>
     <v>       0.00000000       0.00000000       6.21412672 </v>
    </varray>
    <i name="volume">    143.76220706 </i>
    <varray name="rec_basis" >
     <v>       0.17525058       0.00000000       0.00000000 </v>
     <v>       0.00000000       0.24664704       0.00000000 </v>
     <v>       0.00000000       0.00000000       0.16092366 </v>
    </varray>
   </crystal>
   <varray name="positions" >
    <v>       0.52123000       0.50000000       0.63796000 </v>
    <v>       0.47877000       0.50000000       0.36204000 </v>
    <v>       0.97877000       0.50000000       0.63796000 </v>
    <v>       0.02123000       0.50000000       0.36204000 </v>
    <v>       0.60090000       0.50000000       0.89991000 </v>
    <v>       0.39910000       0.50000000       0.10009000 </v>
    <v>       0.89910000       0.50000000       0.89991000 </v>
    <v>       0.10090000       0.50000000       0.10009000 </v>
    <v>       0.75000000       0.79171000       0.72973000 </v>
    <v>       0.25000000       0.20829000       0.27027000 </v>
    <v>       0.75000000       0.20829000       0.72973000 </v>
    <v>       0.25000000       0.79171000       0.27027000 </v>
    <v>       0.25000000       0.50000000       0.52367000 </v>
    <v>       0.75000000       0.50000000       0.47633000 </v>
   </varray>
  </structure>
  <varray name="forces" >
   <v>       0.02202598      -0.00000000       0.04115250 </v>
   <v>      -0.02202598      -0.00000000      -0.04115250 </v>
   <v>      -0.02202598      -0.00000000       0.04115250 </v>
   <v>       0.02202598      -0.00000000      -0.04115250 </v>
   <v>      -0.81266089      -0.00000000       0.24995126 </v>
   <v>       0.81266089      -0.00000000      -0.24995126 </v>
   <v>       0.81266089      -0.00000000       0.24995126 </v>
   <v>      -0.81266089      -0.00000000      -0.24995126 </v>
   <v>       0.00000000       0.05981881      -0.07289844 </v>
   <v>       0.00000000      -0.05981881       0.07289844 </v>
   <v>      -0.00000000      -0.05981881      -0.07289844 </v>
   <v>       0.00000000       0.05981881       0.07289844 </v>
   <v>      -0.00000000      -0.00000000       0.04285062 </v>
   <v>       0.00000000      -0.00000000      -0.04285062 </v>
  </varray>
  <varray name="stress" >
   <v>       4.64609455       0.00000000       0.00000000 </v>
   <v>       0.00000000      -4.38224209       0.00000000 </v>
   <v>       0.00000000       0.00000000     -15.33934596 </v>
  </varray>
  <energy>
   <i name="e_fr_energy">    -90.60755378 </i>
   <i name="e_wo_entrp">    -90.60433737 </i>
   <i name="e_0_energy">    -90.60594557 </i>
  </energy>
  <time name="totalsc">  104.40  104.43</time>
  <eigenvalues>
   <array>
    <dimension dim="1">band</dimension>
    <dimension dim="2">kpoint</dimension>
    <dimension dim="3">spin</dimension>
    <field>eigene</field>
    <field>occ</field>
    <set>
     <set comment="spin 1">
      <set comment="kpoint 1">
       <r>  -12.7194    1.0000 </r>
       <r>  -11.5780    1.0000 </r>
       <r>   -8.6648    1.0000 </r>
       <r>   -8.4287    1.0000 </r>
       <r>   -6.0771    1.0000 </r>
       <r>   -5.1439    1.0000 </r>
       <r>   -4.6810    1.0000 </r>
       <r>   -4.2833    1.0000 </r>
       <r>   -4.0455    1.0000 </r>
       <r>   -3.5583    1.0000 </r>
       <r>   -2.6147    1.0000 </r>
       <r>   -2.3461    1.0000 </r>
       <r>   -1.8563    1.0000 </r>
       <r>   -1.1165    1.0000 </r>
       <r>   -0.0886    1.0000 </r>
       <r>   -0.0581    1.0000 </r>
       <r>    0.1312    1.0000 </r>
       <r>    0.1512    1.0000 </r>
       <r>    0.5407    1.0000 </r>
       <r>    1.9928    0.0001 </r>
       <r>    2.0552    0.0000 </r>
       <r>    2.1866    0.0000 </r>
       <r>    5.4205    0.0000 </r>
       <r>    5.7110    0.0000 </r>
       <r>    5.7976    0.0000 </r>
       <r>    5.9215    0.0000 </r>
       <r>    6.7717    0.0000 </r>
       <r>    7.5058    0.0000 </r>
       <r>    7.8324    0.0000 </r>
       <r>    8.4801    0.0000 </r>
       <r>    8.7375    0.0000 </r>
       <r>    8.8920    0.0000 </r>
       <r>    8.9784    0.0000 </r>
       <r>   10.0766    0.0000 </r>
       <r>   11.1406    0.0000 </r>
       <r>   11.2725    0.0000 </r>
       <r>   11.5999    0.0000 </r>
       <r>   11.7222    0.0000 </r>
       <r>   11.8881    0.0000 </r>
       <r>   12.3541    0.0000 </r>
       <r>   12.8022    0.0000 </r>
       <r>   13.3843    0.0000 </r>
       <r>   13.4117    0.0000 </r>
       <r>   15.2972    0.0000 </r>
       <r>   15.4929    0.0000 </r>
       <r>   15.9785    0.0000 </r>
       <r>   16.2595    0.0000 </r>
       <r>   16.2796    0.0000 </r>
      </set>
      <set comment="kpoint 2">
       <r>  -12.6757    1.0000 </r>
       <r>  -11.6518    1.0000 </r>
       <r>   -8.6436    1.0000 </r>
       <r>   -8.4172    1.0000 </r>
       <r>   -6.0091    1.0000 </r>
       <r>   -5.4827    1.0000 </r>
       <r>   -4.8021    1.0000 </r>
       <r>   -4.0210    1.0000 </r>
       <r>   -3.8042    1.0000 </r>
       <r>   -3.2224    1.0000 </r>
       <r>   -2.6845    1.0000 </r>
       <r>   -2.3264    1.0000 </r>
       <r>   -1.9338    1.0000 </r>
       <r>   -1.4229    1.0000 </r>
       <r>   -0.0486    1.0000 </r>
       <r>   -0.0421    1.0000 </r>
       <r>    0.0717    1.0000 </r>
       <r>    0.1728    1.0000 </r>
       <r>    0.4455    1.0000 </r>
       <r>    1.9068    0.0763 </r>
       <r>    1.9775    0.0003 </r>
       <r>    2.0660    0.0000 </r>
       <r>    5.5099    0.0000 </r>
       <r>    5.7164    0.0000 </r>
       <r>    5.8289    0.0000 </r>
       <r>    6.2651    0.0000 </r>
       <r>    6.6868    0.0000 </r>
       <r>    7.1455    0.0000 </r>
       <r>    8.0387    0.0000 </r>
       <r>    8.6166    0.0000 </r>
       <r>    8.9887    0.0000 </r>
       <r>    9.0684    0.0000 </r>
       <r>    9.1470    0.0000 </r>
       <r>   10.1831    0.0000 </r>
       <r>   10.8820    0.0000 </r>
       <r>   11.0686    0.0000 </r>
       <r>   11.2129    0.0000 </r>
       <r>   11.6404    0.0000 </r>
       <r>   12.1049    0.0000 </r>
       <r>   12.4416    0.0000 </r>
       <r>   13.0525    0.0000 </r>
       <r>   13.0609    0.0000 </r>
       <r>   13.9398    0.0000 </r>
       <r>   14.7883    0.0000 </r>
       <r>   15.6759    0.0000 </r>
       <r>   15.7594    0.0000 </r>
       <r>   16.1474    0.0000 </r>
       <r>   16.4354    0.0000 </r>
      </set>
      <set comment="kpoint 3">
       <r>  -12.5901    1.0000 </r>
       <r>  -11.7848    1.0000 </r>
       <r>   -8.5999    1.0000 </r>
       <r>   -8.4025    1.0000 </r>
       <r>   -5.9873    1.0000 </r>
       <r>   -5.8083    1.0000 </r>
       <r>   -4.7557    1.0000 </r>
       <r>   -3.8948    1.0000 </r>
       <r>   -3.2939    1.0000 </r>
       <r>   -2.8519    1.0000 </r>
       <r>   -2.7322    1.0000 </r>
       <r>   -2.2866    1.0000 </r>
       <r>   -2.0430    1.0000 </r>
       <r>   -1.9264    1.0000 </r>
       <r>   -0.2462    1.0000 </r>
       <r>   -0.0077    1.0000 </r>
       <r>    0.1198    1.0000 </r>
       <r>    0.1372    1.0000 </r>
       <r>    0.4154    1.0000 </r>
       <r>    1.7591    0.9970 </r>
       <r>    1.8378    0.6988 </r>
       <r>    1.8452    0.6231 </r>
       <r>    5.6312    0.0000 </r>
       <r>    5.6727    0.0000 </r>
       <r>    6.1377    0.0000 </r>
       <r>    6.5617    0.0000 </r>
       <r>    6.7218    0.0000 </r>
       <r>    6.8915    0.0000 </r>
       <r>    8.1874    0.0000 </r>
       <r>    8.7656    0.0000 </r>
       <r>    8.9367    0.0000 </r>
       <r>    9.5129    0.0000 </r>
       <r>    9.5920    0.0000 </r>
       <r>   10.2236    0.0000 </r>
       <r>   10.4249    0.0000 </r>
       <r>   10.5635    0.0000 </r>
       <r>   11.3303    0.0000 </r>
       <r>   11.7841    0.0000 </r>
       <r>   12.3394    0.0000 </r>
       <r>   12.4977    0.0000 </r>
       <r>   12.7382    0.0000 </r>
       <r>   12.8487    0.0000 </r>
       <r>   14.5636    0.0000 </r>
       <r>   14.8415    0.0000 </r>
       <r>   15.1608    0.0000 </r>
       <r>   15.9062    0.0000 </r>
       <r>   15.9277    0.0000 </r>
       <r>   16.2087    0.0000 </r>
      </set>
      <set comment="kpoint 4">
       <r>  -12.4668    1.0000 </r>
       <r>  -11.9542    1.0000 </r>
       <r>   -8.5381    1.0000 </r>
       <r>   -8.3991    1.0000 </r>
       <r>   -6.0670    1.0000 </r>
       <r>   -6.0410    1.0000 </r>
       <r>   -4.4290    1.0000 </r>
       <r>   -3.7268    1.0000 </r>
       <r>   -3.0448    1.0000 </r>
       <r>   -2.9109    1.0000 </r>
       <r>   -2.4608    1.0000 </r>
       <r>   -2.2721    1.0000 </r>
       <r>   -2.1694    1.0000 </r>
       <r>   -2.1425    1.0000 </r>
       <r>   -0.5453    1.0000 </r>
       <r>   -0.2711    1.0000 </r>
       <r>    0.1526    1.0000 </r>
       <r>    0.2275    1.0000 </r>
       <r>    0.5880    1.0000 </r>
       <r>    1.5024    1.0000 </r>
       <r>    1.6376    1.0000 </r>
       <r>    1.6974    1.0000 </r>
       <r>    5.6582    0.0000 </r>
       <r>    5.7161    0.0000 </r>
       <r>    6.4615    0.0000 </r>
       <r>    6.6342    0.0000 </r>
       <r>    6.6597    0.0000 </r>
       <r>    7.3682    0.0000 </r>
       <r>    8.3102    0.0000 </r>
       <r>    8.6381    0.0000 </r>
       <r>    8.7511    0.0000 </r>
       <r>    9.4812    0.0000 </r>
       <r>    9.9943    0.0000 </r>
       <r>   10.0632    0.0000 </r>
       <r>   10.3372    0.0000 </r>
       <r>   11.0788    0.0000 </r>
       <r>   11.3513    0.0000 </r>
       <r>   11.8789    0.0000 </r>
       <r>   12.1427    0.0000 </r>
       <r>   12.2110    0.0000 </r>
       <r>   12.4657    0.0000 </r>
       <r>   13.1997    0.0000 </r>
       <r>   14.6519    0.0000 </r>
       <r>   14.9079    0.0000 </r>
       <r>   15.1827    0.0000 </r>
       <r>   15.3040    0.0000 </r>
       <r>   15.4982    0.0000 </r>
       <r>   16.3016    0.0000 </r>
      </set>
      <set comment="kpoint 5">
       <r>  -12.3122    1.0000 </r>
       <r>  -12.1365    1.0000 </r>
       <r>   -8.4722    1.0000 </r>
       <r>   -8.4215    1.0000 </r>
       <r>   -6.1548    1.0000 </r>
       <r>   -6.1512    1.0000 </r>
       <r>   -3.9149    1.0000 </r>
       <r>   -3.5188    1.0000 </r>
       <r>   -3.3167    1.0000 </r>
       <r>   -3.2823    1.0000 </r>
       <r>   -2.3768    1.0000 </r>
       <r>   -2.2507    1.0000 </r>
       <r>   -1.9843    1.0000 </r>
       <r>   -1.9285    1.0000 </r>
       <r>   -0.7659    1.0000 </r>
       <r>   -0.6298    1.0000 </r>
       <r>    0.2354    1.0000 </r>
       <r>    0.2687    1.0000 </r>
       <r>    0.8480    1.0000 </r>
       <r>    1.1645    1.0000 </r>
       <r>    1.5572    1.0000 </r>
       <r>    1.5842    1.0000 </r>
       <r>    5.6873    0.0000 </r>
       <r>    5.7261    0.0000 </r>
       <r>    6.4411    0.0000 </r>
       <r>    6.5054    0.0000 </r>
       <r>    7.3259    0.0000 </r>
       <r>    8.0262    0.0000 </r>
       <r>    8.0498    0.0000 </r>
       <r>    8.4266    0.0000 </r>
       <r>    8.5635    0.0000 </r>
       <r>    8.7389    0.0000 </r>
       <r>   10.4462    0.0000 </r>
       <r>   10.4597    0.0000 </r>
       <r>   10.6985    0.0000 </r>
       <r>   11.1554    0.0000 </r>
       <r>   11.3394    0.0000 </r>
       <r>   11.5303    0.0000 </r>
       <r>   11.8623    0.0000 </r>
       <r>   12.4197    0.0000 </r>
       <r>   12.6604    0.0000 </r>
       <r>   13.1934    0.0000 </r>
       <r>   14.5305    0.0000 </r>
       <r>   14.6633    0.0000 </r>
       <r>   14.8043    0.0000 </r>
       <r>   14.8640    0.0000 </r>
       <r>   16.0212    0.0000 </r>
       <r>   16.3669    0.0000 </r>
      </set>
      <set comment="kpoint 6">
       <r>  -12.6954    1.0000 </r>
       <r>  -11.5564    1.0000 </r>
       <r>   -8.6462    1.0000 </r>
       <r>   -8.4057    1.0000 </r>
       <r>   -6.0505    1.0000 </r>
       <r>   -5.1102    1.0000 </r>
       <r>   -4.6591    1.0000 </r>
       <r>   -4.5822    1.0000 </r>
       <r>   -4.1890    1.0000 </r>
       <r>   -3.5356    1.0000 </r>
       <r>   -3.3065    1.0000 </r>
       <r>   -1.8152    1.0000 </r>
       <r>   -1.1120    1.0000 </r>
       <r>   -1.0589    1.0000 </r>
       <r>   -0.3214    1.0000 </r>
       <r>   -0.2935    1.0000 </r>
       <r>    0.1448    1.0000 </r>
       <r>    0.2214    1.0000 </r>
       <r>    0.6187    1.0000 </r>
       <r>    1.7263    0.9999 </r>
       <r>    1.8055    0.9246 </r>
       <r>    2.2386    0.0000 </r>
       <r>    5.5408    0.0000 </r>
       <r>    5.6689    0.0000 </r>
       <r>    5.7052    0.0000 </r>
       <r>    5.9640    0.0000 </r>
       <r>    7.0559    0.0000 </r>
       <r>    7.7908    0.0000 </r>
       <r>    8.0262    0.0000 </r>
       <r>    8.1409    0.0000 </r>
       <r>    8.7424    0.0000 </r>
       <r>    9.0302    0.0000 </r>
       <r>    9.0870    0.0000 </r>
       <r>   10.5253    0.0000 </r>
       <r>   11.2051    0.0000 </r>
       <r>   11.3530    0.0000 </r>
       <r>   11.5344    0.0000 </r>
       <r>   11.8246    0.0000 </r>
       <r>   11.9990    0.0000 </r>
       <r>   12.6322    0.0000 </r>
       <r>   12.8036    0.0000 </r>
       <r>   13.1239    0.0000 </r>
       <r>   13.1277    0.0000 </r>
       <r>   15.2525    0.0000 </r>
       <r>   15.2988    0.0000 </r>
       <r>   15.7832    0.0000 </r>
       <r>   15.7838    0.0000 </r>
       <r>   16.1408    0.0000 </r>
      </set>
      <set comment="kpoint 7">
       <r>  -12.6518    1.0000 </r>
       <r>  -11.6301    1.0000 </r>
       <r>   -8.6248    1.0000 </r>
       <r>   -8.3946    1.0000 </r>
       <r>   -5.9808    1.0000 </r>
       <r>   -5.4527    1.0000 </r>
       <r>   -4.7822    1.0000 </r>
       <r>   -4.5012    1.0000 </r>
       <r>   -3.7658    1.0000 </r>
       <r>   -3.3865    1.0000 </r>
       <r>   -3.1847    1.0000 </r>
       <r>   -1.7937    1.0000 </r>
       <r>   -1.4175    1.0000 </r>
       <r>   -1.1763    1.0000 </r>
       <r>   -0.2829    1.0000 </r>
       <r>   -0.2156    1.0000 </r>
       <r>    0.1119    1.0000 </r>
       <r>    0.1944    1.0000 </r>
       <r>    0.5158    1.0000 </r>
       <r>    1.6460    1.0000 </r>
       <r>    1.7292    0.9998 </r>
       <r>    2.1084    0.0000 </r>
       <r>    5.6170    0.0000 </r>
       <r>    5.7682    0.0000 </r>
       <r>    5.8926    0.0000 </r>
       <r>    6.0729    0.0000 </r>
       <r>    6.9730    0.0000 </r>
       <r>    7.4664    0.0000 </r>
       <r>    8.1720    0.0000 </r>
       <r>    8.3081    0.0000 </r>
       <r>    9.0595    0.0000 </r>
       <r>    9.0988    0.0000 </r>
       <r>    9.3565    0.0000 </r>
       <r>   10.4458    0.0000 </r>
       <r>   10.8144    0.0000 </r>
       <r>   11.0218    0.0000 </r>
       <r>   11.4070    0.0000 </r>
       <r>   11.8132    0.0000 </r>
       <r>   12.2181    0.0000 </r>
       <r>   12.6822    0.0000 </r>
       <r>   12.8039    0.0000 </r>
       <r>   13.0848    0.0000 </r>
       <r>   13.6593    0.0000 </r>
       <r>   14.8728    0.0000 </r>
       <r>   15.3212    0.0000 </r>
       <r>   15.6794    0.0000 </r>
       <r>   15.7163    0.0000 </r>
       <r>   16.3208    0.0000 </r>
      </set>
      <set comment="kpoint 8">
       <r>  -12.5665    1.0000 </r>
       <r>  -11.7629    1.0000 </r>
       <r>   -8.5809    1.0000 </r>
       <r>   -8.3806    1.0000 </r>
       <r>   -5.9562    1.0000 </r>
       <r>   -5.7780    1.0000 </r>
       <r>   -4.7392    1.0000 </r>
       <r>   -4.3934    1.0000 </r>
       <r>   -3.5077    1.0000 </r>
       <r>   -3.2412    1.0000 </r>
       <r>   -2.7196    1.0000 </r>
       <r>   -1.9218    1.0000 </r>
       <r>   -1.7497    1.0000 </r>
       <r>   -1.3377    1.0000 </r>
       <r>   -0.2482    1.0000 </r>
       <r>   -0.2370    1.0000 </r>
       <r>    0.0319    1.0000 </r>
       <r>    0.1815    1.0000 </r>
       <r>    0.4397    1.0000 </r>
       <r>    1.5115    1.0000 </r>
       <r>    1.5996    1.0000 </r>
       <r>    1.8610    0.4461 </r>
       <r>    5.8141    0.0000 </r>
       <r>    5.8963    0.0000 </r>
       <r>    5.9749    0.0000 </r>
       <r>    6.5197    0.0000 </r>
       <r>    6.8532    0.0000 </r>
       <r>    7.2394    0.0000 </r>
       <r>    8.3787    0.0000 </r>
       <r>    8.4395    0.0000 </r>
       <r>    9.0347    0.0000 </r>
       <r>    9.5514    0.0000 </r>
       <r>    9.8166    0.0000 </r>
       <r>   10.0687    0.0000 </r>
       <r>   10.2939    0.0000 </r>
       <r>   10.7593    0.0000 </r>
       <r>   11.4699    0.0000 </r>
       <r>   12.0483    0.0000 </r>
       <r>   12.2430    0.0000 </r>
       <r>   12.5007    0.0000 </r>
       <r>   12.8883    0.0000 </r>
       <r>   12.9664    0.0000 </r>
       <r>   14.2350    0.0000 </r>
       <r>   15.0068    0.0000 </r>
       <r>   15.0897    0.0000 </r>
       <r>   15.5693    0.0000 </r>
       <r>   15.6365    0.0000 </r>
       <r>   16.3413    0.0000 </r>
      </set>
      <set comment="kpoint 9">
       <r>  -12.4434    1.0000 </r>
       <r>  -11.9319    1.0000 </r>
       <r>   -8.5188    1.0000 </r>
       <r>   -8.3781    1.0000 </r>
       <r>   -6.0347    1.0000 </r>
       <r>   -6.0099    1.0000 </r>
       <r>   -4.4146    1.0000 </r>
       <r>   -4.2472    1.0000 </r>
       <r>   -3.6781    1.0000 </r>
       <r>   -2.8631    1.0000 </r>
       <r>   -2.3797    1.0000 </r>
       <r>   -2.2376    1.0000 </r>
       <r>   -1.6859    1.0000 </r>
       <r>   -1.4997    1.0000 </r>
       <r>   -0.5074    1.0000 </r>
       <r>   -0.3319    1.0000 </r>
       <r>    0.0629    1.0000 </r>
       <r>    0.0940    1.0000 </r>
       <r>    0.5986    1.0000 </r>
       <r>    1.3721    1.0000 </r>
       <r>    1.4547    1.0000 </r>
       <r>    1.5383    1.0000 </r>
       <r>    5.8316    0.0000 </r>
       <r>    5.9693    0.0000 </r>
       <r>    6.4793    0.0000 </r>
       <r>    6.7647    0.0000 </r>
       <r>    6.8383    0.0000 </r>
       <r>    7.3289    0.0000 </r>
       <r>    8.3697    0.0000 </r>
       <r>    8.5462    0.0000 </r>
       <r>    8.8800    0.0000 </r>
       <r>    9.3180    0.0000 </r>
       <r>   10.0131    0.0000 </r>
       <r>   10.0369    0.0000 </r>
       <r>   10.3846    0.0000 </r>
       <r>   11.1551    0.0000 </r>
       <r>   11.3064    0.0000 </r>
       <r>   11.7792    0.0000 </r>
       <r>   12.2206    0.0000 </r>
       <r>   12.4893    0.0000 </r>
       <r>   12.6645    0.0000 </r>
       <r>   13.4004    0.0000 </r>
       <r>   14.6952    0.0000 </r>
       <r>   14.7047    0.0000 </r>
       <r>   15.0785    0.0000 </r>
       <r>   15.2368    0.0000 </r>
       <r>   15.5740    0.0000 </r>
       <r>   16.3156    0.0000 </r>
      </set>
      <set comment="kpoint 10">
       <r>  -12.2891    1.0000 </r>
       <r>  -12.1138    1.0000 </r>
       <r>   -8.4526    1.0000 </r>
       <r>   -8.4013    1.0000 </r>
       <r>   -6.1229    1.0000 </r>
       <r>   -6.1188    1.0000 </r>
       <r>   -4.0693    1.0000 </r>
       <r>   -3.9074    1.0000 </r>
       <r>   -3.8668    1.0000 </r>
       <r>   -3.3039    1.0000 </r>
       <r>   -2.1245    1.0000 </r>
       <r>   -1.9325    1.0000 </r>
       <r>   -1.6178    1.0000 </r>
       <r>   -1.6125    1.0000 </r>
       <r>   -0.7281    1.0000 </r>
       <r>   -0.6257    1.0000 </r>
       <r>    0.0971    1.0000 </r>
       <r>    0.1281    1.0000 </r>
       <r>    0.8574    1.0000 </r>
       <r>    1.1710    1.0000 </r>
       <r>    1.3190    1.0000 </r>
       <r>    1.3429    1.0000 </r>
       <r>    5.8837    0.0000 </r>
       <r>    5.9508    0.0000 </r>
       <r>    6.7549    0.0000 </r>
       <r>    6.8056    0.0000 </r>
       <r>    7.1442    0.0000 </r>
       <r>    7.8532    0.0000 </r>
       <r>    7.8960    0.0000 </r>
       <r>    8.5750    0.0000 </r>
       <r>    8.6377    0.0000 </r>
       <r>    8.7493    0.0000 </r>
       <r>   10.2607    0.0000 </r>
       <r>   10.5100    0.0000 </r>
       <r>   10.7485    0.0000 </r>
       <r>   10.8470    0.0000 </r>
       <r>   11.4867    0.0000 </r>
       <r>   11.5890    0.0000 </r>
       <r>   11.9400    0.0000 </r>
       <r>   12.5866    0.0000 </r>
       <r>   12.9668    0.0000 </r>
       <r>   13.4229    0.0000 </r>
       <r>   14.4802    0.0000 </r>
       <r>   14.6655    0.0000 </r>
       <r>   14.7646    0.0000 </r>
       <r>   14.9825    0.0000 </r>
       <r>   16.0470    0.0000 </r>
       <r>   16.3418    0.0000 </r>
      </set>
      <set comment="kpoint 11">
       <r>  -12.6513    1.0000 </r>
       <r>  -11.5167    1.0000 </r>
       <r>   -8.6120    1.0000 </r>
       <r>   -8.3633    1.0000 </r>
       <r>   -6.0014    1.0000 </r>
       <r>   -5.1387    1.0000 </r>
       <r>   -5.0201    1.0000 </r>
       <r>   -4.6176    1.0000 </r>
       <r>   -4.1724    1.0000 </r>
       <r>   -3.9274    1.0000 </r>
       <r>   -3.4826    1.0000 </r>
       <r>   -1.2249    1.0000 </r>
       <r>   -1.1027    1.0000 </r>
       <r>   -0.6634    1.0000 </r>
       <r>   -0.5599    1.0000 </r>
       <r>   -0.2021    1.0000 </r>
       <r>    0.1658    1.0000 </r>
       <r>    0.2737    1.0000 </r>
       <r>    0.6966    1.0000 </r>
       <r>    1.3454    1.0000 </r>
       <r>    1.4082    1.0000 </r>
       <r>    2.2764    0.0000 </r>
       <r>    5.2542    0.0000 </r>
       <r>    5.4179    0.0000 </r>
       <r>    6.0809    0.0000 </r>
       <r>    6.1505    0.0000 </r>
       <r>    7.4879    0.0000 </r>
       <r>    7.5768    0.0000 </r>
       <r>    8.2710    0.0000 </r>
       <r>    8.6695    0.0000 </r>
       <r>    8.8271    0.0000 </r>
       <r>    9.1703    0.0000 </r>
       <r>    9.3098    0.0000 </r>
       <r>   10.8245    0.0000 </r>
       <r>   11.2593    0.0000 </r>
       <r>   11.5106    0.0000 </r>
       <r>   11.6504    0.0000 </r>
       <r>   12.0240    0.0000 </r>
       <r>   12.2149    0.0000 </r>
       <r>   12.6849    0.0000 </r>
       <r>   12.6972    0.0000 </r>
       <r>   12.9350    0.0000 </r>
       <r>   13.1681    0.0000 </r>
       <r>   14.5920    0.0000 </r>
       <r>   15.0837    0.0000 </r>
       <r>   15.2600    0.0000 </r>
       <r>   15.3629    0.0000 </r>
       <r>   15.8795    0.0000 </r>
      </set>
      <set comment="kpoint 12">
       <r>  -12.6078    1.0000 </r>
       <r>  -11.5901    1.0000 </r>
       <r>   -8.5904    1.0000 </r>
       <r>   -8.3529    1.0000 </r>
       <r>   -5.9283    1.0000 </r>
       <r>   -5.4042    1.0000 </r>
       <r>   -5.0420    1.0000 </r>
       <r>   -4.7448    1.0000 </r>
       <r>   -3.9930    1.0000 </r>
       <r>   -3.7241    1.0000 </r>
       <r>   -3.1453    1.0000 </r>
       <r>   -1.4092    1.0000 </r>
       <r>   -1.1990    1.0000 </r>
       <r>   -0.7715    1.0000 </r>
       <r>   -0.5220    1.0000 </r>
       <r>   -0.1204    1.0000 </r>
       <r>    0.1447    1.0000 </r>
       <r>    0.2194    1.0000 </r>
       <r>    0.5841    1.0000 </r>
       <r>    1.2665    1.0000 </r>
       <r>    1.3386    1.0000 </r>
       <r>    2.1411    0.0000 </r>
       <r>    5.3346    0.0000 </r>
       <r>    5.7619    0.0000 </r>
       <r>    6.0967    0.0000 </r>
       <r>    6.1963    0.0000 </r>
       <r>    7.4076    0.0000 </r>
       <r>    7.7334    0.0000 </r>
       <r>    8.0034    0.0000 </r>
       <r>    8.7618    0.0000 </r>
       <r>    9.1842    0.0000 </r>
       <r>    9.2286    0.0000 </r>
       <r>    9.5933    0.0000 </r>
       <r>   10.4602    0.0000 </r>
       <r>   10.7204    0.0000 </r>
       <r>   11.2156    0.0000 </r>
       <r>   11.6682    0.0000 </r>
       <r>   12.1378    0.0000 </r>
       <r>   12.3699    0.0000 </r>
       <r>   12.4438    0.0000 </r>
       <r>   13.0953    0.0000 </r>
       <r>   13.2145    0.0000 </r>
       <r>   13.3687    0.0000 </r>
       <r>   14.6047    0.0000 </r>
       <r>   14.7474    0.0000 </r>
       <r>   15.1944    0.0000 </r>
       <r>   15.4271    0.0000 </r>
       <r>   15.9120    0.0000 </r>
      </set>
      <set comment="kpoint 13">
       <r>  -12.5228    1.0000 </r>
       <r>  -11.7224    1.0000 </r>
       <r>   -8.5460    1.0000 </r>
       <r>   -8.3402    1.0000 </r>
       <r>   -5.8984    1.0000 </r>
       <r>   -5.7233    1.0000 </r>
       <r>   -4.9505    1.0000 </r>
       <r>   -4.7083    1.0000 </r>
       <r>   -4.1157    1.0000 </r>
       <r>   -3.1916    1.0000 </r>
       <r>   -2.6759    1.0000 </r>
       <r>   -1.9055    1.0000 </r>
       <r>   -1.1586    1.0000 </r>
       <r>   -0.9108    1.0000 </r>
       <r>   -0.4695    1.0000 </r>
       <r>   -0.1147    1.0000 </r>
       <r>   -0.0090    1.0000 </r>
       <r>    0.2306    1.0000 </r>
       <r>    0.4694    1.0000 </r>
       <r>    1.1355    1.0000 </r>
       <r>    1.2207    1.0000 </r>
       <r>    1.8855    0.2039 </r>
       <r>    5.6549    0.0000 </r>
       <r>    6.0517    0.0000 </r>
       <r>    6.2358    0.0000 </r>
       <r>    6.3268    0.0000 </r>
       <r>    7.3060    0.0000 </r>
       <r>    7.8153    0.0000 </r>
       <r>    7.9675    0.0000 </r>
       <r>    8.8908    0.0000 </r>
       <r>    9.1821    0.0000 </r>
       <r>    9.6593    0.0000 </r>
       <r>    9.7974    0.0000 </r>
       <r>   10.0756    0.0000 </r>
       <r>   10.1966    0.0000 </r>
       <r>   10.9987    0.0000 </r>
       <r>   11.5311    0.0000 </r>
       <r>   12.0450    0.0000 </r>
       <r>   12.4472    0.0000 </r>
       <r>   12.7451    0.0000 </r>
       <r>   12.9755    0.0000 </r>
       <r>   13.3851    0.0000 </r>
       <r>   13.8904    0.0000 </r>
       <r>   14.5161    0.0000 </r>
       <r>   14.7964    0.0000 </r>
       <r>   15.2189    0.0000 </r>
       <r>   15.4439    0.0000 </r>
       <r>   16.1228    0.0000 </r>
      </set>
      <set comment="kpoint 14">
       <r>  -12.4002    1.0000 </r>
       <r>  -11.8907    1.0000 </r>
       <r>   -8.4835    1.0000 </r>
       <r>   -8.3394    1.0000 </r>
       <r>   -5.9745    1.0000 </r>
       <r>   -5.9525    1.0000 </r>
       <r>   -4.8153    1.0000 </r>
       <r>   -4.3881    1.0000 </r>
       <r>   -4.2790    1.0000 </r>
       <r>   -2.8250    1.0000 </r>
       <r>   -2.3393    1.0000 </r>
       <r>   -2.1966    1.0000 </r>
       <r>   -1.1024    1.0000 </r>
       <r>   -1.0481    1.0000 </r>
       <r>   -0.4768    1.0000 </r>
       <r>   -0.3993    1.0000 </r>
       <r>    0.0346    1.0000 </r>
       <r>    0.0367    1.0000 </r>
       <r>    0.6160    1.0000 </r>
       <r>    1.0063    1.0000 </r>
       <r>    1.0884    1.0000 </r>
       <r>    1.5517    1.0000 </r>
       <r>    6.0638    0.0000 </r>
       <r>    6.1877    0.0000 </r>
       <r>    6.3577    0.0000 </r>
       <r>    6.7602    0.0000 </r>
       <r>    7.2516    0.0000 </r>
       <r>    7.7374    0.0000 </r>
       <r>    8.0248    0.0000 </r>
       <r>    8.9903    0.0000 </r>
       <r>    9.0512    0.0000 </r>
       <r>    9.1199    0.0000 </r>
       <r>    9.8272    0.0000 </r>
       <r>   10.1255    0.0000 </r>
       <r>   10.6452    0.0000 </r>
       <r>   11.0185    0.0000 </r>
       <r>   11.2537    0.0000 </r>
       <r>   11.8907    0.0000 </r>
       <r>   12.2826    0.0000 </r>
       <r>   12.9262    0.0000 </r>
       <r>   12.9772    0.0000 </r>
       <r>   13.7264    0.0000 </r>
       <r>   14.3050    0.0000 </r>
       <r>   14.3240    0.0000 </r>
       <r>   14.9561    0.0000 </r>
       <r>   15.0510    0.0000 </r>
       <r>   15.5358    0.0000 </r>
       <r>   16.3016    0.0000 </r>
      </set>
      <set comment="kpoint 15">
       <r>  -12.2466    1.0000 </r>
       <r>  -12.0719    1.0000 </r>
       <r>   -8.4166    1.0000 </r>
       <r>   -8.3642    1.0000 </r>
       <r>   -6.0637    1.0000 </r>
       <r>   -6.0586    1.0000 </r>
       <r>   -4.6486    1.0000 </r>
       <r>   -4.4641    1.0000 </r>
       <r>   -3.8767    1.0000 </r>
       <r>   -3.2816    1.0000 </r>
       <r>   -2.0570    1.0000 </r>
       <r>   -1.8925    1.0000 </r>
       <r>   -1.1213    1.0000 </r>
       <r>   -1.0616    1.0000 </r>
       <r>   -0.6538    1.0000 </r>
       <r>   -0.6492    1.0000 </r>
       <r>   -0.0145    1.0000 </r>
       <r>    0.0290    1.0000 </r>
       <r>    0.8730    1.0000 </r>
       <r>    0.9439    1.0000 </r>
       <r>    0.9842    1.0000 </r>
       <r>    1.1993    1.0000 </r>
       <r>    6.1558    0.0000 </r>
       <r>    6.2750    0.0000 </r>
       <r>    6.8377    0.0000 </r>
       <r>    7.1731    0.0000 </r>
       <r>    7.2305    0.0000 </r>
       <r>    7.5797    0.0000 </r>
       <r>    7.8837    0.0000 </r>
       <r>    8.3920    0.0000 </r>
       <r>    9.0456    0.0000 </r>
       <r>    9.0772    0.0000 </r>
       <r>    9.9519    0.0000 </r>
       <r>   10.4246    0.0000 </r>
       <r>   10.6472    0.0000 </r>
       <r>   10.9225    0.0000 </r>
       <r>   11.6664    0.0000 </r>
       <r>   11.6790    0.0000 </r>
       <r>   12.0589    0.0000 </r>
       <r>   12.8403    0.0000 </r>
       <r>   13.3539    0.0000 </r>
       <r>   13.6987    0.0000 </r>
       <r>   14.1566    0.0000 </r>
       <r>   14.3107    0.0000 </r>
       <r>   14.9247    0.0000 </r>
       <r>   15.0634    0.0000 </r>
       <r>   15.9138    0.0000 </r>
       <r>   16.2162    0.0000 </r>
      </set>
      <set comment="kpoint 16">
       <r>  -12.5940    1.0000 </r>
       <r>  -11.4653    1.0000 </r>
       <r>   -8.5685    1.0000 </r>
       <r>   -8.3085    1.0000 </r>
       <r>   -5.9376    1.0000 </r>
       <r>   -5.6187    1.0000 </r>
       <r>   -4.9504    1.0000 </r>
       <r>   -4.5618    1.0000 </r>
       <r>   -4.4467    1.0000 </r>
       <r>   -4.1332    1.0000 </r>
       <r>   -3.4210    1.0000 </r>
       <r>   -1.2344    1.0000 </r>
       <r>   -1.0885    1.0000 </r>
       <r>   -1.0158    1.0000 </r>
       <r>   -0.2180    1.0000 </r>
       <r>    0.1939    1.0000 </r>
       <r>    0.3166    1.0000 </r>
       <r>    0.5676    1.0000 </r>
       <r>    0.7600    1.0000 </r>
       <r>    0.9615    1.0000 </r>
       <r>    0.9755    1.0000 </r>
       <r>    2.3103    0.0000 </r>
       <r>    4.9131    0.0000 </r>
       <r>    5.1261    0.0000 </r>
       <r>    6.3098    0.0000 </r>
       <r>    6.5396    0.0000 </r>
       <r>    7.2204    0.0000 </r>
       <r>    7.9142    0.0000 </r>
       <r>    8.6399    0.0000 </r>
       <r>    9.0087    0.0000 </r>
       <r>    9.3954    0.0000 </r>
       <r>    9.5262    0.0000 </r>
       <r>    9.5909    0.0000 </r>
       <r>   10.6859    0.0000 </r>
       <r>   11.2071    0.0000 </r>
       <r>   11.9078    0.0000 </r>
       <r>   11.9642    0.0000 </r>
       <r>   12.2301    0.0000 </r>
       <r>   12.3640    0.0000 </r>
       <r>   12.3910    0.0000 </r>
       <r>   12.5034    0.0000 </r>
       <r>   12.9197    0.0000 </r>
       <r>   13.7116    0.0000 </r>
       <r>   13.8173    0.0000 </r>
       <r>   14.3409    0.0000 </r>
       <r>   15.0344    0.0000 </r>
       <r>   15.3366    0.0000 </r>
       <r>   15.7711    0.0000 </r>
      </set>
      <set comment="kpoint 17">
       <r>  -12.5508    1.0000 </r>
       <r>  -11.5384    1.0000 </r>
       <r>   -8.5464    1.0000 </r>
       <r>   -8.2990    1.0000 </r>
       <r>   -5.8600    1.0000 </r>
       <r>   -5.5839    1.0000 </r>
       <r>   -5.2861    1.0000 </r>
       <r>   -4.6952    1.0000 </r>
       <r>   -4.5116    1.0000 </r>
       <r>   -3.6708    1.0000 </r>
       <r>   -3.0841    1.0000 </r>
       <r>   -1.4028    1.0000 </r>
       <r>   -1.1780    1.0000 </r>
       <r>   -1.0309    1.0000 </r>
       <r>   -0.2191    1.0000 </r>
       <r>    0.1770    1.0000 </r>
       <r>    0.2508    1.0000 </r>
       <r>    0.5475    1.0000 </r>
       <r>    0.6386    1.0000 </r>
       <r>    0.8960    1.0000 </r>
       <r>    0.9339    1.0000 </r>
       <r>    2.1731    0.0000 </r>
       <r>    5.0091    0.0000 </r>
       <r>    5.4560    0.0000 </r>
       <r>    6.2558    0.0000 </r>
       <r>    6.6725    0.0000 </r>
       <r>    7.3555    0.0000 </r>
       <r>    7.8723    0.0000 </r>
       <r>    8.5799    0.0000 </r>
       <r>    9.1187    0.0000 </r>
       <r>    9.3637    0.0000 </r>
       <r>    9.7349    0.0000 </r>
       <r>    9.8313    0.0000 </r>
       <r>   10.2792    0.0000 </r>
       <r>   10.6482    0.0000 </r>
       <r>   11.6440    0.0000 </r>
       <r>   11.8296    0.0000 </r>
       <r>   12.1868    0.0000 </r>
       <r>   12.4140    0.0000 </r>
       <r>   12.5846    0.0000 </r>
       <r>   12.8946    0.0000 </r>
       <r>   13.3227    0.0000 </r>
       <r>   13.7148    0.0000 </r>
       <r>   13.8550    0.0000 </r>
       <r>   14.1820    0.0000 </r>
       <r>   14.9946    0.0000 </r>
       <r>   15.3658    0.0000 </r>
       <r>   15.6522    0.0000 </r>
      </set>
      <set comment="kpoint 18">
       <r>  -12.4663    1.0000 </r>
       <r>  -11.6700    1.0000 </r>
       <r>   -8.5014    1.0000 </r>
       <r>   -8.2880    1.0000 </r>
       <r>   -5.8226    1.0000 </r>
       <r>   -5.6705    1.0000 </r>
       <r>   -5.4317    1.0000 </r>
       <r>   -4.6688    1.0000 </r>
       <r>   -4.6329    1.0000 </r>
       <r>   -3.1329    1.0000 </r>
       <r>   -2.6158    1.0000 </r>
       <r>   -1.8867    1.0000 </r>
       <r>   -1.1176    1.0000 </r>
       <r>   -1.0502    1.0000 </r>
       <r>   -0.2369    1.0000 </r>
       <r>   -0.0765    1.0000 </r>
       <r>    0.2885    1.0000 </r>
       <r>    0.4812    1.0000 </r>
       <r>    0.4966    1.0000 </r>
       <r>    0.8066    1.0000 </r>
       <r>    0.8665    1.0000 </r>
       <r>    1.9138    0.0517 </r>
       <r>    5.3338    0.0000 </r>
       <r>    5.9283    0.0000 </r>
       <r>    6.2283    0.0000 </r>
       <r>    6.7865    0.0000 </r>
       <r>    7.5221    0.0000 </r>
       <r>    7.8948    0.0000 </r>
       <r>    8.5095    0.0000 </r>
       <r>    9.3047    0.0000 </r>
       <r>    9.3359    0.0000 </r>
       <r>    9.5390    0.0000 </r>
       <r>    9.9856    0.0000 </r>
       <r>   10.0472    0.0000 </r>
       <r>   10.4975    0.0000 </r>
       <r>   11.3246    0.0000 </r>
       <r>   11.3392    0.0000 </r>
       <r>   12.1811    0.0000 </r>
       <r>   12.6713    0.0000 </r>
       <r>   12.8968    0.0000 </r>
       <r>   13.1147    0.0000 </r>
       <r>   13.4508    0.0000 </r>
       <r>   13.6876    0.0000 </r>
       <r>   13.9465    0.0000 </r>
       <r>   14.3174    0.0000 </r>
       <r>   15.0863    0.0000 </r>
       <r>   15.2889    0.0000 </r>
       <r>   15.9162    0.0000 </r>
      </set>
      <set comment="kpoint 19">
       <r>  -12.3444    1.0000 </r>
       <r>  -11.8375    1.0000 </r>
       <r>   -8.4383    1.0000 </r>
       <r>   -8.2896    1.0000 </r>
       <r>   -5.8955    1.0000 </r>
       <r>   -5.8801    1.0000 </r>
       <r>   -5.3183    1.0000 </r>
       <r>   -4.7960    1.0000 </r>
       <r>   -4.3527    1.0000 </r>
       <r>   -2.7807    1.0000 </r>
       <r>   -2.2971    1.0000 </r>
       <r>   -2.1410    1.0000 </r>
       <r>   -1.0596    1.0000 </r>
       <r>   -1.0339    1.0000 </r>
       <r>   -0.3995    1.0000 </r>
       <r>   -0.3526    1.0000 </r>
       <r>    0.1267    1.0000 </r>
       <r>    0.3526    1.0000 </r>
       <r>    0.6359    1.0000 </r>
       <r>    0.7496    1.0000 </r>
       <r>    0.7997    1.0000 </r>
       <r>    1.5762    1.0000 </r>
       <r>    5.8591    0.0000 </r>
       <r>    6.2614    0.0000 </r>
       <r>    6.5036    0.0000 </r>
       <r>    6.7378    0.0000 </r>
       <r>    7.5228    0.0000 </r>
       <r>    7.9565    0.0000 </r>
       <r>    8.4653    0.0000 </r>
       <r>    8.8651    0.0000 </r>
       <r>    9.2178    0.0000 </r>
       <r>    9.5240    0.0000 </r>
       <r>    9.8395    0.0000 </r>
       <r>   10.2845    0.0000 </r>
       <r>   10.7365    0.0000 </r>
       <r>   11.0354    0.0000 </r>
       <r>   11.3715    0.0000 </r>
       <r>   12.1065    0.0000 </r>
       <r>   12.3480    0.0000 </r>
       <r>   13.0941    0.0000 </r>
       <r>   13.2183    0.0000 </r>
       <r>   13.5816    0.0000 </r>
       <r>   13.8261    0.0000 </r>
       <r>   14.0806    0.0000 </r>
       <r>   14.6865    0.0000 </r>
       <r>   14.9195    0.0000 </r>
       <r>   15.3564    0.0000 </r>
       <r>   16.2462    0.0000 </r>
      </set>
      <set comment="kpoint 20">
       <r>  -12.1915    1.0000 </r>
       <r>  -12.0178    1.0000 </r>
       <r>   -8.3704    1.0000 </r>
       <r>   -8.3165    1.0000 </r>
       <r>   -5.9868    1.0000 </r>
       <r>   -5.9798    1.0000 </r>
       <r>   -5.1579    1.0000 </r>
       <r>   -4.9775    1.0000 </r>
       <r>   -3.8448    1.0000 </r>
       <r>   -3.2516    1.0000 </r>
       <r>   -2.0005    1.0000 </r>
       <r>   -1.8464    1.0000 </r>
       <r>   -0.9989    1.0000 </r>
       <r>   -0.9391    1.0000 </r>
       <r>   -0.6957    1.0000 </r>
       <r>   -0.6528    1.0000 </r>
       <r>    0.1046    1.0000 </r>
       <r>    0.2056    1.0000 </r>
       <r>    0.7339    1.0000 </r>
       <r>    0.7503    1.0000 </r>
       <r>    0.8985    1.0000 </r>
       <r>    1.2207    1.0000 </r>
       <r>    6.3945    0.0000 </r>
       <r>    6.5168    0.0000 </r>
       <r>    6.5740    0.0000 </r>
       <r>    7.0914    0.0000 </r>
       <r>    7.1638    0.0000 </r>
       <r>    7.6467    0.0000 </r>
       <r>    8.4549    0.0000 </r>
       <r>    8.5187    0.0000 </r>
       <r>    9.4119    0.0000 </r>
       <r>    9.5805    0.0000 </r>
       <r>    9.7811    0.0000 </r>
       <r>   10.0826    0.0000 </r>
       <r>   10.7987    0.0000 </r>
       <r>   11.1772    0.0000 </r>
       <r>   11.7983    0.0000 </r>
       <r>   11.8782    0.0000 </r>
       <r>   12.1789    0.0000 </r>
       <r>   13.0720    0.0000 </r>
       <r>   13.3674    0.0000 </r>
       <r>   13.5486    0.0000 </r>
       <r>   13.7725    0.0000 </r>
       <r>   13.8762    0.0000 </r>
       <r>   15.0300    0.0000 </r>
       <r>   15.0468    0.0000 </r>
       <r>   15.5917    0.0000 </r>
       <r>   15.8926    0.0000 </r>
      </set>
      <set comment="kpoint 21">
       <r>  -12.5342    1.0000 </r>
[...]
       <r>   -2.3412    1.0000 </r>
       <r>   -2.1547    1.0000 </r>
       <r>   -1.9928    1.0000 </r>
       <r>   -1.5154    1.0000 </r>
       <r>   -0.7574    1.0000 </r>
       <r>   -0.2263    1.0000 </r>
       <r>    0.1473    1.0000 </r>
       <r>    0.3659    1.0000 </r>
       <r>    0.4842    1.0000 </r>
       <r>    1.5610    1.0000 </r>
       <r>    1.5871    1.0000 </r>
       <r>    1.8420    0.6569 </r>
       <r>    5.4776    0.0000 </r>
       <r>    6.1078    0.0000 </r>
       <r>    6.6277    0.0000 </r>
       <r>    7.1636    0.0000 </r>
       <r>    7.7241    0.0000 </r>
       <r>    8.1807    0.0000 </r>
       <r>    8.9413    0.0000 </r>
       <r>    9.0947    0.0000 </r>
       <r>    9.6670    0.0000 </r>
       <r>    9.9004    0.0000 </r>
       <r>   10.5271    0.0000 </r>
       <r>   10.9824    0.0000 </r>
       <r>   11.1340    0.0000 </r>
       <r>   11.4008    0.0000 </r>
       <r>   11.5031    0.0000 </r>
       <r>   11.8912    0.0000 </r>
       <r>   12.7713    0.0000 </r>
       <r>   13.0587    0.0000 </r>
       <r>   13.3002    0.0000 </r>
       <r>   13.6757    0.0000 </r>
       <r>   13.7893    0.0000 </r>
       <r>   14.0842    0.0000 </r>
       <r>   14.3975    0.0000 </r>
       <r>   14.9008    0.0000 </r>
       <r>   15.0178    0.0000 </r>
       <r>   15.3172    0.0000 </r>
      </set>
      <set comment="kpoint 175">
       <r>  -12.0166    1.0000 </r>
       <r>  -11.8774    1.0000 </r>
       <r>   -8.5550    1.0000 </r>
       <r>   -8.4427    1.0000 </r>
       <r>   -5.9367    1.0000 </r>
       <r>   -5.8315    1.0000 </r>
       <r>   -4.9077    1.0000 </r>
       <r>   -4.5861    1.0000 </r>
       <r>   -4.4278    1.0000 </r>
       <r>   -3.9918    1.0000 </r>
       <r>   -2.2071    1.0000 </r>
       <r>   -2.1460    1.0000 </r>
       <r>   -2.0835    1.0000 </r>
       <r>   -1.7991    1.0000 </r>
       <r>   -0.2420    1.0000 </r>
       <r>   -0.0309    1.0000 </r>
       <r>    0.3688    1.0000 </r>
       <r>    0.4565    1.0000 </r>
       <r>    0.5216    1.0000 </r>
       <r>    0.8491    1.0000 </r>
       <r>    1.6011    1.0000 </r>
       <r>    1.7006    1.0000 </r>
       <r>    5.8216    0.0000 </r>
       <r>    6.0058    0.0000 </r>
       <r>    6.8307    0.0000 </r>
       <r>    7.3502    0.0000 </r>
       <r>    7.4315    0.0000 </r>
       <r>    7.5190    0.0000 </r>
       <r>    9.3460    0.0000 </r>
       <r>    9.5264    0.0000 </r>
       <r>    9.7338    0.0000 </r>
       <r>    9.9112    0.0000 </r>
       <r>   10.4010    0.0000 </r>
       <r>   10.7465    0.0000 </r>
       <r>   11.1878    0.0000 </r>
       <r>   11.4423    0.0000 </r>
       <r>   11.4477    0.0000 </r>
       <r>   11.5520    0.0000 </r>
       <r>   13.0130    0.0000 </r>
       <r>   13.1171    0.0000 </r>
       <r>   13.6327    0.0000 </r>
       <r>   13.9786    0.0000 </r>
       <r>   14.1100    0.0000 </r>
       <r>   14.2076    0.0000 </r>
       <r>   14.5175    0.0000 </r>
       <r>   14.6694    0.0000 </r>
       <r>   14.8204    0.0000 </r>
       <r>   14.9626    0.0000 </r>
      </set>
     </set>
    </set>
   </array>
  </eigenvalues>
  <separator name="orbital magnetization" >
   <v name="MAGDIPOLOUT">      0.00000000      0.00000000      0.00000000</v>
  </separator>
  <dos>
   <i name="efermi">      1.85625402 </i>
   <total>
    <array>
     <dimension dim="1">gridpoints</dimension>
     <dimension dim="2">spin</dimension>
     <field>energy</field>
     <field>total</field>
     <field>integrated</field>
     <set>
      <set comment="spin 1">
       <r>   -14.1771     0.0000     0.0000 </r>
       <r>   -14.0702     0.0000     0.0000 </r>
       <r>   -13.9633     0.0000     0.0000 </r>
       <r>   -13.8564     0.0000     0.0000 </r>
       <r>   -13.7495     0.0000     0.0000 </r>
       <r>   -13.6426     0.0000     0.0000 </r>
       <r>   -13.5357     0.0000     0.0000 </r>
       <r>   -13.4288     0.0000     0.0000 </r>
       <r>   -13.3219     0.0000     0.0000 </r>
       <r>   -13.2150     0.0000     0.0000 </r>
       <r>   -13.1081     0.0000     0.0000 </r>
       <r>   -13.0012     0.0000     0.0000 </r>
       <r>   -12.8943     0.0000     0.0000 </r>
       <r>   -12.7874     0.0039     0.0004 </r>
       <r>   -12.6805     0.5104     0.0550 </r>
       <r>   -12.5736     2.3958     0.3111 </r>
       <r>   -12.4667     3.5754     0.6933 </r>
       <r>   -12.3598     4.3800     1.1615 </r>
       <r>   -12.2529     3.5392     1.5399 </r>
       <r>   -12.1460     2.7377     1.8325 </r>
       <r>   -12.0391     2.7561     2.1272 </r>
       <r>   -11.9322     2.4978     2.3942 </r>
       <r>   -11.8253     2.7722     2.6905 </r>
       <r>   -11.7184     3.4087     3.0549 </r>
       <r>   -11.6115     3.5375     3.4331 </r>
       <r>   -11.5046     3.1426     3.7690 </r>
       <r>   -11.3977     1.7036     3.9511 </r>
       <r>   -11.2908     0.4482     3.9990 </r>
       <r>   -11.1839     0.0089     4.0000 </r>
       <r>   -11.0770     0.0000     4.0000 </r>
       <r>   -10.9701     0.0000     4.0000 </r>
       <r>   -10.8632     0.0000     4.0000 </r>
       <r>   -10.7563     0.0000     4.0000 </r>
       <r>   -10.6494     0.0000     4.0000 </r>
       <r>   -10.5425     0.0000     4.0000 </r>
       <r>   -10.4356     0.0000     4.0000 </r>
       <r>   -10.3287     0.0000     4.0000 </r>
       <r>   -10.2218     0.0000     4.0000 </r>
       <r>   -10.1149     0.0000     4.0000 </r>
       <r>   -10.0080     0.0000     4.0000 </r>
       <r>    -9.9011     0.0000     4.0000 </r>
       <r>    -9.7942     0.0000     4.0000 </r>
       <r>    -9.6873     0.0000     4.0000 </r>
       <r>    -9.5804     0.0000     4.0000 </r>
       <r>    -9.4735     0.0000     4.0000 </r>
       <r>    -9.3666     0.0000     4.0000 </r>
       <r>    -9.2597     0.0000     4.0000 </r>
       <r>    -9.1528     0.0000     4.0000 </r>
       <r>    -9.0459     0.0000     4.0000 </r>
       <r>    -8.9390     0.0007     4.0001 </r>
       <r>    -8.8321     0.2830     4.0303 </r>
       <r>    -8.7252     2.1157     4.2565 </r>
       <r>    -8.6182     5.3867     4.8323 </r>
       <r>    -8.5113     7.0204     5.5828 </r>
       <r>    -8.4044     6.2801     6.2542 </r>
       <r>    -8.2975     5.3305     6.8240 </r>
       <r>    -8.1906     4.8497     7.3424 </r>
       <r>    -8.0837     3.8610     7.7552 </r>
       <r>    -7.9768     1.6613     7.9328 </r>
       <r>    -7.8699     0.5767     7.9944 </r>
       <r>    -7.7630     0.0522     8.0000 </r>
       <r>    -7.6561     0.0000     8.0000 </r>
       <r>    -7.5492     0.0000     8.0000 </r>
       <r>    -7.4423     0.0000     8.0000 </r>
       <r>    -7.3354     0.0000     8.0000 </r>
       <r>    -7.2285     0.0000     8.0000 </r>
       <r>    -7.1216     0.0000     8.0000 </r>
       <r>    -7.0147     0.0004     8.0000 </r>
       <r>    -6.9078     0.1092     8.0117 </r>
       <r>    -6.8009     0.2600     8.0395 </r>
       <r>    -6.6940     0.4240     8.0848 </r>
       <r>    -6.5871     0.7664     8.1668 </r>
       <r>    -6.4802     0.8441     8.2570 </r>
       <r>    -6.3733     1.4299     8.4098 </r>
       <r>    -6.2664     1.9296     8.6161 </r>
       <r>    -6.1595     3.0499     8.9422 </r>
       <r>    -6.0526     3.8038     9.3488 </r>
       <r>    -5.9457     4.1253     9.7898 </r>
       <r>    -5.8388     4.0551    10.2233 </r>
       <r>    -5.7319     3.8921    10.6393 </r>
       <r>    -5.6250     4.0772    11.0752 </r>
       <r>    -5.5181     4.2157    11.5259 </r>
       <r>    -5.4112     4.5730    12.0147 </r>
       <r>    -5.3043     4.6306    12.5097 </r>
       <r>    -5.1974     4.5004    12.9908 </r>
       <r>    -5.0905     3.8879    13.4064 </r>
       <r>    -4.9836     3.2209    13.7507 </r>
       <r>    -4.8767     2.9806    14.0694 </r>
       <r>    -4.7698     2.3002    14.3153 </r>
       <r>    -4.6629     2.8985    14.6251 </r>
       <r>    -4.5560     3.3732    14.9857 </r>
       <r>    -4.4491     3.4399    15.3534 </r>
       <r>    -4.3422     3.3710    15.7138 </r>
       <r>    -4.2353     2.9663    16.0309 </r>
       <r>    -4.1284     2.9128    16.3423 </r>
       <r>    -4.0215     2.9269    16.6552 </r>
       <r>    -3.9146     2.8905    16.9642 </r>
       <r>    -3.8077     3.1023    17.2958 </r>
       <r>    -3.7008     2.9041    17.6063 </r>
       <r>    -3.5939     2.7095    17.8959 </r>
       <r>    -3.4870     3.0812    18.2253 </r>
       <r>    -3.3801     2.6668    18.5104 </r>
       <r>    -3.2732     2.8217    18.8120 </r>
       <r>    -3.1663     2.8076    19.1121 </r>
       <r>    -3.0594     2.7024    19.4010 </r>
       <r>    -2.9525     3.0938    19.7318 </r>
       <r>    -2.8456     2.9891    20.0513 </r>
       <r>    -2.7387     2.4515    20.3134 </r>
       <r>    -2.6318     2.6304    20.5946 </r>
       <r>    -2.5249     3.0077    20.9161 </r>
       <r>    -2.4180     3.0112    21.2380 </r>
       <r>    -2.3111     3.1779    21.5777 </r>
       <r>    -2.2042     4.0001    22.0053 </r>
       <r>    -2.0973     3.6554    22.3961 </r>
       <r>    -1.9904     3.1880    22.7369 </r>
       <r>    -1.8835     4.9551    23.2666 </r>
       <r>    -1.7766     5.5216    23.8569 </r>
       <r>    -1.6697     5.6617    24.4621 </r>
       <r>    -1.5628     6.1646    25.1211 </r>
       <r>    -1.4559     6.1609    25.7797 </r>
       <r>    -1.3490     5.6268    26.3812 </r>
       <r>    -1.2421     4.6925    26.8828 </r>
       <r>    -1.1352     6.4786    27.5754 </r>
       <r>    -1.0283     4.2331    28.0279 </r>
       <r>    -0.9214     2.2942    28.2732 </r>
       <r>    -0.8145     2.7086    28.5627 </r>
       <r>    -0.7076     2.8864    28.8713 </r>
       <r>    -0.6007     4.4040    29.3421 </r>
       <r>    -0.4938     6.7982    30.0688 </r>
       <r>    -0.3869     5.6903    30.6771 </r>
       <r>    -0.2800     6.6135    31.3841 </r>
       <r>    -0.1731     6.3939    32.0676 </r>
       <r>    -0.0662     6.7312    32.7872 </r>
       <r>     0.0407     6.8560    33.5201 </r>
       <r>     0.1476     6.2219    34.1852 </r>
       <r>     0.2545     8.8456    35.1308 </r>
       <r>     0.3614     8.1336    36.0003 </r>
       <r>     0.4683     8.6728    36.9275 </r>
       <r>     0.5752     5.4422    37.5092 </r>
       <r>     0.6821     3.0395    37.8342 </r>
       <r>     0.7890     3.2100    38.1773 </r>
       <r>     0.8959     3.5931    38.5614 </r>
       <r>     1.0028     3.5885    38.9450 </r>
       <r>     1.1097     2.8151    39.2460 </r>
       <r>     1.2166     3.3550    39.6046 </r>
       <r>     1.3235     4.4634    40.0817 </r>
       <r>     1.4304     3.8368    40.4919 </r>
       <r>     1.5373     3.6919    40.8866 </r>
       <r>     1.6442     4.5933    41.3776 </r>
       <r>     1.7511     3.3910    41.7401 </r>
       <r>     1.8580     2.4740    42.0046 </r>
       <r>     1.9649     2.6845    42.2915 </r>
       <r>     2.0718     2.1004    42.5161 </r>
       <r>     2.1787     2.6451    42.7988 </r>
       <r>     2.2856     2.6230    43.0792 </r>
       <r>     2.3925     1.9918    43.2921 </r>
       <r>     2.4994     0.9228    43.3908 </r>
       <r>     2.6063     0.3809    43.4315 </r>
       <r>     2.7132     0.5763    43.4931 </r>
       <r>     2.8201     0.4215    43.5382 </r>
       <r>     2.9270     0.3061    43.5709 </r>
       <r>     3.0339     0.7254    43.6484 </r>
       <r>     3.1408     1.0279    43.7583 </r>
       <r>     3.2477     0.5801    43.8203 </r>
       <r>     3.3546     0.0181    43.8223 </r>
       <r>     3.4615     0.1164    43.8347 </r>
       <r>     3.5684     0.3911    43.8765 </r>
       <r>     3.6753     0.3433    43.9132 </r>
       <r>     3.7822     0.3615    43.9519 </r>
       <r>     3.8891     0.4167    43.9964 </r>
       <r>     3.9960     0.0336    44.0000 </r>
       <r>     4.1029     0.0000    44.0000 </r>
       <r>     4.2098     0.0161    44.0017 </r>
       <r>     4.3167     0.1611    44.0189 </r>
       <r>     4.4236     0.3769    44.0592 </r>
       <r>     4.5305     0.4441    44.1067 </r>
       <r>     4.6374     0.6174    44.1727 </r>
       <r>     4.7443     0.8642    44.2651 </r>
       <r>     4.8512     0.8390    44.3548 </r>
       <r>     4.9581     0.8698    44.4478 </r>
       <r>     5.0650     1.2429    44.5806 </r>
       <r>     5.1719     1.1886    44.7077 </r>
       <r>     5.2788     1.5806    44.8767 </r>
       <r>     5.3858     2.1256    45.1039 </r>
       <r>     5.4927     2.5078    45.3720 </r>
       <r>     5.5996     2.7983    45.6711 </r>
       <r>     5.7065     3.2793    46.0217 </r>
       <r>     5.8134     3.2806    46.3724 </r>
       <r>     5.9203     4.2141    46.8229 </r>
       <r>     6.0272     4.8207    47.3382 </r>
       <r>     6.1341     4.1030    47.7768 </r>
       <r>     6.2410     4.5959    48.2681 </r>
       <r>     6.3479     4.3063    48.7285 </r>
       <r>     6.4548     3.9507    49.1508 </r>
       <r>     6.5617     4.5315    49.6352 </r>
       <r>     6.6686     3.2685    49.9846 </r>
       <r>     6.7755     3.9520    50.4071 </r>
       <r>     6.8824     4.6021    50.8991 </r>
       <r>     6.9893     4.5990    51.3907 </r>
       <r>     7.0962     4.3400    51.8547 </r>
       <r>     7.2031     5.5698    52.4501 </r>
       <r>     7.3100     5.0138    52.9861 </r>
       <r>     7.4169     4.4903    53.4661 </r>
       <r>     7.5238     4.2405    53.9194 </r>
       <r>     7.6307     3.6012    54.3044 </r>
       <r>     7.7376     3.1022    54.6360 </r>
       <r>     7.8445     3.0350    54.9604 </r>
       <r>     7.9514     2.9689    55.2778 </r>
       <r>     8.0583     4.1534    55.7218 </r>
       <r>     8.1652     3.9355    56.1425 </r>
       <r>     8.2721     3.7562    56.5441 </r>
       <r>     8.3790     4.0189    56.9737 </r>
       <r>     8.4859     4.2587    57.4289 </r>
       <r>     8.5928     4.5023    57.9103 </r>
       <r>     8.6997     4.3065    58.3706 </r>
       <r>     8.8066     5.3635    58.9440 </r>
       <r>     8.9135     4.7809    59.4551 </r>
       <r>     9.0204     5.2767    60.0191 </r>
       <r>     9.1273     5.2275    60.5780 </r>
       <r>     9.2342     5.0221    61.1148 </r>
       <r>     9.3411     4.6609    61.6131 </r>
       <r>     9.4480     4.4137    62.0849 </r>
       <r>     9.5549     5.0867    62.6287 </r>
       <r>     9.6618     5.0420    63.1677 </r>
       <r>     9.7687     5.2801    63.7321 </r>
       <r>     9.8756     4.4996    64.2131 </r>
       <r>     9.9825     3.7000    64.6087 </r>
       <r>    10.0894     5.1928    65.1638 </r>
       <r>    10.1963     4.7253    65.6689 </r>
       <r>    10.3032     4.1708    66.1148 </r>
       <r>    10.4101     5.3212    66.6836 </r>
       <r>    10.5170     5.8364    67.3075 </r>
       <r>    10.6239     4.0882    67.7446 </r>
       <r>    10.7308     3.9201    68.1636 </r>
       <r>    10.8377     3.2873    68.5151 </r>
       <r>    10.9446     4.6985    69.0173 </r>
       <r>    11.0515     5.3947    69.5940 </r>
       <r>    11.1584     6.3100    70.2686 </r>
       <r>    11.2653     6.0088    70.9109 </r>
       <r>    11.3722     5.1744    71.4641 </r>
       <r>    11.4791     4.4405    71.9387 </r>
       <r>    11.5860     4.4773    72.4174 </r>
       <r>    11.6929     4.9923    72.9511 </r>
       <r>    11.7998     4.8318    73.4676 </r>
       <r>    11.9067     5.9834    74.1072 </r>
       <r>    12.0136     6.0274    74.7516 </r>
       <r>    12.1205     6.0697    75.4004 </r>
       <r>    12.2274     5.5368    75.9923 </r>
       <r>    12.3343     5.0006    76.5269 </r>
       <r>    12.4412     5.7260    77.1390 </r>
       <r>    12.5481     5.9664    77.7768 </r>
       <r>    12.6550     5.9284    78.4105 </r>
       <r>    12.7619     5.9627    79.0480 </r>
       <r>    12.8688     5.8958    79.6782 </r>
       <r>    12.9757     5.6289    80.2800 </r>
       <r>    13.0826     6.3476    80.9585 </r>
       <r>    13.1895     6.3278    81.6350 </r>
       <r>    13.2964     5.4722    82.2199 </r>
       <r>    13.4033     6.1192    82.8741 </r>
       <r>    13.5102     5.4470    83.4564 </r>
       <r>    13.6171     4.8484    83.9747 </r>
       <r>    13.7240     6.1938    84.6368 </r>
       <r>    13.8309     5.5165    85.2265 </r>
       <r>    13.9378     5.3756    85.8012 </r>
       <r>    14.0447     5.4781    86.3868 </r>
       <r>    14.1516     4.6758    86.8866 </r>
       <r>    14.2585     4.9735    87.4183 </r>
       <r>    14.3654     4.9523    87.9477 </r>
       <r>    14.4723     4.9384    88.4756 </r>
       <r>    14.5792     5.2738    89.0394 </r>
       <r>    14.6861     5.2069    89.5960 </r>
       <r>    14.7930     4.1033    90.0347 </r>
       <r>    14.8999     5.0031    90.5695 </r>
       <r>    15.0068     6.1343    91.2253 </r>
       <r>    15.1137     5.7151    91.8362 </r>
       <r>    15.2206     5.7316    92.4489 </r>
       <r>    15.3275     5.9926    93.0896 </r>
       <r>    15.4344     5.7779    93.7072 </r>
       <r>    15.5413     6.0229    94.3511 </r>
       <r>    15.6482     4.6320    94.8462 </r>
       <r>    15.7551     2.5236    95.1160 </r>
       <r>    15.8620     2.7079    95.4055 </r>
       <r>    15.9689     1.8403    95.6022 </r>
       <r>    16.0758     1.1300    95.7230 </r>
       <r>    16.1827     0.8770    95.8168 </r>
       <r>    16.2896     0.7172    95.8934 </r>
       <r>    16.3965     0.8178    95.9809 </r>
       <r>    16.5034     0.1773    95.9998 </r>
       <r>    16.6103     0.0017    96.0000 </r>
       <r>    16.7172     0.0000    96.0000 </r>
       <r>    16.8241     0.0000    96.0000 </r>
       <r>    16.9310     0.0000    96.0000 </r>
       <r>    17.0379     0.0000    96.0000 </r>
       <r>    17.1448     0.0000    96.0000 </r>
       <r>    17.2517     0.0000    96.0000 </r>
       <r>    17.3586     0.0000    96.0000 </r>
       <r>    17.4655     0.0000    96.0000 </r>
       <r>    17.5724     0.0000    96.0000 </r>
       <r>    17.6793     0.0000    96.0000 </r>
       <r>    17.7862     0.0000    96.0000 </r>
       <r>    17.8931     0.0000    96.0000 </r>
      </set>
     </set>
    </array>
   </total>
  </dos>
 </calculation>
 <structure name="finalpos" >
  <crystal>
   <varray name="basis" >
    <v>       5.70611520       0.00000000       0.00000000 </v>
    <v>       0.00000000       4.05437664       0.00000000 </v>
    <v>       0.00000000       0.00000000       6.21412672 </v>
   </varray>
   <i name="volume">    143.76220706 </i>
   <varray name="rec_basis" >
    <v>       0.17525058       0.00000000       0.00000000 </v>
    <v>       0.00000000       0.24664704       0.00000000 </v>
    <v>       0.00000000       0.00000000       0.16092366 </v>
   </varray>
  </crystal>
  <varray name="positions" >
   <v>       0.52123000       0.50000000       0.63796000 </v>
   <v>       0.47877000       0.50000000       0.36204000 </v>
   <v>       0.97877000       0.50000000       0.63796000 </v>
   <v>       0.02123000       0.50000000       0.36204000 </v>
   <v>       0.60090000       0.50000000       0.89991000 </v>
   <v>       0.39910000       0.50000000       0.10009000 </v>
   <v>       0.89910000       0.50000000       0.89991000 </v>
   <v>       0.10090000       0.50000000       0.10009000 </v>
   <v>       0.75000000       0.79171000       0.72973000 </v>
   <v>       0.25000000       0.20829000       0.27027000 </v>
   <v>       0.75000000       0.20829000       0.72973000 </v>
   <v>       0.25000000       0.79171000       0.27027000 </v>
   <v>       0.25000000       0.50000000       0.52367000 </v>
   <v>       0.75000000       0.50000000       0.47633000 </v>
  </varray>
 </structure>
</modeling>
