   14   14    1    1
  0.1024414E+02  0.5701558E-09  0.4051138E-09  0.6209163E-09  0.5000000E-15
  1.000000000000000E-004
  CAR 
 Convergence                             
     42    175     48
 
  0.5000000E-01  0.3571429E-01  0.0000000E+00  0.3174603E-02
      1        -12.722107   1.000000
      2        -11.580449   1.000000
      3         -8.661354   1.000000
      4         -8.424962   1.000000
      5         -6.070348   1.000000
      6         -5.136901   1.000000
      7         -4.673321   1.000000
      8         -4.279056   1.000000
      9         -4.039197   1.000000
     10         -3.550966   1.000000
     11         -2.604081   1.000000
     12         -2.335293   1.000000
     13         -1.844872   1.000000
     14         -1.106146   1.000000
     15         -0.079132   1.000000
     16         -0.048805   1.000000
     17          0.143792   1.000000
     18          0.164561   1.000000
     19          0.553266   1.000000
     20          2.005865   0.000062
     21          2.068574   0.000000
     22          2.201917   0.000000
     23          5.439202   0.000000
     24          5.730079   0.000000
     25          5.817862   0.000000
     26          5.940337   0.000000
     27          6.793077   0.000000
     28          7.527147   0.000000
     29          7.855089   0.000000
     30          8.507749   0.000000
     31          8.769828   0.000000
     32          8.920834   0.000000
     33          9.015104   0.000000
     34         10.099826   0.000000
     35         11.162231   0.000000
     36         11.303363   0.000000
     37         11.632190   0.000000
     38         11.751921   0.000000
     39         11.914420   0.000000
     40         12.378642   0.000000
     41         12.835167   0.000000
     42         13.418134   0.000000
     43         13.445471   0.000000
     44         15.339081   0.000000
     45         15.531692   0.000000
     46         16.019752   0.000000
     47         16.296025   0.000000
     48         16.317625   0.000000
 
  0.1500000E+00  0.3571429E-01  0.0000000E+00  0.3174603E-02
      1        -12.678389   1.000000
      2        -11.654261   1.000000
      3         -8.640200   1.000000
      4         -8.413459   1.000000
      5         -6.002289   1.000000
      6         -5.476853   1.000000
      7         -4.795146   1.000000
      8         -4.015263   1.000000
      9         -3.798019   1.000000
     10         -3.214242   1.000000
     11         -2.674112   1.000000
     12         -2.315359   1.000000
     13         -1.922949   1.000000
     14         -1.412826   1.000000
     15         -0.038964   1.000000
     16         -0.030116   1.000000
     17          0.082806   1.000000
     18          0.185542   1.000000
     19          0.458121   1.000000
     20          1.919767   0.080267
     21          1.990761   0.000323
     22          2.080999   0.000000
     23          5.528299   0.000000
     24          5.736981   0.000000
     25          5.847425   0.000000
     26          6.284954   0.000000
     27          6.707869   0.000000
     28          7.166087   0.000000
     29          8.063197   0.000000
     30          8.644158   0.000000
     31          9.023883   0.000000
     32          9.099828   0.000000
     33          9.175487   0.000000
     34         10.209457   0.000000
     35         10.911946   0.000000
     36         11.099448   0.000000
     37         11.234850   0.000000
     38         11.669543   0.000000
     39         12.131452   0.000000
     40         12.467097   0.000000
     41         13.086683   0.000000
     42         13.094200   0.000000
     43         13.975279   0.000000
     44         14.828747   0.000000
     45         15.712931   0.000000
     46         15.794116   0.000000
     47         16.186782   0.000000
     48         16.474162   0.000000
 
  0.2500000E+00  0.3571429E-01  0.0000000E+00  0.3174603E-02
      1        -12.592812   1.000000
      2        -11.787239   1.000000
      3         -8.596564   1.000000
      4         -8.398725   1.000000
      5         -5.980590   1.000000
      6         -5.802941   1.000000
      7         -4.748990   1.000000
      8         -3.888404   1.000000
      9         -3.287377   1.000000
     10         -2.842200   1.000000
     11         -2.722992   1.000000
     12         -2.275238   1.000000
     13         -2.032890   1.000000
     14         -1.916714   1.000000
     15         -0.232623   1.000000
     16          0.003301   1.000000
     17          0.131826   1.000000
     18          0.147231   1.000000
     19          0.427951   1.000000
     20          1.772091   0.997228
     21          1.852068   0.695510
     22          1.858229   0.632044
     23          5.649372   0.000000
     24          5.693406   0.000000
     25          6.156364   0.000000
     26          6.582303   0.000000
     27          6.742571   0.000000
     28          6.911780   0.000000
     29          8.213001   0.000000
     30          8.792868   0.000000
     31          8.968529   0.000000
     32          9.544152   0.000000
     33          9.620000   0.000000
     34         10.252119   0.000000
     35         10.455341   0.000000
     36         10.594567   0.000000
     37         11.353745   0.000000
     38         11.812451   0.000000
     39         12.366184   0.000000
     40         12.531716   0.000000
     41         12.765553   0.000000
     42         12.883430   0.000000
     43         14.599981   0.000000
     44         14.879698   0.000000
     45         15.193236   0.000000
     46         15.944552   0.000000
     47         15.964791   0.000000
     48         16.249664   0.000000
 
  0.3500000E+00  0.3571429E-01  0.0000000E+00  0.3174603E-02
      1        -12.469370   1.000000
      2        -11.956589   1.000000
      3         -8.534763   1.000000
      4         -8.395450   1.000000
      5         -6.060796   1.000000
      6         -6.035826   1.000000
      7         -4.421932   1.000000
      8         -3.719937   1.000000
      9         -3.035731   1.000000
     10         -2.903637   1.000000
     11         -2.452299   1.000000
     12         -2.262254   1.000000
     13         -2.157452   1.000000
     14         -2.133151   1.000000
     15         -0.531722   1.000000
     16         -0.257971   1.000000
     17          0.162755   1.000000
     18          0.237981   1.000000
     19          0.600852   1.000000
     20          1.516477   1.000000
     21          1.649946   1.000000
     22          1.710215   0.999997
     23          5.678525   0.000000
     24          5.734463   0.000000
     25          6.481511   0.000000
     26          6.653641   0.000000
     27          6.679348   0.000000
     28          7.390666   0.000000
     29          8.336636   0.000000
     30          8.663561   0.000000
     31          8.780265   0.000000
     32          9.508108   0.000000
     33         10.025207   0.000000
     34         10.090816   0.000000
     35         10.367840   0.000000
     36         11.113867   0.000000
     37         11.377992   0.000000
     38         11.912405   0.000000
     39         12.173733   0.000000
     40         12.242994   0.000000
     41         12.493489   0.000000
     42         13.228479   0.000000
     43         14.682583   0.000000
     44         14.942334   0.000000
     45         15.223077   0.000000
     46         15.339386   0.000000
     47         15.535554   0.000000
     48         16.339439   0.000000
 
  0.4500000E+00  0.3571429E-01  0.0000000E+00  0.3174603E-02
      1        -12.314705   1.000000
      2        -12.138924   1.000000
      3         -8.468755   1.000000
      4         -8.417927   1.000000
      5         -6.149562   1.000000
      6         -6.145524   1.000000
      7         -3.907161   1.000000
      8         -3.511281   1.000000
      9         -3.308353   1.000000
     10         -3.273995   1.000000
     11         -2.369095   1.000000
     12         -2.241822   1.000000
     13         -1.972767   1.000000
     14         -1.918317   1.000000
     15         -0.752286   1.000000
     16         -0.616478   1.000000
     17          0.245773   1.000000
     18          0.279235   1.000000
     19          0.861220   1.000000
     20          1.178147   1.000000
     21          1.569448   1.000000
     22          1.596687   1.000000
     23          5.707050   0.000000
     24          5.745119   0.000000
     25          6.460575   0.000000
     26          6.524712   0.000000
     27          7.347056   0.000000
     28          8.050131   0.000000
     29          8.072720   0.000000
     30          8.453677   0.000000
     31          8.591478   0.000000
     32          8.764285   0.000000
     33         10.473843   0.000000
     34         10.488777   0.000000
     35         10.729830   0.000000
     36         11.187335   0.000000
     37         11.371549   0.000000
     38         11.565135   0.000000
     39         11.897960   0.000000
     40         12.451166   0.000000
     41         12.688523   0.000000
     42         13.223026   0.000000
     43         14.560675   0.000000
     44         14.699225   0.000000
     45         14.836912   0.000000
     46         14.896060   0.000000
     47         16.061592   0.000000
     48         16.406719   0.000000
 
  0.5000000E-01  0.1071429E+00  0.0000000E+00  0.3174603E-02
      1        -12.698142   1.000000
      2        -11.558890   1.000000
      3         -8.642641   1.000000
      4         -8.401893   1.000000
      5         -6.043676   1.000000
      6         -5.103200   1.000000
      7         -4.651342   1.000000
      8         -4.577624   1.000000
      9         -4.182891   1.000000
     10         -3.528214   1.000000
     11         -3.296642   1.000000
     12         -1.804396   1.000000
     13         -1.101582   1.000000
     14         -1.046691   1.000000
     15         -0.312438   1.000000
     16         -0.284442   1.000000
     17          0.157303   1.000000
     18          0.234826   1.000000
     19          0.631457   1.000000
     20          1.738702   0.999900
     21          1.818279   0.928844
     22          2.254019   0.000000
     23          5.558530   0.000000
     24          5.688378   0.000000
     25          5.723434   0.000000
     26          5.985468   0.000000
     27          7.078212   0.000000
     28          7.812451   0.000000
     29          8.051612   0.000000
     30          8.164430   0.000000
     31          8.774378   0.000000
     32          9.064864   0.000000
     33          9.118435   0.000000
     34         10.550285   0.000000
     35         11.235405   0.000000
     36         11.375968   0.000000
     37         11.566379   0.000000
     38         11.854505   0.000000
     39         12.025262   0.000000
     40         12.657776   0.000000
     41         12.835958   0.000000
     42         13.156320   0.000000
     43         13.161286   0.000000
     44         15.291651   0.000000
     45         15.339601   0.000000
     46         15.820522   0.000000
     47         15.826146   0.000000
     48         16.180345   0.000000
 
  0.1500000E+00  0.1071429E+00  0.0000000E+00  0.3174603E-02
      1        -12.654517   1.000000
      2        -11.632558   1.000000
      3         -8.621338   1.000000
      4         -8.390769   1.000000
      5         -5.973836   1.000000
      6         -5.446795   1.000000
      7         -4.775178   1.000000
      8         -4.495678   1.000000
      9         -3.759160   1.000000
     10         -3.377046   1.000000
     11         -3.176342   1.000000
     12         -1.782770   1.000000
     13         -1.407420   1.000000
     14         -1.165015   1.000000
     15         -0.273668   1.000000
     16         -0.205137   1.000000
     17          0.124638   1.000000
     18          0.207029   1.000000
     19          0.528677   1.000000
     20          1.658325   1.000000
     21          1.741927   0.999857
     22          2.123463   0.000000
     23          5.634526   0.000000
     24          5.787349   0.000000
     25          5.913864   0.000000
     26          6.092313   0.000000
     27          6.995023   0.000000
     28          7.487641   0.000000
     29          8.197462   0.000000
     30          8.333348   0.000000
     31          9.094786   0.000000
     32          9.129648   0.000000
     33          9.386266   0.000000
     34         10.473042   0.000000
     35         10.843724   0.000000
     36         11.052325   0.000000
     37         11.430246   0.000000
     38         11.842359   0.000000
     39         12.244602   0.000000
     40         12.710352   0.000000
     41         12.835188   0.000000
     42         13.118199   0.000000
     43         13.693707   0.000000
     44         14.913597   0.000000
     45         15.359644   0.000000
     46         15.714599   0.000000
     47         15.755925   0.000000
     48         16.360424   0.000000
 
  0.2500000E+00  0.1071429E+00  0.0000000E+00  0.3174603E-02
      1        -12.569135   1.000000
      2        -11.765275   1.000000
      3         -8.577488   1.000000
      4         -8.376734   1.000000
      5         -5.949380   1.000000
      6         -5.772601   1.000000
      7         -4.732402   1.000000
      8         -4.387503   1.000000
      9         -3.498651   1.000000
     10         -3.233880   1.000000
     11         -2.710584   1.000000
     12         -1.912119   1.000000
     13         -1.738622   1.000000
     14         -1.327361   1.000000
     15         -0.234779   1.000000
     16         -0.227132   1.000000
     17          0.042315   1.000000
     18          0.194166   1.000000
     19          0.452413   1.000000
     20          1.523561   1.000000
     21          1.612045   1.000000
     22          1.875669   0.438018
     23          5.834938   0.000000
     24          5.915227   0.000000
     25          5.993353   0.000000
     26          6.540082   0.000000
     27          6.874723   0.000000
     28          7.260216   0.000000
     29          8.403908   0.000000
     30          8.465563   0.000000
     31          9.067621   0.000000
     32          9.582261   0.000000
     33          9.845158   0.000000
     34         10.096563   0.000000
     35         10.323442   0.000000
     36         10.791128   0.000000
     37         11.494579   0.000000
     38         12.077176   0.000000
     39         12.275550   0.000000
     40         12.527839   0.000000
     41         12.923049   0.000000
     42         12.994717   0.000000
     43         14.270045   0.000000
     44         15.046324   0.000000
     45         15.125744   0.000000
     46         15.607274   0.000000
     47         15.672540   0.000000
     48         16.380796   0.000000
 
  0.3500000E+00  0.1071429E+00  0.0000000E+00  0.3174603E-02
      1        -12.445958   1.000000
      2        -11.934271   1.000000
      3         -8.515440   1.000000
      4         -8.374347   1.000000
      5         -6.028381   1.000000
      6         -6.004625   1.000000
      7         -4.407481   1.000000
      8         -4.240808   1.000000
      9         -3.669662   1.000000
     10         -2.854952   1.000000
     11         -2.370935   1.000000
     12         -2.227946   1.000000
     13         -1.674583   1.000000
     14         -1.489946   1.000000
     15         -0.493505   1.000000
     16         -0.319882   1.000000
     17          0.073851   1.000000
     18          0.104344   1.000000
     19          0.611483   1.000000
     20          1.384072   1.000000
     21          1.466910   1.000000
     22          1.552298   1.000000
     23          5.852703   0.000000
     24          5.988528   0.000000
     25          6.498193   0.000000
     26          6.785706   0.000000
     27          6.858929   0.000000
     28          7.350373   0.000000
     29          8.393691   0.000000
     30          8.572910   0.000000
     31          8.909671   0.000000
     32          9.344197   0.000000
     33         10.042593   0.000000
     34         10.067722   0.000000
     35         10.412984   0.000000
     36         11.190620   0.000000
     37         11.335081   0.000000
     38         11.810242   0.000000
     39         12.256727   0.000000
     40         12.517374   0.000000
     41         12.692926   0.000000
     42         13.430063   0.000000
     43         14.730338   0.000000
     44         14.738906   0.000000
     45         15.116154   0.000000
     46         15.272112   0.000000
     47         15.612868   0.000000
     48         16.352969   0.000000
 
  0.4500000E+00  0.1071429E+00  0.0000000E+00  0.3174603E-02
      1        -12.291627   1.000000
      2        -12.116224   1.000000
      3         -8.449087   1.000000
      4         -8.397670   1.000000
      5         -6.117552   1.000000
      6         -6.113076   1.000000
      7         -4.062279   1.000000
      8         -3.899753   1.000000
      9         -3.858956   1.000000
     10         -3.295584   1.000000
     11         -2.116263   1.000000
     12         -1.923327   1.000000
     13         -1.606456   1.000000
     14         -1.602412   1.000000
     15         -0.714214   1.000000
     16         -0.612538   1.000000
     17          0.107392   1.000000
     18          0.138520   1.000000
     19          0.870589   1.000000
     20          1.184570   1.000000
     21          1.330706   1.000000
     22          1.354734   1.000000
     23          5.904275   0.000000
     24          5.970665   0.000000
     25          6.775250   0.000000
     26          6.825863   0.000000
     27          7.164476   0.000000
     28          7.875217   0.000000
     29          7.919203   0.000000
     30          8.600013   0.000000
     31          8.664972   0.000000
     32          8.777191   0.000000
     33         10.290400   0.000000
     34         10.539221   0.000000
     35         10.776846   0.000000
     36         10.878316   0.000000
     37         11.518828   0.000000
     38         11.624090   0.000000
     39         11.976392   0.000000
     40         12.619254   0.000000
     41         12.996018   0.000000
     42         13.453517   0.000000
     43         14.514432   0.000000
     44         14.699419   0.000000
     45         14.797406   0.000000
     46         15.015097   0.000000
     47         16.086651   0.000000
     48         16.381291   0.000000
 
  0.5000000E-01  0.1785714E+00  0.0000000E+00  0.3174603E-02
      1        -12.653871   1.000000
      2        -11.519138   1.000000
      3         -8.608383   1.000000
      4         -8.359343   1.000000
      5         -5.994368   1.000000
      6         -5.134286   1.000000
      7         -5.012704   1.000000
      8         -4.609681   1.000000
      9         -4.166500   1.000000
     10         -3.918180   1.000000
     11         -3.475100   1.000000
     12         -1.214692   1.000000
     13         -1.092306   1.000000
     14         -0.655452   1.000000
     15         -0.550711   1.000000
     16         -0.189014   1.000000
     17          0.178439   1.000000
     18          0.287432   1.000000
     19          0.709662   1.000000
     20          1.356828   1.000000
     21          1.420075   1.000000
     22          2.291953   0.000000
     23          5.270535   0.000000
     24          5.435239   0.000000
     25          6.101927   0.000000
     26          6.172955   0.000000
     27          7.511970   0.000000
     28          7.600814   0.000000
     29          8.293832   0.000000
     30          8.697880   0.000000
     31          8.854558   0.000000
     32          9.205647   0.000000
     33          9.340298   0.000000
     34         10.852561   0.000000
     35         11.288396   0.000000
     36         11.541010   0.000000
     37         11.675268   0.000000
     38         12.054562   0.000000
     39         12.241278   0.000000
     40         12.715036   0.000000
     41         12.727925   0.000000
     42         12.970122   0.000000
     43         13.195790   0.000000
     44         14.633405   0.000000
     45         15.121888   0.000000
     46         15.300872   0.000000
     47         15.396228   0.000000
     48         15.920006   0.000000
 
  0.1500000E+00  0.1785714E+00  0.0000000E+00  0.3174603E-02
      1        -12.610431   1.000000
      2        -11.592536   1.000000
      3         -8.586778   1.000000
      4         -8.348915   1.000000
      5         -5.921131   1.000000
      6         -5.398486   1.000000
      7         -5.036599   1.000000
      8         -4.737593   1.000000
      9         -3.984063   1.000000
     10         -3.717267   1.000000
     11         -3.136956   1.000000
     12         -1.399142   1.000000
     13         -1.188515   1.000000
     14         -0.763095   1.000000
     15         -0.512780   1.000000
     16         -0.107673   1.000000
     17          0.158173   1.000000
     18          0.232123   1.000000
     19          0.597147   1.000000
     20          1.277842   1.000000
     21          1.350437   1.000000
     22          2.156400   0.000000
     23          5.350907   0.000000
     24          5.780204   0.000000
     25          6.119030   0.000000
     26          6.216827   0.000000
     27          7.431407   0.000000
     28          7.757344   0.000000
     29          8.026150   0.000000
     30          8.789441   0.000000
     31          9.218457   0.000000
     32          9.257251   0.000000
     33          9.624358   0.000000
     34         10.488152   0.000000
     35         10.749407   0.000000
     36         11.245445   0.000000
     37         11.693147   0.000000
     38         12.167515   0.000000
     39         12.400025   0.000000
     40         12.471739   0.000000
     41         13.128352   0.000000
     42         13.243215   0.000000
     43         13.402520   0.000000
     44         14.644831   0.000000
     45         14.784423   0.000000
     46         15.238505   0.000000
     47         15.460199   0.000000
     48         15.949325   0.000000
 
  0.2500000E+00  0.1785714E+00  0.0000000E+00  0.3174603E-02
      1        -12.525392   1.000000
      2        -11.724747   1.000000
      3         -8.542507   1.000000
      4         -8.336208   1.000000
      5         -5.891296   1.000000
      6         -5.717856   1.000000
      7         -4.945018   1.000000
      8         -4.701423   1.000000
      9         -4.107232   1.000000
     10         -3.183965   1.000000
     11         -2.666724   1.000000
     12         -1.895784   1.000000
     13         -1.148024   1.000000
     14         -0.902146   1.000000
     15         -0.460063   1.000000
     16         -0.100255   1.000000
     17          0.002329   1.000000
     18          0.243694   1.000000
     19          0.482217   1.000000
     20          1.146581   1.000000
     21          1.232291   1.000000
     22          1.900305   0.196884
     23          5.671638   0.000000
     24          6.074087   0.000000
     25          6.255298   0.000000
     26          6.346979   0.000000
     27          7.329422   0.000000
     28          7.837469   0.000000
     29          7.991354   0.000000
     30          8.918210   0.000000
     31          9.214213   0.000000
     32          9.689111   0.000000
     33          9.824269   0.000000
     34         10.106553   0.000000
     35         10.224992   0.000000
     36         11.030312   0.000000
     37         11.558560   0.000000
     38         12.074635   0.000000
     39         12.477888   0.000000
     40         12.772862   0.000000
     41         13.009633   0.000000
     42         13.415436   0.000000
     43         13.924623   0.000000
     44         14.554866   0.000000
     45         14.833772   0.000000
     46         15.260840   0.000000
     47         15.478140   0.000000
     48         16.160049   0.000000
 
  0.3500000E+00  0.1785714E+00  0.0000000E+00  0.3174603E-02
      1        -12.402716   1.000000
      2        -11.893092   1.000000
      3         -8.480000   1.000000
      4         -8.335518   1.000000
      5         -5.967980   1.000000
      6         -5.947082   1.000000
      7         -4.809490   1.000000
      8         -4.380847   1.000000
      9         -4.271234   1.000000
     10         -2.816608   1.000000
     11         -2.330183   1.000000
     12         -2.186847   1.000000
     13         -1.091637   1.000000
     14         -1.039191   1.000000
     15         -0.466335   1.000000
     16         -0.385575   1.000000
     17          0.046058   1.000000
     18          0.049035   1.000000
     19          0.629030   1.000000
     20          1.017179   1.000000
     21          1.099757   1.000000
     22          1.565900   1.000000
     23          6.085753   0.000000
     24          6.205667   0.000000
     25          6.378233   0.000000
     26          6.781082   0.000000
     27          7.274223   0.000000
     28          7.759106   0.000000
     29          8.047502   0.000000
     30          9.017724   0.000000
     31          9.077378   0.000000
     32          9.147866   0.000000
     33          9.857342   0.000000
     34         10.156008   0.000000
     35         10.673123   0.000000
     36         11.047971   0.000000
     37         11.289490   0.000000
     38         11.920537   0.000000
     39         12.318985   0.000000
     40         12.955668   0.000000
     41         13.006672   0.000000
     42         13.758151   0.000000
     43         14.342557   0.000000
     44         14.359969   0.000000
     45         14.992951   0.000000
     46         15.087065   0.000000
     47         15.574715   0.000000
     48         16.338138   0.000000
 
  0.4500000E+00  0.1785714E+00  0.0000000E+00  0.3174603E-02
      1        -12.249016   1.000000
      2        -12.074320   1.000000
      3         -8.412985   1.000000
      4         -8.360446   1.000000
      5         -6.058142   1.000000
      6         -6.052651   1.000000
      7         -4.642141   1.000000
      8         -4.457001   1.000000
      9         -3.868817   1.000000
     10         -3.273094   1.000000
     11         -2.048074   1.000000
     12         -1.883000   1.000000
     13         -1.111614   1.000000
     14         -1.050985   1.000000
     15         -0.641535   1.000000
     16         -0.635939   1.000000
     17         -0.003306   1.000000
     18          0.040212   1.000000
     19          0.886226   1.000000
     20          0.954838   1.000000
     21          0.995403   1.000000
     22          1.212969   1.000000
     23          6.177554   0.000000
     24          6.296274   0.000000
     25          6.857134   0.000000
     26          7.194626   0.000000
     27          7.252663   0.000000
     28          7.600371   0.000000
     29          7.905806   0.000000
     30          8.415692   0.000000
     31          9.073432   0.000000
     32          9.105290   0.000000
     33          9.981640   0.000000
     34         10.454005   0.000000
     35         10.677422   0.000000
     36         10.950198   0.000000
     37         11.698794   0.000000
     38         11.714202   0.000000
     39         12.096313   0.000000
     40         12.874794   0.000000
     41         13.384548   0.000000
     42         13.730625   0.000000
     43         14.192111   0.000000
     44         14.346463   0.000000
     45         14.958687   0.000000
     46         15.097975   0.000000
     47         15.951923   0.000000
     48         16.255089   0.000000
 
  0.5000000E-01  0.2500000E+00  0.0000000E+00  0.3174603E-02
      1        -12.596515   1.000000
      2        -11.467783   1.000000
      3         -8.564619   1.000000
      4         -8.304292   1.000000
      5         -5.930371   1.000000
      6         -5.614817   1.000000
      7         -4.942729   1.000000
      8         -4.553642   1.000000
      9         -4.437913   1.000000
     10         -4.127267   1.000000
     11         -3.413288   1.000000
     12         -1.227234   1.000000
     13         -1.078074   1.000000
     14         -1.008968   1.000000
     15         -0.206159   1.000000
     16          0.206587   1.000000
     17          0.330591   1.000000
     18          0.581216   1.000000
     19          0.773187   1.000000
     20          0.972329   1.000000
     21          0.986393   1.000000
     22          2.326008   0.000000
     23          4.928179   0.000000
     24          5.142495   0.000000
     25          6.332801   0.000000
     26          6.562450   0.000000
     27          7.243328   0.000000
     28          7.940665   0.000000
     29          8.670213   0.000000
     30          9.033240   0.000000
     31          9.429603   0.000000
     32          9.552456   0.000000
     33          9.621459   0.000000
     34         10.713974   0.000000
     35         11.237502   0.000000
     36         11.936421   0.000000
     37         11.990369   0.000000
     38         12.262025   0.000000
     39         12.393215   0.000000
     40         12.418892   0.000000
     41         12.533670   0.000000
     42         12.955182   0.000000
     43         13.752029   0.000000
     44         13.848131   0.000000
     45         14.378731   0.000000
     46         15.067929   0.000000
     47         15.369327   0.000000
     48         15.814977   0.000000
 
  0.1500000E+00  0.2500000E+00  0.0000000E+00  0.3174603E-02
      1        -12.553304   1.000000
      2        -11.540822   1.000000
      3         -8.542607   1.000000
      4         -8.294819   1.000000
      5         -5.852523   1.000000
      6         -5.580060   1.000000
      7         -5.279181   1.000000
      8         -4.687862   1.000000