  14  14   0   0
  0.1025029E+02  0.5702697E-09  0.4051948E-09  0.6210404E-09  0.5000000E-15
  1.000000000000000E-004
  CAR 
 Convergence                             
     17.92376800    -14.18071409  301      1.86667509      1.00000000
    -14.181  0.0000E+00  0.0000E+00
    -14.074  0.0000E+00  0.0000E+00
    -13.967  0.0000E+00  0.0000E+00
    -13.860  0.0000E+00  0.0000E+00
    -13.753  0.0000E+00  0.0000E+00
    -13.646  0.0000E+00  0.0000E+00
    -13.539  0.0000E+00  0.0000E+00
    -13.432  0.0000E+00  0.0000E+00
    -13.325  0.0000E+00  0.0000E+00
    -13.218  0.0000E+00  0.0000E+00
    -13.111  0.0000E+00  0.0000E+00
    -13.004  0.4940E-16  0.5287E-17
    -12.897  0.3115E-07  0.3333E-08
    -12.790  0.3864E-02  0.4135E-03
    -12.683  0.5097E+00  0.5496E-01
    -12.575  0.2394E+01  0.3111E+00
    -12.468  0.3571E+01  0.6933E+00
    -12.361  0.4377E+01  0.1162E+01
    -12.254  0.3539E+01  0.1540E+01
    -12.147  0.2737E+01  0.1833E+01
    -12.040  0.2754E+01  0.2128E+01
    -11.933  0.2501E+01  0.2396E+01
    -11.826  0.2772E+01  0.2692E+01
    -11.719  0.3416E+01  0.3058E+01
    -11.612  0.3537E+01  0.3436E+01
    -11.505  0.3132E+01  0.3771E+01
    -11.398  0.1690E+01  0.3952E+01
    -11.291  0.4378E+00  0.3999E+01
    -11.184  0.8245E-02  0.4000E+01
    -11.077  0.2362E-06  0.4000E+01
    -10.970  0.1561E-14  0.4000E+01
    -10.863  0.0000E+00  0.4000E+01
    -10.756  0.0000E+00  0.4000E+01
    -10.649  0.0000E+00  0.4000E+01
    -10.542  0.0000E+00  0.4000E+01
    -10.435  0.0000E+00  0.4000E+01
    -10.328  0.0000E+00  0.4000E+01
    -10.221  0.0000E+00  0.4000E+01
    -10.114  0.0000E+00  0.4000E+01
    -10.007  0.0000E+00  0.4000E+01
     -9.900  0.0000E+00  0.4000E+01
     -9.793  0.0000E+00  0.4000E+01
     -9.686  0.0000E+00  0.4000E+01
     -9.579  0.0000E+00  0.4000E+01
     -9.472  0.0000E+00  0.4000E+01
     -9.365  0.0000E+00  0.4000E+01
     -9.258  0.0000E+00  0.4000E+01
     -9.151  0.0000E+00  0.4000E+01
     -9.044  0.1050E-08  0.4000E+01
     -8.937  0.6512E-03  0.4000E+01
     -8.830  0.2804E+00  0.4030E+01
     -8.723  0.2106E+01  0.4255E+01
     -8.616  0.5366E+01  0.4830E+01
     -8.509  0.7008E+01  0.5580E+01
     -8.402  0.6287E+01  0.6253E+01
     -8.295  0.5329E+01  0.6823E+01
     -8.188  0.4844E+01  0.7341E+01
     -8.081  0.3865E+01  0.7755E+01
     -7.974  0.1663E+01  0.7933E+01
     -7.867  0.5766E+00  0.7994E+01
     -7.760  0.5206E-01  0.8000E+01
     -7.653  0.2455E-04  0.8000E+01
     -7.546  0.2897E-11  0.8000E+01
     -7.439  0.0000E+00  0.8000E+01
     -7.332  0.0000E+00  0.8000E+01
     -7.225  0.0000E+00  0.8000E+01
     -7.118  0.4340E-09  0.8000E+01
     -7.011  0.3691E-03  0.8000E+01
     -6.904  0.1106E+00  0.8012E+01
     -6.797  0.2591E+00  0.8040E+01
     -6.690  0.4248E+00  0.8085E+01
     -6.583  0.7663E+00  0.8167E+01
     -6.476  0.8464E+00  0.8258E+01
     -6.369  0.1436E+01  0.8411E+01
     -6.262  0.1942E+01  0.8619E+01
     -6.155  0.3052E+01  0.8946E+01
     -6.048  0.3796E+01  0.9352E+01
     -5.941  0.4121E+01  0.9793E+01
     -5.834  0.4051E+01  0.1023E+02
     -5.727  0.3881E+01  0.1064E+02
     -5.620  0.4075E+01  0.1108E+02
     -5.513  0.4218E+01  0.1153E+02
     -5.405  0.4562E+01  0.1202E+02
     -5.298  0.4619E+01  0.1251E+02
     -5.191  0.4497E+01  0.1299E+02
     -5.084  0.3881E+01  0.1341E+02
     -4.977  0.3223E+01  0.1375E+02
     -4.870  0.2970E+01  0.1407E+02
     -4.763  0.2314E+01  0.1432E+02
     -4.656  0.2897E+01  0.1463E+02
     -4.549  0.3372E+01  0.1499E+02
     -4.442  0.3452E+01  0.1536E+02
     -4.335  0.3357E+01  0.1572E+02
     -4.228  0.2961E+01  0.1604E+02
     -4.121  0.2911E+01  0.1635E+02
     -4.014  0.2934E+01  0.1666E+02
     -3.907  0.2879E+01  0.1697E+02
     -3.800  0.3109E+01  0.1730E+02
     -3.693  0.2893E+01  0.1761E+02
     -3.586  0.2707E+01  0.1790E+02
     -3.479  0.3076E+01  0.1823E+02
     -3.372  0.2656E+01  0.1851E+02
     -3.265  0.2837E+01  0.1882E+02
     -3.158  0.2784E+01  0.1912E+02
     -3.051  0.2717E+01  0.1941E+02
     -2.944  0.3076E+01  0.1974E+02
     -2.837  0.2984E+01  0.2005E+02
     -2.730  0.2443E+01  0.2032E+02
     -2.623  0.2641E+01  0.2060E+02
     -2.516  0.3013E+01  0.2092E+02
     -2.409  0.3001E+01  0.2124E+02
     -2.302  0.3184E+01  0.2158E+02
     -2.195  0.4002E+01  0.2201E+02
     -2.088  0.3657E+01  0.2240E+02
     -1.981  0.3223E+01  0.2275E+02
     -1.874  0.5019E+01  0.2328E+02
     -1.767  0.5539E+01  0.2388E+02
     -1.660  0.5642E+01  0.2448E+02
     -1.553  0.6174E+01  0.2514E+02
     -1.446  0.6142E+01  0.2580E+02
     -1.339  0.5606E+01  0.2640E+02
     -1.232  0.4686E+01  0.2690E+02
     -1.125  0.6492E+01  0.2760E+02
     -1.018  0.4135E+01  0.2804E+02
     -0.911  0.2284E+01  0.2828E+02
     -0.804  0.2705E+01  0.2857E+02
     -0.697  0.2883E+01  0.2888E+02
     -0.590  0.4447E+01  0.2936E+02
     -0.483  0.6826E+01  0.3009E+02
     -0.376  0.5676E+01  0.3069E+02
     -0.269  0.6651E+01  0.3141E+02
     -0.162  0.6378E+01  0.3209E+02
     -0.055  0.6738E+01  0.3281E+02
      0.052  0.6821E+01  0.3354E+02
      0.159  0.6250E+01  0.3421E+02
      0.266  0.8831E+01  0.3515E+02
      0.373  0.8078E+01  0.3602E+02
      0.480  0.8682E+01  0.3695E+02
      0.587  0.5366E+01  0.3752E+02
      0.694  0.2999E+01  0.3784E+02
      0.801  0.3242E+01  0.3819E+02
      0.908  0.3591E+01  0.3857E+02
      1.015  0.3580E+01  0.3896E+02
      1.122  0.2804E+01  0.3926E+02
      1.229  0.3368E+01  0.3962E+02
      1.336  0.4479E+01  0.4010E+02
      1.443  0.3813E+01  0.4050E+02
      1.550  0.3703E+01  0.4090E+02
      1.657  0.4588E+01  0.4139E+02
      1.765  0.3330E+01  0.4175E+02
      1.872  0.2475E+01  0.4201E+02
      1.979  0.2676E+01  0.4230E+02
      2.086  0.2096E+01  0.4252E+02
      2.193  0.2649E+01  0.4281E+02
      2.300  0.2603E+01  0.4309E+02
      2.407  0.1971E+01  0.4330E+02
      2.514  0.8945E+00  0.4339E+02
      2.621  0.3793E+00  0.4343E+02
      2.728  0.5751E+00  0.4349E+02
      2.835  0.4208E+00  0.4354E+02
      2.942  0.3056E+00  0.4357E+02
      3.049  0.7384E+00  0.4365E+02
      3.156  0.1023E+01  0.4376E+02
      3.263  0.5635E+00  0.4382E+02
      3.370  0.1591E-01  0.4382E+02
      3.477  0.1221E+00  0.4384E+02
      3.584  0.3930E+00  0.4388E+02
      3.691  0.3380E+00  0.4391E+02
      3.798  0.3658E+00  0.4395E+02
      3.905  0.4111E+00  0.4400E+02
      4.012  0.3068E-01  0.4400E+02
      4.119  0.1200E-04  0.4400E+02
      4.226  0.2104E-01  0.4400E+02
      4.333  0.1667E+00  0.4402E+02
      4.440  0.3885E+00  0.4406E+02
      4.547  0.4534E+00  0.4411E+02
      4.654  0.6227E+00  0.4418E+02
      4.761  0.8749E+00  0.4427E+02
      4.868  0.8383E+00  0.4436E+02
      4.975  0.8637E+00  0.4445E+02
      5.082  0.1258E+01  0.4459E+02
      5.189  0.1174E+01  0.4471E+02
      5.296  0.1601E+01  0.4488E+02
      5.403  0.2152E+01  0.4511E+02
      5.510  0.2499E+01  0.4538E+02
      5.617  0.2795E+01  0.4568E+02
      5.724  0.3312E+01  0.4604E+02
      5.831  0.3254E+01  0.4638E+02
      5.938  0.4255E+01  0.4684E+02
      6.045  0.4799E+01  0.4735E+02
      6.152  0.4077E+01  0.4779E+02
      6.259  0.4607E+01  0.4828E+02
      6.366  0.4249E+01  0.4874E+02
      6.473  0.3974E+01  0.4916E+02
      6.580  0.4515E+01  0.4965E+02
      6.687  0.3250E+01  0.4999E+02
      6.794  0.3969E+01  0.5042E+02
      6.901  0.4607E+01  0.5091E+02
      7.008  0.4580E+01  0.5140E+02
      7.115  0.4340E+01  0.5187E+02
      7.222  0.5582E+01  0.5246E+02
      7.329  0.4980E+01  0.5300E+02
      7.436  0.4476E+01  0.5347E+02
      7.543  0.4223E+01  0.5393E+02
      7.650  0.3588E+01  0.5431E+02
      7.757  0.3110E+01  0.5464E+02
      7.864  0.3026E+01  0.5497E+02
      7.971  0.2970E+01  0.5529E+02
      8.078  0.4161E+01  0.5573E+02
      8.185  0.3917E+01  0.5615E+02
      8.292  0.3731E+01  0.5655E+02
      8.399  0.4007E+01  0.5698E+02
      8.506  0.4243E+01  0.5743E+02
      8.613  0.4486E+01  0.5791E+02
      8.720  0.4273E+01  0.5837E+02
      8.827  0.5328E+01  0.5894E+02
      8.935  0.4841E+01  0.5946E+02
      9.042  0.5285E+01  0.6002E+02
      9.149  0.5230E+01  0.6058E+02
      9.256  0.5004E+01  0.6112E+02
      9.363  0.4671E+01  0.6162E+02
      9.470  0.4397E+01  0.6209E+02
      9.577  0.5094E+01  0.6263E+02
      9.684  0.5036E+01  0.6317E+02
      9.791  0.5288E+01  0.6374E+02
      9.898  0.4492E+01  0.6422E+02
     10.005  0.3674E+01  0.6461E+02
     10.112  0.5188E+01  0.6517E+02
     10.219  0.4721E+01  0.6567E+02
     10.326  0.4151E+01  0.6612E+02
     10.433  0.5356E+01  0.6669E+02
     10.540  0.5828E+01  0.6731E+02
     10.647  0.4079E+01  0.6775E+02
     10.754  0.3906E+01  0.6817E+02
     10.861  0.3268E+01  0.6852E+02
     10.968  0.4685E+01  0.6902E+02
     11.075  0.5429E+01  0.6960E+02
     11.182  0.6265E+01  0.7027E+02
     11.289  0.6005E+01  0.7091E+02
     11.396  0.5216E+01  0.7147E+02
     11.503  0.4387E+01  0.7194E+02
     11.610  0.4476E+01  0.7242E+02
     11.717  0.4970E+01  0.7295E+02
     11.824  0.4821E+01  0.7347E+02
     11.931  0.6006E+01  0.7411E+02
     12.038  0.6000E+01  0.7475E+02
     12.145  0.6044E+01  0.7540E+02
     12.252  0.5567E+01  0.7600E+02
     12.359  0.4998E+01  0.7653E+02
     12.466  0.5715E+01  0.7714E+02
     12.573  0.5973E+01  0.7778E+02
     12.680  0.5964E+01  0.7842E+02
     12.787  0.5935E+01  0.7905E+02
     12.894  0.5884E+01  0.7968E+02
     13.001  0.5616E+01  0.8028E+02
     13.108  0.6348E+01  0.8096E+02
     13.215  0.6303E+01  0.8164E+02
     13.322  0.5440E+01  0.8222E+02
     13.429  0.6124E+01  0.8288E+02
     13.536  0.5410E+01  0.8346E+02
     13.643  0.4832E+01  0.8397E+02
     13.750  0.6171E+01  0.8463E+02
     13.857  0.5519E+01  0.8522E+02
     13.964  0.5364E+01  0.8580E+02
     14.071  0.5478E+01  0.8638E+02
     14.178  0.4678E+01  0.8688E+02
     14.285  0.4949E+01  0.8741E+02
     14.392  0.4976E+01  0.8795E+02
     14.499  0.4947E+01  0.8848E+02
     14.606  0.5274E+01  0.8904E+02
     14.713  0.5192E+01  0.8960E+02
     14.820  0.4098E+01  0.9003E+02
     14.927  0.5032E+01  0.9057E+02
     15.034  0.6154E+01  0.9123E+02
     15.141  0.5686E+01  0.9184E+02
     15.248  0.5711E+01  0.9245E+02
     15.355  0.6006E+01  0.9309E+02
     15.462  0.5762E+01  0.9371E+02
     15.569  0.5996E+01  0.9435E+02
     15.676  0.4618E+01  0.9485E+02
     15.783  0.2502E+01  0.9511E+02
     15.890  0.2708E+01  0.9540E+02
     15.997  0.1848E+01  0.9560E+02
     16.105  0.1136E+01  0.9572E+02
     16.212  0.8953E+00  0.9582E+02
     16.319  0.6965E+00  0.9589E+02
     16.426  0.8156E+00  0.9598E+02
     16.533  0.1777E+00  0.9600E+02
     16.640  0.1703E-02  0.9600E+02
     16.747  0.2170E-07  0.9600E+02
     16.854  0.3952E-16  0.9600E+02
     16.961  0.0000E+00  0.9600E+02
     17.068  0.0000E+00  0.9600E+02
     17.175  0.0000E+00  0.9600E+02
     17.282  0.0000E+00  0.9600E+02
     17.389  0.0000E+00  0.9600E+02
     17.496  0.0000E+00  0.9600E+02
     17.603  0.0000E+00  0.9600E+02
     17.710  0.0000E+00  0.9600E+02
     17.817  0.0000E+00  0.9600E+02
     17.924  0.0000E+00  0.9600E+02
