 running   24 mpi-ranks, with    1 threads/rank, on    1 nodes
 distrk:  each k-point on   24 cores,    1 groups
 distr:  one band on    1 cores,   24 groups
 vasp.6.4.3 19Mar24 (build May 31 2024 16:31:43) complex                        
  
 POSCAR found type information on POSCAR B 
 POSCAR found :  1 types and      14 ions
 Reading from existing POTCAR
 scaLAPACK will be used
 Reading from existing POTCAR
 LDA part: xc-table for (Slater+PW92), standard interpolation
 POSCAR, INCAR and KPOINTS ok, starting setup
 FFT: planning ... GRIDC
 FFT: planning ... GRID_SOFT
 FFT: planning ... GRID
 WAVECAR not read
 entering main loop
       N       E                     dE             d eps       ncg     rms          rms(c)
DAV:   1     0.171549309326E+03    0.17155E+03   -0.28801E+04 16800   0.144E+03
DAV:   2    -0.870680426450E+02   -0.25862E+03   -0.23840E+03 21768   0.220E+02
DAV:   3    -0.975906488975E+02   -0.10523E+02   -0.10418E+02 25128   0.391E+01
DAV:   4    -0.976586395030E+02   -0.67991E-01   -0.67985E-01 18576   0.357E+00
DAV:   5    -0.976593059270E+02   -0.66642E-03   -0.66641E-03 25152   0.337E-01    0.123E+01
DAV:   6    -0.922429639755E+02    0.54163E+01   -0.39496E+00 24216   0.659E+00    0.680E+00
DAV:   7    -0.905912738560E+02    0.16517E+01   -0.32202E+00 25176   0.587E+00    0.171E+00
DAV:   8    -0.906037677386E+02   -0.12494E-01   -0.23599E-01 18456   0.169E+00    0.704E-01
DAV:   9    -0.906179391463E+02   -0.14171E-01   -0.16946E-02 23376   0.442E-01    0.198E-01
DAV:  10    -0.906219893911E+02   -0.40502E-02   -0.21015E-03 19080   0.163E-01    0.611E-02
DAV:  11    -0.906230613962E+02   -0.10720E-02   -0.63197E-04 21720   0.893E-02    0.321E-02
DAV:  12    -0.906231772274E+02   -0.11583E-03   -0.93402E-05 20760   0.390E-02    0.429E-03
DAV:  13    -0.906231821440E+02   -0.49167E-05   -0.41970E-06 23592   0.954E-03    0.181E-03
DAV:  14    -0.906231828370E+02   -0.69293E-06   -0.29403E-07 20424   0.255E-03
   1 F= -.90623183E+02 E0= -.90621576E+02  d E =-.321358E-02
