  14  14   0   0
  0.1024721E+02  0.5702127E-09  0.4051543E-09  0.6209784E-09  0.5000000E-15
  1.000000000000000E-004
  CAR 
 Convergence                             
     17.92887339    -14.18131807  301      1.86841399      1.00000000
    -14.181  0.0000E+00  0.0000E+00
    -14.074  0.0000E+00  0.0000E+00
    -13.967  0.0000E+00  0.0000E+00
    -13.860  0.0000E+00  0.0000E+00
    -13.753  0.0000E+00  0.0000E+00
    -13.646  0.0000E+00  0.0000E+00
    -13.539  0.0000E+00  0.0000E+00
    -13.432  0.0000E+00  0.0000E+00
    -13.325  0.0000E+00  0.0000E+00
    -13.218  0.0000E+00  0.0000E+00
    -13.111  0.0000E+00  0.0000E+00
    -13.004  0.4939E-16  0.5287E-17
    -12.897  0.3099E-07  0.3317E-08
    -12.790  0.3859E-02  0.4130E-03
    -12.683  0.5096E+00  0.5496E-01
    -12.576  0.2393E+01  0.3111E+00
    -12.469  0.3570E+01  0.6933E+00
    -12.362  0.4376E+01  0.1162E+01
    -12.255  0.3539E+01  0.1540E+01
    -12.148  0.2737E+01  0.1833E+01
    -12.041  0.2754E+01  0.2128E+01
    -11.934  0.2501E+01  0.2396E+01
    -11.827  0.2772E+01  0.2693E+01
    -11.720  0.3417E+01  0.3058E+01
    -11.613  0.3537E+01  0.3437E+01
    -11.505  0.3130E+01  0.3772E+01
    -11.398  0.1688E+01  0.3952E+01
    -11.291  0.4361E+00  0.3999E+01
    -11.184  0.8136E-02  0.4000E+01
    -11.077  0.2288E-06  0.4000E+01
    -10.970  0.1482E-14  0.4000E+01
    -10.863  0.0000E+00  0.4000E+01
    -10.756  0.0000E+00  0.4000E+01
    -10.649  0.0000E+00  0.4000E+01
    -10.542  0.0000E+00  0.4000E+01
    -10.435  0.0000E+00  0.4000E+01
    -10.328  0.0000E+00  0.4000E+01
    -10.221  0.0000E+00  0.4000E+01
    -10.114  0.0000E+00  0.4000E+01
    -10.007  0.0000E+00  0.4000E+01
     -9.900  0.0000E+00  0.4000E+01
     -9.793  0.0000E+00  0.4000E+01
     -9.686  0.0000E+00  0.4000E+01
     -9.579  0.0000E+00  0.4000E+01
     -9.472  0.0000E+00  0.4000E+01
     -9.365  0.0000E+00  0.4000E+01
     -9.258  0.0000E+00  0.4000E+01
     -9.151  0.0000E+00  0.4000E+01
     -9.044  0.1038E-08  0.4000E+01
     -8.937  0.6482E-03  0.4000E+01
     -8.830  0.2799E+00  0.4030E+01
     -8.723  0.2105E+01  0.4255E+01
     -8.616  0.5363E+01  0.4829E+01
     -8.509  0.7006E+01  0.5579E+01
     -8.401  0.6288E+01  0.6252E+01
     -8.294  0.5328E+01  0.6823E+01
     -8.187  0.4843E+01  0.7341E+01
     -8.080  0.3866E+01  0.7755E+01
     -7.973  0.1663E+01  0.7933E+01
     -7.866  0.5767E+00  0.7994E+01
     -7.759  0.5203E-01  0.8000E+01
     -7.652  0.2448E-04  0.8000E+01
     -7.545  0.2872E-11  0.8000E+01
     -7.438  0.0000E+00  0.8000E+01
     -7.331  0.0000E+00  0.8000E+01
     -7.224  0.0000E+00  0.8000E+01
     -7.117  0.4388E-09  0.8000E+01
     -7.010  0.3718E-03  0.8000E+01
     -6.903  0.1109E+00  0.8012E+01
     -6.796  0.2590E+00  0.8040E+01
     -6.689  0.4249E+00  0.8085E+01
     -6.582  0.7663E+00  0.8167E+01
     -6.475  0.8469E+00  0.8258E+01
     -6.368  0.1437E+01  0.8412E+01
     -6.261  0.1944E+01  0.8620E+01
     -6.154  0.3053E+01  0.8946E+01
     -6.047  0.3795E+01  0.9353E+01
     -5.940  0.4121E+01  0.9794E+01
     -5.833  0.4051E+01  0.1023E+02
     -5.726  0.3879E+01  0.1064E+02
     -5.619  0.4075E+01  0.1108E+02
     -5.512  0.4218E+01  0.1153E+02
     -5.405  0.4561E+01  0.1202E+02
     -5.297  0.4617E+01  0.1251E+02
     -5.190  0.4496E+01  0.1299E+02
     -5.083  0.3880E+01  0.1341E+02
     -4.976  0.3224E+01  0.1375E+02
     -4.869  0.2969E+01  0.1407E+02
     -4.762  0.2316E+01  0.1432E+02
     -4.655  0.2897E+01  0.1463E+02
     -4.548  0.3372E+01  0.1499E+02
     -4.441  0.3454E+01  0.1536E+02
     -4.334  0.3354E+01  0.1572E+02
     -4.227  0.2961E+01  0.1604E+02
     -4.120  0.2911E+01  0.1635E+02
     -4.013  0.2935E+01  0.1666E+02
     -3.906  0.2877E+01  0.1697E+02
     -3.799  0.3110E+01  0.1730E+02
     -3.692  0.2891E+01  0.1761E+02
     -3.585  0.2707E+01  0.1790E+02
     -3.478  0.3075E+01  0.1823E+02
     -3.371  0.2654E+01  0.1851E+02
     -3.264  0.2839E+01  0.1882E+02
     -3.157  0.2780E+01  0.1912E+02
     -3.050  0.2719E+01  0.1941E+02
     -2.943  0.3073E+01  0.1974E+02
     -2.836  0.2983E+01  0.2006E+02
     -2.729  0.2442E+01  0.2032E+02
     -2.622  0.2642E+01  0.2060E+02
     -2.515  0.3014E+01  0.2092E+02
     -2.408  0.2999E+01  0.2124E+02
     -2.301  0.3185E+01  0.2158E+02
     -2.194  0.4002E+01  0.2201E+02
     -2.086  0.3657E+01  0.2240E+02
     -1.979  0.3229E+01  0.2275E+02
     -1.872  0.5029E+01  0.2329E+02
     -1.765  0.5542E+01  0.2388E+02
     -1.658  0.5638E+01  0.2448E+02
     -1.551  0.6175E+01  0.2515E+02
     -1.444  0.6138E+01  0.2580E+02
     -1.337  0.5602E+01  0.2640E+02
     -1.230  0.4685E+01  0.2690E+02
     -1.123  0.6493E+01  0.2760E+02
     -1.016  0.4119E+01  0.2804E+02
     -0.909  0.2282E+01  0.2828E+02
     -0.802  0.2704E+01  0.2857E+02
     -0.695  0.2882E+01  0.2888E+02
     -0.588  0.4454E+01  0.2936E+02
     -0.481  0.6831E+01  0.3009E+02
     -0.374  0.5674E+01  0.3070E+02
     -0.267  0.6656E+01  0.3141E+02
     -0.160  0.6375E+01  0.3209E+02
     -0.053  0.6739E+01  0.3281E+02
      0.054  0.6815E+01  0.3354E+02
      0.161  0.6255E+01  0.3421E+02
      0.268  0.8829E+01  0.3516E+02
      0.375  0.8069E+01  0.3602E+02
      0.482  0.8683E+01  0.3695E+02
      0.589  0.5353E+01  0.3752E+02
      0.696  0.2992E+01  0.3784E+02
      0.803  0.3247E+01  0.3819E+02
      0.910  0.3590E+01  0.3857E+02
      1.018  0.3578E+01  0.3896E+02
      1.125  0.2803E+01  0.3926E+02
      1.232  0.3370E+01  0.3962E+02
      1.339  0.4481E+01  0.4010E+02
      1.446  0.3810E+01  0.4051E+02
      1.553  0.3705E+01  0.4090E+02
      1.660  0.4587E+01  0.4139E+02
      1.767  0.3320E+01  0.4175E+02
      1.874  0.2476E+01  0.4201E+02
      1.981  0.2675E+01  0.4230E+02
      2.088  0.2095E+01  0.4252E+02
      2.195  0.2649E+01  0.4281E+02
      2.302  0.2600E+01  0.4309E+02
      2.409  0.1968E+01  0.4330E+02
      2.516  0.8899E+00  0.4339E+02
      2.623  0.3791E+00  0.4343E+02
      2.730  0.5749E+00  0.4349E+02
      2.837  0.4206E+00  0.4354E+02
      2.944  0.3056E+00  0.4357E+02
      3.051  0.7405E+00  0.4365E+02
      3.158  0.1022E+01  0.4376E+02
      3.265  0.5608E+00  0.4382E+02
      3.372  0.1558E-01  0.4382E+02
      3.479  0.1231E+00  0.4384E+02
      3.586  0.3933E+00  0.4388E+02
      3.693  0.3372E+00  0.4391E+02
      3.800  0.3666E+00  0.4395E+02
      3.907  0.4102E+00  0.4400E+02
      4.014  0.3021E-01  0.4400E+02
      4.121  0.1289E-04  0.4400E+02
      4.229  0.2195E-01  0.4400E+02
      4.336  0.1677E+00  0.4402E+02
      4.443  0.3902E+00  0.4406E+02
      4.550  0.4550E+00  0.4411E+02
      4.657  0.6237E+00  0.4418E+02
      4.764  0.8765E+00  0.4427E+02
      4.871  0.8384E+00  0.4436E+02
      4.978  0.8629E+00  0.4445E+02
      5.085  0.1260E+01  0.4459E+02
      5.192  0.1172E+01  0.4471E+02
      5.299  0.1605E+01  0.4489E+02
      5.406  0.2156E+01  0.4512E+02
      5.513  0.2497E+01  0.4538E+02
      5.620  0.2795E+01  0.4568E+02
      5.727  0.3318E+01  0.4604E+02
      5.834  0.3250E+01  0.4639E+02
      5.941  0.4262E+01  0.4684E+02
      6.048  0.4796E+01  0.4736E+02
      6.155  0.4073E+01  0.4779E+02
      6.262  0.4609E+01  0.4828E+02
      6.369  0.4239E+01  0.4874E+02
      6.476  0.3978E+01  0.4916E+02
      6.583  0.4512E+01  0.4965E+02
      6.690  0.3247E+01  0.4999E+02
      6.797  0.3972E+01  0.5042E+02
      6.904  0.4608E+01  0.5091E+02
      7.011  0.4577E+01  0.5140E+02
      7.118  0.4340E+01  0.5187E+02
      7.225  0.5583E+01  0.5246E+02
      7.333  0.4974E+01  0.5300E+02
      7.440  0.4474E+01  0.5348E+02
      7.547  0.4220E+01  0.5393E+02
      7.654  0.3586E+01  0.5431E+02
      7.761  0.3111E+01  0.5464E+02
      7.868  0.3025E+01  0.5497E+02
      7.975  0.2971E+01  0.5529E+02
      8.082  0.4161E+01  0.5573E+02
      8.189  0.3914E+01  0.5615E+02
      8.296  0.3727E+01  0.5655E+02
      8.403  0.4005E+01  0.5698E+02
      8.510  0.4241E+01  0.5743E+02
      8.617  0.4483E+01  0.5791E+02
      8.724  0.4267E+01  0.5837E+02
      8.831  0.5322E+01  0.5894E+02
      8.938  0.4851E+01  0.5946E+02
      9.045  0.5286E+01  0.6002E+02
      9.152  0.5230E+01  0.6058E+02
      9.259  0.5001E+01  0.6112E+02
      9.366  0.4673E+01  0.6162E+02
      9.473  0.4394E+01  0.6209E+02
      9.580  0.5095E+01  0.6263E+02
      9.687  0.5035E+01  0.6317E+02
      9.794  0.5289E+01  0.6374E+02
      9.901  0.4491E+01  0.6422E+02
     10.008  0.3670E+01  0.6461E+02
     10.115  0.5187E+01  0.6517E+02
     10.222  0.4721E+01  0.6567E+02
     10.329  0.4148E+01  0.6612E+02
     10.436  0.5362E+01  0.6669E+02
     10.544  0.5826E+01  0.6731E+02
     10.651  0.4078E+01  0.6775E+02
     10.758  0.3904E+01  0.6817E+02
     10.865  0.3265E+01  0.6852E+02
     10.972  0.4683E+01  0.6902E+02
     11.079  0.5435E+01  0.6960E+02
     11.186  0.6257E+01  0.7027E+02
     11.293  0.6004E+01  0.7091E+02
     11.400  0.5223E+01  0.7147E+02
     11.507  0.4378E+01  0.7194E+02
     11.614  0.4476E+01  0.7242E+02
     11.721  0.4966E+01  0.7295E+02
     11.828  0.4819E+01  0.7347E+02
     11.935  0.6009E+01  0.7411E+02
     12.042  0.5995E+01  0.7475E+02
     12.149  0.6040E+01  0.7540E+02
     12.256  0.5572E+01  0.7600E+02
     12.363  0.4998E+01  0.7653E+02
     12.470  0.5712E+01  0.7714E+02
     12.577  0.5974E+01  0.7778E+02
     12.684  0.5969E+01  0.7842E+02
     12.791  0.5930E+01  0.7906E+02
     12.898  0.5882E+01  0.7968E+02
     13.005  0.5614E+01  0.8029E+02
     13.112  0.6349E+01  0.8097E+02
     13.219  0.6299E+01  0.8164E+02
     13.326  0.5435E+01  0.8222E+02
     13.433  0.6125E+01  0.8288E+02
     13.540  0.5403E+01  0.8345E+02
     13.648  0.4830E+01  0.8397E+02
     13.755  0.6168E+01  0.8463E+02
     13.862  0.5520E+01  0.8522E+02
     13.969  0.5362E+01  0.8580E+02
     14.076  0.5478E+01  0.8638E+02
     14.183  0.4679E+01  0.8688E+02
     14.290  0.4945E+01  0.8741E+02
     14.397  0.4980E+01  0.8795E+02
     14.504  0.4948E+01  0.8848E+02
     14.611  0.5274E+01  0.8904E+02
     14.718  0.5189E+01  0.8960E+02
     14.825  0.4098E+01  0.9003E+02
     14.932  0.5037E+01  0.9057E+02
     15.039  0.6158E+01  0.9123E+02
     15.146  0.5681E+01  0.9184E+02
     15.253  0.5708E+01  0.9245E+02
     15.360  0.6008E+01  0.9309E+02
     15.467  0.5759E+01  0.9371E+02
     15.574  0.5991E+01  0.9435E+02
     15.681  0.4615E+01  0.9485E+02
     15.788  0.2499E+01  0.9511E+02
     15.895  0.2708E+01  0.9540E+02
     16.002  0.1849E+01  0.9560E+02
     16.109  0.1137E+01  0.9572E+02
     16.216  0.8984E+00  0.9582E+02
     16.323  0.6930E+00  0.9589E+02
     16.430  0.8143E+00  0.9598E+02
     16.537  0.1786E+00  0.9600E+02
     16.644  0.1702E-02  0.9600E+02
     16.751  0.2160E-07  0.9600E+02
     16.859  0.3951E-16  0.9600E+02
     16.966  0.0000E+00  0.9600E+02
     17.073  0.0000E+00  0.9600E+02
     17.180  0.0000E+00  0.9600E+02
     17.287  0.0000E+00  0.9600E+02
     17.394  0.0000E+00  0.9600E+02
     17.501  0.0000E+00  0.9600E+02
     17.608  0.0000E+00  0.9600E+02
     17.715  0.0000E+00  0.9600E+02
     17.822  0.0000E+00  0.9600E+02
     17.929  0.0000E+00  0.9600E+02
