   14   14    1    1
  0.1024721E+02  0.5702127E-09  0.4051543E-09  0.6209784E-09  0.5000000E-15
  1.000000000000000E-004
  CAR 
 Convergence                             
     42    175     48
 
  0.5000000E-01  0.3571429E-01  0.0000000E+00  0.3174603E-02
      1        -12.721764   1.000000
      2        -11.580140   1.000000
      3         -8.661784   1.000000
      4         -8.425435   1.000000
      5         -6.071190   1.000000
      6         -5.137775   1.000000
      7         -4.674287   1.000000
      8         -4.279592   1.000000
      9         -4.039988   1.000000
     10         -3.551880   1.000000
     11         -2.605405   1.000000
     12         -2.336650   1.000000
     13         -1.846307   1.000000
     14         -1.107444   1.000000
     15         -0.080317   1.000000
     16         -0.049972   1.000000
     17          0.142220   1.000000
     18          0.162876   1.000000
     19          0.551681   1.000000
     20          2.004232   0.000061
     21          2.066898   0.000000
     22          2.200002   0.000000
     23          5.436864   0.000000
     24          5.727698   0.000000
     25          5.815319   0.000000
     26          5.937976   0.000000
     27          6.790400   0.000000
     28          7.524482   0.000000
     29          7.852255   0.000000
     30          8.504294   0.000000
     31          8.765774   0.000000
     32          8.917232   0.000000
     33          9.010499   0.000000
     34         10.096917   0.000000
     35         11.159528   0.000000
     36         11.299497   0.000000
     37         11.628152   0.000000
     38         11.748209   0.000000
     39         11.911119   0.000000
     40         12.375576   0.000000
     41         12.831039   0.000000
     42         13.413891   0.000000
     43         13.441239   0.000000
     44         15.333839   0.000000
     45         15.526842   0.000000
     46         16.014595   0.000000
     47         16.291453   0.000000
     48         16.312862   0.000000
 
  0.1500000E+00  0.3571429E-01  0.0000000E+00  0.3174603E-02
      1        -12.678048   1.000000
      2        -11.653954   1.000000
      3         -8.640623   1.000000
      4         -8.413931   1.000000
      5         -6.003147   1.000000
      6         -5.477586   1.000000
      7         -4.796017   1.000000
      8         -4.015987   1.000000
      9         -3.798787   1.000000
     10         -3.215260   1.000000
     11         -2.675410   1.000000
     12         -2.316735   1.000000
     13         -1.924310   1.000000
     14         -1.414089   1.000000
     15         -0.040169   1.000000
     16         -0.031617   1.000000
     17          0.081413   1.000000
     18          0.183952   1.000000
     19          0.456539   1.000000
     20          1.918149   0.079754
     21          1.989099   0.000321
     22          2.079124   0.000000
     23          5.526000   0.000000
     24          5.734405   0.000000
     25          5.845111   0.000000
     26          6.282470   0.000000
     27          6.705235   0.000000
     28          7.163513   0.000000
     29          8.060136   0.000000
     30          8.640710   0.000000
     31          9.019488   0.000000
     32          9.095891   0.000000
     33          9.171918   0.000000
     34         10.206157   0.000000
     35         10.908201   0.000000
     36         11.095596   0.000000
     37         11.232098   0.000000
     38         11.665895   0.000000
     39         12.128130   0.000000
     40         12.463915   0.000000
     41         13.082411   0.000000
     42         13.090034   0.000000
     43         13.970844   0.000000
     44         14.823681   0.000000
     45         15.708302   0.000000
     46         15.789772   0.000000
     47         16.181854   0.000000
     48         16.469319   0.000000
 
  0.2500000E+00  0.3571429E-01  0.0000000E+00  0.3174603E-02
      1        -12.592479   1.000000
      2        -11.786936   1.000000
      3         -8.596979   1.000000
      4         -8.399196   1.000000
      5         -5.981434   1.000000
      6         -5.803608   1.000000
      7         -4.749830   1.000000
      8         -3.889201   1.000000
      9         -3.288192   1.000000
     10         -2.843412   1.000000
     11         -2.724142   1.000000
     12         -2.276655   1.000000
     13         -2.034161   1.000000
     14         -1.917928   1.000000
     15         -0.234323   1.000000
     16          0.001928   1.000000
     17          0.130316   1.000000
     18          0.145974   1.000000
     19          0.426375   1.000000
     20          1.770464   0.997201
     21          1.850285   0.695943
     22          1.856593   0.630937
     23          5.647099   0.000000
     24          5.690819   0.000000
     25          6.154029   0.000000
     26          6.579726   0.000000
     27          6.739972   0.000000
     28          6.909240   0.000000
     29          8.209792   0.000000
     30          8.789453   0.000000
     31          8.964549   0.000000
     32          9.540241   0.000000
     33          9.616501   0.000000
     34         10.248553   0.000000
     35         10.451531   0.000000
     36         10.590680   0.000000
     37         11.350817   0.000000
     38         11.808900   0.000000
     39         12.362821   0.000000
     40         12.527463   0.000000
     41         12.762123   0.000000
     42         12.879075   0.000000
     43         14.595418   0.000000
     44         14.874920   0.000000
     45         15.189177   0.000000
     46         15.939759   0.000000
     47         15.960147   0.000000
     48         16.244538   0.000000
 
  0.3500000E+00  0.3571429E-01  0.0000000E+00  0.3174603E-02
      1        -12.469045   1.000000
      2        -11.956285   1.000000
      3         -8.535179   1.000000
      4         -8.395911   1.000000
      5         -6.061572   1.000000
      6         -6.036470   1.000000
      7         -4.422821   1.000000
      8         -3.720798   1.000000
      9         -3.036870   1.000000
     10         -2.904547   1.000000
     11         -2.453360   1.000000
     12         -2.263484   1.000000
     13         -2.158948   1.000000
     14         -2.134322   1.000000
     15         -0.533422   1.000000
     16         -0.259608   1.000000
     17          0.161482   1.000000
     18          0.236674   1.000000
     19          0.599245   1.000000
     20          1.514714   1.000000
     21          1.648400   1.000000
     22          1.708618   0.999997
     23          5.675987   0.000000
     24          5.732165   0.000000
     25          6.479004   0.000000
     26          6.651204   0.000000
     27          6.676886   0.000000
     28          7.387858   0.000000
     29          8.333336   0.000000
     30          8.660383   0.000000
     31          8.776616   0.000000
     32          9.504744   0.000000
     33         10.021339   0.000000
     34         10.087356   0.000000
     35         10.364004   0.000000
     36         11.109478   0.000000
     37         11.374657   0.000000
     38         11.908213   0.000000
     39         12.169876   0.000000
     40         12.238960   0.000000
     41         12.490009   0.000000
     42         13.224878   0.000000
     43         14.678750   0.000000
     44         14.938023   0.000000
     45         15.218031   0.000000
     46         15.334963   0.000000
     47         15.530879   0.000000
     48         16.334710   0.000000
 
  0.4500000E+00  0.3571429E-01  0.0000000E+00  0.3174603E-02
      1        -12.314388   1.000000
      2        -12.138616   1.000000
      3         -8.469183   1.000000
      4         -8.418375   1.000000
      5         -6.150223   1.000000
      6         -6.146230   1.000000
      7         -3.908126   1.000000
      8         -3.512219   1.000000
      9         -3.309394   1.000000
     10         -3.275035   1.000000
     11         -2.370055   1.000000
     12         -2.242939   1.000000
     13         -1.974213   1.000000
     14         -1.919588   1.000000
     15         -0.753993   1.000000
     16         -0.618142   1.000000
     17          0.244471   1.000000
     18          0.277909   1.000000
     19          0.859569   1.000000
     20          1.176442   1.000000
     21          1.567912   1.000000
     22          1.595122   1.000000
     23          5.704576   0.000000
     24          5.742728   0.000000
     25          6.458137   0.000000
     26          6.522298   0.000000
     27          7.344413   0.000000
     28          8.047136   0.000000
     29          8.069844   0.000000
     30          8.450283   0.000000
     31          8.587971   0.000000
     32          8.761102   0.000000
     33         10.470378   0.000000
     34         10.485135   0.000000
     35         10.725902   0.000000
     36         11.183344   0.000000
     37         11.367523   0.000000
     38         11.560774   0.000000
     39         11.893503   0.000000
     40         12.447227   0.000000
     41         12.685004   0.000000
     42         13.219312   0.000000
     43         14.556902   0.000000
     44         14.694731   0.000000
     45         14.832835   0.000000
     46         14.892049   0.000000
     47         16.056541   0.000000
     48         16.401735   0.000000
 
  0.5000000E-01  0.1071429E+00  0.0000000E+00  0.3174603E-02
      1        -12.697804   1.000000
      2        -11.558581   1.000000
      3         -8.643080   1.000000
      4         -8.402375   1.000000
      5         -6.044528   1.000000
      6         -5.104077   1.000000
      7         -4.652314   1.000000
      8         -4.578201   1.000000
      9         -4.183654   1.000000
     10         -3.529139   1.000000
     11         -3.297877   1.000000
     12         -1.805749   1.000000
     13         -1.102880   1.000000
     14         -1.048212   1.000000
     15         -0.313564   1.000000
     16         -0.285569   1.000000
     17          0.155732   1.000000
     18          0.233148   1.000000
     19          0.629860   1.000000
     20          1.737145   0.999898
     21          1.816676   0.928318
     22          2.252095   0.000000
     23          5.556313   0.000000
     24          5.685938   0.000000
     25          5.721156   0.000000
     26          5.982779   0.000000
     27          7.075426   0.000000
     28          7.809749   0.000000
     29          8.048428   0.000000
     30          8.161490   0.000000
     31          8.770381   0.000000
     32          9.060547   0.000000
     33          9.114487   0.000000
     34         10.547154   0.000000
     35         11.231620   0.000000
     36         11.373092   0.000000
     37         11.562378   0.000000
     38         11.850762   0.000000
     39         12.021982   0.000000
     40         12.654572   0.000000
     41         12.831904   0.000000
     42         13.152265   0.000000
     43         13.157083   0.000000
     44         15.286755   0.000000
     45         15.334501   0.000000
     46         15.815858   0.000000
     47         15.820850   0.000000
     48         16.175397   0.000000
 
  0.1500000E+00  0.1071429E+00  0.0000000E+00  0.3174603E-02
      1        -12.654182   1.000000
      2        -11.632253   1.000000
      3         -8.621769   1.000000
      4         -8.391251   1.000000
      5         -5.974707   1.000000
      6         -5.447533   1.000000
      7         -4.776058   1.000000
      8         -4.496362   1.000000
      9         -3.759990   1.000000
     10         -3.378234   1.000000
     11         -3.177384   1.000000
     12         -1.784134   1.000000
     13         -1.408685   1.000000
     14         -1.166423   1.000000
     15         -0.274819   1.000000
     16         -0.206439   1.000000
     17          0.123037   1.000000
     18          0.205445   1.000000
     19          0.527071   1.000000
     20          1.656787   1.000000
     21          1.740338   0.999854
     22          2.121573   0.000000
     23          5.632328   0.000000
     24          5.784952   0.000000
     25          5.911201   0.000000
     26          6.089888   0.000000
     27          6.992271   0.000000
     28          7.484984   0.000000
     29          8.194279   0.000000
     30          8.330195   0.000000
     31          9.090368   0.000000
     32          9.125783   0.000000
     33          9.382541   0.000000
     34         10.469629   0.000000
     35         10.840050   0.000000
     36         11.048510   0.000000
     37         11.427337   0.000000
     38         11.838706   0.000000
     39         12.241281   0.000000
     40         12.706836   0.000000
     41         12.831273   0.000000
     42         13.114022   0.000000
     43         13.689408   0.000000
     44         14.908493   0.000000
     45         15.354840   0.000000
     46         15.710195   0.000000
     47         15.750976   0.000000
     48         16.355468   0.000000
 
  0.2500000E+00  0.1071429E+00  0.0000000E+00  0.3174603E-02
      1        -12.568807   1.000000
      2        -11.764974   1.000000
      3         -8.577912   1.000000
      4         -8.377213   1.000000
      5         -5.950239   1.000000
      6         -5.773277   1.000000
      7         -4.733248   1.000000
      8         -4.388245   1.000000
      9         -3.499791   1.000000
     10         -3.234792   1.000000
     11         -2.711718   1.000000
     12         -1.913331   1.000000
     13         -1.740007   1.000000
     14         -1.328660   1.000000
     15         -0.236459   1.000000
     16         -0.228363   1.000000
     17          0.040998   1.000000
     18          0.192575   1.000000
     19          0.450823   1.000000
     20          1.522052   1.000000
     21          1.610480   1.000000
     22          1.873839   0.439024
     23          5.832338   0.000000
     24          5.912861   0.000000
     25          5.991038   0.000000
     26          6.537527   0.000000
     27          6.872026   0.000000
     28          7.257614   0.000000
     29          8.400754   0.000000
     30          8.462301   0.000000
     31          9.063503   0.000000
     32          9.578397   0.000000
     33          9.841582   0.000000
     34         10.093075   0.000000
     35         10.319745   0.000000
     36         10.787139   0.000000
     37         11.491489   0.000000
     38         12.073566   0.000000
     39         12.271476   0.000000
     40         12.524442   0.000000
     41         12.918698   0.000000
     42         12.991179   0.000000
     43         14.265664   0.000000
     44         15.041378   0.000000
     45         15.121238   0.000000
     46         15.602523   0.000000
     47         15.668031   0.000000
     48         16.375861   0.000000
 
  0.3500000E+00  0.1071429E+00  0.0000000E+00  0.3174603E-02
      1        -12.445638   1.000000
      2        -11.933970   1.000000
      3         -8.515866   1.000000
      4         -8.374818   1.000000
      5         -6.029172   1.000000
      6         -6.005281   1.000000
      7         -4.408378   1.000000
      8         -4.241611   1.000000
      9         -3.670717   1.000000
     10         -2.855967   1.000000
     11         -2.372037   1.000000
     12         -2.229157   1.000000
     13         -1.676000   1.000000
     14         -1.491161   1.000000
     15         -0.495247   1.000000
     16         -0.321382   1.000000
     17          0.072485   1.000000
     18          0.103050   1.000000
     19          0.609868   1.000000
     20          1.382578   1.000000
     21          1.465385   1.000000
     22          1.550551   1.000000
     23          5.850062   0.000000
     24          5.986128   0.000000
     25          6.495825   0.000000
     26          6.783080   0.000000
     27          6.856349   0.000000
     28          7.347681   0.000000
     29          8.390688   0.000000
     30          8.569573   0.000000
     31          8.905959   0.000000
     32          9.340920   0.000000
     33         10.038908   0.000000
     34         10.063860   0.000000
     35         10.409433   0.000000
     36         11.186162   0.000000
     37         11.331492   0.000000
     38         11.806355   0.000000
     39         12.252201   0.000000
     40         12.513857   0.000000
     41         12.689369   0.000000
     42         13.426350   0.000000
     43         14.725948   0.000000
     44         14.734625   0.000000
     45         15.111444   0.000000
     46         15.267694   0.000000
     47         15.608001   0.000000
     48         16.348300   0.000000
 
  0.4500000E+00  0.1071429E+00  0.0000000E+00  0.3174603E-02
      1        -12.291315   1.000000
      2        -12.115919   1.000000
      3         -8.449523   1.000000
      4         -8.398124   1.000000
      5         -6.118225   1.000000
      6         -6.113796   1.000000
      7         -4.063155   1.000000
      8         -3.900704   1.000000
      9         -3.859942   1.000000
     10         -3.296631   1.000000
     11         -2.117291   1.000000
     12         -1.924478   1.000000
     13         -1.607875   1.000000
     14         -1.603672   1.000000
     15         -0.715946   1.000000
     16         -0.614182   1.000000
     17          0.106099   1.000000
     18          0.137215   1.000000
     19          0.868934   1.000000
     20          1.182870   1.000000
     21          1.329237   1.000000
     22          1.353248   1.000000
     23          5.901700   0.000000
     24          5.968174   0.000000
     25          6.772701   0.000000
     26          6.823332   0.000000
     27          7.161938   0.000000
     28          7.872458   0.000000
     29          7.916296   0.000000
     30          8.596889   0.000000
     31          8.661559   0.000000
     32          8.773702   0.000000
     33         10.286680   0.000000
     34         10.535562   0.000000
     35         10.773296   0.000000
     36         10.874401   0.000000
     37         11.514812   0.000000
     38         11.619695   0.000000
     39         11.971844   0.000000
     40         12.615174   0.000000
     41         12.992362   0.000000
     42         13.449688   0.000000
     43         14.510148   0.000000
     44         14.695181   0.000000
     45         14.793302   0.000000
     46         15.011014   0.000000
     47         16.081687   0.000000
     48         16.376351   0.000000
 
  0.5000000E-01  0.1785714E+00  0.0000000E+00  0.3174603E-02
      1        -12.653545   1.000000
      2        -11.518831   1.000000
      3         -8.608840   1.000000
      4         -8.359843   1.000000
      5         -5.995244   1.000000
      6         -5.134831   1.000000
      7         -5.013629   1.000000
      8         -4.610674   1.000000
      9         -4.167233   1.000000
     10         -3.919339   1.000000
     11         -3.476042   1.000000
     12         -1.215971   1.000000
     13         -1.093611   1.000000
     14         -0.656448   1.000000
     15         -0.551857   1.000000
     16         -0.190645   1.000000
     17          0.176860   1.000000
     18          0.285713   1.000000
     19          0.708034   1.000000
     20          1.355393   1.000000
     21          1.418587   1.000000
     22          2.290004   0.000000
     23          5.268487   0.000000
     24          5.433074   0.000000
     25          6.099303   0.000000
     26          6.170152   0.000000
     27          7.508964   0.000000
     28          7.597817   0.000000
     29          8.290975   0.000000
     30          8.694336   0.000000
     31          8.851113   0.000000
     32          9.201230   0.000000
     33          9.336485   0.000000
     34         10.849050   0.000000
     35         11.284760   0.000000
     36         11.537209   0.000000
     37         11.672155   0.000000
     38         12.050744   0.000000
     39         12.237975   0.000000
     40         12.711263   0.000000
     41         12.724083   0.000000
     42         12.965723   0.000000
     43         13.192326   0.000000
     44         14.628229   0.000000
     45         15.117119   0.000000
     46         15.295755   0.000000
     47         15.392069   0.000000
     48         15.914932   0.000000
 
  0.1500000E+00  0.1785714E+00  0.0000000E+00  0.3174603E-02
      1        -12.610108   1.000000
      2        -11.592233   1.000000
      3         -8.587227   1.000000
      4         -8.349414   1.000000
      5         -5.922029   1.000000
      6         -5.399201   1.000000
      7         -5.037269   1.000000
      8         -4.738491   1.000000
      9         -3.985185   1.000000
     10         -3.718127   1.000000
     11         -3.138003   1.000000
     12         -1.400405   1.000000
     13         -1.189821   1.000000
     14         -0.764149   1.000000
     15         -0.513937   1.000000
     16         -0.109264   1.000000
     17          0.156486   1.000000
     18          0.230530   1.000000
     19          0.595510   1.000000
     20          1.276425   1.000000
     21          1.348961   1.000000
     22          2.154488   0.000000
     23          5.348871   0.000000
     24          5.777909   0.000000
     25          6.116231   0.000000
     26          6.214258   0.000000
     27          7.428424   0.000000
     28          7.754344   0.000000
     29          8.023300   0.000000
     30          8.785990   0.000000
     31          9.214172   0.000000
     32          9.253668   0.000000
     33          9.620467   0.000000
     34         10.484655   0.000000
     35         10.745778   0.000000
     36         11.241715   0.000000
     37         11.690022   0.000000
     38         12.163791   0.000000
     39         12.396262   0.000000
     40         12.468235   0.000000
     41         13.124212   0.000000
     42         13.239624   0.000000
     43         13.398285   0.000000
     44         14.639807   0.000000
     45         14.779790   0.000000
     46         15.232983   0.000000
     47         15.456060   0.000000
     48         15.944655   0.000000
 
  0.2500000E+00  0.1785714E+00  0.0000000E+00  0.3174603E-02
      1        -12.525074   1.000000
      2        -11.724449   1.000000
      3         -8.542947   1.000000
      4         -8.336704   1.000000
      5         -5.892183   1.000000
      6         -5.718543   1.000000
      7         -4.945700   1.000000
      8         -4.702284   1.000000
      9         -4.108290   1.000000
     10         -3.184924   1.000000
     11         -2.667875   1.000000
     12         -1.897002   1.000000
     13         -1.149352   1.000000
     14         -0.903235   1.000000
     15         -0.461250   1.000000
     16         -0.102060   1.000000
     17          0.000911   1.000000
     18          0.242057   1.000000
     19          0.480608   1.000000
     20          1.145192   1.000000
     21          1.230834   1.000000
     22          1.898452   0.197770
     23          5.669540   0.000000
     24          6.071287   0.000000
     25          6.252852   0.000000
     26          6.344452   0.000000
     27          7.326495   0.000000
     28          7.834689   0.000000
     29          7.988370   0.000000
     30          8.914783   0.000000
     31          9.210194   0.000000
     32          9.685378   0.000000
     33          9.820905   0.000000
     34         10.102681   0.000000
     35         10.221432   0.000000
     36         11.026351   0.000000
     37         11.555120   0.000000
     38         12.070924   0.000000
     39         12.474055   0.000000
     40         12.769387   0.000000
     41         13.005357   0.000000
     42         13.411637   0.000000
     43         13.920347   0.000000
     44         14.550015   0.000000
     45         14.829098   0.000000
     46         15.255587   0.000000
     47         15.473850   0.000000
     48         16.155398   0.000000
 
  0.3500000E+00  0.1785714E+00  0.0000000E+00  0.3174603E-02
      1        -12.402407   1.000000
      2        -11.892797   1.000000
      3         -8.480440   1.000000
      4         -8.336004   1.000000
      5         -5.968798   1.000000
      6         -5.947762   1.000000
      7         -4.810222   1.000000
      8         -4.381757   1.000000
      9         -4.272209   1.000000
     10         -2.817664   1.000000
     11         -2.331319   1.000000
     12         -2.188063   1.000000
     13         -1.092988   1.000000
     14         -1.040303   1.000000
     15         -0.467646   1.000000
     16         -0.387291   1.000000
     17          0.044619   1.000000
     18          0.047485   1.000000
     19          0.627403   1.000000
     20          1.015817   1.000000
     21          1.098331   1.000000
     22          1.564121   1.000000
     23          6.083006   0.000000
     24          6.203417   0.000000
     25          6.375662   0.000000
     26          6.778467   0.000000
     27          7.271388   0.000000
     28          7.756386   0.000000
     29          8.044658   0.000000
     30          9.014289   0.000000
     31          9.074110   0.000000
     32          9.144365   0.000000
     33          9.853568   0.000000
     34         10.152193   0.000000
     35         10.669637   0.000000
     36         11.044288   0.000000
     37         11.285019   0.000000
     38         11.916802   0.000000
     39         12.314431   0.000000
     40         12.951986   0.000000
     41         13.002991   0.000000
     42         13.754174   0.000000
     43         14.337861   0.000000
     44         14.355472   0.000000
     45         14.988346   0.000000
     46         15.082549   0.000000
     47         15.569847   0.000000
     48         16.333533   0.000000
 
  0.4500000E+00  0.1785714E+00  0.0000000E+00  0.3174603E-02
      1        -12.248714   1.000000
      2        -12.074022   1.000000
      3         -8.413436   1.000000
      4         -8.360914   1.000000
      5         -6.058840   1.000000
      6         -6.053398   1.000000
      7         -4.642943   1.000000
      8         -4.457885   1.000000
      9         -3.869803   1.000000
     10         -3.274155   1.000000
     11         -2.049191   1.000000
     12         -1.884184   1.000000
     13         -1.112824   1.000000
     14         -1.052318   1.000000
     15         -0.643066   1.000000
     16         -0.637593   1.000000
     17         -0.004710   1.000000
     18          0.038806   1.000000
     19          0.884566   1.000000
     20          0.953469   1.000000
     21          0.994002   1.000000
     22          1.211251   1.000000
     23          6.174826   0.000000
     24          6.293613   0.000000
     25          6.854706   0.000000
     26          7.191925   0.000000
     27          7.249896   0.000000
     28          7.597781   0.000000
     29          7.903035   0.000000
     30          8.412725   0.000000
     31          9.069951   0.000000
     32          9.101773   0.000000
     33          9.977924   0.000000
     34         10.450330   0.000000
     35         10.673646   0.000000
     36         10.946732   0.000000
     37         11.694743   0.000000
     38         11.709794   0.000000
     39         12.091635   0.000000
     40         12.870475   0.000000
     41         13.380717   0.000000
     42         13.726629   0.000000
     43         14.187666   0.000000
     44         14.341989   0.000000
     45         14.954435   0.000000
     46         15.093645   0.000000
     47         15.947147   0.000000
     48         16.250222   0.000000
 
  0.5000000E-01  0.2500000E+00  0.0000000E+00  0.3174603E-02
      1        -12.596204   1.000000
      2        -11.467477   1.000000
      3         -8.565099   1.000000
      4         -8.304816   1.000000
      5         -5.931280   1.000000
      6         -5.615302   1.000000
      7         -4.943694   1.000000
      8         -4.554664   1.000000
      9         -4.439009   1.000000
     10         -4.128012   1.000000
     11         -3.414256   1.000000
     12         -1.228136   1.000000
     13         -1.079377   1.000000
     14         -1.009819   1.000000
     15         -0.207641   1.000000
     16          0.204994   1.000000
     17          0.328841   1.000000
     18          0.579512   1.000000
     19          0.771533   1.000000
     20          0.970979   1.000000
     21          0.985029   1.000000
     22          2.324038   0.000000
     23          4.926291   0.000000
     24          5.140444   0.000000
     25          6.329927   0.000000
     26          6.559594   0.000000
     27          7.240459   0.000000
     28          7.937356   0.000000
     29          8.666428   0.000000
     30          9.030172   0.000000
     31          9.425322   0.000000
     32          9.549173   0.000000
     33          9.617637   0.000000
     34         10.710458   0.000000
     35         11.233694   0.000000
     36         11.932840   0.000000
     37         11.987096   0.000000
     38         12.258037   0.000000
     39         12.389560   0.000000
     40         12.415404   0.000000
     41         12.529888   0.000000
     42         12.950746   0.000000
     43         13.746970   0.000000
     44         13.844269   0.000000
     45         14.373995   0.000000
     46         15.063731   0.000000
     47         15.365243   0.000000
     48         15.809484   0.000000
 
  0.1500000E+00  0.2500000E+00  0.0000000E+00  0.3174603E-02
      1        -12.552997   1.000000
      2        -11.540522   1.000000
      3         -8.543078   1.000000
      4         -8.295341   1.000000
      5         -5.853456   1.000000
      6         -5.580543   1.000000
      7         -5.280045   1.000000
      8         -4.688785   1.000000