       N       E                     dE             d eps       ncg     rms          rms(c)
DAV:   1     0.775618907661E+02    0.77562E+02   -0.20004E+04 16800   0.862E+02
DAV:   2    -0.917998012324E+02   -0.16936E+03   -0.15877E+03 23184   0.167E+02
DAV:   3    -0.975586902905E+02   -0.57589E+01   -0.57249E+01 24816   0.273E+01
DAV:   4    -0.975926440206E+02   -0.33954E-01   -0.33952E-01 20184   0.243E+00
DAV:   5    -0.975930243432E+02   -0.38032E-03   -0.38031E-03 24768   0.246E-01    0.123E+01
DAV:   6    -0.922171601675E+02    0.53759E+01   -0.39200E+00 24288   0.656E+00    0.678E+00
DAV:   7    -0.905761985797E+02    0.16410E+01   -0.31995E+00 25176   0.584E+00    0.170E+00
DAV:   8    -0.905886202104E+02   -0.12422E-01   -0.23302E-01 18504   0.167E+00    0.704E-01
DAV:   9    -0.906027979333E+02   -0.14178E-01   -0.16858E-02 23400   0.438E-01    0.197E-01
DAV:  10    -0.906068412732E+02   -0.40433E-02   -0.20970E-03 19176   0.161E-01    0.608E-02
DAV:  11    -0.906079083888E+02   -0.10671E-02   -0.62749E-04 21792   0.869E-02    0.320E-02
DAV:  12    -0.906080230595E+02   -0.11467E-03   -0.92040E-05 20640   0.370E-02    0.428E-03
DAV:  13    -0.906080279242E+02   -0.48647E-05   -0.41011E-06 23520   0.879E-03    0.180E-03
DAV:  14    -0.906080286046E+02   -0.68042E-06   -0.28419E-07 20520   0.230E-03
   1 F= -.90608029E+02 E0= -.90606421E+02  d E =-.321499E-02
