<?xml version="1.0" encoding="ISO-8859-1"?>
<modeling>
 <generator>
  <i name="program" type="string">vasp </i>
  <i name="version" type="string">6.4.3  </i>
  <i name="subversion" type="string">19Mar24 (build May 31 2024 16:31:43) complex                          parallel </i>
  <i name="platform" type="string">LinuxIFC </i>
  <i name="date" type="string">2024 11 05 </i>
  <i name="time" type="string">22:27:12 </i>
 </generator>
 <incar>
  <i type="string" name="SYSTEM">Convergence</i>
  <i type="int" name="ISTART">     0</i>
  <i type="string" name="PREC">Accurate</i>
  <i type="string" name="ALGO">Normal</i>
  <i type="int" name="ISPIN">     1</i>
  <i type="int" name="ICHARG">     2</i>
  <i type="int" name="NELM">   100</i>
  <i type="int" name="IBRION">    -1</i>
  <i name="EDIFF">      0.00000100</i>
  <i name="EDIFFG">     -0.00100000</i>
  <i type="int" name="NSW">     0</i>
  <i type="int" name="ISIF">     2</i>
  <i name="ENCUT">    600.00000000</i>
  <i name="POTIM">      0.50000000</i>
  <i type="int" name="ISMEAR">     0</i>
  <i name="SIGMA">      0.05000000</i>
  <i type="logical" name="LWAVE"> F  </i>
  <i type="logical" name="LCHARG"> F  </i>
  <i type="string" name="GGA">PE</i>
 </incar>
 <primitive_cell>
  <structure name="primitive_cell" >
   <crystal>
    <varray name="basis" >
     <v>       5.70212730       0.00000000       0.00000000 </v>
     <v>       0.00000000       4.05154311       0.00000000 </v>
     <v>       0.00000000       0.00000000       6.20978378 </v>
    </varray>
    <i name="volume">    143.46099930 </i>
    <varray name="rec_basis" >
     <v>       0.17537315       0.00000000       0.00000000 </v>
     <v>       0.00000000       0.24681954       0.00000000 </v>
     <v>       0.00000000       0.00000000       0.16103620 </v>
    </varray>
   </crystal>
   <varray name="positions" >
    <v>       0.52123000       0.50000000       0.63796000 </v>
    <v>       0.47877000       0.50000000       0.36204000 </v>
    <v>       0.97877000       0.50000000       0.63796000 </v>
    <v>       0.02123000       0.50000000       0.36204000 </v>
    <v>       0.60090000       0.50000000       0.89991000 </v>
    <v>       0.39910000       0.50000000       0.10009000 </v>
    <v>       0.89910000       0.50000000       0.89991000 </v>
    <v>       0.10090000       0.50000000       0.10009000 </v>
    <v>       0.75000000       0.79171000       0.72973000 </v>
    <v>       0.25000000       0.20829000       0.27027000 </v>
    <v>       0.75000000       0.20829000       0.72973000 </v>
    <v>       0.25000000       0.79171000       0.27027000 </v>
    <v>       0.25000000       0.50000000       0.52367000 </v>
    <v>       0.75000000       0.50000000       0.47633000 </v>
   </varray>
  </structure>
  <varray name="primitive_index" >
   <v type="int" >        1 </v>
   <v type="int" >        2 </v>
   <v type="int" >        3 </v>
   <v type="int" >        4 </v>
   <v type="int" >        5 </v>
   <v type="int" >        6 </v>
   <v type="int" >        7 </v>
   <v type="int" >        8 </v>
   <v type="int" >        9 </v>
   <v type="int" >       10 </v>
   <v type="int" >       11 </v>
   <v type="int" >       12 </v>
   <v type="int" >       13 </v>
   <v type="int" >       14 </v>
  </varray>
 </primitive_cell>
 <kpoints>
  <generation param="Monkhorst-Pack">
   <v type="int" name="divisions">      10       14        9 </v>
   <v name="usershift">      0.00000000       0.00000000       0.00000000 </v>
   <v name="genvec1">      0.10000000       0.00000000       0.00000000 </v>
   <v name="genvec2">      0.00000000       0.07142857       0.00000000 </v>
   <v name="genvec3">      0.00000000       0.00000000       0.11111111 </v>
   <v name="shift">      0.50000000       0.50000000       0.00000000 </v>
  </generation>
  <varray name="kpointlist" >
   <v>       0.05000000       0.03571429       0.00000000 </v>
   <v>       0.15000000       0.03571429       0.00000000 </v>
   <v>       0.25000000       0.03571429       0.00000000 </v>
   <v>       0.35000000       0.03571429       0.00000000 </v>
   <v>       0.45000000       0.03571429       0.00000000 </v>
   <v>       0.05000000       0.10714286       0.00000000 </v>
   <v>       0.15000000       0.10714286       0.00000000 </v>
   <v>       0.25000000       0.10714286       0.00000000 </v>
   <v>       0.35000000       0.10714286       0.00000000 </v>
   <v>       0.45000000       0.10714286       0.00000000 </v>
   <v>       0.05000000       0.17857143       0.00000000 </v>
   <v>       0.15000000       0.17857143       0.00000000 </v>
   <v>       0.25000000       0.17857143       0.00000000 </v>
   <v>       0.35000000       0.17857143       0.00000000 </v>
   <v>       0.45000000       0.17857143       0.00000000 </v>
   <v>       0.05000000       0.25000000       0.00000000 </v>
   <v>       0.15000000       0.25000000       0.00000000 </v>
   <v>       0.25000000       0.25000000       0.00000000 </v>
   <v>       0.35000000       0.25000000       0.00000000 </v>
   <v>       0.45000000       0.25000000       0.00000000 </v>
   <v>       0.05000000       0.32142857       0.00000000 </v>
   <v>       0.15000000       0.32142857       0.00000000 </v>
   <v>       0.25000000       0.32142857       0.00000000 </v>
   <v>       0.35000000       0.32142857       0.00000000 </v>
   <v>       0.45000000       0.32142857       0.00000000 </v>
   <v>       0.05000000       0.39285714       0.00000000 </v>
   <v>       0.15000000       0.39285714       0.00000000 </v>
   <v>       0.25000000       0.39285714       0.00000000 </v>
   <v>       0.35000000       0.39285714       0.00000000 </v>
   <v>       0.45000000       0.39285714       0.00000000 </v>
   <v>       0.05000000       0.46428571       0.00000000 </v>
   <v>       0.15000000       0.46428571       0.00000000 </v>
   <v>       0.25000000       0.46428571       0.00000000 </v>
   <v>       0.35000000       0.46428571       0.00000000 </v>
   <v>       0.45000000       0.46428571       0.00000000 </v>
   <v>       0.05000000       0.03571429       0.11111111 </v>
   <v>       0.15000000       0.03571429       0.11111111 </v>
   <v>       0.25000000       0.03571429       0.11111111 </v>
   <v>       0.35000000       0.03571429       0.11111111 </v>
   <v>       0.45000000       0.03571429       0.11111111 </v>
   <v>       0.05000000       0.10714286       0.11111111 </v>
   <v>       0.15000000       0.10714286       0.11111111 </v>
   <v>       0.25000000       0.10714286       0.11111111 </v>
   <v>       0.35000000       0.10714286       0.11111111 </v>
   <v>       0.45000000       0.10714286       0.11111111 </v>
   <v>       0.05000000       0.17857143       0.11111111 </v>
   <v>       0.15000000       0.17857143       0.11111111 </v>
   <v>       0.25000000       0.17857143       0.11111111 </v>
   <v>       0.35000000       0.17857143       0.11111111 </v>
   <v>       0.45000000       0.17857143       0.11111111 </v>
   <v>       0.05000000       0.25000000       0.11111111 </v>
   <v>       0.15000000       0.25000000       0.11111111 </v>
   <v>       0.25000000       0.25000000       0.11111111 </v>
   <v>       0.35000000       0.25000000       0.11111111 </v>
   <v>       0.45000000       0.25000000       0.11111111 </v>
   <v>       0.05000000       0.32142857       0.11111111 </v>
   <v>       0.15000000       0.32142857       0.11111111 </v>
   <v>       0.25000000       0.32142857       0.11111111 </v>
   <v>       0.35000000       0.32142857       0.11111111 </v>
   <v>       0.45000000       0.32142857       0.11111111 </v>
   <v>       0.05000000       0.39285714       0.11111111 </v>
   <v>       0.15000000       0.39285714       0.11111111 </v>
   <v>       0.25000000       0.39285714       0.11111111 </v>
   <v>       0.35000000       0.39285714       0.11111111 </v>
   <v>       0.45000000       0.39285714       0.11111111 </v>
   <v>       0.05000000       0.46428571       0.11111111 </v>
   <v>       0.15000000       0.46428571       0.11111111 </v>
   <v>       0.25000000       0.46428571       0.11111111 </v>
   <v>       0.35000000       0.46428571       0.11111111 </v>
   <v>       0.45000000       0.46428571       0.11111111 </v>
   <v>       0.05000000       0.03571429       0.22222222 </v>
   <v>       0.15000000       0.03571429       0.22222222 </v>
   <v>       0.25000000       0.03571429       0.22222222 </v>
   <v>       0.35000000       0.03571429       0.22222222 </v>
   <v>       0.45000000       0.03571429       0.22222222 </v>
   <v>       0.05000000       0.10714286       0.22222222 </v>
   <v>       0.15000000       0.10714286       0.22222222 </v>
   <v>       0.25000000       0.10714286       0.22222222 </v>
   <v>       0.35000000       0.10714286       0.22222222 </v>
   <v>       0.45000000       0.10714286       0.22222222 </v>
   <v>       0.05000000       0.17857143       0.22222222 </v>
   <v>       0.15000000       0.17857143       0.22222222 </v>
   <v>       0.25000000       0.17857143       0.22222222 </v>
   <v>       0.35000000       0.17857143       0.22222222 </v>
   <v>       0.45000000       0.17857143       0.22222222 </v>
   <v>       0.05000000       0.25000000       0.22222222 </v>
   <v>       0.15000000       0.25000000       0.22222222 </v>
   <v>       0.25000000       0.25000000       0.22222222 </v>
   <v>       0.35000000       0.25000000       0.22222222 </v>
   <v>       0.45000000       0.25000000       0.22222222 </v>
   <v>       0.05000000       0.32142857       0.22222222 </v>
   <v>       0.15000000       0.32142857       0.22222222 </v>
   <v>       0.25000000       0.32142857       0.22222222 </v>
   <v>       0.35000000       0.32142857       0.22222222 </v>
   <v>       0.45000000       0.32142857       0.22222222 </v>
   <v>       0.05000000       0.39285714       0.22222222 </v>
   <v>       0.15000000       0.39285714       0.22222222 </v>
   <v>       0.25000000       0.39285714       0.22222222 </v>
   <v>       0.35000000       0.39285714       0.22222222 </v>
   <v>       0.45000000       0.39285714       0.22222222 </v>
   <v>       0.05000000       0.46428571       0.22222222 </v>
   <v>       0.15000000       0.46428571       0.22222222 </v>
   <v>       0.25000000       0.46428571       0.22222222 </v>
   <v>       0.35000000       0.46428571       0.22222222 </v>
   <v>       0.45000000       0.46428571       0.22222222 </v>
   <v>       0.05000000       0.03571429       0.33333333 </v>
   <v>       0.15000000       0.03571429       0.33333333 </v>
   <v>       0.25000000       0.03571429       0.33333333 </v>
   <v>       0.35000000       0.03571429       0.33333333 </v>
   <v>       0.45000000       0.03571429       0.33333333 </v>
   <v>       0.05000000       0.10714286       0.33333333 </v>
   <v>       0.15000000       0.10714286       0.33333333 </v>
   <v>       0.25000000       0.10714286       0.33333333 </v>
   <v>       0.35000000       0.10714286       0.33333333 </v>
   <v>       0.45000000       0.10714286       0.33333333 </v>
   <v>       0.05000000       0.17857143       0.33333333 </v>
   <v>       0.15000000       0.17857143       0.33333333 </v>
   <v>       0.25000000       0.17857143       0.33333333 </v>
   <v>       0.35000000       0.17857143       0.33333333 </v>
   <v>       0.45000000       0.17857143       0.33333333 </v>
   <v>       0.05000000       0.25000000       0.33333333 </v>
   <v>       0.15000000       0.25000000       0.33333333 </v>
   <v>       0.25000000       0.25000000       0.33333333 </v>
   <v>       0.35000000       0.25000000       0.33333333 </v>
   <v>       0.45000000       0.25000000       0.33333333 </v>
   <v>       0.05000000       0.32142857       0.33333333 </v>
   <v>       0.15000000       0.32142857       0.33333333 </v>
   <v>       0.25000000       0.32142857       0.33333333 </v>
   <v>       0.35000000       0.32142857       0.33333333 </v>
   <v>       0.45000000       0.32142857       0.33333333 </v>
   <v>       0.05000000       0.39285714       0.33333333 </v>
   <v>       0.15000000       0.39285714       0.33333333 </v>
   <v>       0.25000000       0.39285714       0.33333333 </v>
   <v>       0.35000000       0.39285714       0.33333333 </v>
   <v>       0.45000000       0.39285714       0.33333333 </v>
   <v>       0.05000000       0.46428571       0.33333333 </v>
   <v>       0.15000000       0.46428571       0.33333333 </v>
   <v>       0.25000000       0.46428571       0.33333333 </v>
   <v>       0.35000000       0.46428571       0.33333333 </v>
   <v>       0.45000000       0.46428571       0.33333333 </v>
   <v>       0.05000000       0.03571429       0.44444444 </v>
   <v>       0.15000000       0.03571429       0.44444444 </v>
   <v>       0.25000000       0.03571429       0.44444444 </v>
   <v>       0.35000000       0.03571429       0.44444444 </v>
   <v>       0.45000000       0.03571429       0.44444444 </v>
   <v>       0.05000000       0.10714286       0.44444444 </v>
   <v>       0.15000000       0.10714286       0.44444444 </v>
   <v>       0.25000000       0.10714286       0.44444444 </v>
   <v>       0.35000000       0.10714286       0.44444444 </v>
   <v>       0.45000000       0.10714286       0.44444444 </v>
   <v>       0.05000000       0.17857143       0.44444444 </v>
   <v>       0.15000000       0.17857143       0.44444444 </v>
   <v>       0.25000000       0.17857143       0.44444444 </v>
   <v>       0.35000000       0.17857143       0.44444444 </v>
   <v>       0.45000000       0.17857143       0.44444444 </v>
   <v>       0.05000000       0.25000000       0.44444444 </v>
   <v>       0.15000000       0.25000000       0.44444444 </v>
   <v>       0.25000000       0.25000000       0.44444444 </v>
   <v>       0.35000000       0.25000000       0.44444444 </v>
   <v>       0.45000000       0.25000000       0.44444444 </v>
   <v>       0.05000000       0.32142857       0.44444444 </v>
   <v>       0.15000000       0.32142857       0.44444444 </v>
   <v>       0.25000000       0.32142857       0.44444444 </v>
   <v>       0.35000000       0.32142857       0.44444444 </v>
   <v>       0.45000000       0.32142857       0.44444444 </v>
   <v>       0.05000000       0.39285714       0.44444444 </v>
   <v>       0.15000000       0.39285714       0.44444444 </v>
   <v>       0.25000000       0.39285714       0.44444444 </v>
   <v>       0.35000000       0.39285714       0.44444444 </v>
   <v>       0.45000000       0.39285714       0.44444444 </v>
   <v>       0.05000000       0.46428571       0.44444444 </v>
   <v>       0.15000000       0.46428571       0.44444444 </v>
   <v>       0.25000000       0.46428571       0.44444444 </v>
   <v>       0.35000000       0.46428571       0.44444444 </v>
   <v>       0.45000000       0.46428571       0.44444444 </v>
  </varray>
  <varray name="weights" >
   <v>       0.00317460 </v>
   <v>       0.00317460 </v>
   <v>       0.00317460 </v>
   <v>       0.00317460 </v>
   <v>       0.00317460 </v>
   <v>       0.00317460 </v>
   <v>       0.00317460 </v>
   <v>       0.00317460 </v>
   <v>       0.00317460 </v>
   <v>       0.00317460 </v>
   <v>       0.00317460 </v>
   <v>       0.00317460 </v>
   <v>       0.00317460 </v>
   <v>       0.00317460 </v>
   <v>       0.00317460 </v>
   <v>       0.00317460 </v>
   <v>       0.00317460 </v>
   <v>       0.00317460 </v>
   <v>       0.00317460 </v>
   <v>       0.00317460 </v>
   <v>       0.00317460 </v>
   <v>       0.00317460 </v>
   <v>       0.00317460 </v>
   <v>       0.00317460 </v>
   <v>       0.00317460 </v>
   <v>       0.00317460 </v>
   <v>       0.00317460 </v>
   <v>       0.00317460 </v>
   <v>       0.00317460 </v>
   <v>       0.00317460 </v>
   <v>       0.00317460 </v>
   <v>       0.00317460 </v>
   <v>       0.00317460 </v>
   <v>       0.00317460 </v>
   <v>       0.00317460 </v>
   <v>       0.00634921 </v>
   <v>       0.00634921 </v>
   <v>       0.00634921 </v>
   <v>       0.00634921 </v>
   <v>       0.00634921 </v>
   <v>       0.00634921 </v>
   <v>       0.00634921 </v>
   <v>       0.00634921 </v>
   <v>       0.00634921 </v>
   <v>       0.00634921 </v>
   <v>       0.00634921 </v>
   <v>       0.00634921 </v>
   <v>       0.00634921 </v>
   <v>       0.00634921 </v>
   <v>       0.00634921 </v>
   <v>       0.00634921 </v>
   <v>       0.00634921 </v>
   <v>       0.00634921 </v>
   <v>       0.00634921 </v>
   <v>       0.00634921 </v>
   <v>       0.00634921 </v>
   <v>       0.00634921 </v>
   <v>       0.00634921 </v>
   <v>       0.00634921 </v>
   <v>       0.00634921 </v>
   <v>       0.00634921 </v>
   <v>       0.00634921 </v>
   <v>       0.00634921 </v>
   <v>       0.00634921 </v>
   <v>       0.00634921 </v>
   <v>       0.00634921 </v>
   <v>       0.00634921 </v>
   <v>       0.00634921 </v>
   <v>       0.00634921 </v>
   <v>       0.00634921 </v>
   <v>       0.00634921 </v>
   <v>       0.00634921 </v>
   <v>       0.00634921 </v>
   <v>       0.00634921 </v>
   <v>       0.00634921 </v>
   <v>       0.00634921 </v>
   <v>       0.00634921 </v>
   <v>       0.00634921 </v>
   <v>       0.00634921 </v>
   <v>       0.00634921 </v>
   <v>       0.00634921 </v>
   <v>       0.00634921 </v>
   <v>       0.00634921 </v>
   <v>       0.00634921 </v>
   <v>       0.00634921 </v>
   <v>       0.00634921 </v>
   <v>       0.00634921 </v>
   <v>       0.00634921 </v>
   <v>       0.00634921 </v>
   <v>       0.00634921 </v>
   <v>       0.00634921 </v>
   <v>       0.00634921 </v>
   <v>       0.00634921 </v>
   <v>       0.00634921 </v>
   <v>       0.00634921 </v>
   <v>       0.00634921 </v>
   <v>       0.00634921 </v>
   <v>       0.00634921 </v>
   <v>       0.00634921 </v>
   <v>       0.00634921 </v>
   <v>       0.00634921 </v>
   <v>       0.00634921 </v>
   <v>       0.00634921 </v>
   <v>       0.00634921 </v>
   <v>       0.00634921 </v>
   <v>       0.00634921 </v>
   <v>       0.00634921 </v>
   <v>       0.00634921 </v>
   <v>       0.00634921 </v>
   <v>       0.00634921 </v>
   <v>       0.00634921 </v>
   <v>       0.00634921 </v>
   <v>       0.00634921 </v>
   <v>       0.00634921 </v>
   <v>       0.00634921 </v>
   <v>       0.00634921 </v>
   <v>       0.00634921 </v>
   <v>       0.00634921 </v>
   <v>       0.00634921 </v>
   <v>       0.00634921 </v>
   <v>       0.00634921 </v>
   <v>       0.00634921 </v>
   <v>       0.00634921 </v>
   <v>       0.00634921 </v>
   <v>       0.00634921 </v>
   <v>       0.00634921 </v>
   <v>       0.00634921 </v>
   <v>       0.00634921 </v>
   <v>       0.00634921 </v>
   <v>       0.00634921 </v>
   <v>       0.00634921 </v>
   <v>       0.00634921 </v>
   <v>       0.00634921 </v>
   <v>       0.00634921 </v>
   <v>       0.00634921 </v>
   <v>       0.00634921 </v>
   <v>       0.00634921 </v>
   <v>       0.00634921 </v>
   <v>       0.00634921 </v>
   <v>       0.00634921 </v>
   <v>       0.00634921 </v>
   <v>       0.00634921 </v>
   <v>       0.00634921 </v>
   <v>       0.00634921 </v>
   <v>       0.00634921 </v>
   <v>       0.00634921 </v>
   <v>       0.00634921 </v>
   <v>       0.00634921 </v>
   <v>       0.00634921 </v>
   <v>       0.00634921 </v>
   <v>       0.00634921 </v>
   <v>       0.00634921 </v>
   <v>       0.00634921 </v>
   <v>       0.00634921 </v>
   <v>       0.00634921 </v>
   <v>       0.00634921 </v>
   <v>       0.00634921 </v>
   <v>       0.00634921 </v>
   <v>       0.00634921 </v>
   <v>       0.00634921 </v>
   <v>       0.00634921 </v>
   <v>       0.00634921 </v>
   <v>       0.00634921 </v>
   <v>       0.00634921 </v>
   <v>       0.00634921 </v>
   <v>       0.00634921 </v>
   <v>       0.00634921 </v>
   <v>       0.00634921 </v>
   <v>       0.00634921 </v>
   <v>       0.00634921 </v>
   <v>       0.00634921 </v>
   <v>       0.00634921 </v>
   <v>       0.00634921 </v>
   <v>       0.00634921 </v>
   <v>       0.00634921 </v>
  </varray>
 </kpoints>
 <parameters>
  <separator name="general" >
   <i type="string" name="SYSTEM">Convergence</i>
   <i type="logical" name="LCOMPAT"> F  </i>
  </separator>
  <separator name="electronic" >
   <i type="string" name="PREC">accura</i>
   <i name="ENMAX">    600.00000000</i>
   <i name="ENAUG">    535.51400000</i>
   <i name="EDIFF">      0.00000100</i>
   <i type="int" name="IALGO">    38</i>
   <i type="int" name="IWAVPR">    10</i>
   <i type="int" name="NBANDS">    48</i>
   <i type="int" name="NBANDSLOW">    -1</i>
   <i type="int" name="NBANDSHIGH">    -1</i>
   <i name="NELECT">     42.00000000</i>
   <i type="int" name="TURBO">     0</i>
   <i type="int" name="IRESTART">     0</i>
   <i type="int" name="NREBOOT">     0</i>
   <i type="int" name="NMIN">     0</i>
   <i name="EREF">      0.00000000</i>
   <separator name="electronic smearing" >
    <i type="int" name="ISMEAR">     0</i>
    <i name="SIGMA">      0.05000000</i>
    <i name="KSPACING">      0.50000000</i>
    <i type="logical" name="KGAMMA"> T  </i>
    <i type="logical" name="KBLOWUP"> T  </i>
   </separator>
   <separator name="electronic projectors" >
    <i type="logical" name="LREAL"> F  </i>
    <v name="ROPT">      0.00000000</v>
    <i type="int" name="LMAXPAW">  -100</i>
    <i type="int" name="LMAXMIX">     2</i>
    <i type="logical" name="NLSPLINE"> F  </i>
   </separator>
   <separator name="electronic startup" >
    <i type="int" name="ISTART">     0</i>
    <i type="int" name="ICHARG">     2</i>
    <i type="int" name="INIWAV">     1</i>
   </separator>
   <separator name="electronic spin" >
    <i type="int" name="ISPIN">     1</i>
    <i type="logical" name="LNONCOLLINEAR"> F  </i>
    <v name="MAGMOM">      1.00000000      1.00000000      1.00000000      1.00000000      1.00000000      1.00000000      1.00000000      1.00000000      1.00000000      1.00000000      1.00000000      1.00000000      1.00000000      1.00000000</v>
    <i name="NUPDOWN">     -1.00000000</i>
    <i type="logical" name="LSORBIT"> F  </i>
    <v name="SAXIS">      0.00000000      0.00000000      1.00000000</v>
    <i type="logical" name="LSPIRAL"> F  </i>
    <v name="QSPIRAL">      0.00000000      0.00000000      0.00000000</v>
    <i type="logical" name="LZEROZ"> F  </i>
   </separator>
   <separator name="electronic exchange-correlation" >
    <i type="logical" name="LASPH"> F  </i>
   </separator>
   <separator name="electronic convergence" >
    <i type="int" name="NELM">   100</i>
    <i type="int" name="NELMDL">    -5</i>
    <i type="int" name="NELMIN">     2</i>
    <i name="ENINI">    600.00000000</i>
    <separator name="electronic convergence detail" >
     <i type="logical" name="LDIAG"> T  </i>
     <i type="logical" name="LSUBROT"> F  </i>
     <i name="WEIMIN">      0.00000000</i>
     <i name="EBREAK">      0.00000001</i>
     <i name="DEPER">      0.30000000</i>
     <i type="int" name="NRMM">     4</i>
     <i name="TIME">      0.40000000</i>
    </separator>
   </separator>
   <separator name="electronic mixer" >
    <i name="AMIX">      0.40000000</i>
    <i name="BMIX">      1.00000000</i>
    <i name="AMIN">      0.10000000</i>
    <i name="AMIX_MAG">      1.60000000</i>
    <i name="BMIX_MAG">      1.00000000</i>
    <separator name="electronic mixer details" >
     <i type="int" name="IMIX">     4</i>
     <i type="logical" name="MIXFIRST"> F  </i>
     <i type="int" name="MAXMIX">   -45</i>
     <i name="WC">    100.00000000</i>
     <i type="int" name="INIMIX">     1</i>
     <i type="int" name="MIXPRE">     1</i>
     <i type="int" name="MREMOVE">     5</i>
    </separator>
   </separator>
   <separator name="electronic dipolcorrection" >
    <i type="logical" name="LDIPOL"> F  </i>
    <i type="logical" name="LMONO"> F  </i>
    <i type="int" name="IDIPOL">     0</i>
    <i name="EPSILON">      1.00000000</i>
    <v name="DIPOL">   -100.00000000   -100.00000000   -100.00000000</v>
    <i name="EFIELD">      0.00000000</i>
    <i type="logical" name="LVACPOTAV"> F  </i>
   </separator>
  </separator>
  <separator name="grids" >
   <i type="int" name="NGX">    48</i>
   <i type="int" name="NGY">    32</i>
   <i type="int" name="NGZ">    50</i>
   <i type="int" name="NGXF">    96</i>
   <i type="int" name="NGYF">    64</i>
   <i type="int" name="NGZF">   100</i>
   <i type="logical" name="ADDGRID"> F  </i>
  </separator>
  <separator name="ionic" >
   <i type="int" name="NSW">     0</i>
   <i type="int" name="IBRION">    -1</i>
   <i type="int" name="MDALGO">     0</i>
   <i type="int" name="ISIF">     2</i>
   <i name="PSTRESS">      0.00000000</i>
   <i name="EDIFFG">     -0.00100000</i>
   <i type="int" name="NFREE">     0</i>
   <i name="POTIM">      0.50000000</i>
   <i name="SMASS">     -3.00000000</i>
   <i name="SCALEE">      1.00000000</i>
  </separator>
  <separator name="ionic md" >
   <i name="TEBEG">      0.00010000</i>
   <i name="TEEND">      0.00010000</i>
   <i type="int" name="NBLOCK">     1</i>
   <i type="int" name="KBLOCK">     1</i>
   <i type="int" name="NPACO">   256</i>
   <i name="APACO">     10.00000000</i>
  </separator>
  <separator name="symmetry" >
   <i type="int" name="ISYM">     2</i>
   <i name="SYMPREC">      0.00001000</i>
  </separator>
  <separator name="dos" >
   <i type="int" name="LORBIT">     0</i>
   <v name="RWIGS">     -1.00000000</v>
   <i type="int" name="NEDOS">   301</i>
   <i name="EMIN">     10.00000000</i>
   <i name="EMAX">    -10.00000000</i>
   <i name="EFERMI">      0.00000000</i>
  </separator>
  <separator name="writing" >
   <i type="int" name="NWRITE">     2</i>
   <i type="logical" name="LWAVE"> F  </i>
   <i type="logical" name="LDOWNSAMPLE"> F  </i>
   <i type="logical" name="LCHARG"> F  </i>
   <i type="logical" name="LPARD"> F  </i>
   <i type="logical" name="LVTOT"> F  </i>
   <i type="logical" name="LVHAR"> F  </i>
   <i type="logical" name="LELF"> F  </i>
   <i type="logical" name="LOPTICS"> F  </i>
   <v name="STM">      0.00000000      0.00000000      0.00000000      0.00000000      0.00000000      0.00000000      0.00000000</v>
  </separator>
  <separator name="performance" >
   <i type="int" name="NPAR">    24</i>
   <i type="int" name="NSIM">     4</i>
   <i type="int" name="NBLK">    -1</i>
   <i type="logical" name="LPLANE"> T  </i>
   <i type="logical" name="LSCALAPACK"> T  </i>
   <i type="logical" name="LSCAAWARE"> F  </i>
   <i type="logical" name="LSCALU"> F  </i>
   <i type="logical" name="LASYNC"> F  </i>
   <i type="logical" name="LORBITALREAL"> F  </i>
  </separator>
  <separator name="miscellaneous" >
   <i type="int" name="IDIOT">     3</i>
   <i type="int" name="PHON_NSTRUCT">    -1</i>
   <i type="logical" name="LMUSIC"> F  </i>
   <v name="POMASS">     10.81100000</v>
   <v name="DARWINR">      0.00000000</v>
   <v name="DARWINV">      1.00000000</v>
   <i type="logical" name="LCORR"> T  </i>
  </separator>
  <i type="logical" name="GGA_COMPAT"> T  </i>
  <i type="logical" name="LBERRY"> F  </i>
  <i type="int" name="ICORELEVEL">     0</i>
  <i type="logical" name="LDAU"> F  </i>
  <i type="int" name="I_CONSTRAINED_M">     0</i>
  <separator name="electronic exchange-correlation" >
   <i type="string" name="GGA    ">PE</i>
   <i type="string" name="XC_C">1</i>
   <i type="int" name="VOSKOWN">     0</i>
   <i type="logical" name="LHFCALC"> F  </i>
   <i type="string" name="PRECFOCK"></i>
   <i type="logical" name="LSYMGRAD"> F  </i>
   <i type="logical" name="LHFONE"> F  </i>
   <i type="logical" name="LRHFCALC"> F  </i>
   <i type="logical" name="LTHOMAS"> F  </i>
   <i type="logical" name="LMODELHF"> F  </i>
   <i type="logical" name="LFOCKACE"> F  </i>
   <i name="ENCUT4O">     -1.00000000</i>
   <i type="int" name="EXXOEP">     0</i>
   <i type="int" name="FOURORBIT">     0</i>
   <i name="AEXX">      0.00000000</i>
   <i name="HFALPHA">      0.00000000</i>
   <i name="MCALPHA">      0.00000000</i>
   <i name="ALDAX">      1.00000000</i>
   <i name="AGGAX">      1.00000000</i>
   <i name="AMGGAX">      1.00000000</i>
   <i name="ALDAC">      1.00000000</i>
   <i name="AGGAC">      1.00000000</i>
   <i name="AMGGAC">      1.00000000</i>
   <i type="int" name="NKREDX">     1</i>
   <i type="int" name="NKREDY">     1</i>
   <i type="int" name="NKREDZ">     1</i>
   <i type="logical" name="SHIFTRED"> F  </i>
   <i type="logical" name="ODDONLY"> F  </i>
   <i type="logical" name="EVENONLY"> F  </i>
   <i type="int" name="LMAXFOCK">     0</i>
   <i type="int" name="NMAXFOCKAE">     0</i>
   <i type="logical" name="LFOCKAEDFT"> F  </i>
   <i name="HFSCREEN">      0.00000000</i>
   <i name="HFSCREENC">      0.00000000</i>
   <i type="int" name="NBANDSGWLOW">     0</i>
  </separator>
  <separator name="vdW DFT" >
   <i type="logical" name="LUSE_VDW"> F  </i>
   <i type="int" name="IVDW_NL">    -1</i>
   <i type="logical" name="LSPIN_VDW"> F  </i>
   <i name="ZAB_VDW">     -0.84910000</i>
   <i name="GAMMA_VDW">      1.39626340</i>
   <i name="ALPHA_VDW">      0.00000000</i>
   <i name="PARAM1">      0.12340000</i>
   <i name="PARAM2">      1.00000000</i>
   <i name="BPARAM">      6.30000000</i>
   <i name="CPARAM">      0.00930000</i>
  </separator>
  <separator name="model GW" >
   <i type="int" name="MODEL_GW">     0</i>
   <i name="MODEL_EPS0">      6.14832854</i>
   <i name="MODEL_ALPHA">      1.00000000</i>
  </separator>
  <separator name="linear response parameters" >
   <i type="logical" name="LEPSILON"> F  </i>
   <i type="logical" name="LRPA"> F  </i>
   <i type="logical" name="LNABLA"> F  </i>
   <i type="logical" name="LVEL"> F  </i>
   <i name="CSHIFT">      0.10000000</i>
   <i name="OMEGAMAX">     -1.00000000</i>
   <i name="DEG_THRESHOLD">      0.00200000</i>
   <i name="RTIME">     -0.10000000</i>
   <i name="WPLASMAI">      0.00000000</i>
   <v name="DFIELD">      0.00000000      0.00000000      0.00000000</v>
   <v name="WPLASMA">      0.00000000      0.00000000      0.00000000      0.00000000      0.00000000      0.00000000      0.00000000      0.00000000      0.00000000</v>
  </separator>
  <separator name="orbital magnetization" >
   <i type="logical" name="NUCIND"> F  </i>
   <v name="MAGPOS">      0.00000000      0.00000000      0.00000000</v>
   <i type="logical" name="LNICSALL"> T  </i>
   <i type="logical" name="ORBITALMAG"> F  </i>
   <i type="logical" name="LMAGBLOCH"> F  </i>
   <i type="logical" name="LCHIMAG"> F  </i>
   <i type="logical" name="LGAUGE"> T  </i>
   <i type="int" name="MAGATOM">     0</i>
   <v name="MAGDIPOL">      0.00000000      0.00000000      0.00000000</v>
   <v name="AVECCONST">      0.00000000      0.00000000      0.00000000</v>
  </separator>
  <separator name="response functions" >
   <i type="logical" name="LALL_IN_ONE"> F  </i>
   <i type="int" name="IALL_IN_ONE">    -1</i>
   <i type="int" name="NBANDS_WAVE">    -1</i>
   <i type="logical" name="LFINITE_TEMPERATURE"> F  </i>
   <i type="logical" name="LADDER"> F  </i>
   <i type="logical" name="LRPAFORCE"> F  </i>
   <i type="logical" name="LFXC"> F  </i>
   <i type="logical" name="LHARTREE"> T  </i>
   <i type="int" name="IBSE">     0</i>
   <v type="int" name="KPOINT">    -1     0     0     0</v>
   <i type="logical" name="LTCTC"> F  </i>
   <i type="logical" name="LTCTE"> F  </i>
   <i type="logical" name="LTETE"> F  </i>
   <i type="logical" name="LTRIPLET"> F  </i>
   <i type="logical" name="LFXCEPS"> F  </i>
   <i type="logical" name="LFXHEG"> F  </i>
   <i type="int" name="NATURALO">     2</i>
   <i type="logical" name="LHOLEGF"> F  </i>
   <i type="logical" name="L2ORDER"> F  </i>
   <i type="logical" name="LDMP1"> F  </i>
   <i type="logical" name="LMP2LT"> F  </i>
   <i type="logical" name="LSMP2LT"> F  </i>
   <i type="logical" name="LGWLF"> F  </i>
   <i name="ENCUTGW">     -1.60000002</i>
   <i name="ENCUTGWSOFT">     -1.60000002</i>
   <i name="ENCUTLF">     -1.00000000</i>
   <i type="logical" name="ESF_SPLINES"> F  </i>
   <i name="ESF_CONV">      0.01000000</i>
   <i type="int" name="ESF_NINTER">    15</i>
   <i type="int" name="LMAXMP2">    -1</i>
   <i name="SCISSOR">      0.00000000</i>
   <i type="int" name="NOMEGA">     0</i>
   <i type="int" name="NOMEGAR">     0</i>
   <i type="int" name="NBANDSGW">    -1</i>
   <i type="int" name="NBANDSO">    -1</i>
   <i type="int" name="NBANDSV">    -1</i>
   <i type="int" name="NELMGW">     1</i>
   <i type="int" name="NELMHF">     1</i>
   <i type="int" name="DIM">     3</i>
   <i type="int" name="IESPILON">     4</i>
   <i type="int" name="ANTIRES">     0</i>
   <i name="OMEGAMAX">    -30.00000000</i>
   <i name="OMEGAMIN">    -30.00000000</i>
   <i name="OMEGATL">   -200.00000000</i>
   <i type="int" name="OMEGAGRID">     0</i>
   <i name="CSHIFT">     -0.10000000</i>
   <i type="logical" name="LSELFENERGY"> F  </i>
   <i type="logical" name="LSPECTRAL"> F  </i>
   <i type="logical" name="LSPECTRALGW"> F  </i>
   <i type="logical" name="LSINGLES"> F  </i>
   <i type="logical" name="LFERMIGW"> F  </i>
   <i type="logical" name="ODDONLYGW"> F  </i>
   <i type="logical" name="EVENONLYGW"> F  </i>
   <i type="int" name="NKREDLFX">     1</i>
   <i type="int" name="NKREDLFY">     1</i>
   <i type="int" name="NKREDLFZ">     1</i>
   <i type="int" name="MAXMEM">  2800</i>
   <i type="int" name="TELESCOPE">     0</i>
   <i type="int" name="NTAUPAR">    -1</i>
   <i type="int" name="NOMEGAPAR">    -1</i>
   <i name="DAMP_NEWTON">      0.80000001</i>
   <i name="LAMBDA">      1.00000000</i>
  </separator>
  <separator name="External order field" >
   <i name="OFIELD_KAPPA">      0.00000000</i>
   <v name="OFIELD_K">      0.00000000      0.00000000      0.00000000</v>
   <i name="OFIELD_Q6_NEAR">      0.00000000</i>
   <i name="OFIELD_Q6_FAR">      0.00000000</i>
   <i name="OFIELD_A">      0.00000000</i>
  </separator>
  <separator name="optional k-points parameters" >
   <i type="int" name="KPOINTS_OPT_MODE">     1</i>
   <i type="logical" name="LKPOINTS_OPT"> F  </i>
  </separator>
 </parameters>
 <atominfo>
  <atoms>      14 </atoms>
  <types>       1 </types>
  <array name="atoms" >
   <dimension dim="1">ion</dimension>
   <field type="string">element</field>
   <field type="int">atomtype</field>
   <set>
    <rc><c>B </c><c>   1</c></rc>
    <rc><c>B </c><c>   1</c></rc>
    <rc><c>B </c><c>   1</c></rc>
    <rc><c>B </c><c>   1</c></rc>
    <rc><c>B </c><c>   1</c></rc>
    <rc><c>B </c><c>   1</c></rc>
    <rc><c>B </c><c>   1</c></rc>
    <rc><c>B </c><c>   1</c></rc>
    <rc><c>B </c><c>   1</c></rc>
    <rc><c>B </c><c>   1</c></rc>
    <rc><c>B </c><c>   1</c></rc>
    <rc><c>B </c><c>   1</c></rc>
    <rc><c>B </c><c>   1</c></rc>
    <rc><c>B </c><c>   1</c></rc>
   </set>
  </array>
  <array name="atomtypes" >
   <dimension dim="1">type</dimension>
   <field type="int">atomspertype</field>
   <field type="string">element</field>
   <field>mass</field>
   <field>valence</field>
   <field type="string">pseudopotential</field>
   <set>
    <rc><c>  14</c><c>B </c><c>     10.81100000</c><c>      3.00000000</c><c>  PAW_PBE B 06Sep2000                   </c></rc>
   </set>
  </array>
 </atominfo>
 <structure name="initialpos" >
  <crystal>
   <varray name="basis" >
    <v>       5.70212730       0.00000000       0.00000000 </v>
    <v>       0.00000000       4.05154311       0.00000000 </v>
    <v>       0.00000000       0.00000000       6.20978378 </v>
   </varray>
   <i name="volume">    143.46099930 </i>
   <varray name="rec_basis" >
    <v>       0.17537315       0.00000000       0.00000000 </v>
    <v>       0.00000000       0.24681954       0.00000000 </v>
    <v>       0.00000000       0.00000000       0.16103620 </v>
   </varray>
  </crystal>
  <varray name="positions" >
   <v>       0.52123000       0.50000000       0.63796000 </v>
   <v>       0.47877000       0.50000000       0.36204000 </v>
   <v>       0.97877000       0.50000000       0.63796000 </v>
   <v>       0.02123000       0.50000000       0.36204000 </v>
   <v>       0.60090000       0.50000000       0.89991000 </v>
   <v>       0.39910000       0.50000000       0.10009000 </v>
   <v>       0.89910000       0.50000000       0.89991000 </v>
   <v>       0.10090000       0.50000000       0.10009000 </v>
   <v>       0.75000000       0.79171000       0.72973000 </v>
   <v>       0.25000000       0.20829000       0.27027000 </v>
   <v>       0.75000000       0.20829000       0.72973000 </v>
   <v>       0.25000000       0.79171000       0.27027000 </v>
   <v>       0.25000000       0.50000000       0.52367000 </v>
   <v>       0.75000000       0.50000000       0.47633000 </v>
  </varray>
 </structure>
 <calculation>
  <scstep>
   <time name="dav">    5.46    5.89</time>
   <time name="total">    5.48    5.90</time>
   <energy>
    <i name="alphaZ">     93.98957959 </i>
    <i name="ewald">   -795.05103498 </i>
    <i name="hartreedc">   -271.60480325 </i>
    <i name="XCdc">     97.43285919 </i>
    <i name="pawpsdc">    608.99811708 </i>
    <i name="pawaedc">   -597.02363782 </i>
    <i name="eentropy">     -0.00130263 </i>
    <i name="bandstr">    -55.55229696 </i>
    <i name="atom">    996.37441054 </i>
    <i name="e_fr_energy">     77.56189077 </i>
    <i name="e_wo_entrp">     77.56319340 </i>
    <i name="e_0_energy">     77.56254208 </i>
   </energy>
  </scstep>
  <scstep>
   <time name="dav">    7.21    7.42</time>
   <time name="total">    7.21    7.43</time>
   <energy>
    <i name="e_fr_energy">    -91.79980123 </i>
    <i name="e_wo_entrp">    -91.79712753 </i>
    <i name="e_0_energy">    -91.79846438 </i>
   </energy>
  </scstep>
  <scstep>
   <time name="dav">    7.74    7.80</time>
   <time name="total">    7.74    7.80</time>
   <energy>
    <i name="e_fr_energy">    -97.55869029 </i>
    <i name="e_wo_entrp">    -97.55504208 </i>
    <i name="e_0_energy">    -97.55686619 </i>
   </energy>
  </scstep>
  <scstep>
   <time name="dav">    6.38    6.47</time>
   <time name="total">    6.38    6.47</time>
   <energy>
    <i name="e_fr_energy">    -97.59264402 </i>
    <i name="e_wo_entrp">    -97.58898442 </i>
    <i name="e_0_energy">    -97.59081422 </i>
   </energy>
  </scstep>
  <scstep>
   <time name="dav">    7.72    7.79</time>
   <time name="total">    7.81    7.89</time>
   <energy>
    <i name="e_fr_energy">    -97.59302434 </i>
    <i name="e_wo_entrp">    -97.58936453 </i>
    <i name="e_0_energy">    -97.59119444 </i>
   </energy>
  </scstep>
  <scstep>
   <time name="dav">    7.59    7.67</time>
   <time name="total">    7.70    7.78</time>
   <energy>
    <i name="e_fr_energy">    -92.21716017 </i>
    <i name="e_wo_entrp">    -92.21371704 </i>
    <i name="e_0_energy">    -92.21543861 </i>
   </energy>
  </scstep>
  <scstep>
   <time name="dav">    7.84    7.92</time>
   <time name="total">    7.95    8.03</time>
   <energy>
    <i name="e_fr_energy">    -90.57619858 </i>
    <i name="e_wo_entrp">    -90.57305619 </i>
    <i name="e_0_energy">    -90.57462739 </i>
   </energy>
  </scstep>
  <scstep>
   <time name="dav">    5.91    5.99</time>
   <time name="total">    6.01    6.10</time>
   <energy>
    <i name="e_fr_energy">    -90.58862021 </i>
    <i name="e_wo_entrp">    -90.58543999 </i>
    <i name="e_0_energy">    -90.58703010 </i>
   </energy>
  </scstep>
  <scstep>
   <time name="dav">    7.33    7.39</time>
   <time name="total">    7.43    7.50</time>
   <energy>
    <i name="e_fr_energy">    -90.60279793 </i>
    <i name="e_wo_entrp">    -90.59953325 </i>
    <i name="e_0_energy">    -90.60116559 </i>
   </energy>
  </scstep>
  <scstep>
   <time name="dav">    6.12    6.19</time>
   <time name="total">    6.23    6.71</time>
   <energy>
    <i name="e_fr_energy">    -90.60684127 </i>
    <i name="e_wo_entrp">    -90.60362219 </i>
    <i name="e_0_energy">    -90.60523173 </i>
   </energy>
  </scstep>
  <scstep>
   <time name="dav">    6.84    6.91</time>
   <time name="total">    6.94    7.01</time>
   <energy>
    <i name="e_fr_energy">    -90.60790839 </i>
    <i name="e_wo_entrp">    -90.60469988 </i>
    <i name="e_0_energy">    -90.60630413 </i>
   </energy>
  </scstep>
  <scstep>
   <time name="dav">    6.54    6.58</time>
   <time name="total">    6.64    6.68</time>
   <energy>
    <i name="e_fr_energy">    -90.60802306 </i>
    <i name="e_wo_entrp">    -90.60480844 </i>
    <i name="e_0_energy">    -90.60641575 </i>
   </energy>
  </scstep>
  <scstep>
   <time name="dav">    7.34    7.42</time>
   <time name="total">    7.44    7.52</time>
   <energy>
    <i name="e_fr_energy">    -90.60802792 </i>
    <i name="e_wo_entrp">    -90.60481305 </i>
    <i name="e_0_energy">    -90.60642049 </i>
   </energy>
  </scstep>
  <scstep>
   <time name="dav">    6.55    6.63</time>
   <time name="total">    6.56    6.64</time>
   <energy>
    <i name="alphaZ">     93.98957959 </i>
    <i name="ewald">   -795.05103498 </i>
    <i name="hartreedc">   -349.13025700 </i>
    <i name="XCdc">    101.51606584 </i>
    <i name="pawpsdc">   3719.93029113 </i>
    <i name="pawaedc">  -3709.10991580 </i>
    <i name="eentropy">     -0.00321499 </i>
    <i name="bandstr">   -149.12395293 </i>
    <i name="atom">    996.37441054 </i>
    <i name="e_fr_energy">    -90.60802860 </i>
    <i name="e_wo_entrp">    -90.60481361 </i>
    <i name="e_0_energy">    -90.60642111 </i>
   </energy>
  </scstep>
  <structure>
   <crystal>
    <varray name="basis" >
     <v>       5.70212730       0.00000000       0.00000000 </v>
     <v>       0.00000000       4.05154311       0.00000000 </v>
     <v>       0.00000000       0.00000000       6.20978378 </v>
    </varray>
    <i name="volume">    143.46099930 </i>
    <varray name="rec_basis" >
     <v>       0.17537315       0.00000000       0.00000000 </v>
     <v>       0.00000000       0.24681954       0.00000000 </v>
     <v>       0.00000000       0.00000000       0.16103620 </v>
    </varray>
   </crystal>
   <varray name="positions" >
    <v>       0.52123000       0.50000000       0.63796000 </v>
    <v>       0.47877000       0.50000000       0.36204000 </v>
    <v>       0.97877000       0.50000000       0.63796000 </v>
    <v>       0.02123000       0.50000000       0.36204000 </v>
    <v>       0.60090000       0.50000000       0.89991000 </v>
    <v>       0.39910000       0.50000000       0.10009000 </v>
    <v>       0.89910000       0.50000000       0.89991000 </v>
    <v>       0.10090000       0.50000000       0.10009000 </v>
    <v>       0.75000000       0.79171000       0.72973000 </v>
    <v>       0.25000000       0.20829000       0.27027000 </v>
    <v>       0.75000000       0.20829000       0.72973000 </v>
    <v>       0.25000000       0.79171000       0.27027000 </v>
    <v>       0.25000000       0.50000000       0.52367000 </v>
    <v>       0.75000000       0.50000000       0.47633000 </v>
   </varray>
  </structure>
  <varray name="forces" >
   <v>       0.01068198      -0.00000000       0.04546330 </v>
   <v>      -0.01068198      -0.00000000      -0.04546330 </v>
   <v>      -0.01068198      -0.00000000       0.04546330 </v>
   <v>       0.01068198      -0.00000000      -0.04546330 </v>
   <v>      -0.82118903      -0.00000000       0.26163163 </v>
   <v>       0.82118903      -0.00000000      -0.26163163 </v>
   <v>       0.82118903      -0.00000000       0.26163163 </v>
   <v>      -0.82118903      -0.00000000      -0.26163163 </v>
   <v>       0.00000000       0.06068447      -0.07511810 </v>
   <v>       0.00000000      -0.06068447       0.07511810 </v>
   <v>      -0.00000000      -0.06068447      -0.07511810 </v>
   <v>       0.00000000       0.06068447       0.07511810 </v>
   <v>       0.00000000      -0.00000000       0.05525540 </v>
   <v>      -0.00000000      -0.00000000      -0.05525540 </v>
  </varray>
  <varray name="stress" >
   <v>       8.74099486       0.00000000       0.00000000 </v>
   <v>       0.00000000      -2.20856198       0.00000000 </v>
   <v>       0.00000000       0.00000000     -11.74597731 </v>
  </varray>
  <energy>
   <i name="e_fr_energy">    -90.60802860 </i>
   <i name="e_wo_entrp">    -90.60481361 </i>
   <i name="e_0_energy">    -90.60642111 </i>
  </energy>
  <time name="totalsc">  102.35  106.13</time>
  <eigenvalues>
   <array>
    <dimension dim="1">band</dimension>
    <dimension dim="2">kpoint</dimension>
    <dimension dim="3">spin</dimension>
    <field>eigene</field>
    <field>occ</field>
    <set>
     <set comment="spin 1">
      <set comment="kpoint 1">
       <r>  -12.7218    1.0000 </r>
       <r>  -11.5801    1.0000 </r>
       <r>   -8.6618    1.0000 </r>
       <r>   -8.4254    1.0000 </r>
       <r>   -6.0712    1.0000 </r>
       <r>   -5.1378    1.0000 </r>
       <r>   -4.6743    1.0000 </r>
       <r>   -4.2796    1.0000 </r>
       <r>   -4.0400    1.0000 </r>
       <r>   -3.5519    1.0000 </r>
       <r>   -2.6054    1.0000 </r>
       <r>   -2.3367    1.0000 </r>
       <r>   -1.8463    1.0000 </r>
       <r>   -1.1074    1.0000 </r>
       <r>   -0.0803    1.0000 </r>
       <r>   -0.0500    1.0000 </r>
       <r>    0.1422    1.0000 </r>
       <r>    0.1629    1.0000 </r>
       <r>    0.5517    1.0000 </r>
       <r>    2.0042    0.0001 </r>
       <r>    2.0669    0.0000 </r>
       <r>    2.2000    0.0000 </r>
       <r>    5.4369    0.0000 </r>
       <r>    5.7277    0.0000 </r>
       <r>    5.8153    0.0000 </r>
       <r>    5.9380    0.0000 </r>
       <r>    6.7904    0.0000 </r>
       <r>    7.5245    0.0000 </r>
       <r>    7.8523    0.0000 </r>
       <r>    8.5043    0.0000 </r>
       <r>    8.7658    0.0000 </r>
       <r>    8.9172    0.0000 </r>
       <r>    9.0105    0.0000 </r>
       <r>   10.0969    0.0000 </r>
       <r>   11.1595    0.0000 </r>
       <r>   11.2995    0.0000 </r>
       <r>   11.6282    0.0000 </r>
       <r>   11.7482    0.0000 </r>
       <r>   11.9111    0.0000 </r>
       <r>   12.3756    0.0000 </r>
       <r>   12.8310    0.0000 </r>
       <r>   13.4139    0.0000 </r>
       <r>   13.4412    0.0000 </r>
       <r>   15.3338    0.0000 </r>
       <r>   15.5268    0.0000 </r>
       <r>   16.0146    0.0000 </r>
       <r>   16.2915    0.0000 </r>
       <r>   16.3129    0.0000 </r>
      </set>
      <set comment="kpoint 2">
       <r>  -12.6780    1.0000 </r>
       <r>  -11.6540    1.0000 </r>
       <r>   -8.6406    1.0000 </r>
       <r>   -8.4139    1.0000 </r>
       <r>   -6.0031    1.0000 </r>
       <r>   -5.4776    1.0000 </r>
       <r>   -4.7960    1.0000 </r>
       <r>   -4.0160    1.0000 </r>
       <r>   -3.7988    1.0000 </r>
       <r>   -3.2153    1.0000 </r>
       <r>   -2.6754    1.0000 </r>
       <r>   -2.3167    1.0000 </r>
       <r>   -1.9243    1.0000 </r>
       <r>   -1.4141    1.0000 </r>
       <r>   -0.0402    1.0000 </r>
       <r>   -0.0316    1.0000 </r>
       <r>    0.0814    1.0000 </r>
       <r>    0.1840    1.0000 </r>
       <r>    0.4565    1.0000 </r>
       <r>    1.9181    0.0798 </r>
       <r>    1.9891    0.0003 </r>
       <r>    2.0791    0.0000 </r>
       <r>    5.5260    0.0000 </r>
       <r>    5.7344    0.0000 </r>
       <r>    5.8451    0.0000 </r>
       <r>    6.2825    0.0000 </r>
       <r>    6.7052    0.0000 </r>
       <r>    7.1635    0.0000 </r>
       <r>    8.0601    0.0000 </r>
       <r>    8.6407    0.0000 </r>
       <r>    9.0195    0.0000 </r>
       <r>    9.0959    0.0000 </r>
       <r>    9.1719    0.0000 </r>
       <r>   10.2062    0.0000 </r>
       <r>   10.9082    0.0000 </r>
       <r>   11.0956    0.0000 </r>
       <r>   11.2321    0.0000 </r>
       <r>   11.6659    0.0000 </r>
       <r>   12.1281    0.0000 </r>
       <r>   12.4639    0.0000 </r>
       <r>   13.0824    0.0000 </r>
       <r>   13.0900    0.0000 </r>
       <r>   13.9708    0.0000 </r>
       <r>   14.8237    0.0000 </r>
       <r>   15.7083    0.0000 </r>
       <r>   15.7898    0.0000 </r>
       <r>   16.1819    0.0000 </r>
       <r>   16.4693    0.0000 </r>
      </set>
      <set comment="kpoint 3">
       <r>  -12.5925    1.0000 </r>
       <r>  -11.7869    1.0000 </r>
       <r>   -8.5970    1.0000 </r>
       <r>   -8.3992    1.0000 </r>
       <r>   -5.9814    1.0000 </r>
       <r>   -5.8036    1.0000 </r>
       <r>   -4.7498    1.0000 </r>
       <r>   -3.8892    1.0000 </r>
       <r>   -3.2882    1.0000 </r>
       <r>   -2.8434    1.0000 </r>
       <r>   -2.7241    1.0000 </r>
       <r>   -2.2767    1.0000 </r>
       <r>   -2.0342    1.0000 </r>
       <r>   -1.9179    1.0000 </r>
       <r>   -0.2343    1.0000 </r>
       <r>    0.0019    1.0000 </r>
       <r>    0.1303    1.0000 </r>
       <r>    0.1460    1.0000 </r>
       <r>    0.4264    1.0000 </r>
       <r>    1.7705    0.9972 </r>
       <r>    1.8503    0.6959 </r>
       <r>    1.8566    0.6309 </r>
       <r>    5.6471    0.0000 </r>
       <r>    5.6908    0.0000 </r>
       <r>    6.1540    0.0000 </r>
       <r>    6.5797    0.0000 </r>
       <r>    6.7400    0.0000 </r>
       <r>    6.9092    0.0000 </r>
       <r>    8.2098    0.0000 </r>
       <r>    8.7895    0.0000 </r>
       <r>    8.9645    0.0000 </r>
       <r>    9.5402    0.0000 </r>
       <r>    9.6165    0.0000 </r>
       <r>   10.2486    0.0000 </r>
       <r>   10.4515    0.0000 </r>
       <r>   10.5907    0.0000 </r>
       <r>   11.3508    0.0000 </r>
       <r>   11.8089    0.0000 </r>
       <r>   12.3628    0.0000 </r>
       <r>   12.5275    0.0000 </r>
       <r>   12.7621    0.0000 </r>
       <r>   12.8791    0.0000 </r>
       <r>   14.5954    0.0000 </r>
       <r>   14.8749    0.0000 </r>
       <r>   15.1892    0.0000 </r>
       <r>   15.9398    0.0000 </r>
       <r>   15.9601    0.0000 </r>
       <r>   16.2445    0.0000 </r>
      </set>
      <set comment="kpoint 4">
       <r>  -12.4690    1.0000 </r>
       <r>  -11.9563    1.0000 </r>
       <r>   -8.5352    1.0000 </r>
       <r>   -8.3959    1.0000 </r>
       <r>   -6.0616    1.0000 </r>
       <r>   -6.0365    1.0000 </r>
       <r>   -4.4228    1.0000 </r>
       <r>   -3.7208    1.0000 </r>
       <r>   -3.0369    1.0000 </r>
       <r>   -2.9045    1.0000 </r>
       <r>   -2.4534    1.0000 </r>
       <r>   -2.2635    1.0000 </r>
       <r>   -2.1589    1.0000 </r>
       <r>   -2.1343    1.0000 </r>
       <r>   -0.5334    1.0000 </r>
       <r>   -0.2596    1.0000 </r>
       <r>    0.1615    1.0000 </r>
       <r>    0.2367    1.0000 </r>
       <r>    0.5992    1.0000 </r>
       <r>    1.5147    1.0000 </r>
       <r>    1.6484    1.0000 </r>
       <r>    1.7086    1.0000 </r>
       <r>    5.6760    0.0000 </r>
       <r>    5.7322    0.0000 </r>
       <r>    6.4790    0.0000 </r>
       <r>    6.6512    0.0000 </r>
       <r>    6.6769    0.0000 </r>
       <r>    7.3879    0.0000 </r>
       <r>    8.3333    0.0000 </r>
       <r>    8.6604    0.0000 </r>
       <r>    8.7766    0.0000 </r>
       <r>    9.5047    0.0000 </r>
       <r>   10.0213    0.0000 </r>
       <r>   10.0874    0.0000 </r>
       <r>   10.3640    0.0000 </r>
       <r>   11.1095    0.0000 </r>
       <r>   11.3747    0.0000 </r>
       <r>   11.9082    0.0000 </r>
       <r>   12.1699    0.0000 </r>
       <r>   12.2390    0.0000 </r>
       <r>   12.4900    0.0000 </r>
       <r>   13.2249    0.0000 </r>
       <r>   14.6788    0.0000 </r>
       <r>   14.9380    0.0000 </r>
       <r>   15.2180    0.0000 </r>
       <r>   15.3350    0.0000 </r>
       <r>   15.5309    0.0000 </r>
       <r>   16.3347    0.0000 </r>
      </set>
      <set comment="kpoint 5">
       <r>  -12.3144    1.0000 </r>
       <r>  -12.1386    1.0000 </r>
       <r>   -8.4692    1.0000 </r>
       <r>   -8.4184    1.0000 </r>
       <r>   -6.1502    1.0000 </r>
       <r>   -6.1462    1.0000 </r>
       <r>   -3.9081    1.0000 </r>
       <r>   -3.5122    1.0000 </r>
       <r>   -3.3094    1.0000 </r>
       <r>   -3.2750    1.0000 </r>
       <r>   -2.3701    1.0000 </r>
       <r>   -2.2429    1.0000 </r>
       <r>   -1.9742    1.0000 </r>
       <r>   -1.9196    1.0000 </r>
       <r>   -0.7540    1.0000 </r>
       <r>   -0.6181    1.0000 </r>
       <r>    0.2445    1.0000 </r>
       <r>    0.2779    1.0000 </r>
       <r>    0.8596    1.0000 </r>
       <r>    1.1764    1.0000 </r>
       <r>    1.5679    1.0000 </r>
       <r>    1.5951    1.0000 </r>
       <r>    5.7046    0.0000 </r>
       <r>    5.7427    0.0000 </r>
       <r>    6.4581    0.0000 </r>
       <r>    6.5223    0.0000 </r>
       <r>    7.3444    0.0000 </r>
       <r>    8.0471    0.0000 </r>
       <r>    8.0698    0.0000 </r>
       <r>    8.4503    0.0000 </r>
       <r>    8.5880    0.0000 </r>
       <r>    8.7611    0.0000 </r>
       <r>   10.4704    0.0000 </r>
       <r>   10.4851    0.0000 </r>
       <r>   10.7259    0.0000 </r>
       <r>   11.1833    0.0000 </r>
       <r>   11.3675    0.0000 </r>
       <r>   11.5608    0.0000 </r>
       <r>   11.8935    0.0000 </r>
       <r>   12.4472    0.0000 </r>
       <r>   12.6850    0.0000 </r>
       <r>   13.2193    0.0000 </r>
       <r>   14.5569    0.0000 </r>
       <r>   14.6947    0.0000 </r>
       <r>   14.8328    0.0000 </r>
       <r>   14.8920    0.0000 </r>
       <r>   16.0565    0.0000 </r>
       <r>   16.4017    0.0000 </r>
      </set>
      <set comment="kpoint 6">
       <r>  -12.6978    1.0000 </r>
       <r>  -11.5586    1.0000 </r>
       <r>   -8.6431    1.0000 </r>
       <r>   -8.4024    1.0000 </r>
       <r>   -6.0445    1.0000 </r>
       <r>   -5.1041    1.0000 </r>
       <r>   -4.6523    1.0000 </r>
       <r>   -4.5782    1.0000 </r>
       <r>   -4.1837    1.0000 </r>
       <r>   -3.5291    1.0000 </r>
       <r>   -3.2979    1.0000 </r>
       <r>   -1.8057    1.0000 </r>
       <r>   -1.1029    1.0000 </r>
       <r>   -1.0482    1.0000 </r>
       <r>   -0.3136    1.0000 </r>
       <r>   -0.2856    1.0000 </r>
       <r>    0.1557    1.0000 </r>
       <r>    0.2331    1.0000 </r>
       <r>    0.6299    1.0000 </r>
       <r>    1.7371    0.9999 </r>
       <r>    1.8167    0.9283 </r>
       <r>    2.2521    0.0000 </r>
       <r>    5.5563    0.0000 </r>
       <r>    5.6859    0.0000 </r>
       <r>    5.7212    0.0000 </r>
       <r>    5.9828    0.0000 </r>
       <r>    7.0754    0.0000 </r>
       <r>    7.8097    0.0000 </r>
       <r>    8.0484    0.0000 </r>
       <r>    8.1615    0.0000 </r>
       <r>    8.7704    0.0000 </r>
       <r>    9.0605    0.0000 </r>
       <r>    9.1145    0.0000 </r>
       <r>   10.5472    0.0000 </r>
       <r>   11.2316    0.0000 </r>
       <r>   11.3731    0.0000 </r>
       <r>   11.5624    0.0000 </r>
       <r>   11.8508    0.0000 </r>
       <r>   12.0220    0.0000 </r>
       <r>   12.6546    0.0000 </r>
       <r>   12.8319    0.0000 </r>
       <r>   13.1523    0.0000 </r>
       <r>   13.1571    0.0000 </r>
       <r>   15.2868    0.0000 </r>
       <r>   15.3345    0.0000 </r>
       <r>   15.8159    0.0000 </r>
       <r>   15.8209    0.0000 </r>
       <r>   16.1754    0.0000 </r>
      </set>
      <set comment="kpoint 7">
       <r>  -12.6542    1.0000 </r>
       <r>  -11.6323    1.0000 </r>
       <r>   -8.6218    1.0000 </r>
       <r>   -8.3913    1.0000 </r>
       <r>   -5.9747    1.0000 </r>
       <r>   -5.4475    1.0000 </r>
       <r>   -4.7761    1.0000 </r>
       <r>   -4.4964    1.0000 </r>
       <r>   -3.7600    1.0000 </r>
       <r>   -3.3782    1.0000 </r>
       <r>   -3.1774    1.0000 </r>
       <r>   -1.7841    1.0000 </r>
       <r>   -1.4087    1.0000 </r>
       <r>   -1.1664    1.0000 </r>
       <r>   -0.2748    1.0000 </r>
       <r>   -0.2064    1.0000 </r>
       <r>    0.1230    1.0000 </r>
       <r>    0.2054    1.0000 </r>
       <r>    0.5271    1.0000 </r>
       <r>    1.6568    1.0000 </r>
       <r>    1.7403    0.9999 </r>
       <r>    2.1216    0.0000 </r>
       <r>    5.6323    0.0000 </r>
       <r>    5.7850    0.0000 </r>
       <r>    5.9112    0.0000 </r>
       <r>    6.0899    0.0000 </r>
       <r>    6.9923    0.0000 </r>
       <r>    7.4850    0.0000 </r>
       <r>    8.1943    0.0000 </r>
       <r>    8.3302    0.0000 </r>
       <r>    9.0904    0.0000 </r>
       <r>    9.1258    0.0000 </r>
       <r>    9.3825    0.0000 </r>
       <r>   10.4696    0.0000 </r>
       <r>   10.8401    0.0000 </r>
       <r>   11.0485    0.0000 </r>
       <r>   11.4273    0.0000 </r>
       <r>   11.8387    0.0000 </r>
       <r>   12.2413    0.0000 </r>
       <r>   12.7068    0.0000 </r>
       <r>   12.8313    0.0000 </r>
       <r>   13.1140    0.0000 </r>
       <r>   13.6894    0.0000 </r>
       <r>   14.9085    0.0000 </r>
       <r>   15.3548    0.0000 </r>
       <r>   15.7102    0.0000 </r>
       <r>   15.7510    0.0000 </r>
       <r>   16.3555    0.0000 </r>
      </set>
      <set comment="kpoint 8">
       <r>  -12.5688    1.0000 </r>
       <r>  -11.7650    1.0000 </r>
       <r>   -8.5779    1.0000 </r>
       <r>   -8.3772    1.0000 </r>
       <r>   -5.9502    1.0000 </r>
       <r>   -5.7733    1.0000 </r>
       <r>   -4.7332    1.0000 </r>
       <r>   -4.3882    1.0000 </r>
       <r>   -3.4998    1.0000 </r>
       <r>   -3.2348    1.0000 </r>
       <r>   -2.7117    1.0000 </r>
       <r>   -1.9133    1.0000 </r>
       <r>   -1.7400    1.0000 </r>
       <r>   -1.3287    1.0000 </r>
       <r>   -0.2365    1.0000 </r>
       <r>   -0.2284    1.0000 </r>
       <r>    0.0410    1.0000 </r>
       <r>    0.1926    1.0000 </r>
       <r>    0.4508    1.0000 </r>
       <r>    1.5221    1.0000 </r>
       <r>    1.6105    1.0000 </r>
       <r>    1.8738    0.4390 </r>
       <r>    5.8323    0.0000 </r>
       <r>    5.9129    0.0000 </r>
       <r>    5.9910    0.0000 </r>
       <r>    6.5375    0.0000 </r>
       <r>    6.8720    0.0000 </r>
       <r>    7.2576    0.0000 </r>
       <r>    8.4008    0.0000 </r>
       <r>    8.4623    0.0000 </r>
       <r>    9.0635    0.0000 </r>
       <r>    9.5784    0.0000 </r>
       <r>    9.8416    0.0000 </r>
       <r>   10.0931    0.0000 </r>
       <r>   10.3197    0.0000 </r>
       <r>   10.7871    0.0000 </r>
       <r>   11.4915    0.0000 </r>
       <r>   12.0736    0.0000 </r>
       <r>   12.2715    0.0000 </r>
       <r>   12.5244    0.0000 </r>
       <r>   12.9187    0.0000 </r>
       <r>   12.9912    0.0000 </r>
       <r>   14.2657    0.0000 </r>
       <r>   15.0414    0.0000 </r>
       <r>   15.1212    0.0000 </r>
       <r>   15.6025    0.0000 </r>
       <r>   15.6680    0.0000 </r>
       <r>   16.3759    0.0000 </r>
      </set>
      <set comment="kpoint 9">
       <r>  -12.4456    1.0000 </r>
       <r>  -11.9340    1.0000 </r>
       <r>   -8.5159    1.0000 </r>
       <r>   -8.3748    1.0000 </r>
       <r>   -6.0292    1.0000 </r>
       <r>   -6.0053    1.0000 </r>
       <r>   -4.4084    1.0000 </r>
       <r>   -4.2416    1.0000 </r>
       <r>   -3.6707    1.0000 </r>
       <r>   -2.8560    1.0000 </r>
       <r>   -2.3720    1.0000 </r>
       <r>   -2.2292    1.0000 </r>
       <r>   -1.6760    1.0000 </r>
       <r>   -1.4912    1.0000 </r>
       <r>   -0.4952    1.0000 </r>
       <r>   -0.3214    1.0000 </r>
       <r>    0.0725    1.0000 </r>
       <r>    0.1030    1.0000 </r>
       <r>    0.6099    1.0000 </r>
       <r>    1.3826    1.0000 </r>
       <r>    1.4654    1.0000 </r>
       <r>    1.5506    1.0000 </r>
       <r>    5.8501    0.0000 </r>
       <r>    5.9861    0.0000 </r>
       <r>    6.4958    0.0000 </r>
       <r>    6.7831    0.0000 </r>
       <r>    6.8563    0.0000 </r>
       <r>    7.3477    0.0000 </r>
       <r>    8.3907    0.0000 </r>
       <r>    8.5696    0.0000 </r>
       <r>    8.9060    0.0000 </r>
       <r>    9.3409    0.0000 </r>
       <r>   10.0389    0.0000 </r>
       <r>   10.0639    0.0000 </r>
       <r>   10.4094    0.0000 </r>
       <r>   11.1862    0.0000 </r>
       <r>   11.3315    0.0000 </r>
       <r>   11.8064    0.0000 </r>
       <r>   12.2522    0.0000 </r>
       <r>   12.5139    0.0000 </r>
       <r>   12.6894    0.0000 </r>
       <r>   13.4264    0.0000 </r>
       <r>   14.7259    0.0000 </r>
       <r>   14.7346    0.0000 </r>
       <r>   15.1114    0.0000 </r>
       <r>   15.2677    0.0000 </r>
       <r>   15.6080    0.0000 </r>
       <r>   16.3483    0.0000 </r>
      </set>
      <set comment="kpoint 10">
       <r>  -12.2913    1.0000 </r>
       <r>  -12.1159    1.0000 </r>
       <r>   -8.4495    1.0000 </r>
       <r>   -8.3981    1.0000 </r>
       <r>   -6.1182    1.0000 </r>
       <r>   -6.1138    1.0000 </r>
       <r>   -4.0632    1.0000 </r>
       <r>   -3.9007    1.0000 </r>
       <r>   -3.8599    1.0000 </r>
       <r>   -3.2966    1.0000 </r>
       <r>   -2.1173    1.0000 </r>
       <r>   -1.9245    1.0000 </r>
       <r>   -1.6079    1.0000 </r>
       <r>   -1.6037    1.0000 </r>
       <r>   -0.7159    1.0000 </r>
       <r>   -0.6142    1.0000 </r>
       <r>    0.1061    1.0000 </r>
       <r>    0.1372    1.0000 </r>
       <r>    0.8689    1.0000 </r>
       <r>    1.1829    1.0000 </r>
       <r>    1.3292    1.0000 </r>
       <r>    1.3532    1.0000 </r>
       <r>    5.9017    0.0000 </r>
       <r>    5.9682    0.0000 </r>
       <r>    6.7727    0.0000 </r>
       <r>    6.8233    0.0000 </r>
       <r>    7.1619    0.0000 </r>
       <r>    7.8725    0.0000 </r>
       <r>    7.9163    0.0000 </r>
       <r>    8.5969    0.0000 </r>
       <r>    8.6616    0.0000 </r>
       <r>    8.7737    0.0000 </r>
       <r>   10.2867    0.0000 </r>
       <r>   10.5356    0.0000 </r>
       <r>   10.7733    0.0000 </r>
       <r>   10.8744    0.0000 </r>
       <r>   11.5148    0.0000 </r>
       <r>   11.6197    0.0000 </r>
       <r>   11.9718    0.0000 </r>
       <r>   12.6152    0.0000 </r>
       <r>   12.9924    0.0000 </r>
       <r>   13.4497    0.0000 </r>
       <r>   14.5101    0.0000 </r>
       <r>   14.6952    0.0000 </r>
       <r>   14.7933    0.0000 </r>
       <r>   15.0110    0.0000 </r>
       <r>   16.0817    0.0000 </r>
       <r>   16.3764    0.0000 </r>
      </set>
      <set comment="kpoint 11">
       <r>  -12.6535    1.0000 </r>
       <r>  -11.5188    1.0000 </r>
       <r>   -8.6088    1.0000 </r>
       <r>   -8.3598    1.0000 </r>
       <r>   -5.9952    1.0000 </r>
       <r>   -5.1348    1.0000 </r>
       <r>   -5.0136    1.0000 </r>
       <r>   -4.6107    1.0000 </r>
       <r>   -4.1672    1.0000 </r>
       <r>   -3.9193    1.0000 </r>
       <r>   -3.4760    1.0000 </r>
       <r>   -1.2160    1.0000 </r>
       <r>   -1.0936    1.0000 </r>
       <r>   -0.6564    1.0000 </r>
       <r>   -0.5519    1.0000 </r>
       <r>   -0.1906    1.0000 </r>
       <r>    0.1769    1.0000 </r>
       <r>    0.2857    1.0000 </r>
       <r>    0.7080    1.0000 </r>
       <r>    1.3554    1.0000 </r>
       <r>    1.4186    1.0000 </r>
       <r>    2.2900    0.0000 </r>
       <r>    5.2685    0.0000 </r>
       <r>    5.4331    0.0000 </r>
       <r>    6.0993    0.0000 </r>
       <r>    6.1702    0.0000 </r>
       <r>    7.5090    0.0000 </r>
       <r>    7.5978    0.0000 </r>
       <r>    8.2910    0.0000 </r>
       <r>    8.6943    0.0000 </r>
       <r>    8.8511    0.0000 </r>
       <r>    9.2012    0.0000 </r>
       <r>    9.3365    0.0000 </r>
       <r>   10.8491    0.0000 </r>
       <r>   11.2848    0.0000 </r>
       <r>   11.5372    0.0000 </r>
       <r>   11.6722    0.0000 </r>
       <r>   12.0507    0.0000 </r>
       <r>   12.2380    0.0000 </r>
       <r>   12.7113    0.0000 </r>
       <r>   12.7241    0.0000 </r>
       <r>   12.9657    0.0000 </r>
       <r>   13.1923    0.0000 </r>
       <r>   14.6282    0.0000 </r>
       <r>   15.1171    0.0000 </r>
       <r>   15.2958    0.0000 </r>
       <r>   15.3921    0.0000 </r>
       <r>   15.9149    0.0000 </r>
      </set>
      <set comment="kpoint 12">
       <r>  -12.6101    1.0000 </r>
       <r>  -11.5922    1.0000 </r>
       <r>   -8.5872    1.0000 </r>
       <r>   -8.3494    1.0000 </r>
       <r>   -5.9220    1.0000 </r>
       <r>   -5.3992    1.0000 </r>
       <r>   -5.0373    1.0000 </r>
       <r>   -4.7385    1.0000 </r>
       <r>   -3.9852    1.0000 </r>
       <r>   -3.7181    1.0000 </r>
       <r>   -3.1380    1.0000 </r>
       <r>   -1.4004    1.0000 </r>
       <r>   -1.1898    1.0000 </r>
       <r>   -0.7641    1.0000 </r>
       <r>   -0.5139    1.0000 </r>
       <r>   -0.1093    1.0000 </r>
       <r>    0.1565    1.0000 </r>
       <r>    0.2305    1.0000 </r>
       <r>    0.5955    1.0000 </r>
       <r>    1.2764    1.0000 </r>
       <r>    1.3490    1.0000 </r>
       <r>    2.1545    0.0000 </r>
       <r>    5.3489    0.0000 </r>
       <r>    5.7779    0.0000 </r>
       <r>    6.1162    0.0000 </r>
       <r>    6.2143    0.0000 </r>
       <r>    7.4284    0.0000 </r>
       <r>    7.7543    0.0000 </r>
       <r>    8.0233    0.0000 </r>
       <r>    8.7860    0.0000 </r>
       <r>    9.2142    0.0000 </r>
       <r>    9.2537    0.0000 </r>
       <r>    9.6205    0.0000 </r>
       <r>   10.4847    0.0000 </r>
       <r>   10.7458    0.0000 </r>
       <r>   11.2417    0.0000 </r>
       <r>   11.6900    0.0000 </r>
       <r>   12.1638    0.0000 </r>
       <r>   12.3963    0.0000 </r>
       <r>   12.4682    0.0000 </r>
       <r>   13.1242    0.0000 </r>
       <r>   13.2396    0.0000 </r>
       <r>   13.3983    0.0000 </r>
       <r>   14.6398    0.0000 </r>
       <r>   14.7798    0.0000 </r>
       <r>   15.2330    0.0000 </r>
       <r>   15.4561    0.0000 </r>
       <r>   15.9447    0.0000 </r>
      </set>
      <set comment="kpoint 13">
       <r>  -12.5251    1.0000 </r>
       <r>  -11.7244    1.0000 </r>
       <r>   -8.5429    1.0000 </r>
       <r>   -8.3367    1.0000 </r>
       <r>   -5.8922    1.0000 </r>
       <r>   -5.7185    1.0000 </r>
       <r>   -4.9457    1.0000 </r>
       <r>   -4.7023    1.0000 </r>
       <r>   -4.1083    1.0000 </r>
       <r>   -3.1849    1.0000 </r>
       <r>   -2.6679    1.0000 </r>
       <r>   -1.8970    1.0000 </r>
       <r>   -1.1494    1.0000 </r>
       <r>   -0.9032    1.0000 </r>
       <r>   -0.4612    1.0000 </r>
       <r>   -0.1021    1.0000 </r>
       <r>    0.0009    1.0000 </r>
       <r>    0.2421    1.0000 </r>
       <r>    0.4806    1.0000 </r>
       <r>    1.1452    1.0000 </r>
       <r>    1.2308    1.0000 </r>
       <r>    1.8985    0.1978 </r>
       <r>    5.6695    0.0000 </r>
       <r>    6.0713    0.0000 </r>
       <r>    6.2529    0.0000 </r>
       <r>    6.3445    0.0000 </r>
       <r>    7.3265    0.0000 </r>
       <r>    7.8347    0.0000 </r>
       <r>    7.9884    0.0000 </r>
       <r>    8.9148    0.0000 </r>
       <r>    9.2102    0.0000 </r>
       <r>    9.6854    0.0000 </r>
       <r>    9.8209    0.0000 </r>
       <r>   10.1027    0.0000 </r>
       <r>   10.2214    0.0000 </r>
       <r>   11.0264    0.0000 </r>
       <r>   11.5551    0.0000 </r>
       <r>   12.0709    0.0000 </r>
       <r>   12.4741    0.0000 </r>
       <r>   12.7694    0.0000 </r>
       <r>   13.0054    0.0000 </r>
       <r>   13.4116    0.0000 </r>
       <r>   13.9203    0.0000 </r>
       <r>   14.5500    0.0000 </r>
       <r>   14.8291    0.0000 </r>
       <r>   15.2556    0.0000 </r>
       <r>   15.4739    0.0000 </r>
       <r>   16.1554    0.0000 </r>
      </set>
      <set comment="kpoint 14">
       <r>  -12.4024    1.0000 </r>
       <r>  -11.8928    1.0000 </r>
       <r>   -8.4804    1.0000 </r>
       <r>   -8.3360    1.0000 </r>
       <r>   -5.9688    1.0000 </r>
       <r>   -5.9478    1.0000 </r>
       <r>   -4.8102    1.0000 </r>
       <r>   -4.3818    1.0000 </r>
       <r>   -4.2722    1.0000 </r>
       <r>   -2.8177    1.0000 </r>
       <r>   -2.3313    1.0000 </r>
       <r>   -2.1881    1.0000 </r>
       <r>   -1.0930    1.0000 </r>
       <r>   -1.0403    1.0000 </r>
       <r>   -0.4676    1.0000 </r>
       <r>   -0.3873    1.0000 </r>
       <r>    0.0446    1.0000 </r>
       <r>    0.0475    1.0000 </r>
       <r>    0.6274    1.0000 </r>
       <r>    1.0158    1.0000 </r>
       <r>    1.0983    1.0000 </r>
       <r>    1.5641    1.0000 </r>
       <r>    6.0830    0.0000 </r>
       <r>    6.2034    0.0000 </r>
       <r>    6.3757    0.0000 </r>
       <r>    6.7785    0.0000 </r>
       <r>    7.2714    0.0000 </r>
       <r>    7.7564    0.0000 </r>
       <r>    8.0447    0.0000 </r>
       <r>    9.0143    0.0000 </r>
       <r>    9.0741    0.0000 </r>
       <r>    9.1444    0.0000 </r>
       <r>    9.8536    0.0000 </r>
       <r>   10.1522    0.0000 </r>
       <r>   10.6696    0.0000 </r>
       <r>   11.0443    0.0000 </r>
       <r>   11.2850    0.0000 </r>
       <r>   11.9168    0.0000 </r>
       <r>   12.3144    0.0000 </r>
       <r>   12.9520    0.0000 </r>
       <r>   13.0030    0.0000 </r>
       <r>   13.7542    0.0000 </r>
       <r>   14.3379    0.0000 </r>
       <r>   14.3555    0.0000 </r>
       <r>   14.9883    0.0000 </r>
       <r>   15.0825    0.0000 </r>
       <r>   15.5698    0.0000 </r>
       <r>   16.3335    0.0000 </r>
      </set>
      <set comment="kpoint 15">
       <r>  -12.2487    1.0000 </r>
       <r>  -12.0740    1.0000 </r>
       <r>   -8.4134    1.0000 </r>
       <r>   -8.3609    1.0000 </r>
       <r>   -6.0588    1.0000 </r>
       <r>   -6.0534    1.0000 </r>
       <r>   -4.6429    1.0000 </r>
       <r>   -4.4579    1.0000 </r>
       <r>   -3.8698    1.0000 </r>
       <r>   -3.2742    1.0000 </r>
       <r>   -2.0492    1.0000 </r>
       <r>   -1.8842    1.0000 </r>
       <r>   -1.1128    1.0000 </r>
       <r>   -1.0523    1.0000 </r>
       <r>   -0.6431    1.0000 </r>
       <r>   -0.6376    1.0000 </r>
       <r>   -0.0047    1.0000 </r>
       <r>    0.0388    1.0000 </r>
       <r>    0.8846    1.0000 </r>
       <r>    0.9535    1.0000 </r>
       <r>    0.9940    1.0000 </r>
       <r>    1.2113    1.0000 </r>
       <r>    6.1748    0.0000 </r>
       <r>    6.2936    0.0000 </r>
       <r>    6.8547    0.0000 </r>
       <r>    7.1919    0.0000 </r>
       <r>    7.2499    0.0000 </r>
       <r>    7.5978    0.0000 </r>
       <r>    7.9030    0.0000 </r>
       <r>    8.4127    0.0000 </r>
       <r>    9.0700    0.0000 </r>
       <r>    9.1018    0.0000 </r>
       <r>    9.9779    0.0000 </r>
       <r>   10.4503    0.0000 </r>
       <r>   10.6736    0.0000 </r>
       <r>   10.9467    0.0000 </r>
       <r>   11.6947    0.0000 </r>
       <r>   11.7098    0.0000 </r>
       <r>   12.0916    0.0000 </r>
       <r>   12.8705    0.0000 </r>
       <r>   13.3807    0.0000 </r>
       <r>   13.7266    0.0000 </r>
       <r>   14.1877    0.0000 </r>
       <r>   14.3420    0.0000 </r>
       <r>   14.9544    0.0000 </r>
       <r>   15.0936    0.0000 </r>
       <r>   15.9471    0.0000 </r>
       <r>   16.2502    0.0000 </r>
      </set>
      <set comment="kpoint 16">
       <r>  -12.5962    1.0000 </r>
       <r>  -11.4675    1.0000 </r>
       <r>   -8.5651    1.0000 </r>
       <r>   -8.3048    1.0000 </r>
       <r>   -5.9313    1.0000 </r>
       <r>   -5.6153    1.0000 </r>
       <r>   -4.9437    1.0000 </r>
       <r>   -4.5547    1.0000 </r>
       <r>   -4.4390    1.0000 </r>
       <r>   -4.1280    1.0000 </r>
       <r>   -3.4143    1.0000 </r>
       <r>   -1.2281    1.0000 </r>
       <r>   -1.0794    1.0000 </r>
       <r>   -1.0098    1.0000 </r>
       <r>   -0.2076    1.0000 </r>
       <r>    0.2050    1.0000 </r>
       <r>    0.3288    1.0000 </r>
       <r>    0.5795    1.0000 </r>
       <r>    0.7715    1.0000 </r>
       <r>    0.9710    1.0000 </r>
       <r>    0.9850    1.0000 </r>
       <r>    2.3240    0.0000 </r>
       <r>    4.9263    0.0000 </r>
       <r>    5.1404    0.0000 </r>
       <r>    6.3299    0.0000 </r>
       <r>    6.5596    0.0000 </r>
       <r>    7.2405    0.0000 </r>
       <r>    7.9374    0.0000 </r>
       <r>    8.6664    0.0000 </r>
       <r>    9.0302    0.0000 </r>
       <r>    9.4253    0.0000 </r>
       <r>    9.5492    0.0000 </r>
       <r>    9.6176    0.0000 </r>
       <r>   10.7105    0.0000 </r>
       <r>   11.2337    0.0000 </r>
       <r>   11.9328    0.0000 </r>
       <r>   11.9871    0.0000 </r>
       <r>   12.2580    0.0000 </r>
       <r>   12.3896    0.0000 </r>
       <r>   12.4154    0.0000 </r>
       <r>   12.5299    0.0000 </r>
       <r>   12.9507    0.0000 </r>
       <r>   13.7470    0.0000 </r>
       <r>   13.8443    0.0000 </r>
       <r>   14.3740    0.0000 </r>
       <r>   15.0637    0.0000 </r>
       <r>   15.3652    0.0000 </r>
       <r>   15.8095    0.0000 </r>
      </set>
      <set comment="kpoint 17">
       <r>  -12.5530    1.0000 </r>
       <r>  -11.5405    1.0000 </r>
       <r>   -8.5431    1.0000 </r>
       <r>   -8.2953    1.0000 </r>
       <r>   -5.8535    1.0000 </r>
       <r>   -5.5805    1.0000 </r>
       <r>   -5.2800    1.0000 </r>
       <r>   -4.6888    1.0000 </r>
       <r>   -4.5042    1.0000 </r>
       <r>   -3.6645    1.0000 </r>
       <r>   -3.0766    1.0000 </r>
       <r>   -1.3941    1.0000 </r>
       <r>   -1.1713    1.0000 </r>
       <r>   -1.0248    1.0000 </r>
       <r>   -0.2088    1.0000 </r>
       <r>    0.1890    1.0000 </r>
       <r>    0.2621    1.0000 </r>
       <r>    0.5592    1.0000 </r>
       <r>    0.6501    1.0000 </r>
       <r>    0.9055    1.0000 </r>
       <r>    0.9435    1.0000 </r>
       <r>    2.1866    0.0000 </r>
       <r>    5.0223    0.0000 </r>
       <r>    5.4711    0.0000 </r>
       <r>    6.2760    0.0000 </r>
       <r>    6.6920    0.0000 </r>
       <r>    7.3758    0.0000 </r>
       <r>    7.8952    0.0000 </r>
       <r>    8.6033    0.0000 </r>
       <r>    9.1429    0.0000 </r>
       <r>    9.3917    0.0000 </r>
       <r>    9.7585    0.0000 </r>
       <r>    9.8597    0.0000 </r>
       <r>   10.3033    0.0000 </r>
       <r>   10.6734    0.0000 </r>
       <r>   11.6705    0.0000 </r>
       <r>   11.8536    0.0000 </r>
       <r>   12.2118    0.0000 </r>
       <r>   12.4418    0.0000 </r>
       <r>   12.6093    0.0000 </r>
       <r>   12.9231    0.0000 </r>
       <r>   13.3523    0.0000 </r>
       <r>   13.7479    0.0000 </r>
       <r>   13.8846    0.0000 </r>
       <r>   14.2132    0.0000 </r>
       <r>   15.0304    0.0000 </r>
       <r>   15.3944    0.0000 </r>
       <r>   15.6861    0.0000 </r>
      </set>
      <set comment="kpoint 18">
       <r>  -12.4684    1.0000 </r>
       <r>  -11.6721    1.0000 </r>
       <r>   -8.4982    1.0000 </r>
       <r>   -8.2844    1.0000 </r>
       <r>   -5.8161    1.0000 </r>
       <r>   -5.6661    1.0000 </r>
       <r>   -5.4269    1.0000 </r>
       <r>   -4.6626    1.0000 </r>
       <r>   -4.6260    1.0000 </r>
       <r>   -3.1260    1.0000 </r>
       <r>   -2.6076    1.0000 </r>
       <r>   -1.8781    1.0000 </r>
       <r>   -1.1107    1.0000 </r>
       <r>   -1.0439    1.0000 </r>
       <r>   -0.2269    1.0000 </r>
       <r>   -0.0649    1.0000 </r>
       <r>    0.3000    1.0000 </r>
       <r>    0.4922    1.0000 </r>
       <r>    0.5079    1.0000 </r>
       <r>    0.8166    1.0000 </r>
       <r>    0.8763    1.0000 </r>
       <r>    1.9269    0.0491 </r>
       <r>    5.3474    0.0000 </r>
       <r>    5.9445    0.0000 </r>
       <r>    6.2486    0.0000 </r>
       <r>    6.8055    0.0000 </r>
       <r>    7.5428    0.0000 </r>
       <r>    7.9167    0.0000 </r>
       <r>    8.5311    0.0000 </r>
       <r>    9.3302    0.0000 </r>
       <r>    9.3611    0.0000 </r>
       <r>    9.5617    0.0000 </r>
       <r>   10.0104    0.0000 </r>
       <r>   10.0751    0.0000 </r>
       <r>   10.5243    0.0000 </r>
       <r>   11.3515    0.0000 </r>
       <r>   11.3643    0.0000 </r>
       <r>   12.2058    0.0000 </r>
       <r>   12.7012    0.0000 </r>
       <r>   12.9224    0.0000 </r>
       <r>   13.1427    0.0000 </r>
       <r>   13.4814    0.0000 </r>
       <r>   13.7209    0.0000 </r>
       <r>   13.9765    0.0000 </r>
       <r>   14.3487    0.0000 </r>
       <r>   15.1219    0.0000 </r>
       <r>   15.3188    0.0000 </r>
       <r>   15.9489    0.0000 </r>
      </set>
      <set comment="kpoint 19">
       <r>  -12.3464    1.0000 </r>
       <r>  -11.8396    1.0000 </r>
       <r>   -8.4351    1.0000 </r>
       <r>   -8.2860    1.0000 </r>
       <r>   -5.8895    1.0000 </r>
       <r>   -5.8753    1.0000 </r>
       <r>   -5.3136    1.0000 </r>
       <r>   -4.7896    1.0000 </r>
       <r>   -4.3462    1.0000 </r>
       <r>   -2.7731    1.0000 </r>
       <r>   -2.2890    1.0000 </r>
       <r>   -2.1324    1.0000 </r>
       <r>   -1.0527    1.0000 </r>
       <r>   -1.0266    1.0000 </r>
       <r>   -0.3884    1.0000 </r>
       <r>   -0.3424    1.0000 </r>
       <r>    0.1376    1.0000 </r>
       <r>    0.3627    1.0000 </r>
       <r>    0.6473    1.0000 </r>
       <r>    0.7600    1.0000 </r>
       <r>    0.8097    1.0000 </r>
       <r>    1.5887    1.0000 </r>
       <r>    5.8737    0.0000 </r>
       <r>    6.2813    0.0000 </r>
       <r>    6.5214    0.0000 </r>
       <r>    6.7571    0.0000 </r>
       <r>    7.5430    0.0000 </r>
       <r>    7.9768    0.0000 </r>
       <r>    8.4861    0.0000 </r>
       <r>    8.8866    0.0000 </r>
       <r>    9.2408    0.0000 </r>
       <r>    9.5493    0.0000 </r>
       <r>    9.8675    0.0000 </r>
       <r>   10.3106    0.0000 </r>
       <r>   10.7614    0.0000 </r>
       <r>   11.0603    0.0000 </r>
       <r>   11.4024    0.0000 </r>
       <r>   12.1329    0.0000 </r>
       <r>   12.3799    0.0000 </r>
       <r>   13.1220    0.0000 </r>
       <r>   13.2448    0.0000 </r>
       <r>   13.6154    0.0000 </r>
       <r>   13.8583    0.0000 </r>
       <r>   14.1111    0.0000 </r>
       <r>   14.7172    0.0000 </r>
       <r>   14.9508    0.0000 </r>
       <r>   15.3899    0.0000 </r>
       <r>   16.2814    0.0000 </r>
      </set>
      <set comment="kpoint 20">
       <r>  -12.1936    1.0000 </r>
       <r>  -12.0198    1.0000 </r>
       <r>   -8.3671    1.0000 </r>
       <r>   -8.3131    1.0000 </r>
       <r>   -5.9817    1.0000 </r>
       <r>   -5.9743    1.0000 </r>
       <r>   -5.1527    1.0000 </r>
       <r>   -4.9718    1.0000 </r>
       <r>   -3.8378    1.0000 </r>
       <r>   -3.2441    1.0000 </r>
       <r>   -1.9925    1.0000 </r>
       <r>   -1.8381    1.0000 </r>
       <r>   -0.9909    1.0000 </r>
       <r>   -0.9313    1.0000 </r>
       <r>   -0.6852    1.0000 </r>
       <r>   -0.6422    1.0000 </r>
       <r>    0.1145    1.0000 </r>
       <r>    0.2153    1.0000 </r>
       <r>    0.7444    1.0000 </r>
       <r>    0.7606    1.0000 </r>
       <r>    0.9102    1.0000 </r>
       <r>    1.2328    1.0000 </r>
       <r>    6.4144    0.0000 </r>
       <r>    6.5328    0.0000 </r>
       <r>    6.5938    0.0000 </r>
       <r>    7.1102    0.0000 </r>
       <r>    7.1818    0.0000 </r>
       <r>    7.6663    0.0000 </r>
       <r>    8.4753    0.0000 </r>
       <r>    8.5393    0.0000 </r>
       <r>    9.4350    0.0000 </r>
       <r>    9.6055    0.0000 </r>
       <r>    9.8084    0.0000 </r>
       <r>   10.1079    0.0000 </r>
       <r>   10.8245    0.0000 </r>
       <r>   11.2012    0.0000 </r>
       <r>   11.8290    0.0000 </r>
       <r>   11.9067    0.0000 </r>
       <r>   12.2123    0.0000 </r>
       <r>   13.1043    0.0000 </r>
       <r>   13.3977    0.0000 </r>
       <r>   13.5809    0.0000 </r>
       <r>   13.8010    0.0000 </r>
       <r>   13.9069    0.0000 </r>
       <r>   15.0602    0.0000 </r>
       <r>   15.0773    0.0000 </r>
       <r>   15.6243    0.0000 </r>
       <r>   15.9257    0.0000 </r>
      </set>
      <set comment="kpoint 21">
       <r>  -12.5362    1.0000 </r>
[...]
       <r>   -2.3301    1.0000 </r>
       <r>   -2.1515    1.0000 </r>
       <r>   -1.9887    1.0000 </r>
       <r>   -1.5048    1.0000 </r>
       <r>   -0.7490    1.0000 </r>
       <r>   -0.2158    1.0000 </r>
       <r>    0.1552    1.0000 </r>
       <r>    0.3741    1.0000 </r>
       <r>    0.4966    1.0000 </r>
       <r>    1.5729    1.0000 </r>
       <r>    1.5995    1.0000 </r>
       <r>    1.8546    0.6519 </r>
       <r>    5.4923    0.0000 </r>
       <r>    6.1244    0.0000 </r>
       <r>    6.6446    0.0000 </r>
       <r>    7.1869    0.0000 </r>
       <r>    7.7488    0.0000 </r>
       <r>    8.1995    0.0000 </r>
       <r>    8.9628    0.0000 </r>
       <r>    9.1186    0.0000 </r>
       <r>    9.6898    0.0000 </r>
       <r>    9.9241    0.0000 </r>
       <r>   10.5526    0.0000 </r>
       <r>   11.0031    0.0000 </r>
       <r>   11.1648    0.0000 </r>
       <r>   11.4339    0.0000 </r>
       <r>   11.5302    0.0000 </r>
       <r>   11.9161    0.0000 </r>
       <r>   12.7994    0.0000 </r>
       <r>   13.0954    0.0000 </r>
       <r>   13.3290    0.0000 </r>
       <r>   13.7066    0.0000 </r>
       <r>   13.8247    0.0000 </r>
       <r>   14.1145    0.0000 </r>
       <r>   14.4312    0.0000 </r>
       <r>   14.9289    0.0000 </r>
       <r>   15.0502    0.0000 </r>
       <r>   15.3501    0.0000 </r>
      </set>
      <set comment="kpoint 175">
       <r>  -12.0185    1.0000 </r>
       <r>  -11.8793    1.0000 </r>
       <r>   -8.5516    1.0000 </r>
       <r>   -8.4393    1.0000 </r>
       <r>   -5.9323    1.0000 </r>
       <r>   -5.8267    1.0000 </r>
       <r>   -4.9009    1.0000 </r>
       <r>   -4.5784    1.0000 </r>
       <r>   -4.4217    1.0000 </r>
       <r>   -3.9847    1.0000 </r>
       <r>   -2.2038    1.0000 </r>
       <r>   -2.1425    1.0000 </r>
       <r>   -2.0724    1.0000 </r>
       <r>   -1.7881    1.0000 </r>
       <r>   -0.2324    1.0000 </r>
       <r>   -0.0202    1.0000 </r>
       <r>    0.3771    1.0000 </r>
       <r>    0.4648    1.0000 </r>
       <r>    0.5329    1.0000 </r>
       <r>    0.8598    1.0000 </r>
       <r>    1.6136    1.0000 </r>
       <r>    1.7131    1.0000 </r>
       <r>    5.8376    0.0000 </r>
       <r>    6.0224    0.0000 </r>
       <r>    6.8473    0.0000 </r>
       <r>    7.3744    0.0000 </r>
       <r>    7.4494    0.0000 </r>
       <r>    7.5436    0.0000 </r>
       <r>    9.3674    0.0000 </r>
       <r>    9.5494    0.0000 </r>
       <r>    9.7573    0.0000 </r>
       <r>    9.9348    0.0000 </r>
       <r>   10.4276    0.0000 </r>
       <r>   10.7750    0.0000 </r>
       <r>   11.2080    0.0000 </r>
       <r>   11.4726    0.0000 </r>
       <r>   11.4766    0.0000 </r>
       <r>   11.5773    0.0000 </r>
       <r>   13.0423    0.0000 </r>
       <r>   13.1472    0.0000 </r>
       <r>   13.6705    0.0000 </r>
       <r>   14.0106    0.0000 </r>
       <r>   14.1433    0.0000 </r>
       <r>   14.2431    0.0000 </r>
       <r>   14.5498    0.0000 </r>
       <r>   14.6979    0.0000 </r>
       <r>   14.8479    0.0000 </r>
       <r>   14.9985    0.0000 </r>
      </set>
     </set>
    </set>
   </array>
  </eigenvalues>
  <separator name="orbital magnetization" >
   <v name="MAGDIPOLOUT">      0.00000000      0.00000000      0.00000000</v>
  </separator>
  <dos>
   <i name="efermi">      1.86841399 </i>
   <total>
    <array>
     <dimension dim="1">gridpoints</dimension>
     <dimension dim="2">spin</dimension>
     <field>energy</field>
     <field>total</field>
     <field>integrated</field>
     <set>
      <set comment="spin 1">
       <r>   -14.1813     0.0000     0.0000 </r>
       <r>   -14.0743     0.0000     0.0000 </r>
       <r>   -13.9673     0.0000     0.0000 </r>
       <r>   -13.8602     0.0000     0.0000 </r>
       <r>   -13.7532     0.0000     0.0000 </r>
       <r>   -13.6461     0.0000     0.0000 </r>
       <r>   -13.5391     0.0000     0.0000 </r>
       <r>   -13.4321     0.0000     0.0000 </r>
       <r>   -13.3250     0.0000     0.0000 </r>
       <r>   -13.2180     0.0000     0.0000 </r>
       <r>   -13.1110     0.0000     0.0000 </r>
       <r>   -13.0039     0.0000     0.0000 </r>
       <r>   -12.8969     0.0000     0.0000 </r>
       <r>   -12.7899     0.0039     0.0004 </r>
       <r>   -12.6828     0.5096     0.0550 </r>
       <r>   -12.5758     2.3934     0.3111 </r>
       <r>   -12.4688     3.5704     0.6933 </r>
       <r>   -12.3617     4.3762     1.1617 </r>
       <r>   -12.2547     3.5391     1.5405 </r>
       <r>   -12.1477     2.7365     1.8334 </r>
       <r>   -12.0406     2.7539     2.1282 </r>
       <r>   -11.9336     2.5010     2.3958 </r>
       <r>   -11.8266     2.7717     2.6925 </r>
       <r>   -11.7195     3.4168     3.0582 </r>
       <r>   -11.6125     3.5365     3.4367 </r>
       <r>   -11.5055     3.1304     3.7718 </r>
       <r>   -11.3984     1.6877     3.9524 </r>
       <r>   -11.2914     0.4361     3.9991 </r>
       <r>   -11.1844     0.0081     4.0000 </r>
       <r>   -11.0773     0.0000     4.0000 </r>
       <r>   -10.9703     0.0000     4.0000 </r>
       <r>   -10.8633     0.0000     4.0000 </r>
       <r>   -10.7562     0.0000     4.0000 </r>
       <r>   -10.6492     0.0000     4.0000 </r>
       <r>   -10.5422     0.0000     4.0000 </r>
       <r>   -10.4351     0.0000     4.0000 </r>
       <r>   -10.3281     0.0000     4.0000 </r>
       <r>   -10.2211     0.0000     4.0000 </r>
       <r>   -10.1140     0.0000     4.0000 </r>
       <r>   -10.0070     0.0000     4.0000 </r>
       <r>    -9.9000     0.0000     4.0000 </r>
       <r>    -9.7929     0.0000     4.0000 </r>
       <r>    -9.6859     0.0000     4.0000 </r>
       <r>    -9.5789     0.0000     4.0000 </r>
       <r>    -9.4718     0.0000     4.0000 </r>
       <r>    -9.3648     0.0000     4.0000 </r>
       <r>    -9.2578     0.0000     4.0000 </r>
       <r>    -9.1507     0.0000     4.0000 </r>
       <r>    -9.0437     0.0000     4.0000 </r>
       <r>    -8.9367     0.0006     4.0001 </r>
       <r>    -8.8296     0.2799     4.0300 </r>
       <r>    -8.7226     2.1047     4.2553 </r>
       <r>    -8.6156     5.3625     4.8293 </r>
       <r>    -8.5085     7.0064     5.5792 </r>
       <r>    -8.4015     6.2878     6.2522 </r>
       <r>    -8.2944     5.3282     6.8225 </r>
       <r>    -8.1874     4.8434     7.3409 </r>
       <r>    -8.0804     3.8660     7.7547 </r>
       <r>    -7.9733     1.6630     7.9327 </r>
       <r>    -7.8663     0.5767     7.9944 </r>
       <r>    -7.7593     0.0520     8.0000 </r>
       <r>    -7.6522     0.0000     8.0000 </r>
       <r>    -7.5452     0.0000     8.0000 </r>
       <r>    -7.4382     0.0000     8.0000 </r>
       <r>    -7.3311     0.0000     8.0000 </r>
       <r>    -7.2241     0.0000     8.0000 </r>
       <r>    -7.1171     0.0000     8.0000 </r>
       <r>    -7.0100     0.0004     8.0000 </r>
       <r>    -6.9030     0.1109     8.0119 </r>
       <r>    -6.7960     0.2590     8.0396 </r>
       <r>    -6.6889     0.4249     8.0851 </r>
       <r>    -6.5819     0.7663     8.1671 </r>
       <r>    -6.4749     0.8469     8.2578 </r>
       <r>    -6.3678     1.4366     8.4115 </r>
       <r>    -6.2608     1.9443     8.6196 </r>
       <r>    -6.1538     3.0528     8.9464 </r>
       <r>    -6.0467     3.7948     9.3526 </r>
       <r>    -5.9397     4.1208     9.7936 </r>
       <r>    -5.8327     4.0507    10.2272 </r>
       <r>    -5.7256     3.8788    10.6424 </r>
       <r>    -5.6186     4.0752    11.0785 </r>
       <r>    -5.5116     4.2180    11.5300 </r>
       <r>    -5.4045     4.5607    12.0182 </r>
       <r>    -5.2975     4.6168    12.5123 </r>
       <r>    -5.1905     4.4961    12.9936 </r>
       <r>    -5.0834     3.8797    13.4088 </r>
       <r>    -4.9764     3.2236    13.7539 </r>
       <r>    -4.8694     2.9687    14.0716 </r>
       <r>    -4.7623     2.3159    14.3195 </r>
       <r>    -4.6553     2.8973    14.6296 </r>
       <r>    -4.5483     3.3719    14.9905 </r>
       <r>    -4.4412     3.4536    15.3601 </r>
       <r>    -4.3342     3.3542    15.7192 </r>
       <r>    -4.2272     2.9607    16.0360 </r>
       <r>    -4.1201     2.9105    16.3476 </r>
       <r>    -4.0131     2.9351    16.6617 </r>
       <r>    -3.9061     2.8769    16.9697 </r>
       <r>    -3.7990     3.1101    17.3025 </r>
       <r>    -3.6920     2.8915    17.6120 </r>
       <r>    -3.5850     2.7070    17.9018 </r>
       <r>    -3.4779     3.0747    18.2309 </r>
       <r>    -3.3709     2.6539    18.5149 </r>
       <r>    -3.2639     2.8393    18.8188 </r>
       <r>    -3.1568     2.7796    19.1163 </r>
       <r>    -3.0498     2.7189    19.4073 </r>
       <r>    -2.9428     3.0725    19.7362 </r>
       <r>    -2.8357     2.9829    20.0555 </r>
       <r>    -2.7287     2.4419    20.3168 </r>
       <r>    -2.6216     2.6422    20.5996 </r>
       <r>    -2.5146     3.0139    20.9222 </r>
       <r>    -2.4076     2.9991    21.2432 </r>
       <r>    -2.3005     3.1849    21.5841 </r>
       <r>    -2.1935     4.0020    22.0125 </r>
       <r>    -2.0865     3.6570    22.4039 </r>
       <r>    -1.9794     3.2287    22.7495 </r>
       <r>    -1.8724     5.0295    23.2878 </r>
       <r>    -1.7654     5.5420    23.8810 </r>
       <r>    -1.6583     5.6383    24.4845 </r>
       <r>    -1.5513     6.1750    25.1454 </r>
       <r>    -1.4443     6.1384    25.8025 </r>
       <r>    -1.3372     5.6020    26.4021 </r>
       <r>    -1.2302     4.6854    26.9036 </r>
       <r>    -1.1232     6.4931    27.5986 </r>
       <r>    -1.0161     4.1186    28.0394 </r>
       <r>    -0.9091     2.2820    28.2836 </r>
       <r>    -0.8021     2.7041    28.5731 </r>
       <r>    -0.6950     2.8821    28.8816 </r>
       <r>    -0.5880     4.4542    29.3583 </r>
       <r>    -0.4810     6.8307    30.0894 </r>
       <r>    -0.3739     5.6742    30.6968 </r>
       <r>    -0.2669     6.6565    31.4092 </r>
       <r>    -0.1599     6.3753    32.0916 </r>
       <r>    -0.0528     6.7385    32.8128 </r>
       <r>     0.0542     6.8148    33.5423 </r>
       <r>     0.1612     6.2549    34.2117 </r>
       <r>     0.2683     8.8285    35.1567 </r>
       <r>     0.3753     8.0687    36.0203 </r>
       <r>     0.4823     8.6835    36.9497 </r>
       <r>     0.5894     5.3532    37.5227 </r>
       <r>     0.6964     2.9922    37.8430 </r>
       <r>     0.8034     3.2470    38.1905 </r>
       <r>     0.9105     3.5904    38.5748 </r>
       <r>     1.0175     3.5784    38.9578 </r>
       <r>     1.1245     2.8027    39.2578 </r>
       <r>     1.2316     3.3700    39.6185 </r>
       <r>     1.3386     4.4813    40.0982 </r>
       <r>     1.4456     3.8098    40.5059 </r>
       <r>     1.5527     3.7051    40.9025 </r>
       <r>     1.6597     4.5872    41.3935 </r>
       <r>     1.7667     3.3199    41.7488 </r>
       <r>     1.8738     2.4758    42.0138 </r>
       <r>     1.9808     2.6750    42.3001 </r>
       <r>     2.0878     2.0951    42.5244 </r>
       <r>     2.1949     2.6494    42.8080 </r>
       <r>     2.3019     2.6002    43.0863 </r>
       <r>     2.4089     1.9675    43.2969 </r>
       <r>     2.5160     0.8899    43.3921 </r>
       <r>     2.6230     0.3791    43.4327 </r>
       <r>     2.7300     0.5749    43.4942 </r>
       <r>     2.8371     0.4206    43.5392 </r>
       <r>     2.9441     0.3056    43.5719 </r>
       <r>     3.0512     0.7405    43.6512 </r>
       <r>     3.1582     1.0218    43.7606 </r>
       <r>     3.2652     0.5608    43.8206 </r>
       <r>     3.3723     0.0156    43.8223 </r>
       <r>     3.4793     0.1231    43.8354 </r>
       <r>     3.5863     0.3933    43.8775 </r>
       <r>     3.6934     0.3372    43.9136 </r>
       <r>     3.8004     0.3666    43.9529 </r>
       <r>     3.9074     0.4102    43.9968 </r>
       <r>     4.0145     0.0302    44.0000 </r>
       <r>     4.1215     0.0000    44.0000 </r>
       <r>     4.2285     0.0219    44.0024 </r>
       <r>     4.3356     0.1677    44.0203 </r>
       <r>     4.4426     0.3902    44.0621 </r>
       <r>     4.5496     0.4550    44.1108 </r>
       <r>     4.6567     0.6237    44.1775 </r>
       <r>     4.7637     0.8765    44.2713 </r>
       <r>     4.8707     0.8384    44.3611 </r>
       <r>     4.9778     0.8629    44.4534 </r>
       <r>     5.0848     1.2602    44.5883 </r>
       <r>     5.1918     1.1716    44.7137 </r>
       <r>     5.2989     1.6047    44.8855 </r>
       <r>     5.4059     2.1562    45.1163 </r>
       <r>     5.5129     2.4974    45.3836 </r>
       <r>     5.6200     2.7947    45.6827 </r>
       <r>     5.7270     3.3179    46.0378 </r>
       <r>     5.8340     3.2503    46.3857 </r>
       <r>     5.9411     4.2616    46.8418 </r>
       <r>     6.0481     4.7956    47.3551 </r>
       <r>     6.1551     4.0734    47.7911 </r>
       <r>     6.2622     4.6091    48.2845 </r>
       <r>     6.3692     4.2395    48.7382 </r>
       <r>     6.4762     3.9777    49.1640 </r>
       <r>     6.5833     4.5118    49.6469 </r>
       <r>     6.6903     3.2473    49.9945 </r>
       <r>     6.7973     3.9722    50.4196 </r>
       <r>     6.9044     4.6079    50.9128 </r>
       <r>     7.0114     4.5773    51.4028 </r>
       <r>     7.1184     4.3401    51.8673 </r>
       <r>     7.2255     5.5834    52.4649 </r>
       <r>     7.3325     4.9738    52.9973 </r>
       <r>     7.4395     4.4736    53.4761 </r>
       <r>     7.5466     4.2199    53.9278 </r>
       <r>     7.6536     3.5855    54.3116 </r>
       <r>     7.7606     3.1114    54.6446 </r>
       <r>     7.8677     3.0248    54.9683 </r>
       <r>     7.9747     2.9710    55.2863 </r>
       <r>     8.0817     4.1615    55.7318 </r>
       <r>     8.1888     3.9143    56.1507 </r>
       <r>     8.2958     3.7271    56.5497 </r>
       <r>     8.4028     4.0051    56.9783 </r>
       <r>     8.5099     4.2407    57.4322 </r>
       <r>     8.6169     4.4832    57.9121 </r>
       <r>     8.7240     4.2674    58.3689 </r>
       <r>     8.8310     5.3217    58.9385 </r>
       <r>     8.9380     4.8507    59.4576 </r>
       <r>     9.0451     5.2860    60.0234 </r>
       <r>     9.1521     5.2301    60.5832 </r>
       <r>     9.2591     5.0010    61.1185 </r>
       <r>     9.3662     4.6726    61.6186 </r>
       <r>     9.4732     4.3938    62.0889 </r>
       <r>     9.5802     5.0955    62.6343 </r>
       <r>     9.6873     5.0351    63.1732 </r>
       <r>     9.7943     5.2891    63.7393 </r>
       <r>     9.9013     4.4913    64.2201 </r>
       <r>    10.0084     3.6704    64.6129 </r>
       <r>    10.1154     5.1871    65.1681 </r>
       <r>    10.2224     4.7207    65.6734 </r>
       <r>    10.3295     4.1475    66.1173 </r>
       <r>    10.4365     5.3617    66.6912 </r>
       <r>    10.5435     5.8264    67.3148 </r>
       <r>    10.6506     4.0780    67.7513 </r>
       <r>    10.7576     3.9043    68.1692 </r>
       <r>    10.8646     3.2650    68.5187 </r>
       <r>    10.9717     4.6827    69.0199 </r>
       <r>    11.0787     5.4349    69.6016 </r>
       <r>    11.1857     6.2570    70.2713 </r>
       <r>    11.2928     6.0040    70.9139 </r>
       <r>    11.3998     5.2226    71.4729 </r>
       <r>    11.5068     4.3781    71.9415 </r>
       <r>    11.6139     4.4760    72.4206 </r>
       <r>    11.7209     4.9659    72.9521 </r>
       <r>    11.8279     4.8192    73.4680 </r>
       <r>    11.9350     6.0092    74.1111 </r>
       <r>    12.0420     5.9952    74.7528 </r>
       <r>    12.1490     6.0397    75.3993 </r>
       <r>    12.2561     5.5721    75.9957 </r>
       <r>    12.3631     4.9984    76.5307 </r>
       <r>    12.4701     5.7123    77.1421 </r>
       <r>    12.5772     5.9744    77.7816 </r>
       <r>    12.6842     5.9694    78.4205 </r>
       <r>    12.7912     5.9303    79.0552 </r>
       <r>    12.8983     5.8815    79.6848 </r>
       <r>    13.0053     5.6145    80.2857 </r>
       <r>    13.1123     6.3485    80.9652 </r>
       <r>    13.2194     6.2991    81.6394 </r>
       <r>    13.3264     5.4346    82.2211 </r>
       <r>    13.4334     6.1247    82.8767 </r>
       <r>    13.5405     5.4031    83.4550 </r>
       <r>    13.6475     4.8296    83.9719 </r>
       <r>    13.7545     6.1675    84.6320 </r>
       <r>    13.8616     5.5200    85.2229 </r>
       <r>    13.9686     5.3617    85.7967 </r>
       <r>    14.0757     5.4775    86.3830 </r>
       <r>    14.1827     4.6788    86.8838 </r>
       <r>    14.2897     4.9452    87.4131 </r>
       <r>    14.3968     4.9804    87.9462 </r>
       <r>    14.5038     4.9482    88.4758 </r>
       <r>    14.6108     5.2742    89.0403 </r>
       <r>    14.7179     5.1892    89.5957 </r>
       <r>    14.8249     4.0977    90.0343 </r>
       <r>    14.9319     5.0371    90.5735 </r>
       <r>    15.0390     6.1577    91.2326 </r>
       <r>    15.1460     5.6814    91.8407 </r>
       <r>    15.2530     5.7077    92.4516 </r>
       <r>    15.3601     6.0080    93.0947 </r>
       <r>    15.4671     5.7589    93.7110 </r>
       <r>    15.5741     5.9915    94.3523 </r>
       <r>    15.6812     4.6151    94.8463 </r>
       <r>    15.7882     2.4989    95.1138 </r>
       <r>    15.8952     2.7081    95.4036 </r>
       <r>    16.0023     1.8489    95.6015 </r>
       <r>    16.1093     1.1368    95.7232 </r>
       <r>    16.2163     0.8984    95.8194 </r>
       <r>    16.3234     0.6930    95.8935 </r>
       <r>    16.4304     0.8143    95.9807 </r>
       <r>    16.5374     0.1786    95.9998 </r>
       <r>    16.6445     0.0017    96.0000 </r>
       <r>    16.7515     0.0000    96.0000 </r>
       <r>    16.8585     0.0000    96.0000 </r>
       <r>    16.9656     0.0000    96.0000 </r>
       <r>    17.0726     0.0000    96.0000 </r>
       <r>    17.1796     0.0000    96.0000 </r>
       <r>    17.2867     0.0000    96.0000 </r>
       <r>    17.3937     0.0000    96.0000 </r>
       <r>    17.5007     0.0000    96.0000 </r>
       <r>    17.6078     0.0000    96.0000 </r>
       <r>    17.7148     0.0000    96.0000 </r>
       <r>    17.8218     0.0000    96.0000 </r>
       <r>    17.9289     0.0000    96.0000 </r>
      </set>
     </set>
    </array>
   </total>
  </dos>
 </calculation>
 <structure name="finalpos" >
  <crystal>
   <varray name="basis" >
    <v>       5.70212730       0.00000000       0.00000000 </v>
    <v>       0.00000000       4.05154311       0.00000000 </v>
    <v>       0.00000000       0.00000000       6.20978378 </v>
   </varray>
   <i name="volume">    143.46099930 </i>
   <varray name="rec_basis" >
    <v>       0.17537315       0.00000000       0.00000000 </v>
    <v>       0.00000000       0.24681954       0.00000000 </v>
    <v>       0.00000000       0.00000000       0.16103620 </v>
   </varray>
  </crystal>
  <varray name="positions" >
   <v>       0.52123000       0.50000000       0.63796000 </v>
   <v>       0.47877000       0.50000000       0.36204000 </v>
   <v>       0.97877000       0.50000000       0.63796000 </v>
   <v>       0.02123000       0.50000000       0.36204000 </v>
   <v>       0.60090000       0.50000000       0.89991000 </v>
   <v>       0.39910000       0.50000000       0.10009000 </v>
   <v>       0.89910000       0.50000000       0.89991000 </v>
   <v>       0.10090000       0.50000000       0.10009000 </v>
   <v>       0.75000000       0.79171000       0.72973000 </v>
   <v>       0.25000000       0.20829000       0.27027000 </v>
   <v>       0.75000000       0.20829000       0.72973000 </v>
   <v>       0.25000000       0.79171000       0.27027000 </v>
   <v>       0.25000000       0.50000000       0.52367000 </v>
   <v>       0.75000000       0.50000000       0.47633000 </v>
  </varray>
 </structure>
</modeling>
