   14   14    1    1
  0.1021318E+02  0.5700971E-09  0.4044058E-09  0.6201871E-09  0.5000000E-15
  1.000000000000000E-004
  CAR 
 PDoS                                    
     42    324     48
 
  0.4166667E-01  0.0000000E+00  0.0000000E+00  0.8912656E-03
      1        -12.696080   1.000000
      2        -11.525275   1.000000
      3         -8.657882   1.000000
      4         -8.366119   1.000000
      5         -6.046445   1.000000
      6         -5.145941   1.000000
      7         -4.699826   1.000000
      8         -4.315016   1.000000
      9         -3.929358   1.000000
     10         -3.491587   1.000000
     11         -2.403017   1.000000
     12         -2.223245   1.000000
     13         -2.117640   1.000000
     14         -1.095280   1.000000
     15         -0.012618   1.000000
     16          0.002582   1.000000
     17          0.045178   1.000000
     18          0.094229   1.000000
     19          0.663971   1.000000
     20          2.112248   0.004387
     21          2.144317   0.001055
     22          2.231504   0.000008
     23          5.513164   0.000000
     24          5.730170   0.000000
     25          5.730341   0.000000
     26          6.007197   0.000000
     27          6.716861   0.000000
     28          7.559125   0.000000
     29          7.841643   0.000000
     30          8.635013   0.000000
     31          8.873428   0.000000
     32          8.887000   0.000000
     33          9.054321   0.000000
     34         10.033893   0.000000
     35         11.198482   0.000000
     36         11.368411   0.000000
     37         11.510282   0.000000
     38         11.711583   0.000000
     39         11.979075   0.000000
     40         12.302879   0.000000
     41         12.955931   0.000000
     42         13.415134   0.000000
     43         13.491948   0.000000
     44         15.438669   0.000000
     45         15.546239   0.000000
     46         16.027680   0.000000
     47         16.321997   0.000000
     48         16.391137   0.000000
 
  0.1250000E+00  0.0000000E+00  0.0000000E+00  0.8912656E-03
      1        -12.665251   1.000000
      2        -11.579045   1.000000
      3         -8.639655   1.000000
      4         -8.357662   1.000000
      5         -5.993929   1.000000
      6         -5.416670   1.000000
      7         -4.799521   1.000000
      8         -3.971313   1.000000
      9         -3.886298   1.000000
     10         -3.245743   1.000000
     11         -2.390060   1.000000
     12         -2.231946   1.000000
     13         -2.218421   1.000000
     14         -1.313723   1.000000
     15         -0.084880   1.000000
     16          0.044271   1.000000
     17          0.076056   1.000000
     18          0.126725   1.000000
     19          0.591462   1.000000
     20          2.055811   0.034181
     21          2.074189   0.018647
     22          2.145215   0.001011
     23          5.570082   0.000000
     24          5.697557   0.000000
     25          5.802330   0.000000
     26          6.241345   0.000000
     27          6.659841   0.000000
     28          7.251842   0.000000
     29          8.041841   0.000000
     30          8.732636   0.000000
     31          9.037475   0.000000
     32          9.081103   0.000000
     33          9.111458   0.000000
     34         10.100875   0.000000
     35         11.082546   0.000000
     36         11.251798   0.000000
     37         11.292170   0.000000
     38         11.499693   0.000000
     39         12.134781   0.000000
     40         12.366143   0.000000
     41         13.145475   0.000000
     42         13.233799   0.000000
     43         13.857423   0.000000
     44         14.952444   0.000000
     45         15.703033   0.000000
     46         15.946456   0.000000
     47         16.267942   0.000000
     48         16.409595   0.000000
 
  0.2083333E+00  0.0000000E+00  0.0000000E+00  0.8912656E-03
      1        -12.604468   1.000000
      2        -11.678687   1.000000
      3         -8.602940   1.000000
      4         -8.345148   1.000000
      5         -5.953821   1.000000
      6         -5.705441   1.000000
      7         -4.827469   1.000000
      8         -3.801089   1.000000
      9         -3.542767   1.000000
     10         -2.876129   1.000000
     11         -2.395860   1.000000
     12         -2.363105   1.000000
     13         -2.248873   1.000000
     14         -1.694202   1.000000
     15         -0.250472   1.000000
     16          0.134473   1.000000
     17          0.138735   1.000000
     18          0.149496   1.000000
     19          0.480600   1.000000
     20          1.951306   0.365162
     21          1.954666   0.347448
     22          1.974788   0.249273
     23          5.654036   0.000000
     24          5.654955   0.000000
     25          6.020967   0.000000
     26          6.568593   0.000000
     27          6.609517   0.000000
     28          6.983142   0.000000
     29          8.180963   0.000000
     30          8.881819   0.000000
     31          9.013024   0.000000
     32          9.399091   0.000000
     33          9.449080   0.000000
     34         10.288056   0.000000
     35         10.587555   0.000000
     36         10.778840   0.000000
     37         11.355130   0.000000
     38         11.610842   0.000000
     39         12.321555   0.000000
     40         12.570987   0.000000
     41         12.812871   0.000000
     42         13.150354   0.000000
     43         14.444994   0.000000
     44         14.714729   0.000000
     45         15.449161   0.000000
     46         15.943236   0.000000
     47         16.162972   0.000000
     48         16.539522   0.000000
 
  0.2916667E+00  0.0000000E+00  0.0000000E+00  0.8912656E-03
      1        -12.515571   1.000000
      2        -11.811131   1.000000
      3         -8.549598   1.000000
      4         -8.336902   1.000000
      5         -5.995099   1.000000
      6         -5.942008   1.000000
      7         -4.661131   1.000000
      8         -3.675560   1.000000
      9         -3.126935   1.000000
     10         -2.618184   1.000000
     11         -2.470125   1.000000
     12         -2.331045   1.000000
     13         -2.269576   1.000000
     14         -2.139430   1.000000
     15         -0.474154   1.000000
     16          0.002213   1.000000
     17          0.212760   1.000000
     18          0.244399   1.000000
     19          0.497891   1.000000
     20          1.733448   0.996893
     21          1.806903   0.955196
     22          1.829653   0.915549
     23          5.628490   0.000000
     24          5.727253   0.000000
     25          6.389577   0.000000
     26          6.480124   0.000000
     27          6.775110   0.000000
     28          7.064287   0.000000
     29          8.288312   0.000000
     30          8.889547   0.000000
     31          8.931308   0.000000
     32          9.819311   0.000000
     33          9.825075   0.000000
     34          9.979822   0.000000
     35         10.413226   0.000000
     36         10.671004   0.000000
     37         11.456701   0.000000
     38         11.878686   0.000000
     39         12.311330   0.000000
     40         12.402784   0.000000
     41         12.735260   0.000000
     42         12.980548   0.000000
     43         14.858588   0.000000
     44         14.958259   0.000000
     45         15.056695   0.000000
     46         15.753792   0.000000
     47         15.780678   0.000000
     48         16.208507   0.000000
 
  0.3750000E+00  0.0000000E+00  0.0000000E+00  0.8912656E-03
      1        -12.401519   1.000000
      2        -11.961801   1.000000
      3         -8.485838   1.000000
      4         -8.343267   1.000000
      5         -6.101754   1.000000
      6         -6.087402   1.000000
      7         -4.317893   1.000000
      8         -3.512785   1.000000
      9         -2.952607   1.000000
     10         -2.858183   1.000000
     11         -2.526598   1.000000
     12         -2.321695   1.000000
     13         -2.172648   1.000000
     14         -2.070244   1.000000
     15         -0.709049   1.000000
     16         -0.301977   1.000000
     17          0.296290   1.000000
     18          0.333402   1.000000
     19          0.658196   1.000000
     20          1.449216   1.000000
     21          1.680241   0.999757
     22          1.708372   0.999002
     23          5.637110   0.000000
     24          5.753026   0.000000
     25          6.433635   0.000000
     26          6.622560   0.000000
     27          6.882531   0.000000
     28          7.579671   0.000000
     29          8.378266   0.000000
     30          8.637641   0.000000
     31          8.730870   0.000000
     32          9.347551   0.000000
     33         10.221852   0.000000
     34         10.230225   0.000000
     35         10.437909   0.000000
     36         11.251976   0.000000
     37         11.453323   0.000000
     38         11.779537   0.000000
     39         12.150474   0.000000
     40         12.275219   0.000000
     41         12.465025   0.000000
     42         13.336964   0.000000
     43         14.583431   0.000000
     44         14.972402   0.000000
     45         15.033358   0.000000
     46         15.261116   0.000000
     47         15.643175   0.000000
     48         16.436555   0.000000
 
  0.4583333E+00  0.0000000E+00  0.0000000E+00  0.8912656E-03
      1        -12.266706   1.000000
      2        -12.117327   1.000000
      3         -8.422385   1.000000
      4         -8.371874   1.000000
      5         -6.173793   1.000000
      6         -6.161772   1.000000
      7         -3.867335   1.000000
      8         -3.367531   1.000000
      9         -3.317312   1.000000
     10         -3.095884   1.000000
     11         -2.443342   1.000000
     12         -2.367404   1.000000
     13         -1.969973   1.000000
     14         -1.862485   1.000000
     15         -0.815376   1.000000
     16         -0.629645   1.000000
     17          0.360875   1.000000
     18          0.377504   1.000000
     19          0.885889   1.000000
     20          1.156727   1.000000
     21          1.611621   0.999996
     22          1.624613   0.999990
     23          5.676678   0.000000
     24          5.726595   0.000000
     25          6.448339   0.000000
     26          6.514728   0.000000
     27          7.463089   0.000000
     28          8.080246   0.000000
     29          8.138784   0.000000
     30          8.470231   0.000000
     31          8.585180   0.000000
     32          8.730490   0.000000
     33         10.548518   0.000000
     34         10.562351   0.000000
     35         10.780358   0.000000
     36         11.254962   0.000000
     37         11.392257   0.000000
     38         11.626964   0.000000
     39         11.913779   0.000000
     40         12.369087   0.000000
     41         12.726267   0.000000
     42         13.208567   0.000000
     43         14.582745   0.000000
     44         14.675845   0.000000
     45         14.795983   0.000000
     46         14.878570   0.000000
     47         16.156346   0.000000
     48         16.473411   0.000000
 
  0.4166667E-01  0.5882353E-01  0.0000000E+00  0.1782531E-02
      1        -12.687644   1.000000
      2        -11.517651   1.000000
      3         -8.651271   1.000000
      4         -8.357958   1.000000
      5         -6.037208   1.000000
      6         -5.133805   1.000000
      7         -4.692283   1.000000
      8         -4.343419   1.000000
      9         -4.102856   1.000000
     10         -3.482604   1.000000
     11         -2.781638   1.000000
     12         -2.170107   1.000000
     13         -1.522392   1.000000
     14         -1.093646   1.000000
     15         -0.145219   1.000000
     16         -0.055050   1.000000
     17          0.073745   1.000000
     18          0.102410   1.000000
     19          0.703860   1.000000
     20          2.019953   0.094170
     21          2.021649   0.090205
     22          2.274023   0.000000
     23          5.601554   0.000000
     24          5.645628   0.000000
     25          5.814908   0.000000
     26          5.925885   0.000000
     27          6.820767   0.000000
     28          7.666065   0.000000
     29          7.947153   0.000000
     30          8.386657   0.000000
     31          8.887628   0.000000
     32          8.990641   0.000000
     33          9.075848   0.000000
     34         10.231910   0.000000
     35         11.283949   0.000000
     36         11.339014   0.000000
     37         11.544892   0.000000
     38         11.691127   0.000000
     39         12.012467   0.000000
     40         12.400731   0.000000
     41         12.952811   0.000000
     42         13.318060   0.000000
     43         13.378560   0.000000
     44         15.441155   0.000000
     45         15.474786   0.000000
     46         15.994785   0.000000
     47         16.281881   0.000000
     48         16.287224   0.000000
 
  0.1250000E+00  0.5882353E-01  0.0000000E+00  0.1782531E-02
      1        -12.656841   1.000000
      2        -11.571397   1.000000
      3         -8.633009   1.000000
      4         -8.349599   1.000000
      5         -5.984260   1.000000
      6         -5.405918   1.000000
      7         -4.792419   1.000000
      8         -4.142971   1.000000
      9         -3.916941   1.000000
     10         -3.237775   1.000000
     11         -2.828470   1.000000
     12         -2.155689   1.000000
     13         -1.591344   1.000000
     14         -1.311873   1.000000
     15         -0.141482   1.000000
     16         -0.028007   1.000000
     17          0.045796   1.000000
     18          0.138863   1.000000
     19          0.630750   1.000000
     20          1.955158   0.344884
     21          1.963804   0.301028
     22          2.183027   0.000146
     23          5.661331   0.000000
     24          5.695054   0.000000
     25          5.801004   0.000000
     26          6.160619   0.000000
     27          6.764245   0.000000
     28          7.367972   0.000000
     29          8.139773   0.000000
     30          8.488712   0.000000
     31          9.092850   0.000000
     32          9.117308   0.000000
     33          9.178919   0.000000
     34         10.249480   0.000000
     35         11.050604   0.000000
     36         11.263494   0.000000
     37         11.332704   0.000000
     38         11.559572   0.000000
     39         12.169067   0.000000
     40         12.461697   0.000000
     41         13.123366   0.000000
     42         13.149922   0.000000
     43         13.750503   0.000000
     44         14.988468   0.000000
     45         15.610721   0.000000
     46         15.938965   0.000000
     47         16.089976   0.000000
     48         16.441707   0.000000
 
  0.2083333E+00  0.5882353E-01  0.0000000E+00  0.1782531E-02
      1        -12.596103   1.000000
      2        -11.670969   1.000000
      3         -8.596233   1.000000
      4         -8.337260   1.000000
      5         -5.943325   1.000000
      6         -5.694897   1.000000
      7         -4.821291   1.000000
      8         -4.040285   1.000000
      9         -3.508404   1.000000
     10         -2.944228   1.000000
     11         -2.846827   1.000000
     12         -2.126591   1.000000
     13         -1.700149   1.000000
     14         -1.691794   1.000000
     15         -0.255973   1.000000
     16          0.009693   1.000000
     17          0.096572   1.000000
     18          0.187641   1.000000
     19          0.513869   1.000000
     20          1.836019   0.900728
     21          1.863222   0.816207
     22          2.007142   0.128326
     23          5.707857   0.000000
     24          5.749499   0.000000
     25          5.963051   0.000000
     26          6.516639   0.000000
     27          6.674152   0.000000
     28          7.119604   0.000000
     29          8.272997   0.000000
     30          8.646968   0.000000
     31          9.082928   0.000000
     32          9.458974   0.000000
     33          9.513229   0.000000
     34         10.327366   0.000000
     35         10.564352   0.000000
     36         10.762559   0.000000
     37         11.425645   0.000000
     38         11.704641   0.000000
     39         12.373603   0.000000
     40         12.633303   0.000000
     41         12.722086   0.000000
     42         13.160684   0.000000
     43         14.277526   0.000000
     44         14.819977   0.000000
     45         15.466726   0.000000
     46         15.831661   0.000000
     47         16.013985   0.000000
     48         16.487998   0.000000
 
  0.2916667E+00  0.5882353E-01  0.0000000E+00  0.1782531E-02
      1        -12.507269   1.000000
      2        -11.803326   1.000000
      3         -8.542830   1.000000
      4         -8.329269   1.000000
      5         -5.984004   1.000000
      6         -5.931320   1.000000
      7         -4.655752   1.000000
      8         -3.922069   1.000000
      9         -3.087208   1.000000
     10         -3.068269   1.000000
     11         -2.448259   1.000000
     12         -2.166204   1.000000
     13         -2.063794   1.000000
     14         -1.818635   1.000000
     15         -0.466444   1.000000
     16         -0.045332   1.000000
     17          0.194174   1.000000
     18          0.195602   1.000000
     19          0.509064   1.000000
     20          1.684047   0.999704
     21          1.738879   0.996087
     22          1.771519   0.986021
     23          5.691061   0.000000
     24          5.821968   0.000000
     25          6.325002   0.000000
     26          6.588154   0.000000
     27          6.809128   0.000000
     28          7.080943   0.000000
     29          8.375619   0.000000
     30          8.732090   0.000000
     31          8.982048   0.000000
     32          9.837100   0.000000
     33          9.863774   0.000000
     34          9.973473   0.000000
     35         10.329943   0.000000
     36         10.736568   0.000000
     37         11.501709   0.000000
     38         11.997300   0.000000
     39         12.218893   0.000000
     40         12.470757   0.000000
     41         12.747732   0.000000
     42         13.047857   0.000000
     43         14.707469   0.000000
     44         15.015974   0.000000
     45         15.157780   0.000000
     46         15.658926   0.000000
     47         15.712516   0.000000
     48         16.263511   0.000000
 
  0.3750000E+00  0.5882353E-01  0.0000000E+00  0.1782531E-02
      1        -12.393297   1.000000
      2        -11.953894   1.000000
      3         -8.478990   1.000000
      4         -8.335902   1.000000
      5         -6.090832   1.000000
      6         -6.076133   1.000000
      7         -4.312992   1.000000
      8         -3.775956   1.000000
      9         -3.237034   1.000000
     10         -2.930121   1.000000
     11         -2.429877   1.000000
     12         -2.063319   1.000000
     13         -1.996047   1.000000
     14         -1.931195   1.000000
     15         -0.696585   1.000000
     16         -0.310597   1.000000
     17          0.248363   1.000000
     18          0.280754   1.000000
     19          0.662532   1.000000
     20          1.449245   1.000000
     21          1.594023   0.999999
     22          1.618162   0.999994
     23          5.705623   0.000000
     24          5.842873   0.000000
     25          6.545538   0.000000
     26          6.722432   0.000000
     27          6.816935   0.000000
     28          7.534308   0.000000
     29          8.459944   0.000000
     30          8.533363   0.000000
     31          8.790627   0.000000
     32          9.285945   0.000000
     33         10.207346   0.000000
     34         10.236833   0.000000
     35         10.440416   0.000000
     36         11.275058   0.000000
     37         11.418875   0.000000
     38         11.754279   0.000000
     39         12.177119   0.000000
     40         12.393484   0.000000
     41         12.538691   0.000000
     42         13.409534   0.000000
     43         14.656011   0.000000
     44         14.924074   0.000000
     45         14.985487   0.000000
     46         15.241268   0.000000
     47         15.702098   0.000000
     48         16.430928   0.000000
 
  0.4583333E+00  0.5882353E-01  0.0000000E+00  0.1782531E-02
      1        -12.258588   1.000000
      2        -12.109307   1.000000
      3         -8.415438   1.000000
      4         -8.364751   1.000000
      5         -6.162657   1.000000
      6         -6.150532   1.000000
      7         -3.863046   1.000000
      8         -3.607338   1.000000
      9         -3.421260   1.000000
     10         -3.360218   1.000000
     11         -2.223231   1.000000
     12         -2.056750   1.000000
     13         -1.877302   1.000000
     14         -1.827453   1.000000
     15         -0.804922   1.000000
     16         -0.627171   1.000000
     17          0.306916   1.000000
     18          0.323387   1.000000
     19          0.889167   1.000000
     20          1.159950   1.000000
     21          1.521479   1.000000
     22          1.534485   1.000000
     23          5.751645   0.000000
     24          5.808887   0.000000
     25          6.562500   0.000000
     26          6.626307   0.000000
     27          7.395268   0.000000
     28          8.006614   0.000000
     29          8.082978   0.000000
     30          8.545141   0.000000
     31          8.626311   0.000000
     32          8.694180   0.000000
     33         10.503958   0.000000
     34         10.581611   0.000000
     35         10.758078   0.000000
     36         11.085832   0.000000
     37         11.495127   0.000000
     38         11.657352   0.000000
     39         11.945544   0.000000
     40         12.429942   0.000000
     41         12.845041   0.000000
     42         13.301452   0.000000
     43         14.599621   0.000000
     44         14.697961   0.000000
     45         14.765188   0.000000
     46         14.930670   0.000000
     47         16.161685   0.000000
     48         16.461193   0.000000
 
  0.4166667E-01  0.1176471E+00  0.0000000E+00  0.1782531E-02
      1        -12.663177   1.000000
      2        -11.495590   1.000000
      3         -8.632188   1.000000
      4         -8.334316   1.000000
      5         -6.010430   1.000000
      6         -5.099127   1.000000
      7         -4.670150   1.000000
      8         -4.626769   1.000000
      9         -4.226502   1.000000
     10         -3.458275   1.000000
     11         -3.340540   1.000000
     12         -1.680970   1.000000
     13         -1.088934   1.000000
     14         -0.858491   1.000000
     15         -0.354047   1.000000
     16         -0.274547   1.000000
     17          0.114938   1.000000
     18          0.119847   1.000000
     19          0.778844   1.000000
     20          1.769423   0.987043
     21          1.773838   0.984809
     22          2.310976   0.000000
     23          5.494250   0.000000
     24          5.708776   0.000000
     25          5.844235   0.000000
     26          5.959095   0.000000
     27          7.094925   0.000000
     28          7.940404   0.000000
     29          7.997644   0.000000
     30          8.276976   0.000000
     31          8.889916   0.000000
     32          9.117959   0.000000
     33          9.159919   0.000000
     34         10.648953   0.000000
     35         11.273893   0.000000
     36         11.500918   0.000000
     37         11.602313   0.000000
     38         11.686749   0.000000
     39         12.117465   0.000000
     40         12.674062   0.000000
     41         12.901434   0.000000
     42         13.107087   0.000000
     43         13.136021   0.000000
     44         15.242813   0.000000
     45         15.409751   0.000000
     46         15.795469   0.000000
     47         15.805894   0.000000
     48         16.154355   0.000000
 
  0.1250000E+00  0.1176471E+00  0.0000000E+00  0.1782531E-02
      1        -12.632438   1.000000
      2        -11.549239   1.000000
      3         -8.613816   1.000000
      4         -8.326237   1.000000
      5         -5.956200   1.000000
      6         -5.375396   1.000000
      7         -4.771643   1.000000
      8         -4.562012   1.000000
      9         -3.902509   1.000000
     10         -3.395164   1.000000
     11         -3.205076   1.000000
     12         -1.665819   1.000000
     13         -1.306516   1.000000
     14         -0.971867   1.000000
     15         -0.272595   1.000000
     16         -0.246205   1.000000
     17          0.055649   1.000000
     18          0.153113   1.000000
     19          0.701531   1.000000
     20          1.706069   0.999106
     21          1.719163   0.998350
     22          2.214638   0.000024
     23          5.551742   0.000000
     24          5.906511   0.000000
     25          5.911678   0.000000
     26          5.970424   0.000000
     27          7.040034   0.000000
     28          7.677846   0.000000
     29          8.103814   0.000000
     30          8.427128   0.000000
     31          9.140090   0.000000
     32          9.150152   0.000000
     33          9.349262   0.000000
     34         10.539013   0.000000
     35         10.972236   0.000000
     36         11.209724   0.000000
     37         11.536777   0.000000
     38         11.744626   0.000000
     39         12.275273   0.000000
     40         12.710103   0.000000
     41         12.877964   0.000000
     42         13.152315   0.000000
     43         13.524976   0.000000
     44         15.028219   0.000000
     45         15.311507   0.000000
     46         15.731471   0.000000
     47         15.742214   0.000000
     48         16.286518   0.000000
 
  0.2083333E+00  0.1176471E+00  0.0000000E+00  0.1782531E-02
      1        -12.571839   1.000000
      2        -11.648626   1.000000
      3         -8.576871   1.000000
      4         -8.314431   1.000000
      5         -5.912847   1.000000
      6         -5.664560   1.000000
      7         -4.803287   1.000000
      8         -4.482691   1.000000
      9         -3.484485   1.000000
     10         -3.473517   1.000000
     11         -2.836217   1.000000
     12         -1.684944   1.000000
     13         -1.635518   1.000000
     14         -1.121370   1.000000
     15         -0.261171   1.000000
     16         -0.203946   1.000000
     17          0.012813   1.000000
     18          0.209606   1.000000
     19          0.570567   1.000000
     20          1.593082   0.999999
     21          1.621263   0.999992
     22          2.028913   0.074620
     23          5.749395   0.000000
     24          5.895139   0.000000
     25          6.007340   0.000000
     26          6.312550   0.000000
     27          6.954596   0.000000
     28          7.457052   0.000000
     29          8.281196   0.000000
     30          8.539779   0.000000
     31          9.164797   0.000000
     32          9.493375   0.000000
     33          9.699255   0.000000
     34         10.312826   0.000000
     35         10.518983   0.000000
     36         10.801231   0.000000
     37         11.595123   0.000000
     38         11.969901   0.000000
     39         12.445030   0.000000
     40         12.509512   0.000000
     41         12.898241   0.000000
     42         13.189717   0.000000
     43         14.009446   0.000000
     44         14.904875   0.000000
     45         15.241930   0.000000
     46         15.649698   0.000000
     47         15.704992   0.000000
     48         16.458377   0.000000
 
  0.2916667E+00  0.1176471E+00  0.0000000E+00  0.1782531E-02
      1        -12.483197   1.000000
      2        -11.780722   1.000000
      3         -8.523277   1.000000
      4         -8.307164   1.000000
      5         -5.951727   1.000000
      6         -5.900375   1.000000
      7         -4.640139   1.000000
      8         -4.376838   1.000000
      9         -3.611576   1.000000
     10         -3.045051   1.000000
     11         -2.423904   1.000000
     12         -2.138858   1.000000
     13         -1.590096   1.000000
     14         -1.271026   1.000000
     15         -0.427816   1.000000
     16         -0.195350   1.000000
     17          0.082129   1.000000
     18          0.188739   1.000000
     19          0.530919   1.000000
     20          1.457564   1.000000
     21          1.500193   1.000000
     22          1.773003   0.985255
     23          5.844249   0.000000
     24          6.075783   0.000000
     25          6.151399   0.000000
     26          6.707491   0.000000
     27          6.879286   0.000000
     28          7.337188   0.000000
     29          8.426740   0.000000
     30          8.629814   0.000000
     31          9.083729   0.000000
     32          9.739236   0.000000
     33          9.874558   0.000000
     34         10.133211   0.000000
     35         10.192660   0.000000
     36         10.849145   0.000000
     37         11.556190   0.000000
     38         12.057537   0.000000
     39         12.304679   0.000000
     40         12.654224   0.000000
     41         12.784595   0.000000
     42         13.243058   0.000000
     43         14.465061   0.000000
     44         14.969743   0.000000
     45         15.253143   0.000000
     46         15.474058   0.000000
     47         15.512007   0.000000
     48         16.317521   0.000000
 
  0.3750000E+00  0.1176471E+00  0.0000000E+00  0.1782531E-02
      1        -12.369467   1.000000
      2        -11.930979   1.000000
      3         -8.459217   1.000000
      4         -8.314601   1.000000
      5         -6.059119   1.000000
      6         -6.043343   1.000000
      7         -4.298788   1.000000
      8         -4.245132   1.000000