 vasp.6.4.3 19Mar24 (build May 31 2024 16:31:43) complex                        
  
 executed on             LinuxIFC date 2025.01.22  12:40:20
 running   24 mpi-ranks, with    1 threads/rank, on    1 nodes
 distrk:  each k-point on   24 cores,    1 groups
 distr:  one band on NCORE=   1 cores,   24 groups


--------------------------------------------------------------------------------------------------------


 INCAR:
   SYSTEM = PDoS
   ISTART = 1
   ICHARG = 11
   PREC = Accurate
   LORBIT = 11
   NEDOS = 4000
   ENCUT = 600
   LCHARG = .FALSE.
   LWAVE = .FALSE.
   ALGO = Normal
   EDIFF = 1E-6
   EDIFFG = -1E-3
   SIGMA = 0.1
   ISMEAR = 0
   SYMPREC = 1E-6
   NSW = 0
   IBRION = -1
   POTIM = .5

 POTCAR:    PAW_PBE B 06Sep2000                   
 POTCAR:    PAW_PBE B 06Sep2000                   
   SHA256 =  a32ced30f5ae56fd4d10b4325ff17eb3e4e38ee0f4288bc219fb012fddfa6e97 B/POTCAR              
   COPYR  = (c) Copyright 06Sep2000 Georg Kresse                                                    
   COPYR  = This file is part of the software VASP. Any use, copying, and all other rights are regul
   COPYR  = If you do not have a valid VASP license, you may not use, copy or distribute this file. 
   VRHFIN =B: s2p1                                                                                  
   LEXCH  = PE                                                                                      
   EATOM  =    71.1703 eV,    5.2309 Ry                                                             
                                                                                                    
   TITEL  = PAW_PBE B 06Sep2000                                                                     
   LULTRA =        F    use ultrasoft PP ?                                                          
   IUNSCR =        1    unscreen: 0-lin 1-nonlin 2-no                                               
   RPACOR =    1.200    partial core radius                                                         
   POMASS =   10.811; ZVAL   =    3.000    mass and valenz                                          
   RCORE  =    1.700    outmost cutoff radius                                                       
   RWIGS  =    1.710; RWIGS  =    0.905    wigner-seitz radius (au A)                               
   ENMAX  =  318.614; ENMIN  =  238.960 eV                                                          
   ICORE  =        2    local potential                                                             
   LCOR   =        T    correct aug charges                                                         
   LPAW   =        T    paw PP                                                                      
   EAUG   =  535.514                                                                                
   DEXC   =    0.000                                                                                
   RMAX   =    1.732    core radius for proj-oper                                                   
   RAUG   =    1.300    factor for augmentation sphere                                              
   RDEP   =    1.757    radius for radial grids                                                     
   RDEPT  =    1.436    core radius for aug-charge                                                  
                                                                                                    
   Atomic configuration                                                                             
    4 entries                                                                                       
     n  l   j            E        occ.                                                              
     1  0  0.50      -180.5896   2.0000                                                             
     2  0  0.50        -9.4431   2.0000                                                             
     2  1  0.50        -3.6068   1.0000                                                             
     3  2  1.50        -4.0817   0.0000                                                             
   Description                                                                                      
     l       E           TYP  RCUT    TYP  RCUT                                                     
     0     -9.4430752     23  1.500                                                                 
     0      0.8675899     23  1.500                                                                 
     1     -3.6067955     23  1.700                                                                 
     1      6.1086146     23  1.700                                                                 
     2     -4.0817478      7  1.700                                                                 
  local pseudopotential read in
  partial core-charges read in
  partial kinetic energy density read in
  atomic valenz-charges read in
  non local Contribution for L=           0  read in
    real space projection operators read in
  non local Contribution for L=           0  read in
    real space projection operators read in
  non local Contribution for L=           1  read in
    real space projection operators read in
  non local Contribution for L=           1  read in
    real space projection operators read in
    PAW grid and wavefunctions read in
 
   number of l-projection  operators is LMAX  =           4
   number of lm-projection operators is LMMAX =           8
 
  PAW_PBE B 06Sep2000                   :
 energy of atom  1       EATOM=  -71.1703
 kinetic energy error for atom=    0.0007 (will be added to EATOM!!)
 
 
 POSCAR: o-B14
  positions in direct lattice
  No initial velocities read in


 exchange-correlation table for PE
   RHO(1)=    0.500       N(1)  =     2000
   RHO(2)=  100.500       N(2)  =     4000
 


--------------------------------------------------------------------------------------------------------


 ion  position               nearest neighbor table
   1  0.521  0.500  0.638-  14 1.65   5 1.68  13 1.70   2 1.73   9 1.85  11 1.85
   2  0.479  0.500  0.362-  13 1.65   6 1.68  14 1.70   1 1.73  10 1.85  12 1.85
   3  0.979  0.500  0.638-  14 1.65   7 1.68  13 1.70   4 1.73   9 1.85  11 1.85
   4  0.021  0.500  0.362-  13 1.65   8 1.68  14 1.70   3 1.73  10 1.85  12 1.85
   5  0.597  0.500  0.900-   6 1.67   1 1.68   7 1.74   9 1.81  11 1.81
   6  0.403  0.500  0.100-   5 1.67   2 1.68   8 1.74  10 1.81  12 1.81
   7  0.903  0.500  0.900-   8 1.67   3 1.68   5 1.74   9 1.81  11 1.81
   8  0.097  0.500  0.100-   7 1.67   4 1.68   6 1.74  10 1.81  12 1.81
   9  0.750  0.792  0.730-  11 1.69   7 1.81   5 1.81   3 1.85   1 1.85  14 1.97
  10  0.250  0.208  0.270-  12 1.69   8 1.81   6 1.81   4 1.85   2 1.85  13 1.97
  11  0.750  0.208  0.730-   9 1.69   7 1.81   5 1.81   3 1.85   1 1.85  14 1.97
  12  0.250  0.792  0.270-  10 1.69   8 1.81   6 1.81   4 1.85   2 1.85  13 1.97
  13  0.250  0.500  0.524-   2 1.65   4 1.65   3 1.70   1 1.70  10 1.97  12 1.97
  14  0.750  0.500  0.476-   1 1.65   3 1.65   2 1.70   4 1.70   9 1.97  11 1.97
 
  LATTYP: Found a simple orthorhombic cell.
 ALAT       =     4.0440580961
 B/A-ratio  =     1.4097153303
 C/A-ratio  =     1.5335761871
  
  Lattice vectors:
  
 A1 = (   0.0000000000,  -4.0440580961,   0.0000000000)
 A2 = (   5.7009706948,   0.0000000000,   0.0000000000)
 A3 = (   0.0000000000,   0.0000000000,   6.2018711955)


Analysis of symmetry for initial positions (statically):
=====================================================================
 Subroutine PRICEL returns:
 Original cell was already a primitive cell.
 

 Routine SETGRP: Setting up the symmetry group for a 
 simple orthorhombic supercell.


 Subroutine GETGRP returns: Found  8 space group operations
 (whereof  4 operations were pure point group operations)
 out of a pool of  8 trial point group operations.


The static configuration has the point symmetry C_2h.
 The point group associated with its full space group is D_2h.


Analysis of symmetry for dynamics (positions and initial velocities):
=====================================================================
 Subroutine PRICEL returns:
 Original cell was already a primitive cell.
 

 Routine SETGRP: Setting up the symmetry group for a 
 simple orthorhombic supercell.


 Subroutine GETGRP returns: Found  8 space group operations
 (whereof  4 operations were pure point group operations)
 out of a pool of  8 trial point group operations.


The dynamic configuration has the point symmetry C_2h.
 The point group associated with its full space group is D_2h.


 Subroutine INISYM returns: Found  8 space group operations
 (whereof  4 operations are pure point group operations),
 and found     1 'primitive' translations


----------------------------------------------------------------------------------------

                                     Primitive cell                                     

  volume of cell :     142.9845

  direct lattice vectors                    reciprocal lattice vectors
     5.700970695  0.000000000  0.000000000     0.175408725  0.000000000  0.000000000
     0.000000000  4.044058096  0.000000000     0.000000000  0.247276368  0.000000000
     0.000000000  0.000000000  6.201871195     0.000000000  0.000000000  0.161241659

  length of vectors
     5.700970695  4.044058096  6.201871195     0.175408725  0.247276368  0.161241659

  position of ions in fractional coordinates (direct lattice)
     0.521289885  0.500000000  0.637957702
     0.478710115  0.500000000  0.362042298
     0.978710115  0.500000000  0.637957702
     0.021289885  0.500000000  0.362042298
     0.597449662  0.500000000  0.899868316
     0.402550338  0.500000000  0.100131684
     0.902550338  0.500000000  0.899868316
     0.097449662  0.500000000  0.100131684
     0.750000000  0.791564932  0.729579396
     0.250000000  0.208435068  0.270420604
     0.750000000  0.208435068  0.729579396
     0.250000000  0.791564932  0.270420604
     0.250000000  0.500000000  0.523993035
     0.750000000  0.500000000  0.476006965

  ion indices of the primitive-cell ions
   primitive index   ion index
                 1           1
                 2           2
                 3           3
                 4           4
                 5           5
                 6           6
                 7           7
                 8           8
                 9           9
                10          10
                11          11
                12          12
                13          13
                14          14

----------------------------------------------------------------------------------------

 
 
 KPOINTS: k-points                                

Automatic generation of k-mesh.
 Grid dimensions read from file:
 generate k-points for:   12   17   11

 Generating k-lattice:

  Cartesian coordinates                     Fractional coordinates (reciprocal lattice)
     0.014617394  0.000000000  0.000000000     0.083333333  0.000000000  0.000000000
     0.000000000  0.014545669  0.000000000     0.000000000  0.058823529  0.000000000
     0.000000000  0.000000000  0.014658333     0.000000000  0.000000000  0.090909091

  Length of vectors
     0.014617394  0.014545669  0.014658333

  Shift w.r.t. Gamma in fractional coordinates (k-lattice)
     0.500000000  0.000000000  0.000000000

 
 Subroutine IBZKPT returns following result:
 ===========================================
 
 Found    324 irreducible k-points:
 
 Following reciprocal coordinates:
            Coordinates               Weight
  0.041667  0.000000  0.000000      2.000000
  0.125000  0.000000  0.000000      2.000000
  0.208333  0.000000  0.000000      2.000000
  0.291667  0.000000  0.000000      2.000000
  0.375000  0.000000  0.000000      2.000000
  0.458333  0.000000  0.000000      2.000000
  0.041667  0.058824  0.000000      4.000000
  0.125000  0.058824  0.000000      4.000000
  0.208333  0.058824  0.000000      4.000000
  0.291667  0.058824  0.000000      4.000000
  0.375000  0.058824  0.000000      4.000000
  0.458333  0.058824  0.000000      4.000000
  0.041667  0.117647  0.000000      4.000000
  0.125000  0.117647  0.000000      4.000000
  0.208333  0.117647  0.000000      4.000000
  0.291667  0.117647  0.000000      4.000000
  0.375000  0.117647  0.000000      4.000000
  0.458333  0.117647  0.000000      4.000000
  0.041667  0.176471  0.000000      4.000000
  0.125000  0.176471  0.000000      4.000000
  0.208333  0.176471  0.000000      4.000000
  0.291667  0.176471  0.000000      4.000000
  0.375000  0.176471  0.000000      4.000000
  0.458333  0.176471  0.000000      4.000000
  0.041667  0.235294  0.000000      4.000000
  0.125000  0.235294  0.000000      4.000000
  0.208333  0.235294  0.000000      4.000000
  0.291667  0.235294  0.000000      4.000000
  0.375000  0.235294  0.000000      4.000000
  0.458333  0.235294  0.000000      4.000000
  0.041667  0.294118  0.000000      4.000000
  0.125000  0.294118  0.000000      4.000000
  0.208333  0.294118  0.000000      4.000000
  0.291667  0.294118  0.000000      4.000000
  0.375000  0.294118  0.000000      4.000000
  0.458333  0.294118  0.000000      4.000000
  0.041667  0.352941  0.000000      4.000000
  0.125000  0.352941  0.000000      4.000000
  0.208333  0.352941  0.000000      4.000000
  0.291667  0.352941  0.000000      4.000000
  0.375000  0.352941  0.000000      4.000000
  0.458333  0.352941  0.000000      4.000000
  0.041667  0.411765  0.000000      4.000000
  0.125000  0.411765  0.000000      4.000000
  0.208333  0.411765  0.000000      4.000000
  0.291667  0.411765  0.000000      4.000000
  0.375000  0.411765  0.000000      4.000000
  0.458333  0.411765  0.000000      4.000000
  0.041667  0.470588  0.000000      4.000000
  0.125000  0.470588  0.000000      4.000000
  0.208333  0.470588  0.000000      4.000000
  0.291667  0.470588  0.000000      4.000000
  0.375000  0.470588  0.000000      4.000000
  0.458333  0.470588  0.000000      4.000000
  0.041667  0.000000  0.090909      4.000000
  0.125000  0.000000  0.090909      4.000000
  0.208333  0.000000  0.090909      4.000000
  0.291667  0.000000  0.090909      4.000000
  0.375000  0.000000  0.090909      4.000000
  0.458333  0.000000  0.090909      4.000000
  0.041667  0.058824  0.090909      8.000000
  0.125000  0.058824  0.090909      8.000000
  0.208333  0.058824  0.090909      8.000000
  0.291667  0.058824  0.090909      8.000000
  0.375000  0.058824  0.090909      8.000000
  0.458333  0.058824  0.090909      8.000000
  0.041667  0.117647  0.090909      8.000000
  0.125000  0.117647  0.090909      8.000000
  0.208333  0.117647  0.090909      8.000000
  0.291667  0.117647  0.090909      8.000000
  0.375000  0.117647  0.090909      8.000000
  0.458333  0.117647  0.090909      8.000000
  0.041667  0.176471  0.090909      8.000000
  0.125000  0.176471  0.090909      8.000000
  0.208333  0.176471  0.090909      8.000000
  0.291667  0.176471  0.090909      8.000000
  0.375000  0.176471  0.090909      8.000000
  0.458333  0.176471  0.090909      8.000000
  0.041667  0.235294  0.090909      8.000000
  0.125000  0.235294  0.090909      8.000000
  0.208333  0.235294  0.090909      8.000000
  0.291667  0.235294  0.090909      8.000000
  0.375000  0.235294  0.090909      8.000000
  0.458333  0.235294  0.090909      8.000000
  0.041667  0.294118  0.090909      8.000000
  0.125000  0.294118  0.090909      8.000000
  0.208333  0.294118  0.090909      8.000000
  0.291667  0.294118  0.090909      8.000000
  0.375000  0.294118  0.090909      8.000000
  0.458333  0.294118  0.090909      8.000000
  0.041667  0.352941  0.090909      8.000000
  0.125000  0.352941  0.090909      8.000000
  0.208333  0.352941  0.090909      8.000000
  0.291667  0.352941  0.090909      8.000000
  0.375000  0.352941  0.090909      8.000000
  0.458333  0.352941  0.090909      8.000000
  0.041667  0.411765  0.090909      8.000000
  0.125000  0.411765  0.090909      8.000000
  0.208333  0.411765  0.090909      8.000000
  0.291667  0.411765  0.090909      8.000000
  0.375000  0.411765  0.090909      8.000000
  0.458333  0.411765  0.090909      8.000000
  0.041667  0.470588  0.090909      8.000000
  0.125000  0.470588  0.090909      8.000000
  0.208333  0.470588  0.090909      8.000000
  0.291667  0.470588  0.090909      8.000000
  0.375000  0.470588  0.090909      8.000000
  0.458333  0.470588  0.090909      8.000000
  0.041667  0.000000  0.181818      4.000000
  0.125000  0.000000  0.181818      4.000000
  0.208333  0.000000  0.181818      4.000000
  0.291667  0.000000  0.181818      4.000000
  0.375000  0.000000  0.181818      4.000000
  0.458333  0.000000  0.181818      4.000000
  0.041667  0.058824  0.181818      8.000000
  0.125000  0.058824  0.181818      8.000000
  0.208333  0.058824  0.181818      8.000000
  0.291667  0.058824  0.181818      8.000000
  0.375000  0.058824  0.181818      8.000000
  0.458333  0.058824  0.181818      8.000000
  0.041667  0.117647  0.181818      8.000000
  0.125000  0.117647  0.181818      8.000000
  0.208333  0.117647  0.181818      8.000000
  0.291667  0.117647  0.181818      8.000000
  0.375000  0.117647  0.181818      8.000000
  0.458333  0.117647  0.181818      8.000000
  0.041667  0.176471  0.181818      8.000000
  0.125000  0.176471  0.181818      8.000000
  0.208333  0.176471  0.181818      8.000000
  0.291667  0.176471  0.181818      8.000000
  0.375000  0.176471  0.181818      8.000000
  0.458333  0.176471  0.181818      8.000000
  0.041667  0.235294  0.181818      8.000000
  0.125000  0.235294  0.181818      8.000000
  0.208333  0.235294  0.181818      8.000000
  0.291667  0.235294  0.181818      8.000000
  0.375000  0.235294  0.181818      8.000000
  0.458333  0.235294  0.181818      8.000000
  0.041667  0.294118  0.181818      8.000000
  0.125000  0.294118  0.181818      8.000000
  0.208333  0.294118  0.181818      8.000000
  0.291667  0.294118  0.181818      8.000000
  0.375000  0.294118  0.181818      8.000000
  0.458333  0.294118  0.181818      8.000000
  0.041667  0.352941  0.181818      8.000000
  0.125000  0.352941  0.181818      8.000000
  0.208333  0.352941  0.181818      8.000000
  0.291667  0.352941  0.181818      8.000000
  0.375000  0.352941  0.181818      8.000000
  0.458333  0.352941  0.181818      8.000000
  0.041667  0.411765  0.181818      8.000000
  0.125000  0.411765  0.181818      8.000000
  0.208333  0.411765  0.181818      8.000000
  0.291667  0.411765  0.181818      8.000000
  0.375000  0.411765  0.181818      8.000000
  0.458333  0.411765  0.181818      8.000000
  0.041667  0.470588  0.181818      8.000000
  0.125000  0.470588  0.181818      8.000000
  0.208333  0.470588  0.181818      8.000000
  0.291667  0.470588  0.181818      8.000000
  0.375000  0.470588  0.181818      8.000000
  0.458333  0.470588  0.181818      8.000000
  0.041667  0.000000  0.272727      4.000000
  0.125000  0.000000  0.272727      4.000000
  0.208333  0.000000  0.272727      4.000000
  0.291667  0.000000  0.272727      4.000000
  0.375000  0.000000  0.272727      4.000000
  0.458333  0.000000  0.272727      4.000000
  0.041667  0.058824  0.272727      8.000000
  0.125000  0.058824  0.272727      8.000000
  0.208333  0.058824  0.272727      8.000000
  0.291667  0.058824  0.272727      8.000000
  0.375000  0.058824  0.272727      8.000000
  0.458333  0.058824  0.272727      8.000000
  0.041667  0.117647  0.272727      8.000000
  0.125000  0.117647  0.272727      8.000000
  0.208333  0.117647  0.272727      8.000000
  0.291667  0.117647  0.272727      8.000000
  0.375000  0.117647  0.272727      8.000000
  0.458333  0.117647  0.272727      8.000000
  0.041667  0.176471  0.272727      8.000000
  0.125000  0.176471  0.272727      8.000000
  0.208333  0.176471  0.272727      8.000000
  0.291667  0.176471  0.272727      8.000000
  0.375000  0.176471  0.272727      8.000000
  0.458333  0.176471  0.272727      8.000000
  0.041667  0.235294  0.272727      8.000000
  0.125000  0.235294  0.272727      8.000000
  0.208333  0.235294  0.272727      8.000000
  0.291667  0.235294  0.272727      8.000000
  0.375000  0.235294  0.272727      8.000000
  0.458333  0.235294  0.272727      8.000000
  0.041667  0.294118  0.272727      8.000000
  0.125000  0.294118  0.272727      8.000000
  0.208333  0.294118  0.272727      8.000000
  0.291667  0.294118  0.272727      8.000000
  0.375000  0.294118  0.272727      8.000000
  0.458333  0.294118  0.272727      8.000000
  0.041667  0.352941  0.272727      8.000000
  0.125000  0.352941  0.272727      8.000000
  0.208333  0.352941  0.272727      8.000000
  0.291667  0.352941  0.272727      8.000000
  0.375000  0.352941  0.272727      8.000000
  0.458333  0.352941  0.272727      8.000000
  0.041667  0.411765  0.272727      8.000000
  0.125000  0.411765  0.272727      8.000000
  0.208333  0.411765  0.272727      8.000000
  0.291667  0.411765  0.272727      8.000000
  0.375000  0.411765  0.272727      8.000000
  0.458333  0.411765  0.272727      8.000000
  0.041667  0.470588  0.272727      8.000000
  0.125000  0.470588  0.272727      8.000000
  0.208333  0.470588  0.272727      8.000000
  0.291667  0.470588  0.272727      8.000000
  0.375000  0.470588  0.272727      8.000000
  0.458333  0.470588  0.272727      8.000000
  0.041667  0.000000  0.363636      4.000000
  0.125000  0.000000  0.363636      4.000000
  0.208333  0.000000  0.363636      4.000000
  0.291667  0.000000  0.363636      4.000000
  0.375000  0.000000  0.363636      4.000000
  0.458333  0.000000  0.363636      4.000000
  0.041667  0.058824  0.363636      8.000000
  0.125000  0.058824  0.363636      8.000000
  0.208333  0.058824  0.363636      8.000000
  0.291667  0.058824  0.363636      8.000000
  0.375000  0.058824  0.363636      8.000000
  0.458333  0.058824  0.363636      8.000000
  0.041667  0.117647  0.363636      8.000000
  0.125000  0.117647  0.363636      8.000000
  0.208333  0.117647  0.363636      8.000000
  0.291667  0.117647  0.363636      8.000000
  0.375000  0.117647  0.363636      8.000000
  0.458333  0.117647  0.363636      8.000000
  0.041667  0.176471  0.363636      8.000000
  0.125000  0.176471  0.363636      8.000000
  0.208333  0.176471  0.363636      8.000000
  0.291667  0.176471  0.363636      8.000000
  0.375000  0.176471  0.363636      8.000000
  0.458333  0.176471  0.363636      8.000000
  0.041667  0.235294  0.363636      8.000000
  0.125000  0.235294  0.363636      8.000000
  0.208333  0.235294  0.363636      8.000000
  0.291667  0.235294  0.363636      8.000000
  0.375000  0.235294  0.363636      8.000000
  0.458333  0.235294  0.363636      8.000000
  0.041667  0.294118  0.363636      8.000000
  0.125000  0.294118  0.363636      8.000000
  0.208333  0.294118  0.363636      8.000000
  0.291667  0.294118  0.363636      8.000000
  0.375000  0.294118  0.363636      8.000000
  0.458333  0.294118  0.363636      8.000000
  0.041667  0.352941  0.363636      8.000000
  0.125000  0.352941  0.363636      8.000000
  0.208333  0.352941  0.363636      8.000000
  0.291667  0.352941  0.363636      8.000000
  0.375000  0.352941  0.363636      8.000000
  0.458333  0.352941  0.363636      8.000000
  0.041667  0.411765  0.363636      8.000000
  0.125000  0.411765  0.363636      8.000000
  0.208333  0.411765  0.363636      8.000000
  0.291667  0.411765  0.363636      8.000000
  0.375000  0.411765  0.363636      8.000000
  0.458333  0.411765  0.363636      8.000000
  0.041667  0.470588  0.363636      8.000000
  0.125000  0.470588  0.363636      8.000000
  0.208333  0.470588  0.363636      8.000000
  0.291667  0.470588  0.363636      8.000000
  0.375000  0.470588  0.363636      8.000000
  0.458333  0.470588  0.363636      8.000000
  0.041667  0.000000  0.454545      4.000000
  0.125000  0.000000  0.454545      4.000000
  0.208333  0.000000  0.454545      4.000000
  0.291667  0.000000  0.454545      4.000000
  0.375000  0.000000  0.454545      4.000000
  0.458333  0.000000  0.454545      4.000000
  0.041667  0.058824  0.454545      8.000000
  0.125000  0.058824  0.454545      8.000000
  0.208333  0.058824  0.454545      8.000000
  0.291667  0.058824  0.454545      8.000000
  0.375000  0.058824  0.454545      8.000000
  0.458333  0.058824  0.454545      8.000000
  0.041667  0.117647  0.454545      8.000000
  0.125000  0.117647  0.454545      8.000000
  0.208333  0.117647  0.454545      8.000000
  0.291667  0.117647  0.454545      8.000000
  0.375000  0.117647  0.454545      8.000000
  0.458333  0.117647  0.454545      8.000000
  0.041667  0.176471  0.454545      8.000000
  0.125000  0.176471  0.454545      8.000000
  0.208333  0.176471  0.454545      8.000000
  0.291667  0.176471  0.454545      8.000000
  0.375000  0.176471  0.454545      8.000000
  0.458333  0.176471  0.454545      8.000000
  0.041667  0.235294  0.454545      8.000000
  0.125000  0.235294  0.454545      8.000000
  0.208333  0.235294  0.454545      8.000000
  0.291667  0.235294  0.454545      8.000000
  0.375000  0.235294  0.454545      8.000000
  0.458333  0.235294  0.454545      8.000000
  0.041667  0.294118  0.454545      8.000000
  0.125000  0.294118  0.454545      8.000000
  0.208333  0.294118  0.454545      8.000000
  0.291667  0.294118  0.454545      8.000000
  0.375000  0.294118  0.454545      8.000000
  0.458333  0.294118  0.454545      8.000000
  0.041667  0.352941  0.454545      8.000000
  0.125000  0.352941  0.454545      8.000000
  0.208333  0.352941  0.454545      8.000000
  0.291667  0.352941  0.454545      8.000000
  0.375000  0.352941  0.454545      8.000000
  0.458333  0.352941  0.454545      8.000000
  0.041667  0.411765  0.454545      8.000000
  0.125000  0.411765  0.454545      8.000000
  0.208333  0.411765  0.454545      8.000000
  0.291667  0.411765  0.454545      8.000000
  0.375000  0.411765  0.454545      8.000000
  0.458333  0.411765  0.454545      8.000000
  0.041667  0.470588  0.454545      8.000000
  0.125000  0.470588  0.454545      8.000000
  0.208333  0.470588  0.454545      8.000000
  0.291667  0.470588  0.454545      8.000000
  0.375000  0.470588  0.454545      8.000000
  0.458333  0.470588  0.454545      8.000000
 
 Following cartesian coordinates:
            Coordinates               Weight
  0.007309  0.000000  0.000000      2.000000
  0.021926  0.000000  0.000000      2.000000
  0.036543  0.000000  0.000000      2.000000
  0.051161  0.000000  0.000000      2.000000
  0.065778  0.000000  0.000000      2.000000
  0.080396  0.000000  0.000000      2.000000
  0.007309  0.014546  0.000000      4.000000
  0.021926  0.014546  0.000000      4.000000
  0.036543  0.014546  0.000000      4.000000
  0.051161  0.014546  0.000000      4.000000
  0.065778  0.014546  0.000000      4.000000
  0.080396  0.014546  0.000000      4.000000
  0.007309  0.029091  0.000000      4.000000
  0.021926  0.029091  0.000000      4.000000
  0.036543  0.029091  0.000000      4.000000
  0.051161  0.029091  0.000000      4.000000
  0.065778  0.029091  0.000000      4.000000
  0.080396  0.029091  0.000000      4.000000
  0.007309  0.043637  0.000000      4.000000
  0.021926  0.043637  0.000000      4.000000
  0.036543  0.043637  0.000000      4.000000
  0.051161  0.043637  0.000000      4.000000
  0.065778  0.043637  0.000000      4.000000
  0.080396  0.043637  0.000000      4.000000
  0.007309  0.058183  0.000000      4.000000
  0.021926  0.058183  0.000000      4.000000
  0.036543  0.058183  0.000000      4.000000
  0.051161  0.058183  0.000000      4.000000
  0.065778  0.058183  0.000000      4.000000
  0.080396  0.058183  0.000000      4.000000
  0.007309  0.072728  0.000000      4.000000
  0.021926  0.072728  0.000000      4.000000
  0.036543  0.072728  0.000000      4.000000
  0.051161  0.072728  0.000000      4.000000
  0.065778  0.072728  0.000000      4.000000
  0.080396  0.072728  0.000000      4.000000
  0.007309  0.087274  0.000000      4.000000
  0.021926  0.087274  0.000000      4.000000
  0.036543  0.087274  0.000000      4.000000
  0.051161  0.087274  0.000000      4.000000
  0.065778  0.087274  0.000000      4.000000
  0.080396  0.087274  0.000000      4.000000
  0.007309  0.101820  0.000000      4.000000
  0.021926  0.101820  0.000000      4.000000
  0.036543  0.101820  0.000000      4.000000
  0.051161  0.101820  0.000000      4.000000
  0.065778  0.101820  0.000000      4.000000
  0.080396  0.101820  0.000000      4.000000
  0.007309  0.116365  0.000000      4.000000
  0.021926  0.116365  0.000000      4.000000
  0.036543  0.116365  0.000000      4.000000
  0.051161  0.116365  0.000000      4.000000
  0.065778  0.116365  0.000000      4.000000
  0.080396  0.116365  0.000000      4.000000
  0.007309  0.000000  0.014658      4.000000
  0.021926  0.000000  0.014658      4.000000
  0.036543  0.000000  0.014658      4.000000
  0.051161  0.000000  0.014658      4.000000
  0.065778  0.000000  0.014658      4.000000
  0.080396  0.000000  0.014658      4.000000
  0.007309  0.014546  0.014658      8.000000
  0.021926  0.014546  0.014658      8.000000
  0.036543  0.014546  0.014658      8.000000
  0.051161  0.014546  0.014658      8.000000
  0.065778  0.014546  0.014658      8.000000
  0.080396  0.014546  0.014658      8.000000
  0.007309  0.029091  0.014658      8.000000
  0.021926  0.029091  0.014658      8.000000
  0.036543  0.029091  0.014658      8.000000
  0.051161  0.029091  0.014658      8.000000
  0.065778  0.029091  0.014658      8.000000
  0.080396  0.029091  0.014658      8.000000
  0.007309  0.043637  0.014658      8.000000
  0.021926  0.043637  0.014658      8.000000
  0.036543  0.043637  0.014658      8.000000
  0.051161  0.043637  0.014658      8.000000
  0.065778  0.043637  0.014658      8.000000
  0.080396  0.043637  0.014658      8.000000
  0.007309  0.058183  0.014658      8.000000
  0.021926  0.058183  0.014658      8.000000
  0.036543  0.058183  0.014658      8.000000
  0.051161  0.058183  0.014658      8.000000
  0.065778  0.058183  0.014658      8.000000
  0.080396  0.058183  0.014658      8.000000
  0.007309  0.072728  0.014658      8.000000
  0.021926  0.072728  0.014658      8.000000
  0.036543  0.072728  0.014658      8.000000
  0.051161  0.072728  0.014658      8.000000
  0.065778  0.072728  0.014658      8.000000
  0.080396  0.072728  0.014658      8.000000
  0.007309  0.087274  0.014658      8.000000
  0.021926  0.087274  0.014658      8.000000
  0.036543  0.087274  0.014658      8.000000
  0.051161  0.087274  0.014658      8.000000
  0.065778  0.087274  0.014658      8.000000
  0.080396  0.087274  0.014658      8.000000
  0.007309  0.101820  0.014658      8.000000
  0.021926  0.101820  0.014658      8.000000
  0.036543  0.101820  0.014658      8.000000
  0.051161  0.101820  0.014658      8.000000
  0.065778  0.101820  0.014658      8.000000
  0.080396  0.101820  0.014658      8.000000
  0.007309  0.116365  0.014658      8.000000
  0.021926  0.116365  0.014658      8.000000
  0.036543  0.116365  0.014658      8.000000
  0.051161  0.116365  0.014658      8.000000
  0.065778  0.116365  0.014658      8.000000
  0.080396  0.116365  0.014658      8.000000
  0.007309  0.000000  0.029317      4.000000
  0.021926  0.000000  0.029317      4.000000
  0.036543  0.000000  0.029317      4.000000
  0.051161  0.000000  0.029317      4.000000
  0.065778  0.000000  0.029317      4.000000
  0.080396  0.000000  0.029317      4.000000
  0.007309  0.014546  0.029317      8.000000
  0.021926  0.014546  0.029317      8.000000
  0.036543  0.014546  0.029317      8.000000
  0.051161  0.014546  0.029317      8.000000
  0.065778  0.014546  0.029317      8.000000
  0.080396  0.014546  0.029317      8.000000
  0.007309  0.029091  0.029317      8.000000
  0.021926  0.029091  0.029317      8.000000
  0.036543  0.029091  0.029317      8.000000
  0.051161  0.029091  0.029317      8.000000
  0.065778  0.029091  0.029317      8.000000
  0.080396  0.029091  0.029317      8.000000
  0.007309  0.043637  0.029317      8.000000
  0.021926  0.043637  0.029317      8.000000
  0.036543  0.043637  0.029317      8.000000
  0.051161  0.043637  0.029317      8.000000
  0.065778  0.043637  0.029317      8.000000
  0.080396  0.043637  0.029317      8.000000
  0.007309  0.058183  0.029317      8.000000
  0.021926  0.058183  0.029317      8.000000
  0.036543  0.058183  0.029317      8.000000
  0.051161  0.058183  0.029317      8.000000
  0.065778  0.058183  0.029317      8.000000
  0.080396  0.058183  0.029317      8.000000
  0.007309  0.072728  0.029317      8.000000
  0.021926  0.072728  0.029317      8.000000
  0.036543  0.072728  0.029317      8.000000
  0.051161  0.072728  0.029317      8.000000
  0.065778  0.072728  0.029317      8.000000
  0.080396  0.072728  0.029317      8.000000
  0.007309  0.087274  0.029317      8.000000
  0.021926  0.087274  0.029317      8.000000
  0.036543  0.087274  0.029317      8.000000
  0.051161  0.087274  0.029317      8.000000
  0.065778  0.087274  0.029317      8.000000
  0.080396  0.087274  0.029317      8.000000
  0.007309  0.101820  0.029317      8.000000
  0.021926  0.101820  0.029317      8.000000
  0.036543  0.101820  0.029317      8.000000
  0.051161  0.101820  0.029317      8.000000
  0.065778  0.101820  0.029317      8.000000
  0.080396  0.101820  0.029317      8.000000
  0.007309  0.116365  0.029317      8.000000
  0.021926  0.116365  0.029317      8.000000
  0.036543  0.116365  0.029317      8.000000
  0.051161  0.116365  0.029317      8.000000
  0.065778  0.116365  0.029317      8.000000
  0.080396  0.116365  0.029317      8.000000
  0.007309  0.000000  0.043975      4.000000
  0.021926  0.000000  0.043975      4.000000
  0.036543  0.000000  0.043975      4.000000
  0.051161  0.000000  0.043975      4.000000
  0.065778  0.000000  0.043975      4.000000
  0.080396  0.000000  0.043975      4.000000
  0.007309  0.014546  0.043975      8.000000
  0.021926  0.014546  0.043975      8.000000
  0.036543  0.014546  0.043975      8.000000
  0.051161  0.014546  0.043975      8.000000
  0.065778  0.014546  0.043975      8.000000
  0.080396  0.014546  0.043975      8.000000
  0.007309  0.029091  0.043975      8.000000
  0.021926  0.029091  0.043975      8.000000
  0.036543  0.029091  0.043975      8.000000
  0.051161  0.029091  0.043975      8.000000
  0.065778  0.029091  0.043975      8.000000
  0.080396  0.029091  0.043975      8.000000
  0.007309  0.043637  0.043975      8.000000
  0.021926  0.043637  0.043975      8.000000
  0.036543  0.043637  0.043975      8.000000
  0.051161  0.043637  0.043975      8.000000
  0.065778  0.043637  0.043975      8.000000
  0.080396  0.043637  0.043975      8.000000
  0.007309  0.058183  0.043975      8.000000
  0.021926  0.058183  0.043975      8.000000
  0.036543  0.058183  0.043975      8.000000
  0.051161  0.058183  0.043975      8.000000
  0.065778  0.058183  0.043975      8.000000
  0.080396  0.058183  0.043975      8.000000
  0.007309  0.072728  0.043975      8.000000
  0.021926  0.072728  0.043975      8.000000
  0.036543  0.072728  0.043975      8.000000
  0.051161  0.072728  0.043975      8.000000
  0.065778  0.072728  0.043975      8.000000
  0.080396  0.072728  0.043975      8.000000
  0.007309  0.087274  0.043975      8.000000
  0.021926  0.087274  0.043975      8.000000
  0.036543  0.087274  0.043975      8.000000
  0.051161  0.087274  0.043975      8.000000
  0.065778  0.087274  0.043975      8.000000
  0.080396  0.087274  0.043975      8.000000
  0.007309  0.101820  0.043975      8.000000
  0.021926  0.101820  0.043975      8.000000
  0.036543  0.101820  0.043975      8.000000
  0.051161  0.101820  0.043975      8.000000
  0.065778  0.101820  0.043975      8.000000
  0.080396  0.101820  0.043975      8.000000
  0.007309  0.116365  0.043975      8.000000
  0.021926  0.116365  0.043975      8.000000
  0.036543  0.116365  0.043975      8.000000
  0.051161  0.116365  0.043975      8.000000
  0.065778  0.116365  0.043975      8.000000
  0.080396  0.116365  0.043975      8.000000
  0.007309  0.000000  0.058633      4.000000
  0.021926  0.000000  0.058633      4.000000
  0.036543  0.000000  0.058633      4.000000
  0.051161  0.000000  0.058633      4.000000
  0.065778  0.000000  0.058633      4.000000
  0.080396  0.000000  0.058633      4.000000
  0.007309  0.014546  0.058633      8.000000
  0.021926  0.014546  0.058633      8.000000
  0.036543  0.014546  0.058633      8.000000
  0.051161  0.014546  0.058633      8.000000
  0.065778  0.014546  0.058633      8.000000
  0.080396  0.014546  0.058633      8.000000
  0.007309  0.029091  0.058633      8.000000
  0.021926  0.029091  0.058633      8.000000
  0.036543  0.029091  0.058633      8.000000
  0.051161  0.029091  0.058633      8.000000
  0.065778  0.029091  0.058633      8.000000
  0.080396  0.029091  0.058633      8.000000
  0.007309  0.043637  0.058633      8.000000
  0.021926  0.043637  0.058633      8.000000
  0.036543  0.043637  0.058633      8.000000
  0.051161  0.043637  0.058633      8.000000
  0.065778  0.043637  0.058633      8.000000
  0.080396  0.043637  0.058633      8.000000
  0.007309  0.058183  0.058633      8.000000
  0.021926  0.058183  0.058633      8.000000
  0.036543  0.058183  0.058633      8.000000
  0.051161  0.058183  0.058633      8.000000
  0.065778  0.058183  0.058633      8.000000
  0.080396  0.058183  0.058633      8.000000
  0.007309  0.072728  0.058633      8.000000
  0.021926  0.072728  0.058633      8.000000
  0.036543  0.072728  0.058633      8.000000
  0.051161  0.072728  0.058633      8.000000
  0.065778  0.072728  0.058633      8.000000
  0.080396  0.072728  0.058633      8.000000
  0.007309  0.087274  0.058633      8.000000
  0.021926  0.087274  0.058633      8.000000
  0.036543  0.087274  0.058633      8.000000
  0.051161  0.087274  0.058633      8.000000
  0.065778  0.087274  0.058633      8.000000
  0.080396  0.087274  0.058633      8.000000
  0.007309  0.101820  0.058633      8.000000
  0.021926  0.101820  0.058633      8.000000
  0.036543  0.101820  0.058633      8.000000
  0.051161  0.101820  0.058633      8.000000
  0.065778  0.101820  0.058633      8.000000
  0.080396  0.101820  0.058633      8.000000
  0.007309  0.116365  0.058633      8.000000
  0.021926  0.116365  0.058633      8.000000
  0.036543  0.116365  0.058633      8.000000
  0.051161  0.116365  0.058633      8.000000
  0.065778  0.116365  0.058633      8.000000
  0.080396  0.116365  0.058633      8.000000
  0.007309  0.000000  0.073292      4.000000
  0.021926  0.000000  0.073292      4.000000
  0.036543  0.000000  0.073292      4.000000
  0.051161  0.000000  0.073292      4.000000
  0.065778  0.000000  0.073292      4.000000
  0.080396  0.000000  0.073292      4.000000
  0.007309  0.014546  0.073292      8.000000
  0.021926  0.014546  0.073292      8.000000
  0.036543  0.014546  0.073292      8.000000
  0.051161  0.014546  0.073292      8.000000
  0.065778  0.014546  0.073292      8.000000
  0.080396  0.014546  0.073292      8.000000
  0.007309  0.029091  0.073292      8.000000
  0.021926  0.029091  0.073292      8.000000
  0.036543  0.029091  0.073292      8.000000
  0.051161  0.029091  0.073292      8.000000
  0.065778  0.029091  0.073292      8.000000
  0.080396  0.029091  0.073292      8.000000
  0.007309  0.043637  0.073292      8.000000
  0.021926  0.043637  0.073292      8.000000
  0.036543  0.043637  0.073292      8.000000
  0.051161  0.043637  0.073292      8.000000
  0.065778  0.043637  0.073292      8.000000
  0.080396  0.043637  0.073292      8.000000
  0.007309  0.058183  0.073292      8.000000
  0.021926  0.058183  0.073292      8.000000
  0.036543  0.058183  0.073292      8.000000
  0.051161  0.058183  0.073292      8.000000
  0.065778  0.058183  0.073292      8.000000
  0.080396  0.058183  0.073292      8.000000
  0.007309  0.072728  0.073292      8.000000
  0.021926  0.072728  0.073292      8.000000
  0.036543  0.072728  0.073292      8.000000
  0.051161  0.072728  0.073292      8.000000
  0.065778  0.072728  0.073292      8.000000
  0.080396  0.072728  0.073292      8.000000
  0.007309  0.087274  0.073292      8.000000
  0.021926  0.087274  0.073292      8.000000
  0.036543  0.087274  0.073292      8.000000
  0.051161  0.087274  0.073292      8.000000
  0.065778  0.087274  0.073292      8.000000
  0.080396  0.087274  0.073292      8.000000
  0.007309  0.101820  0.073292      8.000000
  0.021926  0.101820  0.073292      8.000000
  0.036543  0.101820  0.073292      8.000000
  0.051161  0.101820  0.073292      8.000000
  0.065778  0.101820  0.073292      8.000000
  0.080396  0.101820  0.073292      8.000000
  0.007309  0.116365  0.073292      8.000000
  0.021926  0.116365  0.073292      8.000000
  0.036543  0.116365  0.073292      8.000000
  0.051161  0.116365  0.073292      8.000000
  0.065778  0.116365  0.073292      8.000000
  0.080396  0.116365  0.073292      8.000000
 


--------------------------------------------------------------------------------------------------------




 Dimension of arrays:
   k-points           NKPTS =    324   k-points in BZ     NKDIM =    324   number of bands    NBANDS=     48
   number of dos      NEDOS =   4000   number of ions     NIONS =     14
   non local maximal  LDIM  =      4   non local SUM 2l+1 LMDIM =      8
   total plane-waves  NPLWV =  76800
   max r-space proj   IRMAX =      1   max aug-charges    IRDMAX=   8575
   dimension x,y,z NGX =    48 NGY =   32 NGZ =   50
   dimension x,y,z NGXF=    96 NGYF=   64 NGZF=  100
   support grid    NGXF=    96 NGYF=   64 NGZF=  100
   ions per type =              14
   NGX,Y,Z   is equivalent  to a cutoff of  14.00, 13.15, 13.40 a.u.
   NGXF,Y,Z  is equivalent  to a cutoff of  27.99, 26.31, 26.81 a.u.

 SYSTEM =  PDoS                                    
 POSCAR =  o-B14                                   

 Startparameter for this run:
   NWRITE =      2    write-flag & timer
   PREC   = accura    normal or accurate (medium, high low for compatibility)
   ISTART =      0    job   : 0-new  1-cont  2-samecut
   ICHARG =     11    charge: 1-file 2-atom 10-const
   ISPIN  =      1    spin polarized calculation?
   LNONCOLLINEAR =      F non collinear calculations
   LSORBIT =      F    spin-orbit coupling
   INIWAV =      1    electr: 0-lowe 1-rand  2-diag
   LASPH  =      F    aspherical Exc in radial PAW
 Electronic Relaxation 1
   ENCUT  =  600.0 eV  44.10 Ry    6.64 a.u.  11.39  8.08 12.39*2*pi/ulx,y,z
   ENINI  =  600.0     initial cutoff
   ENAUG  =  535.5 eV  augmentation charge cutoff
   NELM   =     60;   NELMIN=  2; NELMDL=  0     # of ELM steps 
   EDIFF  = 0.1E-05   stopping-criterion for ELM
   LREAL  =      F    real-space projection
   NLSPLINE    = F    spline interpolate recip. space projectors
   LCOMPAT=      F    compatible to vasp.4.4
   GGA_COMPAT  = T    GGA compatible to vasp.4.4-vasp.4.6
   LMAXPAW     = -100 max onsite density
   LMAXMIX     =    2 max onsite mixed and CHGCAR
   VOSKOWN=      0    Vosko Wilk Nusair interpolation
   ROPT   =    0.00000
 Ionic relaxation
   EDIFFG = -.1E-02   stopping-criterion for IOM
   NSW    =      0    number of steps for IOM
   NBLOCK =      1;   KBLOCK =      1    inner block; outer block 
   IBRION =     -1    ionic relax: 0-MD 1-quasi-New 2-CG
   NFREE  =      0    steps in history (QN), initial steepest desc. (CG)
   ISIF   =      2    stress and relaxation
   IWAVPR =     10    prediction:  0-non 1-charg 2-wave 3-comb
   ISYM   =      2    0-nonsym 1-usesym 2-fastsym
   LCORR  =      T    Harris-Foulkes like correction to forces

   POTIM  = 0.5000    time-step for ionic-motion
   TEIN   =    0.0    initial temperature
   TEBEG  =    0.0;   TEEND  =   0.0 temperature during run
   SMASS  =  -3.00    Nose mass-parameter (am)
   estimated Nose-frequenzy (Omega)   =  0.10E-29 period in steps = 0.13E+47 mass=  -0.743E-27a.u.
   SCALEE = 1.0000    scale energy and forces
   NPACO  =    256;   APACO  = 10.0  distance and # of slots for P.C.
   PSTRESS=    0.0 pullay stress

  Mass of Ions in am
   POMASS =  10.81
  Ionic Valenz
   ZVAL   =   3.00
  Atomic Wigner-Seitz radii
   RWIGS  =  -1.00
  virtual crystal weights 
   VCA    =   1.00
   NELECT =      42.0000    total number of electrons
   NUPDOWN=      -1.0000    fix difference up-down

 DOS related values:
   EMIN   =  10.00;   EMAX   =-10.00  energy-range for DOS
   EFERMI =   0.00;   METHOD = LEGACY      
   ISMEAR =     0;   SIGMA  =   0.10  broadening in eV -4-tet -1-fermi 0-gaus

 Electronic relaxation 2 (details)
   IALGO  =     38    algorithm
   LDIAG  =      T    sub-space diagonalisation (order eigenvalues)
   LSUBROT=      F    optimize rotation matrix (better conditioning)
   TURBO    =      0    0=normal 1=particle mesh
   IRESTART =      0    0=no restart 2=restart with 2 vectors
   NREBOOT  =      0    no. of reboots
   NMIN     =      0    reboot dimension
   EREF     =   0.00    reference energy to select bands
   IMIX   =      4    mixing-type and parameters
     AMIX     =   0.40;   BMIX     =  1.00
     AMIX_MAG =   1.60;   BMIX_MAG =  1.00
     AMIN     =   0.10
     WC   =   100.;   INIMIX=   1;  MIXPRE=   1;  MAXMIX= -45

 Intra band minimization:
   WEIMIN = 0.0000     energy-eigenvalue tresh-hold
   EBREAK =  0.52E-08  absolut break condition
   DEPER  =   0.30     relativ break condition  

   TIME   =   0.40     timestep for ELM

  volume/ion in A,a.u.               =      10.21        68.92
  Fermi-wavevector in a.u.,A,eV,Ry     =   1.088249  2.056492 16.113188  1.184286
  Thomas-Fermi vector in A             =   2.224426
 
 Write flags
   LWAVE        =      F    write WAVECAR
   LDOWNSAMPLE  =      F    k-point downsampling of WAVECAR
   LCHARG       =      F    write CHGCAR
   LVTOT        =      F    write LOCPOT, total local potential
   LVHAR        =      F    write LOCPOT, Hartree potential only
   WRT_POTENTIAL= false  ! write potential to hdf5 file
   LELF         =      F    write electronic localiz. function (ELF)
   LORBIT       =     11    0 simple, 1 ext, 2 COOP (PROOUT), +10 PAW based schemes


 Dipole corrections
   LMONO      =      F    monopole corrections only (constant potential shift)
   LDIPOL     =      F    correct potential (dipole corrections)
   IDIPOL     =      0    1-x, 2-y, 3-z, 4-all directions 
   EPSILON    =  1.0000000 bulk dielectric constant
   LVACPOTAV  =      F  vacuum potentials using an averaging scheme for the charge density
   VACPOTFLAT =  0.1000000 required flatness to determine vacuum potential
 Exchange correlation treatment:
   GGA     = PE    functional components
   XC_C    = 1    coefficients multiplying the functional components
   LIBXC   =     F    Libxc                    
   VOSKOWN =     0    Vosko Wilk Nusair interpolation
   LHFCALC =     F    Hartree Fock is set to
   LHFONE  =     F    Hartree Fock one center treatment
   AEXX    =    0.0000 exact exchange contribution

 Parameters of functionals:
   PE:
     No parameter
 
 Van der Waals corrections
   IVDW    =     0    specifies the selected vdW correction

 Linear response parameters
   LEPSILON=     F    determine dielectric tensor
   LRPA    =     F    only Hartree local field effects (RPA)
   LNABLA  =     F    use nabla operator in PAW spheres
   LVEL    =     F    velocity operator in full k-point grid
   CSHIFT  =0.1000    complex shift for real part using Kramers Kronig
   OMEGAMAX=  -1.0    maximum frequency
   DEG_THRESHOLD= 0.2000000E-02 threshold for treating states as degnerate
   RTIME   =   -0.100 relaxation time in fs
  (WPLASMAI=    0.000 imaginary part of plasma frequency in eV, 0.658/RTIME)
   DFIELD  = 0.0000000 0.0000000 0.0000000 field for delta impulse in time
 
  Optional k-point grid parameters
   LKPOINTS_OPT  =     F    use optional k-point grid
   KPOINTS_OPT_MODE=     1    mode for optional k-point grid
 
 Orbital magnetization related:
   ORBITALMAG=     F  switch on orbital magnetization
   LCHIMAG   =     F  perturbation theory with respect to B field
   DQ        =  0.001000  dq finite difference perturbation B field
   LLRAUG    =     F  two centre corrections for induced B field
   LBONE     =     F  B-component reconstruction in AE one-centre
   LVGVCALC  =     T  calculate vGv susceptibility
   LVGVAPPL  =     F  apply vGv susceptibility instead of pGv for G=0

 Random number generation:
   RANDOM_GENERATOR = DEFAULT
   PCG_SEED         = not used


--------------------------------------------------------------------------------------------------------


 Static calculation
 charge density and potential remain constant during run
 non-spin polarized calculation
 Variant of blocked Davidson
 Davidson routine will perform the subspace rotation
 perform sub-space diagonalisation
    after iterative eigenvector-optimisation
 no mixing
 using additional bands           27
 reciprocal scheme for non local part
 use partial core corrections
 calculate Harris-corrections to forces 
   (improved forces if not selfconsistent)
 use gradient corrections 
 WARNING: stress and forces are not correct
  (second derivative of E(xc) not defined)
 use of overlap-Matrix (Vanderbilt PP)
 Gauss-broadening in eV      SIGMA  =   0.10


--------------------------------------------------------------------------------------------------------


  energy-cutoff  :      600.00
  volume of cell :      142.98
      direct lattice vectors                 reciprocal lattice vectors
     5.700970695  0.000000000  0.000000000     0.175408725  0.000000000  0.000000000
     0.000000000  4.044058096  0.000000000     0.000000000  0.247276368  0.000000000
     0.000000000  0.000000000  6.201871195     0.000000000  0.000000000  0.161241659

  length of vectors
     5.700970695  4.044058096  6.201871195     0.175408725  0.247276368  0.161241659


 
 k-points in units of 2pi/SCALE and weight: k-points                                
   0.00730870  0.00000000  0.00000000       0.001
   0.02192609  0.00000000  0.00000000       0.001
   0.03654348  0.00000000  0.00000000       0.001
   0.05116088  0.00000000  0.00000000       0.001
   0.06577827  0.00000000  0.00000000       0.001
   0.08039567  0.00000000  0.00000000       0.001
   0.00730870  0.01454567  0.00000000       0.002
   0.02192609  0.01454567  0.00000000       0.002
   0.03654348  0.01454567  0.00000000       0.002
   0.05116088  0.01454567  0.00000000       0.002
   0.06577827  0.01454567  0.00000000       0.002
   0.08039567  0.01454567  0.00000000       0.002
   0.00730870  0.02909134  0.00000000       0.002
   0.02192609  0.02909134  0.00000000       0.002
   0.03654348  0.02909134  0.00000000       0.002
   0.05116088  0.02909134  0.00000000       0.002
   0.06577827  0.02909134  0.00000000       0.002
   0.08039567  0.02909134  0.00000000       0.002
   0.00730870  0.04363701  0.00000000       0.002
   0.02192609  0.04363701  0.00000000       0.002
   0.03654348  0.04363701  0.00000000       0.002
   0.05116088  0.04363701  0.00000000       0.002
   0.06577827  0.04363701  0.00000000       0.002
   0.08039567  0.04363701  0.00000000       0.002
   0.00730870  0.05818267  0.00000000       0.002
   0.02192609  0.05818267  0.00000000       0.002
   0.03654348  0.05818267  0.00000000       0.002
   0.05116088  0.05818267  0.00000000       0.002
   0.06577827  0.05818267  0.00000000       0.002
   0.08039567  0.05818267  0.00000000       0.002
   0.00730870  0.07272834  0.00000000       0.002
   0.02192609  0.07272834  0.00000000       0.002
   0.03654348  0.07272834  0.00000000       0.002
   0.05116088  0.07272834  0.00000000       0.002
   0.06577827  0.07272834  0.00000000       0.002
   0.08039567  0.07272834  0.00000000       0.002
   0.00730870  0.08727401  0.00000000       0.002
   0.02192609  0.08727401  0.00000000       0.002
   0.03654348  0.08727401  0.00000000       0.002
   0.05116088  0.08727401  0.00000000       0.002
   0.06577827  0.08727401  0.00000000       0.002
   0.08039567  0.08727401  0.00000000       0.002
   0.00730870  0.10181968  0.00000000       0.002
   0.02192609  0.10181968  0.00000000       0.002
   0.03654348  0.10181968  0.00000000       0.002
   0.05116088  0.10181968  0.00000000       0.002
   0.06577827  0.10181968  0.00000000       0.002
   0.08039567  0.10181968  0.00000000       0.002
   0.00730870  0.11636535  0.00000000       0.002
   0.02192609  0.11636535  0.00000000       0.002
   0.03654348  0.11636535  0.00000000       0.002
   0.05116088  0.11636535  0.00000000       0.002
   0.06577827  0.11636535  0.00000000       0.002
   0.08039567  0.11636535  0.00000000       0.002
   0.00730870  0.00000000  0.01465833       0.002
   0.02192609  0.00000000  0.01465833       0.002
   0.03654348  0.00000000  0.01465833       0.002
   0.05116088  0.00000000  0.01465833       0.002
   0.06577827  0.00000000  0.01465833       0.002
   0.08039567  0.00000000  0.01465833       0.002
   0.00730870  0.01454567  0.01465833       0.004
   0.02192609  0.01454567  0.01465833       0.004
   0.03654348  0.01454567  0.01465833       0.004
   0.05116088  0.01454567  0.01465833       0.004
   0.06577827  0.01454567  0.01465833       0.004
   0.08039567  0.01454567  0.01465833       0.004
   0.00730870  0.02909134  0.01465833       0.004
   0.02192609  0.02909134  0.01465833       0.004
   0.03654348  0.02909134  0.01465833       0.004
   0.05116088  0.02909134  0.01465833       0.004
   0.06577827  0.02909134  0.01465833       0.004
   0.08039567  0.02909134  0.01465833       0.004
   0.00730870  0.04363701  0.01465833       0.004
   0.02192609  0.04363701  0.01465833       0.004
   0.03654348  0.04363701  0.01465833       0.004
   0.05116088  0.04363701  0.01465833       0.004
   0.06577827  0.04363701  0.01465833       0.004
   0.08039567  0.04363701  0.01465833       0.004
   0.00730870  0.05818267  0.01465833       0.004
   0.02192609  0.05818267  0.01465833       0.004
   0.03654348  0.05818267  0.01465833       0.004
   0.05116088  0.05818267  0.01465833       0.004
   0.06577827  0.05818267  0.01465833       0.004
   0.08039567  0.05818267  0.01465833       0.004
   0.00730870  0.07272834  0.01465833       0.004
   0.02192609  0.07272834  0.01465833       0.004
   0.03654348  0.07272834  0.01465833       0.004
   0.05116088  0.07272834  0.01465833       0.004
   0.06577827  0.07272834  0.01465833       0.004
   0.08039567  0.07272834  0.01465833       0.004
   0.00730870  0.08727401  0.01465833       0.004
   0.02192609  0.08727401  0.01465833       0.004
   0.03654348  0.08727401  0.01465833       0.004
   0.05116088  0.08727401  0.01465833       0.004
   0.06577827  0.08727401  0.01465833       0.004
   0.08039567  0.08727401  0.01465833       0.004
   0.00730870  0.10181968  0.01465833       0.004
   0.02192609  0.10181968  0.01465833       0.004
   0.03654348  0.10181968  0.01465833       0.004
   0.05116088  0.10181968  0.01465833       0.004
   0.06577827  0.10181968  0.01465833       0.004
   0.08039567  0.10181968  0.01465833       0.004
   0.00730870  0.11636535  0.01465833       0.004
   0.02192609  0.11636535  0.01465833       0.004
   0.03654348  0.11636535  0.01465833       0.004
   0.05116088  0.11636535  0.01465833       0.004
   0.06577827  0.11636535  0.01465833       0.004
   0.08039567  0.11636535  0.01465833       0.004
   0.00730870  0.00000000  0.02931667       0.002
   0.02192609  0.00000000  0.02931667       0.002
   0.03654348  0.00000000  0.02931667       0.002
   0.05116088  0.00000000  0.02931667       0.002
   0.06577827  0.00000000  0.02931667       0.002
   0.08039567  0.00000000  0.02931667       0.002
   0.00730870  0.01454567  0.02931667       0.004
   0.02192609  0.01454567  0.02931667       0.004
   0.03654348  0.01454567  0.02931667       0.004
   0.05116088  0.01454567  0.02931667       0.004
   0.06577827  0.01454567  0.02931667       0.004
   0.08039567  0.01454567  0.02931667       0.004
   0.00730870  0.02909134  0.02931667       0.004
   0.02192609  0.02909134  0.02931667       0.004
   0.03654348  0.02909134  0.02931667       0.004
   0.05116088  0.02909134  0.02931667       0.004
   0.06577827  0.02909134  0.02931667       0.004
   0.08039567  0.02909134  0.02931667       0.004
   0.00730870  0.04363701  0.02931667       0.004
   0.02192609  0.04363701  0.02931667       0.004
   0.03654348  0.04363701  0.02931667       0.004
   0.05116088  0.04363701  0.02931667       0.004
   0.06577827  0.04363701  0.02931667       0.004
   0.08039567  0.04363701  0.02931667       0.004
   0.00730870  0.05818267  0.02931667       0.004
   0.02192609  0.05818267  0.02931667       0.004
   0.03654348  0.05818267  0.02931667       0.004
   0.05116088  0.05818267  0.02931667       0.004
   0.06577827  0.05818267  0.02931667       0.004
   0.08039567  0.05818267  0.02931667       0.004
   0.00730870  0.07272834  0.02931667       0.004
   0.02192609  0.07272834  0.02931667       0.004
   0.03654348  0.07272834  0.02931667       0.004
   0.05116088  0.07272834  0.02931667       0.004
   0.06577827  0.07272834  0.02931667       0.004
   0.08039567  0.07272834  0.02931667       0.004
   0.00730870  0.08727401  0.02931667       0.004
   0.02192609  0.08727401  0.02931667       0.004
   0.03654348  0.08727401  0.02931667       0.004
   0.05116088  0.08727401  0.02931667       0.004
   0.06577827  0.08727401  0.02931667       0.004
   0.08039567  0.08727401  0.02931667       0.004
   0.00730870  0.10181968  0.02931667       0.004
   0.02192609  0.10181968  0.02931667       0.004
   0.03654348  0.10181968  0.02931667       0.004
   0.05116088  0.10181968  0.02931667       0.004
   0.06577827  0.10181968  0.02931667       0.004
   0.08039567  0.10181968  0.02931667       0.004
   0.00730870  0.11636535  0.02931667       0.004
   0.02192609  0.11636535  0.02931667       0.004
   0.03654348  0.11636535  0.02931667       0.004
   0.05116088  0.11636535  0.02931667       0.004
   0.06577827  0.11636535  0.02931667       0.004
   0.08039567  0.11636535  0.02931667       0.004
   0.00730870  0.00000000  0.04397500       0.002
   0.02192609  0.00000000  0.04397500       0.002
   0.03654348  0.00000000  0.04397500       0.002
   0.05116088  0.00000000  0.04397500       0.002
   0.06577827  0.00000000  0.04397500       0.002
   0.08039567  0.00000000  0.04397500       0.002
   0.00730870  0.01454567  0.04397500       0.004
   0.02192609  0.01454567  0.04397500       0.004
   0.03654348  0.01454567  0.04397500       0.004
   0.05116088  0.01454567  0.04397500       0.004
   0.06577827  0.01454567  0.04397500       0.004
   0.08039567  0.01454567  0.04397500       0.004
   0.00730870  0.02909134  0.04397500       0.004
   0.02192609  0.02909134  0.04397500       0.004
   0.03654348  0.02909134  0.04397500       0.004
   0.05116088  0.02909134  0.04397500       0.004
   0.06577827  0.02909134  0.04397500       0.004
   0.08039567  0.02909134  0.04397500       0.004
   0.00730870  0.04363701  0.04397500       0.004
   0.02192609  0.04363701  0.04397500       0.004
   0.03654348  0.04363701  0.04397500       0.004
   0.05116088  0.04363701  0.04397500       0.004
   0.06577827  0.04363701  0.04397500       0.004
   0.08039567  0.04363701  0.04397500       0.004
   0.00730870  0.05818267  0.04397500       0.004
   0.02192609  0.05818267  0.04397500       0.004
   0.03654348  0.05818267  0.04397500       0.004
   0.05116088  0.05818267  0.04397500       0.004
   0.06577827  0.05818267  0.04397500       0.004
   0.08039567  0.05818267  0.04397500       0.004
   0.00730870  0.07272834  0.04397500       0.004
   0.02192609  0.07272834  0.04397500       0.004
   0.03654348  0.07272834  0.04397500       0.004
   0.05116088  0.07272834  0.04397500       0.004
   0.06577827  0.07272834  0.04397500       0.004
   0.08039567  0.07272834  0.04397500       0.004
   0.00730870  0.08727401  0.04397500       0.004
   0.02192609  0.08727401  0.04397500       0.004
   0.03654348  0.08727401  0.04397500       0.004
   0.05116088  0.08727401  0.04397500       0.004
   0.06577827  0.08727401  0.04397500       0.004
   0.08039567  0.08727401  0.04397500       0.004
   0.00730870  0.10181968  0.04397500       0.004
   0.02192609  0.10181968  0.04397500       0.004
   0.03654348  0.10181968  0.04397500       0.004
   0.05116088  0.10181968  0.04397500       0.004
   0.06577827  0.10181968  0.04397500       0.004
   0.08039567  0.10181968  0.04397500       0.004
   0.00730870  0.11636535  0.04397500       0.004
   0.02192609  0.11636535  0.04397500       0.004
   0.03654348  0.11636535  0.04397500       0.004
   0.05116088  0.11636535  0.04397500       0.004
   0.06577827  0.11636535  0.04397500       0.004
   0.08039567  0.11636535  0.04397500       0.004
   0.00730870  0.00000000  0.05863333       0.002
   0.02192609  0.00000000  0.05863333       0.002
   0.03654348  0.00000000  0.05863333       0.002
   0.05116088  0.00000000  0.05863333       0.002
   0.06577827  0.00000000  0.05863333       0.002
   0.08039567  0.00000000  0.05863333       0.002
   0.00730870  0.01454567  0.05863333       0.004
   0.02192609  0.01454567  0.05863333       0.004
   0.03654348  0.01454567  0.05863333       0.004
   0.05116088  0.01454567  0.05863333       0.004
   0.06577827  0.01454567  0.05863333       0.004
   0.08039567  0.01454567  0.05863333       0.004
   0.00730870  0.02909134  0.05863333       0.004
   0.02192609  0.02909134  0.05863333       0.004
   0.03654348  0.02909134  0.05863333       0.004
   0.05116088  0.02909134  0.05863333       0.004
   0.06577827  0.02909134  0.05863333       0.004
   0.08039567  0.02909134  0.05863333       0.004
   0.00730870  0.04363701  0.05863333       0.004
   0.02192609  0.04363701  0.05863333       0.004
   0.03654348  0.04363701  0.05863333       0.004
   0.05116088  0.04363701  0.05863333       0.004
   0.06577827  0.04363701  0.05863333       0.004
   0.08039567  0.04363701  0.05863333       0.004
   0.00730870  0.05818267  0.05863333       0.004
   0.02192609  0.05818267  0.05863333       0.004
   0.03654348  0.05818267  0.05863333       0.004
   0.05116088  0.05818267  0.05863333       0.004
   0.06577827  0.05818267  0.05863333       0.004
   0.08039567  0.05818267  0.05863333       0.004
   0.00730870  0.07272834  0.05863333       0.004
   0.02192609  0.07272834  0.05863333       0.004
   0.03654348  0.07272834  0.05863333       0.004
   0.05116088  0.07272834  0.05863333       0.004
   0.06577827  0.07272834  0.05863333       0.004
   0.08039567  0.07272834  0.05863333       0.004
   0.00730870  0.08727401  0.05863333       0.004
   0.02192609  0.08727401  0.05863333       0.004
   0.03654348  0.08727401  0.05863333       0.004
   0.05116088  0.08727401  0.05863333       0.004
   0.06577827  0.08727401  0.05863333       0.004
   0.08039567  0.08727401  0.05863333       0.004
   0.00730870  0.10181968  0.05863333       0.004
   0.02192609  0.10181968  0.05863333       0.004
   0.03654348  0.10181968  0.05863333       0.004
   0.05116088  0.10181968  0.05863333       0.004
   0.06577827  0.10181968  0.05863333       0.004
   0.08039567  0.10181968  0.05863333       0.004
   0.00730870  0.11636535  0.05863333       0.004
   0.02192609  0.11636535  0.05863333       0.004
   0.03654348  0.11636535  0.05863333       0.004
   0.05116088  0.11636535  0.05863333       0.004
   0.06577827  0.11636535  0.05863333       0.004
   0.08039567  0.11636535  0.05863333       0.004
   0.00730870  0.00000000  0.07329166       0.002
   0.02192609  0.00000000  0.07329166       0.002
   0.03654348  0.00000000  0.07329166       0.002
   0.05116088  0.00000000  0.07329166       0.002
   0.06577827  0.00000000  0.07329166       0.002
   0.08039567  0.00000000  0.07329166       0.002
   0.00730870  0.01454567  0.07329166       0.004
   0.02192609  0.01454567  0.07329166       0.004
   0.03654348  0.01454567  0.07329166       0.004
   0.05116088  0.01454567  0.07329166       0.004
   0.06577827  0.01454567  0.07329166       0.004
   0.08039567  0.01454567  0.07329166       0.004
   0.00730870  0.02909134  0.07329166       0.004
   0.02192609  0.02909134  0.07329166       0.004
   0.03654348  0.02909134  0.07329166       0.004
   0.05116088  0.02909134  0.07329166       0.004
   0.06577827  0.02909134  0.07329166       0.004
   0.08039567  0.02909134  0.07329166       0.004
   0.00730870  0.04363701  0.07329166       0.004
   0.02192609  0.04363701  0.07329166       0.004
   0.03654348  0.04363701  0.07329166       0.004
   0.05116088  0.04363701  0.07329166       0.004
   0.06577827  0.04363701  0.07329166       0.004
   0.08039567  0.04363701  0.07329166       0.004
   0.00730870  0.05818267  0.07329166       0.004
   0.02192609  0.05818267  0.07329166       0.004
   0.03654348  0.05818267  0.07329166       0.004
   0.05116088  0.05818267  0.07329166       0.004
   0.06577827  0.05818267  0.07329166       0.004
   0.08039567  0.05818267  0.07329166       0.004
   0.00730870  0.07272834  0.07329166       0.004
   0.02192609  0.07272834  0.07329166       0.004
   0.03654348  0.07272834  0.07329166       0.004
   0.05116088  0.07272834  0.07329166       0.004
   0.06577827  0.07272834  0.07329166       0.004
   0.08039567  0.07272834  0.07329166       0.004
   0.00730870  0.08727401  0.07329166       0.004
   0.02192609  0.08727401  0.07329166       0.004
   0.03654348  0.08727401  0.07329166       0.004
   0.05116088  0.08727401  0.07329166       0.004
   0.06577827  0.08727401  0.07329166       0.004
   0.08039567  0.08727401  0.07329166       0.004
   0.00730870  0.10181968  0.07329166       0.004
   0.02192609  0.10181968  0.07329166       0.004
   0.03654348  0.10181968  0.07329166       0.004
   0.05116088  0.10181968  0.07329166       0.004
   0.06577827  0.10181968  0.07329166       0.004
   0.08039567  0.10181968  0.07329166       0.004
   0.00730870  0.11636535  0.07329166       0.004
   0.02192609  0.11636535  0.07329166       0.004
   0.03654348  0.11636535  0.07329166       0.004
   0.05116088  0.11636535  0.07329166       0.004
   0.06577827  0.11636535  0.07329166       0.004
   0.08039567  0.11636535  0.07329166       0.004
 
 k-points in reciprocal lattice and weights: k-points                                
   0.04166667  0.00000000  0.00000000       0.001
   0.12500000  0.00000000  0.00000000       0.001
   0.20833333  0.00000000  0.00000000       0.001
   0.29166667  0.00000000  0.00000000       0.001
   0.37500000  0.00000000  0.00000000       0.001
   0.45833333  0.00000000  0.00000000       0.001
   0.04166667  0.05882353  0.00000000       0.002
   0.12500000  0.05882353  0.00000000       0.002
   0.20833333  0.05882353  0.00000000       0.002
   0.29166667  0.05882353  0.00000000       0.002
   0.37500000  0.05882353  0.00000000       0.002
   0.45833333  0.05882353  0.00000000       0.002
   0.04166667  0.11764706  0.00000000       0.002
   0.12500000  0.11764706  0.00000000       0.002
   0.20833333  0.11764706  0.00000000       0.002
   0.29166667  0.11764706  0.00000000       0.002
   0.37500000  0.11764706  0.00000000       0.002
   0.45833333  0.11764706  0.00000000       0.002
   0.04166667  0.17647059  0.00000000       0.002
   0.12500000  0.17647059  0.00000000       0.002
   0.20833333  0.17647059  0.00000000       0.002
   0.29166667  0.17647059  0.00000000       0.002
   0.37500000  0.17647059  0.00000000       0.002
   0.45833333  0.17647059  0.00000000       0.002
   0.04166667  0.23529412  0.00000000       0.002
   0.12500000  0.23529412  0.00000000       0.002
   0.20833333  0.23529412  0.00000000       0.002
   0.29166667  0.23529412  0.00000000       0.002
   0.37500000  0.23529412  0.00000000       0.002
   0.45833333  0.23529412  0.00000000       0.002
   0.04166667  0.29411765  0.00000000       0.002
   0.12500000  0.29411765  0.00000000       0.002
   0.20833333  0.29411765  0.00000000       0.002
   0.29166667  0.29411765  0.00000000       0.002
   0.37500000  0.29411765  0.00000000       0.002
   0.45833333  0.29411765  0.00000000       0.002
   0.04166667  0.35294118  0.00000000       0.002
   0.12500000  0.35294118  0.00000000       0.002
   0.20833333  0.35294118  0.00000000       0.002
   0.29166667  0.35294118  0.00000000       0.002
   0.37500000  0.35294118  0.00000000       0.002
   0.45833333  0.35294118  0.00000000       0.002
   0.04166667  0.41176471  0.00000000       0.002
   0.12500000  0.41176471  0.00000000       0.002
   0.20833333  0.41176471  0.00000000       0.002
   0.29166667  0.41176471  0.00000000       0.002
   0.37500000  0.41176471  0.00000000       0.002
   0.45833333  0.41176471  0.00000000       0.002
   0.04166667  0.47058824  0.00000000       0.002
   0.12500000  0.47058824  0.00000000       0.002
   0.20833333  0.47058824  0.00000000       0.002
   0.29166667  0.47058824  0.00000000       0.002
   0.37500000  0.47058824  0.00000000       0.002
   0.45833333  0.47058824  0.00000000       0.002
   0.04166667  0.00000000  0.09090909       0.002
   0.12500000  0.00000000  0.09090909       0.002
   0.20833333  0.00000000  0.09090909       0.002
   0.29166667  0.00000000  0.09090909       0.002
   0.37500000  0.00000000  0.09090909       0.002
   0.45833333  0.00000000  0.09090909       0.002
   0.04166667  0.05882353  0.09090909       0.004
   0.12500000  0.05882353  0.09090909       0.004
   0.20833333  0.05882353  0.09090909       0.004
   0.29166667  0.05882353  0.09090909       0.004
   0.37500000  0.05882353  0.09090909       0.004
   0.45833333  0.05882353  0.09090909       0.004
   0.04166667  0.11764706  0.09090909       0.004
   0.12500000  0.11764706  0.09090909       0.004
   0.20833333  0.11764706  0.09090909       0.004
   0.29166667  0.11764706  0.09090909       0.004
   0.37500000  0.11764706  0.09090909       0.004
   0.45833333  0.11764706  0.09090909       0.004
   0.04166667  0.17647059  0.09090909       0.004
   0.12500000  0.17647059  0.09090909       0.004
   0.20833333  0.17647059  0.09090909       0.004
   0.29166667  0.17647059  0.09090909       0.004
   0.37500000  0.17647059  0.09090909       0.004
   0.45833333  0.17647059  0.09090909       0.004
   0.04166667  0.23529412  0.09090909       0.004
   0.12500000  0.23529412  0.09090909       0.004
   0.20833333  0.23529412  0.09090909       0.004
   0.29166667  0.23529412  0.09090909       0.004
   0.37500000  0.23529412  0.09090909       0.004
   0.45833333  0.23529412  0.09090909       0.004
   0.04166667  0.29411765  0.09090909       0.004
   0.12500000  0.29411765  0.09090909       0.004
   0.20833333  0.29411765  0.09090909       0.004
   0.29166667  0.29411765  0.09090909       0.004
   0.37500000  0.29411765  0.09090909       0.004
   0.45833333  0.29411765  0.09090909       0.004
   0.04166667  0.35294118  0.09090909       0.004
   0.12500000  0.35294118  0.09090909       0.004
   0.20833333  0.35294118  0.09090909       0.004
   0.29166667  0.35294118  0.09090909       0.004
   0.37500000  0.35294118  0.09090909       0.004
   0.45833333  0.35294118  0.09090909       0.004
   0.04166667  0.41176471  0.09090909       0.004
   0.12500000  0.41176471  0.09090909       0.004
   0.20833333  0.41176471  0.09090909       0.004
   0.29166667  0.41176471  0.09090909       0.004
   0.37500000  0.41176471  0.09090909       0.004
   0.45833333  0.41176471  0.09090909       0.004
   0.04166667  0.47058824  0.09090909       0.004
   0.12500000  0.47058824  0.09090909       0.004
   0.20833333  0.47058824  0.09090909       0.004
   0.29166667  0.47058824  0.09090909       0.004
   0.37500000  0.47058824  0.09090909       0.004
   0.45833333  0.47058824  0.09090909       0.004
   0.04166667  0.00000000  0.18181818       0.002
   0.12500000  0.00000000  0.18181818       0.002
   0.20833333  0.00000000  0.18181818       0.002
   0.29166667  0.00000000  0.18181818       0.002
   0.37500000  0.00000000  0.18181818       0.002
   0.45833333  0.00000000  0.18181818       0.002
   0.04166667  0.05882353  0.18181818       0.004
   0.12500000  0.05882353  0.18181818       0.004
   0.20833333  0.05882353  0.18181818       0.004
   0.29166667  0.05882353  0.18181818       0.004
   0.37500000  0.05882353  0.18181818       0.004
   0.45833333  0.05882353  0.18181818       0.004
   0.04166667  0.11764706  0.18181818       0.004
   0.12500000  0.11764706  0.18181818       0.004
   0.20833333  0.11764706  0.18181818       0.004
   0.29166667  0.11764706  0.18181818       0.004
   0.37500000  0.11764706  0.18181818       0.004
   0.45833333  0.11764706  0.18181818       0.004
   0.04166667  0.17647059  0.18181818       0.004
   0.12500000  0.17647059  0.18181818       0.004
   0.20833333  0.17647059  0.18181818       0.004
   0.29166667  0.17647059  0.18181818       0.004
   0.37500000  0.17647059  0.18181818       0.004
   0.45833333  0.17647059  0.18181818       0.004
   0.04166667  0.23529412  0.18181818       0.004
   0.12500000  0.23529412  0.18181818       0.004
   0.20833333  0.23529412  0.18181818       0.004
   0.29166667  0.23529412  0.18181818       0.004
   0.37500000  0.23529412  0.18181818       0.004
   0.45833333  0.23529412  0.18181818       0.004
   0.04166667  0.29411765  0.18181818       0.004
   0.12500000  0.29411765  0.18181818       0.004
   0.20833333  0.29411765  0.18181818       0.004
   0.29166667  0.29411765  0.18181818       0.004
   0.37500000  0.29411765  0.18181818       0.004
   0.45833333  0.29411765  0.18181818       0.004
   0.04166667  0.35294118  0.18181818       0.004
   0.12500000  0.35294118  0.18181818       0.004
   0.20833333  0.35294118  0.18181818       0.004
   0.29166667  0.35294118  0.18181818       0.004
   0.37500000  0.35294118  0.18181818       0.004
   0.45833333  0.35294118  0.18181818       0.004
   0.04166667  0.41176471  0.18181818       0.004
   0.12500000  0.41176471  0.18181818       0.004
   0.20833333  0.41176471  0.18181818       0.004
   0.29166667  0.41176471  0.18181818       0.004
   0.37500000  0.41176471  0.18181818       0.004
   0.45833333  0.41176471  0.18181818       0.004
   0.04166667  0.47058824  0.18181818       0.004
   0.12500000  0.47058824  0.18181818       0.004
   0.20833333  0.47058824  0.18181818       0.004
   0.29166667  0.47058824  0.18181818       0.004
   0.37500000  0.47058824  0.18181818       0.004
   0.45833333  0.47058824  0.18181818       0.004
   0.04166667  0.00000000  0.27272727       0.002
   0.12500000  0.00000000  0.27272727       0.002
   0.20833333  0.00000000  0.27272727       0.002
   0.29166667  0.00000000  0.27272727       0.002
   0.37500000  0.00000000  0.27272727       0.002
   0.45833333  0.00000000  0.27272727       0.002
   0.04166667  0.05882353  0.27272727       0.004
   0.12500000  0.05882353  0.27272727       0.004
   0.20833333  0.05882353  0.27272727       0.004
   0.29166667  0.05882353  0.27272727       0.004
   0.37500000  0.05882353  0.27272727       0.004
   0.45833333  0.05882353  0.27272727       0.004
   0.04166667  0.11764706  0.27272727       0.004
   0.12500000  0.11764706  0.27272727       0.004
   0.20833333  0.11764706  0.27272727       0.004
   0.29166667  0.11764706  0.27272727       0.004
   0.37500000  0.11764706  0.27272727       0.004
   0.45833333  0.11764706  0.27272727       0.004
   0.04166667  0.17647059  0.27272727       0.004
   0.12500000  0.17647059  0.27272727       0.004
   0.20833333  0.17647059  0.27272727       0.004
   0.29166667  0.17647059  0.27272727       0.004
   0.37500000  0.17647059  0.27272727       0.004
   0.45833333  0.17647059  0.27272727       0.004
   0.04166667  0.23529412  0.27272727       0.004
   0.12500000  0.23529412  0.27272727       0.004
   0.20833333  0.23529412  0.27272727       0.004
   0.29166667  0.23529412  0.27272727       0.004
   0.37500000  0.23529412  0.27272727       0.004
   0.45833333  0.23529412  0.27272727       0.004
   0.04166667  0.29411765  0.27272727       0.004
   0.12500000  0.29411765  0.27272727       0.004
   0.20833333  0.29411765  0.27272727       0.004
   0.29166667  0.29411765  0.27272727       0.004
   0.37500000  0.29411765  0.27272727       0.004
   0.45833333  0.29411765  0.27272727       0.004
   0.04166667  0.35294118  0.27272727       0.004
   0.12500000  0.35294118  0.27272727       0.004
   0.20833333  0.35294118  0.27272727       0.004
   0.29166667  0.35294118  0.27272727       0.004
   0.37500000  0.35294118  0.27272727       0.004
   0.45833333  0.35294118  0.27272727       0.004
   0.04166667  0.41176471  0.27272727       0.004
   0.12500000  0.41176471  0.27272727       0.004
   0.20833333  0.41176471  0.27272727       0.004
   0.29166667  0.41176471  0.27272727       0.004
   0.37500000  0.41176471  0.27272727       0.004
   0.45833333  0.41176471  0.27272727       0.004
   0.04166667  0.47058824  0.27272727       0.004
   0.12500000  0.47058824  0.27272727       0.004
   0.20833333  0.47058824  0.27272727       0.004
   0.29166667  0.47058824  0.27272727       0.004
   0.37500000  0.47058824  0.27272727       0.004
   0.45833333  0.47058824  0.27272727       0.004
   0.04166667  0.00000000  0.36363636       0.002
   0.12500000  0.00000000  0.36363636       0.002
   0.20833333  0.00000000  0.36363636       0.002
   0.29166667  0.00000000  0.36363636       0.002
   0.37500000  0.00000000  0.36363636       0.002
   0.45833333  0.00000000  0.36363636       0.002
   0.04166667  0.05882353  0.36363636       0.004
   0.12500000  0.05882353  0.36363636       0.004
   0.20833333  0.05882353  0.36363636       0.004
   0.29166667  0.05882353  0.36363636       0.004
   0.37500000  0.05882353  0.36363636       0.004
   0.45833333  0.05882353  0.36363636       0.004
   0.04166667  0.11764706  0.36363636       0.004
   0.12500000  0.11764706  0.36363636       0.004
   0.20833333  0.11764706  0.36363636       0.004
   0.29166667  0.11764706  0.36363636       0.004
   0.37500000  0.11764706  0.36363636       0.004
   0.45833333  0.11764706  0.36363636       0.004
   0.04166667  0.17647059  0.36363636       0.004
   0.12500000  0.17647059  0.36363636       0.004
   0.20833333  0.17647059  0.36363636       0.004
   0.29166667  0.17647059  0.36363636       0.004
   0.37500000  0.17647059  0.36363636       0.004
   0.45833333  0.17647059  0.36363636       0.004
   0.04166667  0.23529412  0.36363636       0.004
   0.12500000  0.23529412  0.36363636       0.004
   0.20833333  0.23529412  0.36363636       0.004
   0.29166667  0.23529412  0.36363636       0.004
   0.37500000  0.23529412  0.36363636       0.004
   0.45833333  0.23529412  0.36363636       0.004
   0.04166667  0.29411765  0.36363636       0.004
   0.12500000  0.29411765  0.36363636       0.004
   0.20833333  0.29411765  0.36363636       0.004
   0.29166667  0.29411765  0.36363636       0.004
   0.37500000  0.29411765  0.36363636       0.004
   0.45833333  0.29411765  0.36363636       0.004
   0.04166667  0.35294118  0.36363636       0.004
   0.12500000  0.35294118  0.36363636       0.004
   0.20833333  0.35294118  0.36363636       0.004
   0.29166667  0.35294118  0.36363636       0.004
   0.37500000  0.35294118  0.36363636       0.004
   0.45833333  0.35294118  0.36363636       0.004
   0.04166667  0.41176471  0.36363636       0.004
   0.12500000  0.41176471  0.36363636       0.004
   0.20833333  0.41176471  0.36363636       0.004
   0.29166667  0.41176471  0.36363636       0.004
   0.37500000  0.41176471  0.36363636       0.004
   0.45833333  0.41176471  0.36363636       0.004
   0.04166667  0.47058824  0.36363636       0.004
   0.12500000  0.47058824  0.36363636       0.004
   0.20833333  0.47058824  0.36363636       0.004
   0.29166667  0.47058824  0.36363636       0.004
   0.37500000  0.47058824  0.36363636       0.004
   0.45833333  0.47058824  0.36363636       0.004
   0.04166667  0.00000000  0.45454545       0.002
   0.12500000  0.00000000  0.45454545       0.002
   0.20833333  0.00000000  0.45454545       0.002
   0.29166667  0.00000000  0.45454545       0.002
   0.37500000  0.00000000  0.45454545       0.002
   0.45833333  0.00000000  0.45454545       0.002
   0.04166667  0.05882353  0.45454545       0.004
[...]
     38      12.0070      0.00000
     39      12.3287      0.00000
     40      12.5082      0.00000
     41      12.7500      0.00000
     42      12.8339      0.00000
     43      13.2695      0.00000
     44      13.3784      0.00000
     45      14.0852      0.00000
     46      15.3463      0.00000
     47      15.3592      0.00000
     48      15.7302      0.00000

 k-point   320 :       0.1250    0.4706    0.4545
  band No.  band energies     occupation 
      1     -12.3024      2.00000
      2     -11.4745      2.00000
      3      -8.4732      2.00000
      4      -7.8567      2.00000
      5      -6.4238      2.00000
      6      -6.2031      2.00000
      7      -5.6062      2.00000
      8      -5.3468      2.00000
      9      -3.4062      2.00000
     10      -2.6956      2.00000
     11      -2.1995      2.00000
     12      -1.6835      2.00000
     13      -1.6176      2.00000
     14      -1.4148      2.00000
     15      -1.2097      2.00000
     16      -0.7588      2.00000
     17      -0.4990      2.00000
     18      -0.2612      2.00000
     19       0.2892      2.00000
     20       1.8153      1.88544
     21       2.1578      0.00109
     22       3.4853      0.00000
     23       4.7500      0.00000
     24       6.1340      0.00000
     25       6.4009      0.00000
     26       7.0207      0.00000
     27       7.5435      0.00000
     28       8.0872      0.00000
     29       9.0755      0.00000
     30       9.1937      0.00000
     31       9.4248      0.00000
     32      10.4584      0.00000
     33      10.7145      0.00000
     34      11.3584      0.00000
     35      11.5169      0.00000
     36      11.5678      0.00000
     37      11.8917      0.00000
     38      12.0083      0.00000
     39      12.4446      0.00000
     40      12.5528      0.00000
     41      12.8565      0.00000
     42      12.9885      0.00000
     43      13.3825      0.00000
     44      13.5227      0.00000
     45      14.2986      0.00000
     46      15.0464      0.00000
     47      15.4795      0.00000
     48      15.5687      0.00000

 k-point   321 :       0.2083    0.4706    0.4545
  band No.  band energies     occupation 
      1     -12.2492      2.00000
      2     -11.5349      2.00000
      3      -8.5377      2.00000
      4      -7.9753      2.00000
      5      -6.1515      2.00000
      6      -6.1079      2.00000
      7      -5.6310      2.00000
      8      -5.2194      2.00000
      9      -3.6364      2.00000
     10      -2.6550      2.00000
     11      -2.5182      2.00000
     12      -1.8985      2.00000
     13      -1.6379      2.00000
     14      -1.4430      2.00000
     15      -1.1317      2.00000
     16      -0.5887      2.00000
     17      -0.2312      2.00000
     18       0.0111      2.00000
     19       0.3134      2.00000
     20       1.7702      1.97336
     21       2.0883      0.02251
     22       2.7872      0.00000
     23       4.9680      0.00000
     24       6.2868      0.00000
     25       6.6684      0.00000
     26       6.8359      0.00000
     27       7.8966      0.00000
     28       8.3753      0.00000
     29       8.6945      0.00000
     30       9.1131      0.00000
     31       9.5210      0.00000
     32      10.1260      0.00000
     33      10.7807      0.00000
     34      11.1788      0.00000
     35      11.3550      0.00000
     36      11.4659      0.00000
     37      11.7974      0.00000
     38      12.2772      0.00000
     39      12.3979      0.00000
     40      12.6187      0.00000
     41      13.1152      0.00000
     42      13.2880      0.00000
     43      13.6881      0.00000
     44      13.7941      0.00000
     45      14.3156      0.00000
     46      14.6491      0.00000
     47      15.4012      0.00000
     48      15.4668      0.00000

 k-point   322 :       0.2917    0.4706    0.4545
  band No.  band energies     occupation 
      1     -12.1722      2.00000
      2     -11.6215      2.00000
      3      -8.5749      2.00000
      4      -8.1221      2.00000
      5      -6.0792      2.00000
      6      -5.7091      2.00000
      7      -5.6670      2.00000
      8      -5.0444      2.00000
      9      -3.9062      2.00000
     10      -3.0665      2.00000
     11      -2.4253      2.00000
     12      -2.0669      2.00000
     13      -1.8505      2.00000
     14      -1.3431      2.00000
     15      -1.0136      2.00000
     16      -0.3613      2.00000
     17       0.0392      2.00000
     18       0.2590      2.00000
     19       0.3777      2.00000
     20       1.7150      1.99727
     21       1.9880      0.38807
     22       2.0696      0.04364
     23       5.2750      0.00000
     24       6.1881      0.00000
     25       6.6780      0.00000
     26       7.1091      0.00000
     27       7.9900      0.00000
     28       8.5711      0.00000
     29       8.7696      0.00000
     30       8.8560      0.00000
     31       9.6508      0.00000
     32       9.8615      0.00000
     33      10.6785      0.00000
     34      11.0168      0.00000
     35      11.3129      0.00000
     36      11.4679      0.00000
     37      11.6765      0.00000
     38      12.1121      0.00000
     39      12.6832      0.00000
     40      12.8670      0.00000
     41      13.4976      0.00000
     42      13.6213      0.00000
     43      13.6961      0.00000
     44      14.0055      0.00000
     45      14.1902      0.00000
     46      14.8884      0.00000
     47      15.2268      0.00000
     48      15.4556      0.00000

 k-point   323 :       0.3750    0.4706    0.4545
  band No.  band energies     occupation 
      1     -12.0753      2.00000
      2     -11.7278      2.00000
      3      -8.5661      2.00000
      4      -8.2725      2.00000
      5      -5.9927      2.00000
      6      -5.7341      2.00000
      7      -5.2527      2.00000
      8      -4.8224      2.00000
      9      -4.1879      2.00000
     10      -3.5642      2.00000
     11      -2.2456      2.00000
     12      -2.1653      2.00000
     13      -2.0242      2.00000
     14      -1.5352      2.00000
     15      -0.6162      2.00000
     16      -0.1323      2.00000
     17       0.2751      2.00000
     18       0.4310      2.00000
     19       0.4407      2.00000
     20       1.3819      2.00000
     21       1.6736      1.99966
     22       1.8688      1.58876
     23       5.6114      0.00000
     24       6.1048      0.00000
     25       6.6598      0.00000
     26       7.3814      0.00000
     27       7.8075      0.00000
     28       8.0408      0.00000
     29       9.1039      0.00000
     30       9.2948      0.00000
     31       9.6560      0.00000
     32       9.8486      0.00000
     33      10.4765      0.00000
     34      11.0416      0.00000
     35      11.1348      0.00000
     36      11.5040      0.00000
     37      11.6027      0.00000
     38      11.8470      0.00000
     39      12.9342      0.00000
     40      13.2889      0.00000
     41      13.3158      0.00000
     42      13.8750      0.00000
     43      14.0230      0.00000
     44      14.2622      0.00000
     45      14.4551      0.00000
     46      14.8682      0.00000
     47      15.0060      0.00000
     48      15.3077      0.00000

 k-point   324 :       0.4583    0.4706    0.4545
  band No.  band energies     occupation 
      1     -11.9638      2.00000
      2     -11.8451      2.00000
      3      -8.5080      2.00000
      4      -8.4063      2.00000
      5      -5.9004      2.00000
      6      -5.8113      2.00000
      7      -4.8249      2.00000
      8      -4.5518      2.00000
      9      -4.4424      2.00000
     10      -4.0648      2.00000
     11      -2.1937      2.00000
     12      -2.1425      2.00000
     13      -2.0243      2.00000
     14      -1.7824      2.00000
     15      -0.1784      2.00000
     16       0.0006      2.00000
     17       0.4441      2.00000
     18       0.4866      2.00000
     19       0.5079      2.00000
     20       0.7885      2.00000
     21       1.6812      1.99949
     22       1.7545      1.98523
     23       5.8638      0.00000
     24       6.0077      0.00000
     25       6.9109      0.00000
     26       7.4179      0.00000
     27       7.5287      0.00000
     28       7.6518      0.00000
     29       9.4154      0.00000
     30       9.5644      0.00000
     31       9.7648      0.00000
     32       9.8689      0.00000
     33      10.4130      0.00000
     34      10.7544      0.00000
     35      11.2348      0.00000
     36      11.4993      0.00000
     37      11.5480      0.00000
     38      11.6056      0.00000
     39      13.1223      0.00000
     40      13.1991      0.00000
     41      13.7871      0.00000
     42      14.0949      0.00000
     43      14.2249      0.00000
     44      14.2677      0.00000
     45      14.6632      0.00000
     46      14.6920      0.00000
     47      14.8411      0.00000
     48      14.9936      0.00000


--------------------------------------------------------------------------------------------------------


 soft charge-density along one line, spin component           1
         0         1         2         3         4         5         6         7         8         9
 total charge-density along one line
 
 pseudopotential strength for first ion, spin component:           1
  6.445   9.813  -0.000  -0.009   0.005  -0.000  -0.014   0.008
  9.813  14.936  -0.000  -0.013   0.008  -0.000  -0.021   0.011
 -0.000  -0.000  -2.174  -0.000  -0.000  -3.694  -0.000  -0.000
 -0.009  -0.013  -0.000  -2.178  -0.001  -0.000  -3.704  -0.002
  0.005   0.008  -0.000  -0.001  -2.177  -0.000  -0.002  -3.702
 -0.000  -0.000  -3.694  -0.000  -0.000  -6.079  -0.000  -0.000
 -0.014  -0.021  -0.000  -3.704  -0.002  -0.000  -6.101  -0.004
  0.008   0.011  -0.000  -0.002  -3.702  -0.000  -0.004  -6.096
 total augmentation occupancy for first ion, spin component:           1
  2.000   0.000   0.000   0.000   0.000   0.000   0.000   0.000
  0.000   0.000   0.000   0.000   0.000   0.000   0.000   0.000
  0.000   0.000   0.333   0.000   0.000   0.000   0.000   0.000
  0.000   0.000   0.000   0.333   0.000   0.000   0.000   0.000
  0.000   0.000   0.000   0.000   0.333   0.000   0.000   0.000
  0.000   0.000   0.000   0.000   0.000   0.000   0.000   0.000
  0.000   0.000   0.000   0.000   0.000   0.000   0.000   0.000
  0.000   0.000   0.000   0.000   0.000   0.000   0.000   0.000


------------------------ aborting loop because EDIFF is reached ----------------------------------------





 total charge

# of ion       s       p       d       tot
------------------------------------------
    1        0.709   1.368   0.000   2.077
    2        0.709   1.368   0.000   2.077
    3        0.709   1.368   0.000   2.077
    4        0.709   1.368   0.000   2.077
    5        0.716   1.299   0.000   2.015
    6        0.716   1.299   0.000   2.015
    7        0.716   1.299   0.000   2.015
    8        0.716   1.299   0.000   2.015
    9        0.702   1.231   0.000   1.933
   10        0.702   1.231   0.000   1.933
   11        0.702   1.231   0.000   1.933
   12        0.702   1.231   0.000   1.933
   13        0.716   1.377   0.000   2.093
   14        0.716   1.377   0.000   2.093
--------------------------------------------------
tot          9.936  18.348   0.000  28.284
 
    CHARGE:  cpu time      0.1574: real time      0.1597
    FORLOC:  cpu time      0.0013: real time      0.0013
    FORNL :  cpu time      1.5277: real time      1.5386
    STRESS:  cpu time      6.9809: real time      7.0190
    FORCOR:  cpu time      0.0111: real time      0.0112
    FORHAR:  cpu time      0.0033: real time      0.0033
    OFIELD:  cpu time      0.0000: real time      0.0000

  FORCE on cell =-STRESS in cart. coord.  units (eV):
  Direction    XX          YY          ZZ          XY          YZ          ZX
  --------------------------------------------------------------------------------------
  Alpha Z    94.30281    94.30281    94.30281
  Ewald     -93.12989  -561.95728  -143.70902    -0.00000    -0.00000     0.00000
  Hartree   186.40385     4.73915   155.53024     0.00000    -0.00000    -0.00000
  E(xc)    -134.85196  -135.83805  -134.82389     0.00000    -0.00000     0.00000
  Local    -490.70971   130.46313  -408.23285     0.00000     0.00000    -0.00000
  n-local    -8.80248   -11.02386    -9.31103    -0.00185    -0.00396     0.07203
  augment     1.34911     1.39112     1.36955     0.00000     0.00000    -0.00000
  Kinetic   445.45089   477.80470   445.01725     0.22075     0.04118    -1.15083
  Fock        0.00000     0.00000     0.00000     0.00000     0.00000     0.00000
  -------------------------------------------------------------------------------------
  Total       0.01263    -0.11829     0.14305     0.00000     0.00000     0.00000
  in kB       0.14148    -1.32545     1.60295     0.00000     0.00000     0.00000
  external pressure =        0.14 kB  Pullay stress =        0.00 kB


 VOLUME and BASIS-vectors are now :
 -----------------------------------------------------------------------------
  energy-cutoff  :      600.00
  volume of cell :      142.98
      direct lattice vectors                 reciprocal lattice vectors
     5.700970695  0.000000000  0.000000000     0.175408725  0.000000000  0.000000000
     0.000000000  4.044058096  0.000000000     0.000000000  0.247276368  0.000000000
     0.000000000  0.000000000  6.201871195     0.000000000  0.000000000  0.161241659

  length of vectors
     5.700970695  4.044058096  6.201871195     0.175408725  0.247276368  0.161241659


 FORCES acting on ions
    electron-ion (+dipol)            ewald-force                    non-local-force                 convergence-correction
 -----------------------------------------------------------------------------------------------
   0.493E+02 0.924E-12 -.247E+02   -.511E+02 0.185E-14 0.280E+02   0.183E+01 0.221E-18 -.332E+01   -.209E-01 -.157E-12 0.364E-02
   -.493E+02 -.235E-12 0.247E+02   0.511E+02 0.687E-16 -.280E+02   -.183E+01 0.290E-18 0.332E+01   0.209E-01 -.774E-13 -.364E-02
   -.493E+02 0.908E-12 -.247E+02   0.511E+02 -.149E-14 0.280E+02   -.183E+01 -.169E-18 -.332E+01   0.209E-01 0.800E-13 0.364E-02
   0.493E+02 0.749E-14 0.247E+02   -.511E+02 -.171E-14 -.280E+02   0.183E+01 -.216E-18 0.332E+01   -.209E-01 -.916E-13 -.364E-02
   0.291E+02 -.315E-12 -.508E+02   -.315E+02 0.387E-14 0.550E+02   0.247E+01 -.104E-18 -.423E+01   -.146E-01 -.272E-12 0.102E-01
   -.291E+02 0.387E-12 0.508E+02   0.315E+02 0.345E-14 -.550E+02   -.247E+01 0.844E-19 0.423E+01   0.146E-01 -.229E-12 -.102E-01
   -.291E+02 -.132E-11 -.508E+02   0.315E+02 0.431E-14 0.550E+02   -.247E+01 0.102E-18 -.423E+01   0.146E-01 -.176E-12 0.102E-01
   0.291E+02 0.315E-13 0.508E+02   -.315E+02 0.344E-14 -.550E+02   0.247E+01 -.827E-19 0.423E+01   -.146E-01 -.258E-12 -.102E-01
   0.295E-13 -.551E+02 -.161E+02   0.938E-14 0.606E+02 0.172E+02   0.286E-17 -.543E+01 -.111E+01   0.255E-13 -.285E-01 0.171E-02
   0.138E-13 0.551E+02 0.161E+02   0.312E-14 -.606E+02 -.172E+02   -.213E-17 0.543E+01 0.111E+01   0.223E-12 0.285E-01 -.171E-02
   0.293E-13 0.551E+02 -.161E+02   0.561E-14 -.606E+02 0.172E+02   -.649E-18 0.543E+01 -.111E+01   -.160E-12 0.285E-01 0.171E-02
   0.133E-13 -.551E+02 0.161E+02   -.935E-15 0.606E+02 -.172E+02   0.335E-18 -.543E+01 0.111E+01   0.262E-12 -.285E-01 -.171E-02
   -.404E-15 0.324E-12 -.622E+02   -.559E-13 0.564E-16 0.647E+02   0.114E-18 0.348E-19 -.258E+01   0.326E-12 -.446E-13 0.246E-01
   0.578E-14 -.540E-13 0.622E+02   -.571E-13 -.472E-15 -.647E+02   -.153E-18 0.336E-18 0.258E+01   -.537E-12 0.132E-14 -.246E-01
 -----------------------------------------------------------------------------------------------
   -.120E-11 0.647E-12 0.275E-10   -.389E-13 -.415E-15 -.142E-13   -.444E-15 0.889E-15 -.888E-15   0.688E-12 -.108E-11 0.211E-11
 
 
 POSITION                                       TOTAL-FORCE (eV/Angst)
 -----------------------------------------------------------------------------------
      2.97186      2.02203      3.95653         0.010059      0.000000     -0.004209
      2.72911      2.02203      2.24534        -0.010059      0.000000      0.004209
      5.57960      2.02203      3.95653        -0.010059     -0.000000     -0.004209
      0.12137      2.02203      2.24534         0.010059     -0.000000      0.004209
      3.40604      2.02203      5.58087         0.012116      0.000000      0.005688
      2.29493      2.02203      0.62100        -0.012116      0.000000     -0.005688
      5.14541      2.02203      5.58087        -0.012116      0.000000      0.005688
      0.55556      2.02203      0.62100         0.012116      0.000000     -0.005688
      4.27573      3.20113      4.52476         0.000000      0.007560      0.001474
      1.42524      0.84292      1.67711         0.000000     -0.007560     -0.001474
      4.27573      0.84292      4.52476         0.000000     -0.007560      0.001474
      1.42524      3.20113      1.67711         0.000000      0.007560     -0.001474
      1.42524      2.02203      3.24974         0.000000     -0.000000     -0.020732
      4.27573      2.02203      2.95213         0.000000     -0.000000      0.020732
 -----------------------------------------------------------------------------------
    total drift:                               -0.000000     -0.000000      0.000000


--------------------------------------------------------------------------------------------------------



  FREE ENERGIE OF THE ION-ELECTRON SYSTEM (eV)
  ---------------------------------------------------
  free  energy   TOTEN  =       -90.63654177 eV

  energy  without entropy=      -90.62128447  energy(sigma->0) =      -90.62891312
 


--------------------------------------------------------------------------------------------------------


    POTLOK:  cpu time      0.0125: real time      0.0125


--------------------------------------------------------------------------------------------------------


     LOOP+:  cpu time     96.2855: real time     97.6875
    4ORBIT:  cpu time      0.0000: real time      0.0000



 total charge

# of ion       s       p       d       tot
------------------------------------------
    1        0.709   1.368   0.000   2.077
    2        0.709   1.368   0.000   2.077
    3        0.709   1.368   0.000   2.077
    4        0.709   1.368   0.000   2.077
    5        0.716   1.299   0.000   2.015
    6        0.716   1.299   0.000   2.015
    7        0.716   1.299   0.000   2.015
    8        0.716   1.299   0.000   2.015
    9        0.702   1.231   0.000   1.933
   10        0.702   1.231   0.000   1.933
   11        0.702   1.231   0.000   1.933
   12        0.702   1.231   0.000   1.933
   13        0.716   1.377   0.000   2.093
   14        0.716   1.377   0.000   2.093
--------------------------------------------------
tot          9.936  18.348   0.000  28.284
 

 total amount of memory used by VASP MPI-rank0   187954. kBytes
=======================================================================

   base      :      30000. kBytes
   nonl-proj :     101111. kBytes
   fftplans  :       1200. kBytes
   grid      :       4341. kBytes
   one-center:         43. kBytes
   wavefun   :      51259. kBytes
 
  
  
 General timing and accounting informations for this job:
 ========================================================
  
                  Total CPU time used (sec):      104.071
                            User time (sec):      102.159
                          System time (sec):        1.911
                         Elapsed time (sec):      106.663
  
                   Maximum memory used (kb):      563340.
                   Average memory used (kb):          N/A
  
                          Minor page faults:       499589
                          Major page faults:         1196
                 Voluntary context switches:         4111
