<?xml version="1.0" encoding="ISO-8859-1"?>
<modeling>
 <generator>
  <i name="program" type="string">vasp </i>
  <i name="version" type="string">6.4.3  </i>
  <i name="subversion" type="string">19Mar24 (build May 31 2024 16:31:43) complex                          parallel </i>
  <i name="platform" type="string">LinuxIFC </i>
  <i name="date" type="string">2024 11 03 </i>
  <i name="time" type="string">02:05:14 </i>
 </generator>
 <incar>
  <i type="string" name="SYSTEM">Convergence</i>
  <i type="int" name="ISTART">     0</i>
  <i type="string" name="PREC">Accurate</i>
  <i type="string" name="ALGO">Normal</i>
  <i type="int" name="ISPIN">     1</i>
  <i type="int" name="ICHARG">     2</i>
  <i type="int" name="NELM">   100</i>
  <i type="int" name="IBRION">    -1</i>
  <i name="EDIFF">      0.00000100</i>
  <i name="EDIFFG">     -0.00100000</i>
  <i type="int" name="NSW">     0</i>
  <i type="int" name="ISIF">     2</i>
  <i name="ENCUT">    580.00000000</i>
  <i name="POTIM">      0.50000000</i>
  <i type="int" name="ISMEAR">     0</i>
  <i name="SIGMA">      0.05000000</i>
  <i type="logical" name="LWAVE"> F  </i>
  <i type="logical" name="LCHARG"> F  </i>
  <i type="string" name="GGA">PE</i>
 </incar>
 <primitive_cell>
  <structure name="primitive_cell" >
   <crystal>
    <varray name="basis" >
     <v>      15.00000000       0.00000000       0.00000000 </v>
     <v>       0.00000000      12.50000000       0.00000000 </v>
     <v>       0.00000000       0.00000000      18.00000000 </v>
    </varray>
    <i name="volume">   3375.00000000 </i>
    <varray name="rec_basis" >
     <v>       0.06666667       0.00000000       0.00000000 </v>
     <v>       0.00000000       0.08000000       0.00000000 </v>
     <v>       0.00000000       0.00000000       0.05555556 </v>
    </varray>
   </crystal>
   <varray name="positions" >
    <v>       0.52123000       0.54500000       0.63796000 </v>
   </varray>
  </structure>
  <varray name="primitive_index" >
   <v type="int" >        1 </v>
  </varray>
 </primitive_cell>
 <kpoints>
  <generation param="Monkhorst-Pack">
   <v type="int" name="divisions">      10       14        9 </v>
   <v name="usershift">      0.00000000       0.00000000       0.00000000 </v>
   <v name="genvec1">      0.10000000       0.00000000       0.00000000 </v>
   <v name="genvec2">      0.00000000       0.07142857       0.00000000 </v>
   <v name="genvec3">      0.00000000       0.00000000       0.11111111 </v>
   <v name="shift">      0.50000000       0.50000000       0.00000000 </v>
  </generation>
  <varray name="kpointlist" >
   <v>       0.05000000       0.03571429       0.00000000 </v>
   <v>       0.15000000       0.03571429       0.00000000 </v>
   <v>       0.25000000       0.03571429       0.00000000 </v>
   <v>       0.35000000       0.03571429       0.00000000 </v>
   <v>       0.45000000       0.03571429       0.00000000 </v>
   <v>       0.05000000       0.10714286       0.00000000 </v>
   <v>       0.15000000       0.10714286       0.00000000 </v>
   <v>       0.25000000       0.10714286       0.00000000 </v>
   <v>       0.35000000       0.10714286       0.00000000 </v>
   <v>       0.45000000       0.10714286       0.00000000 </v>
   <v>       0.05000000       0.17857143       0.00000000 </v>
   <v>       0.15000000       0.17857143       0.00000000 </v>
   <v>       0.25000000       0.17857143       0.00000000 </v>
   <v>       0.35000000       0.17857143       0.00000000 </v>
   <v>       0.45000000       0.17857143       0.00000000 </v>
   <v>       0.05000000       0.25000000       0.00000000 </v>
   <v>       0.15000000       0.25000000       0.00000000 </v>
   <v>       0.25000000       0.25000000       0.00000000 </v>
   <v>       0.35000000       0.25000000       0.00000000 </v>
   <v>       0.45000000       0.25000000       0.00000000 </v>
   <v>       0.05000000       0.32142857       0.00000000 </v>
   <v>       0.15000000       0.32142857       0.00000000 </v>
   <v>       0.25000000       0.32142857       0.00000000 </v>
   <v>       0.35000000       0.32142857       0.00000000 </v>
   <v>       0.45000000       0.32142857       0.00000000 </v>
   <v>       0.05000000       0.39285714       0.00000000 </v>
   <v>       0.15000000       0.39285714       0.00000000 </v>
   <v>       0.25000000       0.39285714       0.00000000 </v>
   <v>       0.35000000       0.39285714       0.00000000 </v>
   <v>       0.45000000       0.39285714       0.00000000 </v>
   <v>       0.05000000       0.46428571       0.00000000 </v>
   <v>       0.15000000       0.46428571       0.00000000 </v>
   <v>       0.25000000       0.46428571       0.00000000 </v>
   <v>       0.35000000       0.46428571       0.00000000 </v>
   <v>       0.45000000       0.46428571       0.00000000 </v>
   <v>       0.05000000       0.03571429       0.11111111 </v>
   <v>       0.15000000       0.03571429       0.11111111 </v>
   <v>       0.25000000       0.03571429       0.11111111 </v>
   <v>       0.35000000       0.03571429       0.11111111 </v>
   <v>       0.45000000       0.03571429       0.11111111 </v>
   <v>       0.05000000       0.10714286       0.11111111 </v>
   <v>       0.15000000       0.10714286       0.11111111 </v>
   <v>       0.25000000       0.10714286       0.11111111 </v>
   <v>       0.35000000       0.10714286       0.11111111 </v>
   <v>       0.45000000       0.10714286       0.11111111 </v>
   <v>       0.05000000       0.17857143       0.11111111 </v>
   <v>       0.15000000       0.17857143       0.11111111 </v>
   <v>       0.25000000       0.17857143       0.11111111 </v>
   <v>       0.35000000       0.17857143       0.11111111 </v>
   <v>       0.45000000       0.17857143       0.11111111 </v>
   <v>       0.05000000       0.25000000       0.11111111 </v>
   <v>       0.15000000       0.25000000       0.11111111 </v>
   <v>       0.25000000       0.25000000       0.11111111 </v>
   <v>       0.35000000       0.25000000       0.11111111 </v>
   <v>       0.45000000       0.25000000       0.11111111 </v>
   <v>       0.05000000       0.32142857       0.11111111 </v>
   <v>       0.15000000       0.32142857       0.11111111 </v>
   <v>       0.25000000       0.32142857       0.11111111 </v>
   <v>       0.35000000       0.32142857       0.11111111 </v>
   <v>       0.45000000       0.32142857       0.11111111 </v>
   <v>       0.05000000       0.39285714       0.11111111 </v>
   <v>       0.15000000       0.39285714       0.11111111 </v>
   <v>       0.25000000       0.39285714       0.11111111 </v>
   <v>       0.35000000       0.39285714       0.11111111 </v>
   <v>       0.45000000       0.39285714       0.11111111 </v>
   <v>       0.05000000       0.46428571       0.11111111 </v>
   <v>       0.15000000       0.46428571       0.11111111 </v>
   <v>       0.25000000       0.46428571       0.11111111 </v>
   <v>       0.35000000       0.46428571       0.11111111 </v>
   <v>       0.45000000       0.46428571       0.11111111 </v>
   <v>       0.05000000       0.03571429       0.22222222 </v>
   <v>       0.15000000       0.03571429       0.22222222 </v>
   <v>       0.25000000       0.03571429       0.22222222 </v>
   <v>       0.35000000       0.03571429       0.22222222 </v>
   <v>       0.45000000       0.03571429       0.22222222 </v>
   <v>       0.05000000       0.10714286       0.22222222 </v>
   <v>       0.15000000       0.10714286       0.22222222 </v>
   <v>       0.25000000       0.10714286       0.22222222 </v>
   <v>       0.35000000       0.10714286       0.22222222 </v>
   <v>       0.45000000       0.10714286       0.22222222 </v>
   <v>       0.05000000       0.17857143       0.22222222 </v>
   <v>       0.15000000       0.17857143       0.22222222 </v>
   <v>       0.25000000       0.17857143       0.22222222 </v>
   <v>       0.35000000       0.17857143       0.22222222 </v>
   <v>       0.45000000       0.17857143       0.22222222 </v>
   <v>       0.05000000       0.25000000       0.22222222 </v>
   <v>       0.15000000       0.25000000       0.22222222 </v>
   <v>       0.25000000       0.25000000       0.22222222 </v>
   <v>       0.35000000       0.25000000       0.22222222 </v>
   <v>       0.45000000       0.25000000       0.22222222 </v>
   <v>       0.05000000       0.32142857       0.22222222 </v>
   <v>       0.15000000       0.32142857       0.22222222 </v>
   <v>       0.25000000       0.32142857       0.22222222 </v>
   <v>       0.35000000       0.32142857       0.22222222 </v>
   <v>       0.45000000       0.32142857       0.22222222 </v>
   <v>       0.05000000       0.39285714       0.22222222 </v>
   <v>       0.15000000       0.39285714       0.22222222 </v>
   <v>       0.25000000       0.39285714       0.22222222 </v>
   <v>       0.35000000       0.39285714       0.22222222 </v>
   <v>       0.45000000       0.39285714       0.22222222 </v>
   <v>       0.05000000       0.46428571       0.22222222 </v>
   <v>       0.15000000       0.46428571       0.22222222 </v>
   <v>       0.25000000       0.46428571       0.22222222 </v>
   <v>       0.35000000       0.46428571       0.22222222 </v>
   <v>       0.45000000       0.46428571       0.22222222 </v>
   <v>       0.05000000       0.03571429       0.33333333 </v>
   <v>       0.15000000       0.03571429       0.33333333 </v>
   <v>       0.25000000       0.03571429       0.33333333 </v>
   <v>       0.35000000       0.03571429       0.33333333 </v>
   <v>       0.45000000       0.03571429       0.33333333 </v>
   <v>       0.05000000       0.10714286       0.33333333 </v>
   <v>       0.15000000       0.10714286       0.33333333 </v>
   <v>       0.25000000       0.10714286       0.33333333 </v>
   <v>       0.35000000       0.10714286       0.33333333 </v>
   <v>       0.45000000       0.10714286       0.33333333 </v>
   <v>       0.05000000       0.17857143       0.33333333 </v>
   <v>       0.15000000       0.17857143       0.33333333 </v>
   <v>       0.25000000       0.17857143       0.33333333 </v>
   <v>       0.35000000       0.17857143       0.33333333 </v>
   <v>       0.45000000       0.17857143       0.33333333 </v>
   <v>       0.05000000       0.25000000       0.33333333 </v>
   <v>       0.15000000       0.25000000       0.33333333 </v>
   <v>       0.25000000       0.25000000       0.33333333 </v>
   <v>       0.35000000       0.25000000       0.33333333 </v>
   <v>       0.45000000       0.25000000       0.33333333 </v>
   <v>       0.05000000       0.32142857       0.33333333 </v>
   <v>       0.15000000       0.32142857       0.33333333 </v>
   <v>       0.25000000       0.32142857       0.33333333 </v>
   <v>       0.35000000       0.32142857       0.33333333 </v>
   <v>       0.45000000       0.32142857       0.33333333 </v>
   <v>       0.05000000       0.39285714       0.33333333 </v>
   <v>       0.15000000       0.39285714       0.33333333 </v>
   <v>       0.25000000       0.39285714       0.33333333 </v>
   <v>       0.35000000       0.39285714       0.33333333 </v>
   <v>       0.45000000       0.39285714       0.33333333 </v>
   <v>       0.05000000       0.46428571       0.33333333 </v>
   <v>       0.15000000       0.46428571       0.33333333 </v>
   <v>       0.25000000       0.46428571       0.33333333 </v>
   <v>       0.35000000       0.46428571       0.33333333 </v>
   <v>       0.45000000       0.46428571       0.33333333 </v>
   <v>       0.05000000       0.03571429       0.44444444 </v>
   <v>       0.15000000       0.03571429       0.44444444 </v>
   <v>       0.25000000       0.03571429       0.44444444 </v>
   <v>       0.35000000       0.03571429       0.44444444 </v>
   <v>       0.45000000       0.03571429       0.44444444 </v>
   <v>       0.05000000       0.10714286       0.44444444 </v>
   <v>       0.15000000       0.10714286       0.44444444 </v>
   <v>       0.25000000       0.10714286       0.44444444 </v>
   <v>       0.35000000       0.10714286       0.44444444 </v>
   <v>       0.45000000       0.10714286       0.44444444 </v>
   <v>       0.05000000       0.17857143       0.44444444 </v>
   <v>       0.15000000       0.17857143       0.44444444 </v>
   <v>       0.25000000       0.17857143       0.44444444 </v>
   <v>       0.35000000       0.17857143       0.44444444 </v>
   <v>       0.45000000       0.17857143       0.44444444 </v>
   <v>       0.05000000       0.25000000       0.44444444 </v>
   <v>       0.15000000       0.25000000       0.44444444 </v>
   <v>       0.25000000       0.25000000       0.44444444 </v>
   <v>       0.35000000       0.25000000       0.44444444 </v>
   <v>       0.45000000       0.25000000       0.44444444 </v>
   <v>       0.05000000       0.32142857       0.44444444 </v>
   <v>       0.15000000       0.32142857       0.44444444 </v>
   <v>       0.25000000       0.32142857       0.44444444 </v>
   <v>       0.35000000       0.32142857       0.44444444 </v>
   <v>       0.45000000       0.32142857       0.44444444 </v>
   <v>       0.05000000       0.39285714       0.44444444 </v>
   <v>       0.15000000       0.39285714       0.44444444 </v>
   <v>       0.25000000       0.39285714       0.44444444 </v>
   <v>       0.35000000       0.39285714       0.44444444 </v>
   <v>       0.45000000       0.39285714       0.44444444 </v>
   <v>       0.05000000       0.46428571       0.44444444 </v>
   <v>       0.15000000       0.46428571       0.44444444 </v>
   <v>       0.25000000       0.46428571       0.44444444 </v>
   <v>       0.35000000       0.46428571       0.44444444 </v>
   <v>       0.45000000       0.46428571       0.44444444 </v>
  </varray>
  <varray name="weights" >
   <v>       0.00317460 </v>
   <v>       0.00317460 </v>
   <v>       0.00317460 </v>
   <v>       0.00317460 </v>
   <v>       0.00317460 </v>
   <v>       0.00317460 </v>
   <v>       0.00317460 </v>
   <v>       0.00317460 </v>
   <v>       0.00317460 </v>
   <v>       0.00317460 </v>
   <v>       0.00317460 </v>
   <v>       0.00317460 </v>
   <v>       0.00317460 </v>
   <v>       0.00317460 </v>
   <v>       0.00317460 </v>
   <v>       0.00317460 </v>
   <v>       0.00317460 </v>
   <v>       0.00317460 </v>
   <v>       0.00317460 </v>
   <v>       0.00317460 </v>
   <v>       0.00317460 </v>
   <v>       0.00317460 </v>
   <v>       0.00317460 </v>
   <v>       0.00317460 </v>
   <v>       0.00317460 </v>
   <v>       0.00317460 </v>
   <v>       0.00317460 </v>
   <v>       0.00317460 </v>
   <v>       0.00317460 </v>
   <v>       0.00317460 </v>
   <v>       0.00317460 </v>
   <v>       0.00317460 </v>
   <v>       0.00317460 </v>
   <v>       0.00317460 </v>
   <v>       0.00317460 </v>
   <v>       0.00634921 </v>
   <v>       0.00634921 </v>
   <v>       0.00634921 </v>
   <v>       0.00634921 </v>
   <v>       0.00634921 </v>
   <v>       0.00634921 </v>
   <v>       0.00634921 </v>
   <v>       0.00634921 </v>
   <v>       0.00634921 </v>
   <v>       0.00634921 </v>
   <v>       0.00634921 </v>
   <v>       0.00634921 </v>
   <v>       0.00634921 </v>
   <v>       0.00634921 </v>
   <v>       0.00634921 </v>
   <v>       0.00634921 </v>
   <v>       0.00634921 </v>
   <v>       0.00634921 </v>
   <v>       0.00634921 </v>
   <v>       0.00634921 </v>
   <v>       0.00634921 </v>
   <v>       0.00634921 </v>
   <v>       0.00634921 </v>
   <v>       0.00634921 </v>
   <v>       0.00634921 </v>
   <v>       0.00634921 </v>
   <v>       0.00634921 </v>
   <v>       0.00634921 </v>
   <v>       0.00634921 </v>
   <v>       0.00634921 </v>
   <v>       0.00634921 </v>
   <v>       0.00634921 </v>
   <v>       0.00634921 </v>
   <v>       0.00634921 </v>
   <v>       0.00634921 </v>
   <v>       0.00634921 </v>
   <v>       0.00634921 </v>
   <v>       0.00634921 </v>
   <v>       0.00634921 </v>
   <v>       0.00634921 </v>
   <v>       0.00634921 </v>
   <v>       0.00634921 </v>
   <v>       0.00634921 </v>
   <v>       0.00634921 </v>
   <v>       0.00634921 </v>
   <v>       0.00634921 </v>
   <v>       0.00634921 </v>
   <v>       0.00634921 </v>
   <v>       0.00634921 </v>
   <v>       0.00634921 </v>
   <v>       0.00634921 </v>
   <v>       0.00634921 </v>
   <v>       0.00634921 </v>
   <v>       0.00634921 </v>
   <v>       0.00634921 </v>
   <v>       0.00634921 </v>
   <v>       0.00634921 </v>
   <v>       0.00634921 </v>
   <v>       0.00634921 </v>
   <v>       0.00634921 </v>
   <v>       0.00634921 </v>
   <v>       0.00634921 </v>
   <v>       0.00634921 </v>
   <v>       0.00634921 </v>
   <v>       0.00634921 </v>
   <v>       0.00634921 </v>
   <v>       0.00634921 </v>
   <v>       0.00634921 </v>
   <v>       0.00634921 </v>
   <v>       0.00634921 </v>
   <v>       0.00634921 </v>
   <v>       0.00634921 </v>
   <v>       0.00634921 </v>
   <v>       0.00634921 </v>
   <v>       0.00634921 </v>
   <v>       0.00634921 </v>
   <v>       0.00634921 </v>
   <v>       0.00634921 </v>
   <v>       0.00634921 </v>
   <v>       0.00634921 </v>
   <v>       0.00634921 </v>
   <v>       0.00634921 </v>
   <v>       0.00634921 </v>
   <v>       0.00634921 </v>
   <v>       0.00634921 </v>
   <v>       0.00634921 </v>
   <v>       0.00634921 </v>
   <v>       0.00634921 </v>
   <v>       0.00634921 </v>
   <v>       0.00634921 </v>
   <v>       0.00634921 </v>
   <v>       0.00634921 </v>
   <v>       0.00634921 </v>
   <v>       0.00634921 </v>
   <v>       0.00634921 </v>
   <v>       0.00634921 </v>
   <v>       0.00634921 </v>
   <v>       0.00634921 </v>
   <v>       0.00634921 </v>
   <v>       0.00634921 </v>
   <v>       0.00634921 </v>
   <v>       0.00634921 </v>
   <v>       0.00634921 </v>
   <v>       0.00634921 </v>
   <v>       0.00634921 </v>
   <v>       0.00634921 </v>
   <v>       0.00634921 </v>
   <v>       0.00634921 </v>
   <v>       0.00634921 </v>
   <v>       0.00634921 </v>
   <v>       0.00634921 </v>
   <v>       0.00634921 </v>
   <v>       0.00634921 </v>
   <v>       0.00634921 </v>
   <v>       0.00634921 </v>
   <v>       0.00634921 </v>
   <v>       0.00634921 </v>
   <v>       0.00634921 </v>
   <v>       0.00634921 </v>
   <v>       0.00634921 </v>
   <v>       0.00634921 </v>
   <v>       0.00634921 </v>
   <v>       0.00634921 </v>
   <v>       0.00634921 </v>
   <v>       0.00634921 </v>
   <v>       0.00634921 </v>
   <v>       0.00634921 </v>
   <v>       0.00634921 </v>
   <v>       0.00634921 </v>
   <v>       0.00634921 </v>
   <v>       0.00634921 </v>
   <v>       0.00634921 </v>
   <v>       0.00634921 </v>
   <v>       0.00634921 </v>
   <v>       0.00634921 </v>
   <v>       0.00634921 </v>
   <v>       0.00634921 </v>
   <v>       0.00634921 </v>
   <v>       0.00634921 </v>
   <v>       0.00634921 </v>
  </varray>
 </kpoints>
 <parameters>
  <separator name="general" >
   <i type="string" name="SYSTEM">Convergence</i>
   <i type="logical" name="LCOMPAT"> F  </i>
  </separator>
  <separator name="electronic" >
   <i type="string" name="PREC">accura</i>
   <i name="ENMAX">    580.00000000</i>
   <i name="ENAUG">    535.51400000</i>
   <i name="EDIFF">      0.00000100</i>
   <i type="int" name="IALGO">    38</i>
   <i type="int" name="IWAVPR">    10</i>
   <i type="int" name="NBANDS">    24</i>
   <i type="int" name="NBANDSLOW">    -1</i>
   <i type="int" name="NBANDSHIGH">    -1</i>
   <i name="NELECT">      3.00000000</i>
   <i type="int" name="TURBO">     0</i>
   <i type="int" name="IRESTART">     0</i>
   <i type="int" name="NREBOOT">     0</i>
   <i type="int" name="NMIN">     0</i>
   <i name="EREF">      0.00000000</i>
   <separator name="electronic smearing" >
    <i type="int" name="ISMEAR">     0</i>
    <i name="SIGMA">      0.05000000</i>
    <i name="KSPACING">      0.50000000</i>
    <i type="logical" name="KGAMMA"> T  </i>
    <i type="logical" name="KBLOWUP"> T  </i>
   </separator>
   <separator name="electronic projectors" >
    <i type="logical" name="LREAL"> F  </i>
    <v name="ROPT">      0.00000000</v>
    <i type="int" name="LMAXPAW">  -100</i>
    <i type="int" name="LMAXMIX">     2</i>
    <i type="logical" name="NLSPLINE"> F  </i>
   </separator>
   <separator name="electronic startup" >
    <i type="int" name="ISTART">     0</i>
    <i type="int" name="ICHARG">     2</i>
    <i type="int" name="INIWAV">     1</i>
   </separator>
   <separator name="electronic spin" >
    <i type="int" name="ISPIN">     1</i>
    <i type="logical" name="LNONCOLLINEAR"> F  </i>
    <v name="MAGMOM">      1.00000000</v>
    <i name="NUPDOWN">     -1.00000000</i>
    <i type="logical" name="LSORBIT"> F  </i>
    <v name="SAXIS">      0.00000000      0.00000000      1.00000000</v>
    <i type="logical" name="LSPIRAL"> F  </i>
    <v name="QSPIRAL">      0.00000000      0.00000000      0.00000000</v>
    <i type="logical" name="LZEROZ"> F  </i>
   </separator>
   <separator name="electronic exchange-correlation" >
    <i type="logical" name="LASPH"> F  </i>
   </separator>
   <separator name="electronic convergence" >
    <i type="int" name="NELM">   100</i>
    <i type="int" name="NELMDL">    -5</i>
    <i type="int" name="NELMIN">     2</i>
    <i name="ENINI">    580.00000000</i>
    <separator name="electronic convergence detail" >
     <i type="logical" name="LDIAG"> T  </i>
     <i type="logical" name="LSUBROT"> F  </i>
     <i name="WEIMIN">      0.00000000</i>
     <i name="EBREAK">      0.00000001</i>
     <i name="DEPER">      0.30000000</i>
     <i type="int" name="NRMM">     4</i>
     <i name="TIME">      0.40000000</i>
    </separator>
   </separator>
   <separator name="electronic mixer" >
    <i name="AMIX">      0.40000000</i>
    <i name="BMIX">      1.00000000</i>
    <i name="AMIN">      0.10000000</i>
    <i name="AMIX_MAG">      1.60000000</i>
    <i name="BMIX_MAG">      1.00000000</i>
    <separator name="electronic mixer details" >
     <i type="int" name="IMIX">     4</i>
     <i type="logical" name="MIXFIRST"> F  </i>
     <i type="int" name="MAXMIX">   -45</i>
     <i name="WC">    100.00000000</i>
     <i type="int" name="INIMIX">     1</i>
     <i type="int" name="MIXPRE">     1</i>
     <i type="int" name="MREMOVE">     5</i>
    </separator>
   </separator>
   <separator name="electronic dipolcorrection" >
    <i type="logical" name="LDIPOL"> F  </i>
    <i type="logical" name="LMONO"> F  </i>
    <i type="int" name="IDIPOL">     0</i>
    <i name="EPSILON">      1.00000000</i>
    <v name="DIPOL">   -100.00000000   -100.00000000   -100.00000000</v>
    <i name="EFIELD">      0.00000000</i>
    <i type="logical" name="LVACPOTAV"> F  </i>
   </separator>
  </separator>
  <separator name="grids" >
   <i type="int" name="NGX">   120</i>
   <i type="int" name="NGY">    98</i>
   <i type="int" name="NGZ">   144</i>
   <i type="int" name="NGXF">   240</i>
   <i type="int" name="NGYF">   196</i>
   <i type="int" name="NGZF">   288</i>
   <i type="logical" name="ADDGRID"> F  </i>
  </separator>
  <separator name="ionic" >
   <i type="int" name="NSW">     0</i>
   <i type="int" name="IBRION">    -1</i>
   <i type="int" name="MDALGO">     0</i>
   <i type="int" name="ISIF">     2</i>
   <i name="PSTRESS">      0.00000000</i>
   <i name="EDIFFG">     -0.00100000</i>
   <i type="int" name="NFREE">     0</i>
   <i name="POTIM">      0.50000000</i>
   <i name="SMASS">     -3.00000000</i>
   <i name="SCALEE">      1.00000000</i>
  </separator>
  <separator name="ionic md" >
   <i name="TEBEG">      0.00010000</i>
   <i name="TEEND">      0.00010000</i>
   <i type="int" name="NBLOCK">     1</i>
   <i type="int" name="KBLOCK">     1</i>
   <i type="int" name="NPACO">   256</i>
   <i name="APACO">     10.00000000</i>
  </separator>
  <separator name="symmetry" >
   <i type="int" name="ISYM">     2</i>
   <i name="SYMPREC">      0.00001000</i>
  </separator>
  <separator name="dos" >
   <i type="int" name="LORBIT">     0</i>
   <v name="RWIGS">     -1.00000000</v>
   <i type="int" name="NEDOS">   301</i>
   <i name="EMIN">     10.00000000</i>
   <i name="EMAX">    -10.00000000</i>
   <i name="EFERMI">      0.00000000</i>
  </separator>
  <separator name="writing" >
   <i type="int" name="NWRITE">     2</i>
   <i type="logical" name="LWAVE"> F  </i>
   <i type="logical" name="LDOWNSAMPLE"> F  </i>
   <i type="logical" name="LCHARG"> F  </i>
   <i type="logical" name="LPARD"> F  </i>
   <i type="logical" name="LVTOT"> F  </i>
   <i type="logical" name="LVHAR"> F  </i>
   <i type="logical" name="LELF"> F  </i>
   <i type="logical" name="LOPTICS"> F  </i>
   <v name="STM">      0.00000000      0.00000000      0.00000000      0.00000000      0.00000000      0.00000000      0.00000000</v>
  </separator>
  <separator name="performance" >
   <i type="int" name="NPAR">    24</i>
   <i type="int" name="NSIM">     4</i>
   <i type="int" name="NBLK">    -1</i>
   <i type="logical" name="LPLANE"> T  </i>
   <i type="logical" name="LSCALAPACK"> T  </i>
   <i type="logical" name="LSCAAWARE"> F  </i>
   <i type="logical" name="LSCALU"> F  </i>
   <i type="logical" name="LASYNC"> F  </i>
   <i type="logical" name="LORBITALREAL"> F  </i>
  </separator>
  <separator name="miscellaneous" >
   <i type="int" name="IDIOT">     3</i>
   <i type="int" name="PHON_NSTRUCT">    -1</i>
   <i type="logical" name="LMUSIC"> F  </i>
   <v name="POMASS">     10.81100000</v>
   <v name="DARWINR">      0.00000000</v>
   <v name="DARWINV">      1.00000000</v>
   <i type="logical" name="LCORR"> T  </i>
  </separator>
  <i type="logical" name="GGA_COMPAT"> T  </i>
  <i type="logical" name="LBERRY"> F  </i>
  <i type="int" name="ICORELEVEL">     0</i>
  <i type="logical" name="LDAU"> F  </i>
  <i type="int" name="I_CONSTRAINED_M">     0</i>
  <separator name="electronic exchange-correlation" >
   <i type="string" name="GGA    ">PE</i>
   <i type="string" name="XC_C">1</i>
   <i type="int" name="VOSKOWN">     0</i>
   <i type="logical" name="LHFCALC"> F  </i>
   <i type="string" name="PRECFOCK"></i>
   <i type="logical" name="LSYMGRAD"> F  </i>
   <i type="logical" name="LHFONE"> F  </i>
   <i type="logical" name="LRHFCALC"> F  </i>
   <i type="logical" name="LTHOMAS"> F  </i>
   <i type="logical" name="LMODELHF"> F  </i>
   <i type="logical" name="LFOCKACE"> F  </i>
   <i name="ENCUT4O">     -1.00000000</i>
   <i type="int" name="EXXOEP">     0</i>
   <i type="int" name="FOURORBIT">     0</i>
   <i name="AEXX">      0.00000000</i>
   <i name="HFALPHA">      0.00000000</i>
   <i name="MCALPHA">      0.00000000</i>
   <i name="ALDAX">      1.00000000</i>
   <i name="AGGAX">      1.00000000</i>
   <i name="AMGGAX">      1.00000000</i>
   <i name="ALDAC">      1.00000000</i>
   <i name="AGGAC">      1.00000000</i>
   <i name="AMGGAC">      1.00000000</i>
   <i type="int" name="NKREDX">     1</i>
   <i type="int" name="NKREDY">     1</i>
   <i type="int" name="NKREDZ">     1</i>
   <i type="logical" name="SHIFTRED"> F  </i>
   <i type="logical" name="ODDONLY"> F  </i>
   <i type="logical" name="EVENONLY"> F  </i>
   <i type="int" name="LMAXFOCK">     0</i>
   <i type="int" name="NMAXFOCKAE">     0</i>
   <i type="logical" name="LFOCKAEDFT"> F  </i>
   <i name="HFSCREEN">      0.00000000</i>
   <i name="HFSCREENC">      0.00000000</i>
   <i type="int" name="NBANDSGWLOW">     0</i>
  </separator>
  <separator name="vdW DFT" >
   <i type="logical" name="LUSE_VDW"> F  </i>
   <i type="int" name="IVDW_NL">    -1</i>
   <i type="logical" name="LSPIN_VDW"> F  </i>
   <i name="ZAB_VDW">     -0.84910000</i>
   <i name="GAMMA_VDW">      1.39626340</i>
   <i name="ALPHA_VDW">      0.00000000</i>
   <i name="PARAM1">      0.12340000</i>
   <i name="PARAM2">      1.00000000</i>
   <i name="BPARAM">      6.30000000</i>
   <i name="CPARAM">      0.00930000</i>
  </separator>
  <separator name="model GW" >
   <i type="int" name="MODEL_GW">     0</i>
   <i name="MODEL_EPS0">   2025.00000000</i>
   <i name="MODEL_ALPHA">      1.00000000</i>
  </separator>
  <separator name="linear response parameters" >
   <i type="logical" name="LEPSILON"> F  </i>
   <i type="logical" name="LRPA"> F  </i>
   <i type="logical" name="LNABLA"> F  </i>
   <i type="logical" name="LVEL"> F  </i>
   <i name="CSHIFT">      0.10000000</i>
   <i name="OMEGAMAX">     -1.00000000</i>
   <i name="DEG_THRESHOLD">      0.00200000</i>
   <i name="RTIME">     -0.10000000</i>
   <i name="WPLASMAI">      0.00000000</i>
   <v name="DFIELD">      0.00000000      0.00000000      0.00000000</v>
   <v name="WPLASMA">      0.00000000      0.00000000      0.00000000      0.00000000      0.00000000      0.00000000      0.00000000      0.00000000      0.00000000</v>
  </separator>
  <separator name="orbital magnetization" >
   <i type="logical" name="NUCIND"> F  </i>
   <v name="MAGPOS">      0.00000000      0.00000000      0.00000000</v>
   <i type="logical" name="LNICSALL"> T  </i>
   <i type="logical" name="ORBITALMAG"> F  </i>
   <i type="logical" name="LMAGBLOCH"> F  </i>
   <i type="logical" name="LCHIMAG"> F  </i>
   <i type="logical" name="LGAUGE"> T  </i>
   <i type="int" name="MAGATOM">     0</i>
   <v name="MAGDIPOL">      0.00000000      0.00000000      0.00000000</v>
   <v name="AVECCONST">      0.00000000      0.00000000      0.00000000</v>
  </separator>
  <separator name="response functions" >
   <i type="logical" name="LALL_IN_ONE"> F  </i>
   <i type="int" name="IALL_IN_ONE">    -1</i>
   <i type="int" name="NBANDS_WAVE">    -1</i>
   <i type="logical" name="LFINITE_TEMPERATURE"> F  </i>
   <i type="logical" name="LADDER"> F  </i>
   <i type="logical" name="LRPAFORCE"> F  </i>
   <i type="logical" name="LFXC"> F  </i>
   <i type="logical" name="LHARTREE"> T  </i>
   <i type="int" name="IBSE">     0</i>
   <v type="int" name="KPOINT">    -1     0     0     0</v>
   <i type="logical" name="LTCTC"> F  </i>
   <i type="logical" name="LTCTE"> F  </i>
   <i type="logical" name="LTETE"> F  </i>
   <i type="logical" name="LTRIPLET"> F  </i>
   <i type="logical" name="LFXCEPS"> F  </i>
   <i type="logical" name="LFXHEG"> F  </i>
   <i type="int" name="NATURALO">     2</i>
   <i type="logical" name="LHOLEGF"> F  </i>
   <i type="logical" name="L2ORDER"> F  </i>
   <i type="logical" name="LDMP1"> F  </i>
   <i type="logical" name="LMP2LT"> F  </i>
   <i type="logical" name="LSMP2LT"> F  </i>
   <i type="logical" name="LGWLF"> F  </i>
   <i name="ENCUTGW">     -1.60000002</i>
   <i name="ENCUTGWSOFT">     -1.60000002</i>
   <i name="ENCUTLF">     -1.00000000</i>
   <i type="logical" name="ESF_SPLINES"> F  </i>
   <i name="ESF_CONV">      0.01000000</i>
   <i type="int" name="ESF_NINTER">    15</i>
   <i type="int" name="LMAXMP2">    -1</i>
   <i name="SCISSOR">      0.00000000</i>
   <i type="int" name="NOMEGA">     0</i>
   <i type="int" name="NOMEGAR">     0</i>
   <i type="int" name="NBANDSGW">    -1</i>
   <i type="int" name="NBANDSO">    -1</i>
   <i type="int" name="NBANDSV">    -1</i>
   <i type="int" name="NELMGW">     1</i>
   <i type="int" name="NELMHF">     1</i>
   <i type="int" name="DIM">     3</i>
   <i type="int" name="IESPILON">     4</i>
   <i type="int" name="ANTIRES">     0</i>
   <i name="OMEGAMAX">    -30.00000000</i>
   <i name="OMEGAMIN">    -30.00000000</i>
   <i name="OMEGATL">   -200.00000000</i>
   <i type="int" name="OMEGAGRID">     0</i>
   <i name="CSHIFT">     -0.10000000</i>
   <i type="logical" name="LSELFENERGY"> F  </i>
   <i type="logical" name="LSPECTRAL"> F  </i>
   <i type="logical" name="LSPECTRALGW"> F  </i>
   <i type="logical" name="LSINGLES"> F  </i>
   <i type="logical" name="LFERMIGW"> F  </i>
   <i type="logical" name="ODDONLYGW"> F  </i>
   <i type="logical" name="EVENONLYGW"> F  </i>
   <i type="int" name="NKREDLFX">     1</i>
   <i type="int" name="NKREDLFY">     1</i>
   <i type="int" name="NKREDLFZ">     1</i>
   <i type="int" name="MAXMEM">  2800</i>
   <i type="int" name="TELESCOPE">     0</i>
   <i type="int" name="NTAUPAR">    -1</i>
   <i type="int" name="NOMEGAPAR">    -1</i>
   <i name="DAMP_NEWTON">      0.80000001</i>
   <i name="LAMBDA">      1.00000000</i>
  </separator>
  <separator name="External order field" >
   <i name="OFIELD_KAPPA">      0.00000000</i>
   <v name="OFIELD_K">      0.00000000      0.00000000      0.00000000</v>
   <i name="OFIELD_Q6_NEAR">      0.00000000</i>
   <i name="OFIELD_Q6_FAR">      0.00000000</i>
   <i name="OFIELD_A">      0.00000000</i>
  </separator>
  <separator name="optional k-points parameters" >
   <i type="int" name="KPOINTS_OPT_MODE">     1</i>
   <i type="logical" name="LKPOINTS_OPT"> F  </i>
  </separator>
 </parameters>
 <atominfo>
  <atoms>       1 </atoms>
  <types>       1 </types>
  <array name="atoms" >
   <dimension dim="1">ion</dimension>
   <field type="string">element</field>
   <field type="int">atomtype</field>
   <set>
    <rc><c>B </c><c>   1</c></rc>
   </set>
  </array>
  <array name="atomtypes" >
   <dimension dim="1">type</dimension>
   <field type="int">atomspertype</field>
   <field type="string">element</field>
   <field>mass</field>
   <field>valence</field>
   <field type="string">pseudopotential</field>
   <set>
    <rc><c>   1</c><c>B </c><c>     10.81100000</c><c>      3.00000000</c><c>  PAW_PBE B 06Sep2000                   </c></rc>
   </set>
  </array>
 </atominfo>
 <structure name="initialpos" >
  <crystal>
   <varray name="basis" >
    <v>      15.00000000       0.00000000       0.00000000 </v>
    <v>       0.00000000      12.50000000       0.00000000 </v>
    <v>       0.00000000       0.00000000      18.00000000 </v>
   </varray>
   <i name="volume">   3375.00000000 </i>
   <varray name="rec_basis" >
    <v>       0.06666667       0.00000000       0.00000000 </v>
    <v>       0.00000000       0.08000000       0.00000000 </v>
    <v>       0.00000000       0.00000000       0.05555556 </v>
   </varray>
  </crystal>
  <varray name="positions" >
   <v>       0.52123000       0.54500000       0.63796000 </v>
  </varray>
 </structure>
 <calculation>
  <scstep>
   <time name="dav">   66.21   66.67</time>
   <time name="total">   66.77   67.23</time>
   <energy>
    <i name="alphaZ">      0.02038373 </i>
    <i name="ewald">    -11.82901664 </i>
    <i name="hartreedc">    -42.58396533 </i>
    <i name="XCdc">      4.75549674 </i>
    <i name="pawpsdc">     43.49986551 </i>
    <i name="pawaedc">    -42.64454556 </i>
    <i name="eentropy">     -0.00995686 </i>
    <i name="bandstr">    -14.47256608 </i>
    <i name="atom">     71.16951584 </i>
    <i name="e_fr_energy">      7.90521134 </i>
    <i name="e_wo_entrp">      7.91516821 </i>
    <i name="e_0_energy">      7.91018977 </i>
   </energy>
  </scstep>
  <scstep>
   <time name="dav">  105.71  106.14</time>
   <time name="total">  105.71  106.14</time>
   <energy>
    <i name="e_fr_energy">      0.09866187 </i>
    <i name="e_wo_entrp">      0.12784319 </i>
    <i name="e_0_energy">      0.11325253 </i>
   </energy>
  </scstep>
  <scstep>
   <time name="dav">   65.40   65.77</time>
   <time name="total">   65.41   65.77</time>
   <energy>
    <i name="e_fr_energy">     -0.05510851 </i>
    <i name="e_wo_entrp">     -0.00221577 </i>
    <i name="e_0_energy">     -0.02866214 </i>
   </energy>
  </scstep>
  <scstep>
   <time name="dav">   67.60   68.31</time>
   <time name="total">   67.60   68.31</time>
   <energy>
    <i name="e_fr_energy">     -0.05822117 </i>
    <i name="e_wo_entrp">     -0.00521985 </i>
    <i name="e_0_energy">     -0.03172051 </i>
   </energy>
  </scstep>
  <scstep>
   <time name="dav">   91.05   91.45</time>
   <time name="total">   95.17   95.58</time>
   <energy>
    <i name="e_fr_energy">     -0.05825690 </i>
    <i name="e_wo_entrp">     -0.00525556 </i>
    <i name="e_0_energy">     -0.03175623 </i>
   </energy>
  </scstep>
  <scstep>
   <time name="dav">   80.69   81.11</time>
   <time name="total">   81.35   81.76</time>
   <energy>
    <i name="alphaZ">      0.02038373 </i>
    <i name="ewald">    -11.82901664 </i>
    <i name="hartreedc">    -42.58415168 </i>
    <i name="XCdc">      4.75547324 </i>
    <i name="pawpsdc">     43.56950993 </i>
    <i name="pawaedc">    -42.71422833 </i>
    <i name="eentropy">     -0.05300134 </i>
    <i name="bandstr">    -22.39274127 </i>
    <i name="atom">     71.16951584 </i>
    <i name="e_fr_energy">     -0.05825652 </i>
    <i name="e_wo_entrp">     -0.00525517 </i>
    <i name="e_0_energy">     -0.03175585 </i>
   </energy>
  </scstep>
  <structure>
   <crystal>
    <varray name="basis" >
     <v>      15.00000000       0.00000000       0.00000000 </v>
     <v>       0.00000000      12.50000000       0.00000000 </v>
     <v>       0.00000000       0.00000000      18.00000000 </v>
    </varray>
    <i name="volume">   3375.00000000 </i>
    <varray name="rec_basis" >
     <v>       0.06666667       0.00000000       0.00000000 </v>
     <v>       0.00000000       0.08000000       0.00000000 </v>
     <v>       0.00000000       0.00000000       0.05555556 </v>
    </varray>
   </crystal>
   <varray name="positions" >
    <v>       0.52123000       0.54500000       0.63796000 </v>
   </varray>
  </structure>
  <varray name="forces" >
   <v>      -0.00000000      -0.00000000      -0.00000000 </v>
  </varray>
  <varray name="stress" >
   <v>      -0.00050845      -0.00000000       0.00000000 </v>
   <v>       0.00000000      -0.00050048       0.00000000 </v>
   <v>       0.00000000       0.00000000      -0.00050282 </v>
  </varray>
  <energy>
   <i name="e_fr_energy">     -0.05825652 </i>
   <i name="e_wo_entrp">     -0.00525517 </i>
   <i name="e_0_energy">     -0.03175585 </i>
  </energy>
  <time name="totalsc">  548.86  551.73</time>
  <eigenvalues>
   <array>
    <dimension dim="1">band</dimension>
    <dimension dim="2">kpoint</dimension>
    <dimension dim="3">spin</dimension>
    <field>eigene</field>
    <field>occ</field>
    <set>
     <set comment="spin 1">
      <set comment="kpoint 1">
       <r>   -9.4099    1.0000 </r>
       <r>   -3.5729    0.1667 </r>
       <r>   -3.5729    0.1667 </r>
       <r>   -3.5728    0.1659 </r>
       <r>   -0.2619    0.0000 </r>
       <r>    0.2943    0.0000 </r>
       <r>    0.3095    0.0000 </r>
       <r>    0.4391    0.0000 </r>
       <r>    0.5734    0.0000 </r>
       <r>    0.6865    0.0000 </r>
       <r>    0.8286    0.0000 </r>
       <r>    0.9105    0.0000 </r>
       <r>    0.9439    0.0000 </r>
       <r>    1.0356    0.0000 </r>
       <r>    1.0786    0.0000 </r>
       <r>    1.1737    0.0000 </r>
       <r>    1.2085    0.0000 </r>
       <r>    1.2893    0.0000 </r>
       <r>    1.3344    0.0000 </r>
       <r>    1.3522    0.0000 </r>
       <r>    1.4278    0.0000 </r>
       <r>    1.4983    0.0000 </r>
       <r>    1.5760    0.0000 </r>
       <r>    1.7076    0.0000 </r>
      </set>
      <set comment="kpoint 2">
       <r>   -9.4099    1.0000 </r>
       <r>   -3.5729    0.1667 </r>
       <r>   -3.5729    0.1667 </r>
       <r>   -3.5728    0.1659 </r>
       <r>   -0.2521    0.0000 </r>
       <r>    0.2689    0.0000 </r>
       <r>    0.3208    0.0000 </r>
       <r>    0.3735    0.0000 </r>
       <r>    0.6892    0.0000 </r>
       <r>    0.7078    0.0000 </r>
       <r>    0.8007    0.0000 </r>
       <r>    0.8303    0.0000 </r>
       <r>    0.8412    0.0000 </r>
       <r>    1.1517    0.0000 </r>
       <r>    1.1647    0.0000 </r>
       <r>    1.1975    0.0000 </r>
       <r>    1.2194    0.0000 </r>
       <r>    1.2568    0.0000 </r>
       <r>    1.3317    0.0000 </r>
       <r>    1.3511    0.0000 </r>
       <r>    1.3878    0.0000 </r>
       <r>    1.5764    0.0000 </r>
       <r>    1.6375    0.0000 </r>
       <r>    1.6876    0.0000 </r>
      </set>
      <set comment="kpoint 3">
       <r>   -9.4099    1.0000 </r>
       <r>   -3.5729    0.1667 </r>
       <r>   -3.5729    0.1667 </r>
       <r>   -3.5728    0.1659 </r>
       <r>   -0.2339    0.0000 </r>
       <r>    0.1991    0.0000 </r>
       <r>    0.3424    0.0000 </r>
       <r>    0.3754    0.0000 </r>
       <r>    0.7038    0.0000 </r>
       <r>    0.7114    0.0000 </r>
       <r>    0.7157    0.0000 </r>
       <r>    0.8543    0.0000 </r>
       <r>    0.8720    0.0000 </r>
       <r>    1.0894    0.0000 </r>
       <r>    1.1934    0.0000 </r>
       <r>    1.2338    0.0000 </r>
       <r>    1.2729    0.0000 </r>
       <r>    1.2953    0.0000 </r>
       <r>    1.3875    0.0000 </r>
       <r>    1.3985    0.0000 </r>
       <r>    1.4059    0.0000 </r>
       <r>    1.5960    0.0000 </r>
       <r>    1.5966    0.0000 </r>
       <r>    1.6493    0.0000 </r>
      </set>
      <set comment="kpoint 4">
       <r>   -9.4099    1.0000 </r>
       <r>   -3.5729    0.1668 </r>
       <r>   -3.5729    0.1667 </r>
       <r>   -3.5728    0.1659 </r>
       <r>   -0.2117    0.0000 </r>
       <r>    0.1312    0.0000 </r>
       <r>    0.3715    0.0000 </r>
       <r>    0.4067    0.0000 </r>
       <r>    0.6242    0.0000 </r>
       <r>    0.6267    0.0000 </r>
       <r>    0.7393    0.0000 </r>
       <r>    0.8871    0.0000 </r>
       <r>    1.0010    0.0000 </r>
       <r>    1.0402    0.0000 </r>
       <r>    1.1667    0.0000 </r>
       <r>    1.2194    0.0000 </r>
       <r>    1.3070    0.0000 </r>
       <r>    1.3626    0.0000 </r>
       <r>    1.4361    0.0000 </r>
       <r>    1.4849    0.0000 </r>
       <r>    1.5053    0.0000 </r>
       <r>    1.5452    0.0000 </r>
       <r>    1.5589    0.0000 </r>
       <r>    1.6049    0.0000 </r>
      </set>
      <set comment="kpoint 5">
       <r>   -9.4099    1.0000 </r>
       <r>   -3.5729    0.1668 </r>
       <r>   -3.5729    0.1667 </r>
       <r>   -3.5728    0.1659 </r>
       <r>   -0.1946    0.0000 </r>
       <r>    0.0900    0.0000 </r>
       <r>    0.3980    0.0000 </r>
       <r>    0.4449    0.0000 </r>
       <r>    0.5610    0.0000 </r>
       <r>    0.5723    0.0000 </r>
       <r>    0.7596    0.0000 </r>
       <r>    0.9121    0.0000 </r>
       <r>    0.9705    0.0000 </r>
       <r>    1.1010    0.0000 </r>
       <r>    1.2118    0.0000 </r>
       <r>    1.2392    0.0000 </r>
       <r>    1.3416    0.0000 </r>
       <r>    1.4034    0.0000 </r>
       <r>    1.4036    0.0000 </r>
       <r>    1.4481    0.0000 </r>
       <r>    1.4532    0.0000 </r>
       <r>    1.5155    0.0000 </r>
       <r>    1.5807    0.0000 </r>
       <r>    1.5832    0.0000 </r>
      </set>
      <set comment="kpoint 6">
       <r>   -9.4099    1.0000 </r>
       <r>   -3.5729    0.1667 </r>
       <r>   -3.5729    0.1667 </r>
       <r>   -3.5728    0.1660 </r>
       <r>   -0.2528    0.0000 </r>
       <r>    0.3024    0.0000 </r>
       <r>    0.3185    0.0000 </r>
       <r>    0.4480    0.0000 </r>
       <r>    0.5618    0.0000 </r>
       <r>    0.5919    0.0000 </r>
       <r>    0.9180    0.0000 </r>
       <r>    0.9462    0.0000 </r>
       <r>    0.9637    0.0000 </r>
       <r>    1.0248    0.0000 </r>
       <r>    1.0845    0.0000 </r>
       <r>    1.0871    0.0000 </r>
       <r>    1.0955    0.0000 </r>
       <r>    1.1889    0.0000 </r>
       <r>    1.3339    0.0000 </r>
       <r>    1.4557    0.0000 </r>
       <r>    1.4930    0.0000 </r>
       <r>    1.5842    0.0000 </r>
       <r>    1.6378    0.0000 </r>
       <r>    1.6792    0.0000 </r>
      </set>
      <set comment="kpoint 7">
       <r>   -9.4099    1.0000 </r>
       <r>   -3.5729    0.1667 </r>
       <r>   -3.5729    0.1667 </r>
       <r>   -3.5728    0.1660 </r>
       <r>   -0.2430    0.0000 </r>
       <r>    0.2774    0.0000 </r>
       <r>    0.3297    0.0000 </r>
       <r>    0.3824    0.0000 </r>
       <r>    0.5787    0.0000 </r>
       <r>    0.7120    0.0000 </r>
       <r>    0.8094    0.0000 </r>
       <r>    0.8402    0.0000 </r>
       <r>    0.9674    0.0000 </r>
       <r>    1.0588    0.0000 </r>
       <r>    1.0615    0.0000 </r>
       <r>    1.1356    0.0000 </r>
       <r>    1.1928    0.0000 </r>
       <r>    1.2341    0.0000 </r>
       <r>    1.4202    0.0000 </r>
       <r>    1.4658    0.0000 </r>
       <r>    1.4702    0.0000 </r>
       <r>    1.5584    0.0000 </r>
       <r>    1.5745    0.0000 </r>
       <r>    1.6048    0.0000 </r>
      </set>
      <set comment="kpoint 8">
       <r>   -9.4099    1.0000 </r>
       <r>   -3.5729    0.1667 </r>
       <r>   -3.5729    0.1667 </r>
       <r>   -3.5728    0.1660 </r>
       <r>   -0.2248    0.0000 </r>
       <r>    0.2081    0.0000 </r>
       <r>    0.3513    0.0000 </r>
       <r>    0.3841    0.0000 </r>
       <r>    0.5993    0.0000 </r>
       <r>    0.7129    0.0000 </r>
       <r>    0.7210    0.0000 </r>
       <r>    0.8739    0.0000 </r>
       <r>    0.9647    0.0000 </r>
       <r>    1.0029    0.0000 </r>
       <r>    1.0846    0.0000 </r>
       <r>    1.1520    0.0000 </r>
       <r>    1.3248    0.0000 </r>
       <r>    1.3500    0.0000 </r>
       <r>    1.3964    0.0000 </r>
       <r>    1.4685    0.0000 </r>
       <r>    1.4975    0.0000 </r>
       <r>    1.5092    0.0000 </r>
       <r>    1.5317    0.0000 </r>
       <r>    1.6319    0.0000 </r>
      </set>
      <set comment="kpoint 9">
       <r>   -9.4099    1.0000 </r>
       <r>   -3.5729    0.1668 </r>
       <r>   -3.5729    0.1667 </r>
       <r>   -3.5728    0.1660 </r>
       <r>   -0.2026    0.0000 </r>
       <r>    0.1405    0.0000 </r>
       <r>    0.3803    0.0000 </r>
       <r>    0.4152    0.0000 </r>
       <r>    0.6251    0.0000 </r>
       <r>    0.6335    0.0000 </r>
       <r>    0.6359    0.0000 </r>
       <r>    0.8938    0.0000 </r>
       <r>    1.0184    0.0000 </r>
       <r>    1.0392    0.0000 </r>
       <r>    1.1121    0.0000 </r>
       <r>    1.1875    0.0000 </r>
       <r>    1.2917    0.0000 </r>
       <r>    1.3685    0.0000 </r>
       <r>    1.3989    0.0000 </r>
       <r>    1.4848    0.0000 </r>
       <r>    1.5453    0.0000 </r>
       <r>    1.5513    0.0000 </r>
       <r>    1.5706    0.0000 </r>
       <r>    1.6405    0.0000 </r>
      </set>
      <set comment="kpoint 10">
       <r>   -9.4099    1.0000 </r>
       <r>   -3.5729    0.1668 </r>
       <r>   -3.5729    0.1667 </r>
       <r>   -3.5728    0.1660 </r>
       <r>   -0.1856    0.0000 </r>
       <r>    0.0994    0.0000 </r>
       <r>    0.4066    0.0000 </r>
       <r>    0.4533    0.0000 </r>
       <r>    0.5697    0.0000 </r>
       <r>    0.5819    0.0000 </r>
       <r>    0.6481    0.0000 </r>
       <r>    0.8499    0.0000 </r>
       <r>    1.0382    0.0000 </r>
       <r>    1.1353    0.0000 </r>
       <r>    1.1907    0.0000 </r>
       <r>    1.2303    0.0000 </r>
       <r>    1.2589    0.0000 </r>
       <r>    1.3313    0.0000 </r>
       <r>    1.3355    0.0000 </r>
       <r>    1.4197    0.0000 </r>
       <r>    1.5250    0.0000 </r>
       <r>    1.6421    0.0000 </r>
       <r>    1.6480    0.0000 </r>
       <r>    1.7062    0.0000 </r>
      </set>
      <set comment="kpoint 11">
       <r>   -9.4099    1.0000 </r>
       <r>   -3.5729    0.1667 </r>
       <r>   -3.5729    0.1666 </r>
       <r>   -3.5729    0.1663 </r>
       <r>   -0.2349    0.0000 </r>
       <r>    0.3154    0.0000 </r>
       <r>    0.3363    0.0000 </r>
       <r>    0.4610    0.0000 </r>
       <r>    0.4676    0.0000 </r>
       <r>    0.6044    0.0000 </r>
       <r>    0.9179    0.0000 </r>
       <r>    0.9546    0.0000 </r>
       <r>    0.9606    0.0000 </r>
       <r>    0.9743    0.0000 </r>
       <r>    1.0723    0.0000 </r>
       <r>    1.0794    0.0000 </r>
       <r>    1.1031    0.0000 </r>
       <r>    1.1347    0.0000 </r>
       <r>    1.2294    0.0000 </r>
       <r>    1.5462    0.0000 </r>
       <r>    1.5749    0.0000 </r>
       <r>    1.6086    0.0000 </r>
       <r>    1.6436    0.0000 </r>
       <r>    1.6602    0.0000 </r>
      </set>
      <set comment="kpoint 12">
       <r>   -9.4099    1.0000 </r>
       <r>   -3.5729    0.1667 </r>
       <r>   -3.5729    0.1667 </r>
       <r>   -3.5729    0.1663 </r>
       <r>   -0.2250    0.0000 </r>
       <r>    0.2926    0.0000 </r>
       <r>    0.3475    0.0000 </r>
       <r>    0.3990    0.0000 </r>
       <r>    0.4735    0.0000 </r>
       <r>    0.7289    0.0000 </r>
       <r>    0.8258    0.0000 </r>
       <r>    0.8567    0.0000 </r>
       <r>    0.9393    0.0000 </r>
       <r>    0.9579    0.0000 </r>
       <r>    1.0180    0.0000 </r>
       <r>    1.1273    0.0000 </r>
       <r>    1.2081    0.0000 </r>
       <r>    1.2528    0.0000 </r>
       <r>    1.3424    0.0000 </r>
       <r>    1.4516    0.0000 </r>
       <r>    1.4798    0.0000 </r>
       <r>    1.6101    0.0000 </r>
       <r>    1.6136    0.0000 </r>
       <r>    1.6741    0.0000 </r>
      </set>
      <set comment="kpoint 13">
       <r>   -9.4099    1.0000 </r>
       <r>   -3.5729    0.1667 </r>
       <r>   -3.5729    0.1667 </r>
       <r>   -3.5729    0.1663 </r>
       <r>   -0.2070    0.0000 </r>
       <r>    0.2258    0.0000 </r>
       <r>    0.3690    0.0000 </r>
       <r>    0.3982    0.0000 </r>
       <r>    0.4942    0.0000 </r>
       <r>    0.7309    0.0000 </r>
       <r>    0.7356    0.0000 </r>
       <r>    0.8571    0.0000 </r>
       <r>    0.9019    0.0000 </r>
       <r>    0.9779    0.0000 </r>
       <r>    1.0263    0.0000 </r>
       <r>    1.1480    0.0000 </r>
       <r>    1.3184    0.0000 </r>
       <r>    1.3459    0.0000 </r>
       <r>    1.3922    0.0000 </r>
       <r>    1.4075    0.0000 </r>
       <r>    1.5008    0.0000 </r>
       <r>    1.5549    0.0000 </r>
       <r>    1.6300    0.0000 </r>
       <r>    1.6903    0.0000 </r>
      </set>
      <set comment="kpoint 14">
       <r>   -9.4099    1.0000 </r>
       <r>   -3.5729    0.1667 </r>
       <r>   -3.5729    0.1667 </r>
       <r>   -3.5729    0.1663 </r>
       <r>   -0.1849    0.0000 </r>
       <r>    0.1589    0.0000 </r>
       <r>    0.3977    0.0000 </r>
       <r>    0.4281    0.0000 </r>
       <r>    0.5216    0.0000 </r>
       <r>    0.6512    0.0000 </r>
       <r>    0.6521    0.0000 </r>
       <r>    0.7870    0.0000 </r>
       <r>    1.0056    0.0000 </r>
       <r>    1.0504    0.0000 </r>
       <r>    1.0638    0.0000 </r>
       <r>    1.1732    0.0000 </r>
       <r>    1.2668    0.0000 </r>
       <r>    1.2732    0.0000 </r>
       <r>    1.4479    0.0000 </r>
       <r>    1.5158    0.0000 </r>
       <r>    1.5795    0.0000 </r>
       <r>    1.6033    0.0000 </r>
       <r>    1.6586    0.0000 </r>
       <r>    1.6816    0.0000 </r>
      </set>
      <set comment="kpoint 15">
       <r>   -9.4099    1.0000 </r>
       <r>   -3.5729    0.1667 </r>
       <r>   -3.5729    0.1667 </r>
       <r>   -3.5729    0.1663 </r>
       <r>   -0.1680    0.0000 </r>
       <r>    0.1182    0.0000 </r>
       <r>    0.4238    0.0000 </r>
       <r>    0.4645    0.0000 </r>
       <r>    0.5462    0.0000 </r>
       <r>    0.5862    0.0000 </r>
       <r>    0.6010    0.0000 </r>
       <r>    0.7397    0.0000 </r>
       <r>    1.0300    0.0000 </r>
       <r>    1.0937    0.0000 </r>
       <r>    1.1890    0.0000 </r>
       <r>    1.1950    0.0000 </r>
       <r>    1.2191    0.0000 </r>
       <r>    1.2495    0.0000 </r>
       <r>    1.3871    0.0000 </r>
       <r>    1.4592    0.0000 </r>
       <r>    1.6350    0.0000 </r>
       <r>    1.6927    0.0000 </r>
       <r>    1.7400    0.0000 </r>
       <r>    1.7650    0.0000 </r>
      </set>
      <set comment="kpoint 16">
       <r>   -9.4099    1.0000 </r>
       <r>   -3.5729    0.1667 </r>
       <r>   -3.5729    0.1667 </r>
       <r>   -3.5729    0.1666 </r>
       <r>   -0.2089    0.0000 </r>
       <r>    0.3074    0.0000 </r>
       <r>    0.3627    0.0000 </r>
       <r>    0.3992    0.0000 </r>
       <r>    0.4919    0.0000 </r>
       <r>    0.6316    0.0000 </r>
       <r>    0.8382    0.0000 </r>
       <r>    0.8579    0.0000 </r>
       <r>    0.9583    0.0000 </r>
       <r>    0.9701    0.0000 </r>
       <r>    1.0204    0.0000 </r>
       <r>    1.1026    0.0000 </r>
       <r>    1.1082    0.0000 </r>
       <r>    1.1507    0.0000 </r>
       <r>    1.2755    0.0000 </r>
       <r>    1.4612    0.0000 </r>
       <r>    1.4834    0.0000 </r>
       <r>    1.5837    0.0000 </r>
       <r>    1.6215    0.0000 </r>
       <r>    1.6943    0.0000 </r>
      </set>
      <set comment="kpoint 17">
       <r>   -9.4099    1.0000 </r>
       <r>   -3.5729    0.1667 </r>
       <r>   -3.5729    0.1667 </r>
       <r>   -3.5729    0.1666 </r>
       <r>   -0.1992    0.0000 </r>
       <r>    0.3005    0.0000 </r>
       <r>    0.3738    0.0000 </r>
       <r>    0.3842    0.0000 </r>
       <r>    0.4352    0.0000 </r>
       <r>    0.7517    0.0000 </r>
       <r>    0.8300    0.0000 </r>
       <r>    0.8329    0.0000 </r>
       <r>    0.8788    0.0000 </r>
       <r>    0.8925    0.0000 </r>
       <r>    0.9209    0.0000 </r>
       <r>    1.2217    0.0000 </r>
       <r>    1.2301    0.0000 </r>
       <r>    1.2791    0.0000 </r>
       <r>    1.2969    0.0000 </r>
       <r>    1.3557    0.0000 </r>
       <r>    1.3870    0.0000 </r>
       <r>    1.6933    0.0000 </r>
       <r>    1.6990    0.0000 </r>
       <r>    1.7461    0.0000 </r>
      </set>
      <set comment="kpoint 18">
       <r>   -9.4099    1.0000 </r>
       <r>   -3.5729    0.1667 </r>
       <r>   -3.5729    0.1667 </r>
       <r>   -3.5729    0.1667 </r>
       <r>   -0.1812    0.0000 </r>
       <r>    0.2498    0.0000 </r>
       <r>    0.3743    0.0000 </r>
       <r>    0.3951    0.0000 </r>
       <r>    0.4494    0.0000 </r>
       <r>    0.7276    0.0000 </r>
       <r>    0.7566    0.0000 </r>
       <r>    0.7957    0.0000 </r>
       <r>    0.8804    0.0000 </r>
       <r>    0.9225    0.0000 </r>
       <r>    0.9263    0.0000 </r>
       <r>    1.2406    0.0000 </r>
       <r>    1.2459    0.0000 </r>
       <r>    1.2910    0.0000 </r>
       <r>    1.3943    0.0000 </r>
       <r>    1.4188    0.0000 </r>
       <r>    1.4445    0.0000 </r>
       <r>    1.6750    0.0000 </r>
       <r>    1.7404    0.0000 </r>
       <r>    1.7409    0.0000 </r>
      </set>
      <set comment="kpoint 19">
       <r>   -9.4099    1.0000 </r>
       <r>   -3.5729    0.1667 </r>
       <r>   -3.5729    0.1667 </r>
       <r>   -3.5729    0.1667 </r>
       <r>   -0.1594    0.0000 </r>
       <r>    0.1860    0.0000 </r>
       <r>    0.3968    0.0000 </r>
       <r>    0.4235    0.0000 </r>
       <r>    0.4819    0.0000 </r>
       <r>    0.6502    0.0000 </r>
       <r>    0.6796    0.0000 </r>
       <r>    0.7137    0.0000 </r>
       <r>    0.9074    0.0000 </r>
       <r>    0.9573    0.0000 </r>
       <r>    1.0803    0.0000 </r>
       <r>    1.1652    0.0000 </r>
       <r>    1.1695    0.0000 </r>
       <r>    1.3201    0.0000 </r>
       <r>    1.5402    0.0000 </r>
       <r>    1.5435    0.0000 </r>
       <r>    1.5826    0.0000 </r>
       <r>    1.6489    0.0000 </r>
       <r>    1.6683    0.0000 </r>
       <r>    1.7678    0.0000 </r>
      </set>
      <set comment="kpoint 20">
       <r>   -9.4099    1.0000 </r>
       <r>   -3.5729    0.1667 </r>
       <r>   -3.5729    0.1667 </r>
       <r>   -3.5729    0.1667 </r>
       <r>   -0.1428    0.0000 </r>
       <r>    0.1461    0.0000 </r>
       <r>    0.4214    0.0000 </r>
       <r>    0.4489    0.0000 </r>
       <r>    0.5186    0.0000 </r>
       <r>    0.5931    0.0000 </r>
       <r>    0.6294    0.0000 </r>
       <r>    0.6572    0.0000 </r>
       <r>    0.9327    0.0000 </r>
       <r>    0.9977    0.0000 </r>
       <r>    1.0963    0.0000 </r>
       <r>    1.1146    0.0000 </r>
       <r>    1.2561    0.0000 </r>
       <r>    1.3417    0.0000 </r>
       <r>    1.4453    0.0000 </r>
       <r>    1.5796    0.0000 </r>
       <r>    1.6869    0.0000 </r>
       <r>    1.7218    0.0000 </r>
       <r>    1.7724    0.0000 </r>
       <r>    1.8014    0.0000 </r>
      </set>
      <set comment="kpoint 21">
       <r>   -9.4099    1.0000 </r>
       <r>   -3.5730    0.1670 </r>
       <r>   -3.5729    0.1666 </r>
       <r>   -3.5729    0.1666 </r>
       <r>   -0.1767    0.0000 </r>
       <r>    0.2430    0.0000 </r>
       <r>    0.3969    0.0000 </r>
       <r>    0.4135    0.0000 </r>
       <r>    0.5254    0.0000 </r>
       <r>    0.6674    0.0000 </r>
       <r>    0.7511    0.0000 </r>
       <r>    0.7621    0.0000 </r>
       <r>    0.8818    0.0000 </r>
       <r>    1.0024    0.0000 </r>
       <r>    1.0231    0.0000 </r>
       <r>    1.0498    0.0000 </r>
       <r>    1.1359    0.0000 </r>
       <r>    1.1806    0.0000 </r>
       <r>    1.3721    0.0000 </r>
       <r>    1.3751    0.0000 </r>
       <r>    1.4366    0.0000 </r>
       <r>    1.4973    0.0000 </r>
       <r>    1.5402    0.0000 </r>
       <r>    1.7312    0.0000 </r>
      </set>
      <set comment="kpoint 22">
       <r>   -9.4099    1.0000 </r>
       <r>   -3.5730    0.1670 </r>
       <r>   -3.5729    0.1666 </r>
       <r>   -3.5729    0.1666 </r>
       <r>   -0.1671    0.0000 </r>
       <r>    0.2518    0.0000 </r>
       <r>    0.3841    0.0000 </r>
       <r>    0.4078    0.0000 </r>
       <r>    0.4686    0.0000 </r>
       <r>    0.7278    0.0000 </r>
       <r>    0.7613    0.0000 </r>
       <r>    0.7954    0.0000 </r>
       <r>    0.8238    0.0000 </r>
       <r>    0.8962    0.0000 </r>
       <r>    0.9344    0.0000 </r>
       <r>    1.1479    0.0000 </r>
       <r>    1.2320    0.0000 </r>
       <r>    1.2741    0.0000 </r>
       <r>    1.2961    0.0000 </r>
       <r>    1.3214    0.0000 </r>
       <r>    1.4507    0.0000 </r>
       <r>    1.6337    0.0000 </r>
       <r>    1.6677    0.0000 </r>
       <r>    1.7385    0.0000 </r>
      </set>
      <set comment="kpoint 23">
       <r>   -9.4099    1.0000 </r>
       <r>   -3.5730    0.1670 </r>
       <r>   -3.5729    0.1666 </r>
       <r>   -3.5729    0.1666 </r>
       <r>   -0.1495    0.0000 </r>
       <r>    0.2584    0.0000 </r>
       <r>    0.3212    0.0000 </r>
       <r>    0.4288    0.0000 </r>
       <r>    0.4793    0.0000 </r>
       <r>    0.6515    0.0000 </r>
       <r>    0.7708    0.0000 </r>
       <r>    0.8130    0.0000 </r>
       <r>    0.8165    0.0000 </r>
       <r>    0.8291    0.0000 </r>
       <r>    0.9592    0.0000 </r>
       <r>    1.1519    0.0000 </r>
       <r>    1.1572    0.0000 </r>
       <r>    1.3095    0.0000 </r>
       <r>    1.4241    0.0000 </r>
       <r>    1.4501    0.0000 </r>
       <r>    1.4969    0.0000 </r>
       <r>    1.7326    0.0000 </r>
       <r>    1.7717    0.0000 </r>
       <r>    1.8186    0.0000 </r>
      </set>
      <set comment="kpoint 24">
       <r>   -9.4099    1.0000 </r>
       <r>   -3.5730    0.1670 </r>
       <r>   -3.5729    0.1667 </r>
       <r>   -3.5729    0.1666 </r>
       <r>   -0.1282    0.0000 </r>
       <r>    0.2196    0.0000 </r>
       <r>    0.3192    0.0000 </r>
       <r>    0.4565    0.0000 </r>
       <r>    0.5121    0.0000 </r>
       <r>    0.5769    0.0000 </r>
       <r>    0.7148    0.0000 </r>
       <r>    0.7323    0.0000 </r>
       <r>    0.8206    0.0000 </r>
       <r>    0.8620    0.0000 </r>
       <r>    1.0635    0.0000 </r>
       <r>    1.0722    0.0000 </r>
       <r>    1.1276    0.0000 </r>
       <r>    1.4385    0.0000 </r>
       <r>    1.5066    0.0000 </r>
       <r>    1.5763    0.0000 </r>
       <r>    1.6366    0.0000 </r>
       <r>    1.6696    0.0000 </r>
       <r>    1.8013    0.0000 </r>
       <r>    1.8328    0.0000 </r>
      </set>
      <set comment="kpoint 25">
       <r>   -9.4099    1.0000 </r>
       <r>   -3.5730    0.1670 </r>
       <r>   -3.5729    0.1667 </r>
       <r>   -3.5729    0.1666 </r>
       <r>   -0.1120    0.0000 </r>
       <r>    0.1827    0.0000 </r>
       <r>    0.3402    0.0000 </r>
       <r>    0.4811    0.0000 </r>
       <r>    0.5254    0.0000 </r>
       <r>    0.5526    0.0000 </r>
       <r>    0.6667    0.0000 </r>
       <r>    0.6674    0.0000 </r>
       <r>    0.8461    0.0000 </r>
       <r>    0.9028    0.0000 </r>
       <r>    1.0027    0.0000 </r>
       <r>    1.0197    0.0000 </r>
       <r>    1.2916    0.0000 </r>
       <r>    1.4547    0.0000 </r>
       <r>    1.5117    0.0000 </r>
       <r>    1.6434    0.0000 </r>
       <r>    1.7212    0.0000 </r>
       <r>    1.7379    0.0000 </r>
       <r>    1.8141    0.0000 </r>
       <r>    1.8340    0.0000 </r>
      </set>
      <set comment="kpoint 26">
       <r>   -9.4099    1.0000 </r>
       <r>   -3.5730    0.1673 </r>
       <r>   -3.5729    0.1666 </r>
       <r>   -3.5729    0.1666 </r>
       <r>   -0.1427    0.0000 </r>
       <r>    0.1759    0.0000 </r>
       <r>    0.4364    0.0000 </r>
       <r>    0.4558    0.0000 </r>
       <r>    0.5637    0.0000 </r>
       <r>    0.6753    0.0000 </r>
       <r>    0.6758    0.0000 </r>
       <r>    0.7101    0.0000 </r>
       <r>    0.8089    0.0000 </r>
       <r>    0.9457    0.0000 </r>
       <r>    1.0404    0.0000 </r>
       <r>    1.0935    0.0000 </r>
       <r>    1.1751    0.0000 </r>
       <r>    1.2272    0.0000 </r>
       <r>    1.2958    0.0000 </r>
       <r>    1.3001    0.0000 </r>
       <r>    1.4215    0.0000 </r>
       <r>    1.4302    0.0000 </r>
       <r>    1.6075    0.0000 </r>
       <r>    1.7763    0.0000 </r>
      </set>
      <set comment="kpoint 27">
       <r>   -9.4099    1.0000 </r>
       <r>   -3.5730    0.1673 </r>
       <r>   -3.5729    0.1666 </r>
       <r>   -3.5729    0.1666 </r>
       <r>   -0.1333    0.0000 </r>
       <r>    0.1869    0.0000 </r>
       <r>    0.4216    0.0000 </r>
       <r>    0.4471    0.0000 </r>
       <r>    0.5117    0.0000 </r>
       <r>    0.6509    0.0000 </r>
       <r>    0.6868    0.0000 </r>
       <r>    0.7375    0.0000 </r>
       <r>    0.8360    0.0000 </r>
       <r>    0.9353    0.0000 </r>
       <r>    0.9814    0.0000 </r>
       <r>    1.0733    0.0000 </r>
       <r>    1.1702    0.0000 </r>
       <r>    1.1906    0.0000 </r>
       <r>    1.3179    0.0000 </r>
       <r>    1.3686    0.0000 </r>
       <r>    1.5540    0.0000 </r>
       <r>    1.5604    0.0000 </r>
       <r>    1.6318    0.0000 </r>
       <r>    1.7817    0.0000 </r>
      </set>
      <set comment="kpoint 28">
       <r>   -9.4099    1.0000 </r>
       <r>   -3.5730    0.1673 </r>
       <r>   -3.5729    0.1666 </r>
       <r>   -3.5729    0.1666 </r>
       <r>   -0.1162    0.0000 </r>
       <r>    0.2077    0.0000 </r>
       <r>    0.3445    0.0000 </r>
       <r>    0.4674    0.0000 </r>
       <r>    0.5232    0.0000 </r>
       <r>    0.5747    0.0000 </r>
       <r>    0.7087    0.0000 </r>
       <r>    0.7440    0.0000 </r>
       <r>    0.8414    0.0000 </r>
       <r>    0.8595    0.0000 </r>
       <r>    0.9983    0.0000 </r>
       <r>    1.0730    0.0000 </r>
       <r>    1.0779    0.0000 </r>
       <r>    1.2369    0.0000 </r>
       <r>    1.4605    0.0000 </r>
       <r>    1.5177    0.0000 </r>
       <r>    1.6157    0.0000 </r>
       <r>    1.7091    0.0000 </r>
       <r>    1.7363    0.0000 </r>
       <r>    1.7815    0.0000 </r>
      </set>
      <set comment="kpoint 29">
       <r>   -9.4099    1.0000 </r>
       <r>   -3.5730    0.1673 </r>
       <r>   -3.5729    0.1667 </r>
       <r>   -3.5729    0.1666 </r>
       <r>   -0.0957    0.0000 </r>
       <r>    0.2318    0.0000 </r>
       <r>    0.2811    0.0000 </r>
       <r>    0.4941    0.0000 </r>
       <r>    0.4971    0.0000 </r>
       <r>    0.5588    0.0000 </r>
       <r>    0.7340    0.0000 </r>
       <r>    0.7703    0.0000 </r>
       <r>    0.7748    0.0000 </r>
       <r>    0.7780    0.0000 </r>
       <r>    0.9845    0.0000 </r>
       <r>    0.9909    0.0000 </r>
       <r>    1.1622    0.0000 </r>
       <r>    1.3947    0.0000 </r>
       <r>    1.6121    0.0000 </r>
       <r>    1.6137    0.0000 </r>
       <r>    1.6829    0.0000 </r>
       <r>    1.7097    0.0000 </r>
       <r>    1.8491    0.0000 </r>
       <r>    1.8829    0.0000 </r>
      </set>
      <set comment="kpoint 30">
       <r>   -9.4099    1.0000 </r>
       <r>   -3.5730    0.1673 </r>
       <r>   -3.5729    0.1667 </r>
       <r>   -3.5729    0.1666 </r>
       <r>   -0.0804    0.0000 </r>
       <r>    0.2260    0.0000 </r>
       <r>    0.2730    0.0000 </r>
       <r>    0.4473    0.0000 </r>
       <r>    0.5171    0.0000 </r>
       <r>    0.5976    0.0000 </r>
       <r>    0.7103    0.0000 </r>
       <r>    0.7114    0.0000 </r>
       <r>    0.7738    0.0000 </r>
       <r>    0.8176    0.0000 </r>
       <r>    0.9185    0.0000 </r>
       <r>    0.9362    0.0000 </r>
       <r>    1.3295    0.0000 </r>
       <r>    1.5009    0.0000 </r>
       <r>    1.5805    0.0000 </r>
       <r>    1.6389    0.0000 </r>
       <r>    1.7512    0.0000 </r>
       <r>    1.7537    0.0000 </r>
       <r>    1.8751    0.0000 </r>
       <r>    1.8801    0.0000 </r>
      </set>
      <set comment="kpoint 31">
       <r>   -9.4099    1.0000 </r>
       <r>   -3.5730    0.1675 </r>
       <r>   -3.5729    0.1666 </r>
       <r>   -3.5729    0.1666 </r>
       <r>   -0.1174    0.0000 </r>
       <r>    0.1330    0.0000 </r>
       <r>    0.4715    0.0000 </r>
       <r>    0.5037    0.0000 </r>
       <r>    0.5960    0.0000 </r>
       <r>    0.6081    0.0000 </r>
       <r>    0.6219    0.0000 </r>
       <r>    0.7464    0.0000 </r>
       <r>    0.7607    0.0000 </r>
       <r>    0.8879    0.0000 </r>
       <r>    1.0727    0.0000 </r>
       <r>    1.1454    0.0000 </r>
       <r>    1.2117    0.0000 </r>
       <r>    1.2281    0.0000 </r>
       <r>    1.2418    0.0000 </r>
       <r>    1.2824    0.0000 </r>
       <r>    1.3613    0.0000 </r>
       <r>    1.3690    0.0000 </r>
       <r>    1.7126    0.0000 </r>
       <r>    1.8537    0.0000 </r>
      </set>
      <set comment="kpoint 32">
       <r>   -9.4099    1.0000 </r>
       <r>   -3.5730    0.1675 </r>
       <r>   -3.5729    0.1666 </r>
       <r>   -3.5729    0.1666 </r>
       <r>   -0.1083    0.0000 </r>
       <r>    0.1447    0.0000 </r>
       <r>    0.4615    0.0000 </r>
       <r>    0.4817    0.0000 </r>
       <r>    0.5550    0.0000 </r>
       <r>    0.5898    0.0000 </r>
       <r>    0.6341    0.0000 </r>
       <r>    0.6770    0.0000 </r>
       <r>    0.8699    0.0000 </r>
       <r>    0.9715    0.0000 </r>
       <r>    1.0199    0.0000 </r>
       <r>    1.0362    0.0000 </r>
       <r>    1.1170    0.0000 </r>
       <r>    1.1173    0.0000 </r>
       <r>    1.3488    0.0000 </r>
       <r>    1.4214    0.0000 </r>
       <r>    1.5011    0.0000 </r>
       <r>    1.5092    0.0000 </r>
       <r>    1.7205    0.0000 </r>
       <r>    1.8540    0.0000 </r>
      </set>
      <set comment="kpoint 33">
       <r>   -9.4099    1.0000 </r>
       <r>   -3.5730    0.1675 </r>
       <r>   -3.5729    0.1666 </r>
       <r>   -3.5729    0.1666 </r>
       <r>   -0.0918    0.0000 </r>
       <r>    0.1673    0.0000 </r>
       <r>    0.3813    0.0000 </r>
       <r>    0.5011    0.0000 </r>
       <r>    0.5148    0.0000 </r>
       <r>    0.5731    0.0000 </r>
       <r>    0.6578    0.0000 </r>
       <r>    0.6766    0.0000 </r>
       <r>    0.8791    0.0000 </r>
       <r>    0.9056    0.0000 </r>
       <r>    0.9992    0.0000 </r>
       <r>    1.0154    0.0000 </r>
       <r>    1.0502    0.0000 </r>
       <r>    1.1809    0.0000 </r>
       <r>    1.4916    0.0000 </r>
       <r>    1.5709    0.0000 </r>
       <r>    1.6498    0.0000 </r>
       <r>    1.6614    0.0000 </r>
       <r>    1.7383    0.0000 </r>
       <r>    1.8285    0.0000 </r>
      </set>
      <set comment="kpoint 34">
       <r>   -9.4099    1.0000 </r>
       <r>   -3.5730    0.1674 </r>
       <r>   -3.5729    0.1666 </r>
       <r>   -3.5729    0.1666 </r>
       <r>   -0.0723    0.0000 </r>
       <r>    0.1986    0.0000 </r>
       <r>    0.3134    0.0000 </r>
       <r>    0.4383    0.0000 </r>
       <r>    0.5260    0.0000 </r>
       <r>    0.6071    0.0000 </r>
       <r>    0.6908    0.0000 </r>
       <r>    0.7084    0.0000 </r>
       <r>    0.8048    0.0000 </r>
       <r>    0.8254    0.0000 </r>
       <r>    0.9161    0.0000 </r>
       <r>    0.9303    0.0000 </r>
       <r>    1.1966    0.0000 </r>
       <r>    1.3447    0.0000 </r>
       <r>    1.6409    0.0000 </r>
       <r>    1.6964    0.0000 </r>
       <r>    1.7097    0.0000 </r>
       <r>    1.7720    0.0000 </r>
       <r>    1.8165    0.0000 </r>
       <r>    1.8267    0.0000 </r>
      </set>
      <set comment="kpoint 35">
       <r>   -9.4099    1.0000 </r>
       <r>   -3.5730    0.1674 </r>
       <r>   -3.5729    0.1667 </r>
       <r>   -3.5729    0.1666 </r>
       <r>   -0.0579    0.0000 </r>
       <r>    0.2291    0.0000 </r>
       <r>    0.2730    0.0000 </r>
       <r>    0.3849    0.0000 </r>
       <r>    0.5469    0.0000 </r>
       <r>    0.6466    0.0000 </r>
       <r>    0.7239    0.0000 </r>
       <r>    0.7487    0.0000 </r>
       <r>    0.7583    0.0000 </r>
       <r>    0.7603    0.0000 </r>
       <r>    0.8489    0.0000 </r>
       <r>    0.8717    0.0000 </r>
       <r>    1.3610    0.0000 </r>
       <r>    1.5135    0.0000 </r>
       <r>    1.5529    0.0000 </r>
       <r>    1.7169    0.0000 </r>
       <r>    1.7313    0.0000 </r>
       <r>    1.7770    0.0000 </r>
       <r>    1.9200    0.0000 </r>
       <r>    1.9269    0.0000 </r>
      </set>
      <set comment="kpoint 36">
       <r>   -9.4099    1.0000 </r>
       <r>   -3.5729    0.1667 </r>
       <r>   -3.5729    0.1667 </r>
       <r>   -3.5728    0.1659 </r>
       <r>   -0.2589    0.0000 </r>
       <r>    0.2173    0.0000 </r>
       <r>    0.3879    0.0000 </r>
       <r>    0.4523    0.0000 </r>
       <r>    0.5803    0.0000 </r>
       <r>    0.6900    0.0000 </r>
       <r>    0.8312    0.0000 </r>
       <r>    0.8372    0.0000 </r>
       <r>    0.9648    0.0000 </r>
       <r>    1.0292    0.0000 </r>
       <r>    1.1040    0.0000 </r>
       <r>    1.1632    0.0000 </r>
       <r>    1.2535    0.0000 </r>
       <r>    1.2699    0.0000 </r>
       <r>    1.3119    0.0000 </r>
       <r>    1.4141    0.0000 </r>
       <r>    1.4385    0.0000 </r>
       <r>    1.4971    0.0000 </r>
       <r>    1.5191    0.0000 </r>
       <r>    1.6263    0.0000 </r>
      </set>
      <set comment="kpoint 37">
       <r>   -9.4099    1.0000 </r>
       <r>   -3.5729    0.1667 </r>
       <r>   -3.5729    0.1667 </r>
       <r>   -3.5728    0.1659 </r>
       <r>   -0.2491    0.0000 </r>
       <r>    0.2227    0.0000 </r>
       <r>    0.3188    0.0000 </r>
       <r>    0.4382    0.0000 </r>
       <r>    0.6920    0.0000 </r>
       <r>    0.7057    0.0000 </r>
       <r>    0.7328    0.0000 </r>
       <r>    0.8437    0.0000 </r>
       <r>    0.9191    0.0000 </r>
       <r>    1.0927    0.0000 </r>
       <r>    1.1204    0.0000 </r>
       <r>    1.1921    0.0000 </r>
       <r>    1.2478    0.0000 </r>
       <r>    1.2985    0.0000 </r>
       <r>    1.3355    0.0000 </r>
       <r>    1.3475    0.0000 </r>
       <r>    1.4616    0.0000 </r>
       <r>    1.4998    0.0000 </r>
       <r>    1.5867    0.0000 </r>
       <r>    1.6319    0.0000 </r>
      </set>
      <set comment="kpoint 38">
       <r>   -9.4099    1.0000 </r>
       <r>   -3.5729    0.1667 </r>
       <r>   -3.5729    0.1667 </r>
       <r>   -3.5728    0.1659 </r>
       <r>   -0.2310    0.0000 </r>
       <r>    0.1970    0.0000 </r>
       <r>    0.2784    0.0000 </r>
       <r>    0.4581    0.0000 </r>
       <r>    0.6196    0.0000 </r>
       <r>    0.7177    0.0000 </r>
       <r>    0.8032    0.0000 </r>
       <r>    0.8619    0.0000 </r>
       <r>    0.8787    0.0000 </r>
       <r>    1.0898    0.0000 </r>
       <r>    1.1446    0.0000 </r>
       <r>    1.2333    0.0000 </r>
       <r>    1.2441    0.0000 </r>
       <r>    1.3030    0.0000 </r>
       <r>    1.3463    0.0000 </r>
       <r>    1.4549    0.0000 </r>
       <r>    1.4922    0.0000 </r>
       <r>    1.5150    0.0000 </r>
       <r>    1.5249    0.0000 </r>
       <r>    1.6408    0.0000 </r>
      </set>
      <set comment="kpoint 39">
       <r>   -9.4099    1.0000 </r>
       <r>   -3.5729    0.1668 </r>
       <r>   -3.5729    0.1667 </r>
       <r>   -3.5728    0.1659 </r>
       <r>   -0.2090    0.0000 </r>
       <r>    0.1352    0.0000 </r>
       <r>    0.3009    0.0000 </r>
       <r>    0.4870    0.0000 </r>
       <r>    0.5385    0.0000 </r>
       <r>    0.7280    0.0000 </r>
       <r>    0.7425    0.0000 </r>
       <r>    0.8908    0.0000 </r>
       <r>    1.0051    0.0000 </r>
       <r>    1.0443    0.0000 </r>
       <r>    1.1678    0.0000 </r>
       <r>    1.1742    0.0000 </r>
       <r>    1.3018    0.0000 </r>
       <r>    1.3646    0.0000 </r>
       <r>    1.4053    0.0000 </r>
       <r>    1.4641    0.0000 </r>
       <r>    1.4989    0.0000 </r>
       <r>    1.5363    0.0000 </r>
       <r>    1.5698    0.0000 </r>
       <r>    1.6072    0.0000 </r>
      </set>
      <set comment="kpoint 40">
       <r>   -9.4099    1.0000 </r>
       <r>   -3.5729    0.1668 </r>
       <r>   -3.5729    0.1667 </r>
       <r>   -3.5728    0.1659 </r>
       <r>   -0.1921    0.0000 </r>
       <r>    0.0949    0.0000 </r>
       <r>    0.3314    0.0000 </r>
       <r>    0.4718    0.0000 </r>
       <r>    0.5274    0.0000 </r>
       <r>    0.6708    0.0000 </r>
       <r>    0.7625    0.0000 </r>
       <r>    0.9155    0.0000 </r>
       <r>    0.9753    0.0000 </r>
       <r>    1.1056    0.0000 </r>
       <r>    1.1936    0.0000 </r>
       <r>    1.2187    0.0000 </r>
       <r>    1.3272    0.0000 </r>
       <r>    1.3672    0.0000 </r>
       <r>    1.4033    0.0000 </r>
       <r>    1.4266    0.0000 </r>
       <r>    1.4799    0.0000 </r>
       <r>    1.5402    0.0000 </r>
       <r>    1.5657    0.0000 </r>
       <r>    1.6110    0.0000 </r>
      </set>
      <set comment="kpoint 41">
       <r>   -9.4099    1.0000 </r>
       <r>   -3.5729    0.1667 </r>
       <r>   -3.5729    0.1667 </r>
       <r>   -3.5728    0.1660 </r>
       <r>   -0.2498    0.0000 </r>
       <r>    0.2263    0.0000 </r>
       <r>    0.3954    0.0000 </r>
       <r>    0.4611    0.0000 </r>
       <r>    0.5679    0.0000 </r>
       <r>    0.5969    0.0000 </r>
       <r>    0.8442    0.0000 </r>
       <r>    0.9497    0.0000 </r>
       <r>    0.9734    0.0000 </r>
       <r>    1.0000    0.0000 </r>
       <r>    1.0414    0.0000 </r>
       <r>    1.1625    0.0000 </r>
       <r>    1.1678    0.0000 </r>
       <r>    1.2087    0.0000 </r>
       <r>    1.3340    0.0000 </r>
       <r>    1.3955    0.0000 </r>
       <r>    1.4920    0.0000 </r>
       <r>    1.5695    0.0000 </r>
       <r>    1.5882    0.0000 </r>
       <r>    1.6281    0.0000 </r>
      </set>
      <set comment="kpoint 42">
       <r>   -9.4099    1.0000 </r>
       <r>   -3.5729    0.1667 </r>
       <r>   -3.5729    0.1667 </r>
       <r>   -3.5728    0.1660 </r>
       <r>   -0.2400    0.0000 </r>
       <r>    0.2317    0.0000 </r>
       <r>    0.3277    0.0000 </r>
       <r>    0.4463    0.0000 </r>
       <r>    0.5830    0.0000 </r>
       <r>    0.7089    0.0000 </r>
       <r>    0.7421    0.0000 </r>
       <r>    0.9258    0.0000 </r>
       <r>    0.9643    0.0000 </r>
       <r>    1.0047    0.0000 </r>
       <r>    1.0732    0.0000 </r>
       <r>    1.1251    0.0000 </r>
       <r>    1.1985    0.0000 </r>
       <r>    1.3085    0.0000 </r>
       <r>    1.4024    0.0000 </r>
       <r>    1.4121    0.0000 </r>
       <r>    1.4957    0.0000 </r>
       <r>    1.5134    0.0000 </r>
       <r>    1.5333    0.0000 </r>
       <r>    1.6067    0.0000 </r>
      </set>
      <set comment="kpoint 43">
       <r>   -9.4099    1.0000 </r>
       <r>   -3.5729    0.1667 </r>
       <r>   -3.5729    0.1667 </r>
       <r>   -3.5728    0.1660 </r>
       <r>   -0.2219    0.0000 </r>
       <r>    0.2061    0.0000 </r>
       <r>    0.2876    0.0000 </r>
       <r>    0.4659    0.0000 </r>
       <r>    0.6031    0.0000 </r>
       <r>    0.6291    0.0000 </r>
       <r>    0.8112    0.0000 </r>
       <r>    0.8844    0.0000 </r>
       <r>    0.9642    0.0000 </r>
       <r>    1.0066    0.0000 </r>
       <r>    1.0324    0.0000 </r>
       <r>    1.2172    0.0000 </r>
       <r>    1.2641    0.0000 </r>
       <r>    1.3472    0.0000 </r>
       <r>    1.4118    0.0000 </r>
       <r>    1.4164    0.0000 </r>
       <r>    1.4812    0.0000 </r>
       <r>    1.5343    0.0000 </r>
       <r>    1.5790    0.0000 </r>
       <r>    1.6001    0.0000 </r>
      </set>
      <set comment="kpoint 44">
       <r>   -9.4099    1.0000 </r>
       <r>   -3.5729    0.1667 </r>
       <r>   -3.5729    0.1667 </r>
       <r>   -3.5728    0.1660 </r>
       <r>   -0.1999    0.0000 </r>
       <r>    0.1445    0.0000 </r>
       <r>    0.3100    0.0000 </r>
       <r>    0.4949    0.0000 </r>
       <r>    0.5475    0.0000 </r>
       <r>    0.6297    0.0000 </r>
       <r>    0.7363    0.0000 </r>
       <r>    0.8985    0.0000 </r>
       <r>    1.0190    0.0000 </r>
       <r>    1.0427    0.0000 </r>
       <r>    1.0616    0.0000 </r>
       <r>    1.2420    0.0000 </r>
       <r>    1.2840    0.0000 </r>
       <r>    1.3197    0.0000 </r>
       <r>    1.4159    0.0000 </r>
       <r>    1.4739    0.0000 </r>
       <r>    1.4913    0.0000 </r>
       <r>    1.5544    0.0000 </r>
       <r>    1.6024    0.0000 </r>
       <r>    1.6519    0.0000 </r>
      </set>
      <set comment="kpoint 45">
       <r>   -9.4099    1.0000 </r>
       <r>   -3.5729    0.1668 </r>
       <r>   -3.5729    0.1667 </r>
       <r>   -3.5728    0.1660 </r>
       <r>   -0.1831    0.0000 </r>
       <r>    0.1043    0.0000 </r>
       <r>    0.3403    0.0000 </r>
       <r>    0.4811    0.0000 </r>
       <r>    0.5349    0.0000 </r>
       <r>    0.6518    0.0000 </r>
       <r>    0.6793    0.0000 </r>
       <r>    0.8554    0.0000 </r>
       <r>    1.0386    0.0000 </r>
       <r>    1.0890    0.0000 </r>
       <r>    1.1997    0.0000 </r>
       <r>    1.2228    0.0000 </r>
       <r>    1.2622    0.0000 </r>
       <r>    1.3107    0.0000 </r>
       <r>    1.4146    0.0000 </r>
       <r>    1.4302    0.0000 </r>
       <r>    1.4858    0.0000 </r>
       <r>    1.5824    0.0000 </r>
       <r>    1.6007    0.0000 </r>
       <r>    1.6592    0.0000 </r>
      </set>
      <set comment="kpoint 46">
       <r>   -9.4099    1.0000 </r>
       <r>   -3.5729    0.1667 </r>
       <r>   -3.5729    0.1666 </r>
       <r>   -3.5729    0.1663 </r>
       <r>   -0.2318    0.0000 </r>
       <r>    0.2437    0.0000 </r>
       <r>    0.4021    0.0000 </r>
       <r>    0.4710    0.0000 </r>
       <r>    0.4823    0.0000 </r>
       <r>    0.6107    0.0000 </r>
       <r>    0.8497    0.0000 </r>
       <r>    0.8808    0.0000 </r>
       <r>    0.9940    0.0000 </r>
       <r>    1.0249    0.0000 </r>
       <r>    1.0645    0.0000 </r>
       <r>    1.0950    0.0000 </r>
       <r>    1.1272    0.0000 </r>
       <r>    1.2006    0.0000 </r>
       <r>    1.2352    0.0000 </r>
       <r>    1.4766    0.0000 </r>
       <r>    1.5055    0.0000 </r>
       <r>    1.5512    0.0000 </r>
       <r>    1.6219    0.0000 </r>
       <r>    1.6644    0.0000 </r>
      </set>
      <set comment="kpoint 47">
       <r>   -9.4099    1.0000 </r>
       <r>   -3.5729    0.1667 </r>
       <r>   -3.5729    0.1667 </r>
       <r>   -3.5729    0.1663 </r>
       <r>   -0.2221    0.0000 </r>
       <r>    0.2489    0.0000 </r>
       <r>    0.3446    0.0000 </r>
       <r>    0.4492    0.0000 </r>
[...]
       <r>    1.0329    0.0000 </r>
       <r>    1.0706    0.0000 </r>
       <r>    1.1364    0.0000 </r>
       <r>    1.1587    0.0000 </r>
       <r>    1.2818    0.0000 </r>
       <r>    1.5664    0.0000 </r>
       <r>    1.6831    0.0000 </r>
       <r>    1.7161    0.0000 </r>
       <r>    1.7630    0.0000 </r>
      </set>
      <set comment="kpoint 172">
       <r>   -9.4099    1.0000 </r>
       <r>   -3.5730    0.1674 </r>
       <r>   -3.5729    0.1666 </r>
       <r>   -3.5729    0.1666 </r>
       <r>   -0.0849    0.0000 </r>
       <r>    0.1971    0.0000 </r>
       <r>    0.2651    0.0000 </r>
       <r>    0.3636    0.0000 </r>
       <r>    0.5242    0.0000 </r>
       <r>    0.6858    0.0000 </r>
       <r>    0.7316    0.0000 </r>
       <r>    0.8305    0.0000 </r>
       <r>    0.9155    0.0000 </r>
       <r>    0.9857    0.0000 </r>
       <r>    1.0552    0.0000 </r>
       <r>    1.1086    0.0000 </r>
       <r>    1.1311    0.0000 </r>
       <r>    1.1890    0.0000 </r>
       <r>    1.2318    0.0000 </r>
       <r>    1.3047    0.0000 </r>
       <r>    1.4727    0.0000 </r>
       <r>    1.6021    0.0000 </r>
       <r>    1.6292    0.0000 </r>
       <r>    1.7486    0.0000 </r>
      </set>
      <set comment="kpoint 173">
       <r>   -9.4099    1.0000 </r>
       <r>   -3.5730    0.1675 </r>
       <r>   -3.5729    0.1666 </r>
       <r>   -3.5729    0.1666 </r>
       <r>   -0.0694    0.0000 </r>
       <r>    0.2183    0.0000 </r>
       <r>    0.2890    0.0000 </r>
       <r>    0.3891    0.0000 </r>
       <r>    0.4347    0.0000 </r>
       <r>    0.5893    0.0000 </r>
       <r>    0.6329    0.0000 </r>
       <r>    0.7271    0.0000 </r>
       <r>    1.0121    0.0000 </r>
       <r>    1.0593    0.0000 </r>
       <r>    1.1360    0.0000 </r>
       <r>    1.1573    0.0000 </r>
       <r>    1.2221    0.0000 </r>
       <r>    1.2960    0.0000 </r>
       <r>    1.3098    0.0000 </r>
       <r>    1.3855    0.0000 </r>
       <r>    1.4167    0.0000 </r>
       <r>    1.5042    0.0000 </r>
       <r>    1.5432    0.0000 </r>
       <r>    1.6543    0.0000 </r>
      </set>
      <set comment="kpoint 174">
       <r>   -9.4099    1.0000 </r>
       <r>   -3.5730    0.1674 </r>
       <r>   -3.5729    0.1666 </r>
       <r>   -3.5729    0.1666 </r>
       <r>   -0.0513    0.0000 </r>
       <r>    0.2465    0.0000 </r>
       <r>    0.3224    0.0000 </r>
       <r>    0.3662    0.0000 </r>
       <r>    0.4263    0.0000 </r>
       <r>    0.5109    0.0000 </r>
       <r>    0.5485    0.0000 </r>
       <r>    0.6372    0.0000 </r>
       <r>    1.0432    0.0000 </r>
       <r>    1.1730    0.0000 </r>
       <r>    1.1814    0.0000 </r>
       <r>    1.2170    0.0000 </r>
       <r>    1.2972    0.0000 </r>
       <r>    1.3177    0.0000 </r>
       <r>    1.3965    0.0000 </r>
       <r>    1.4226    0.0000 </r>
       <r>    1.4516    0.0000 </r>
       <r>    1.5048    0.0000 </r>
       <r>    1.5678    0.0000 </r>
       <r>    1.5847    0.0000 </r>
      </set>
      <set comment="kpoint 175">
       <r>   -9.4099    1.0000 </r>
       <r>   -3.5730    0.1675 </r>
       <r>   -3.5729    0.1667 </r>
       <r>   -3.5729    0.1666 </r>
       <r>   -0.0382    0.0000 </r>
       <r>    0.2718    0.0000 </r>
       <r>    0.3255    0.0000 </r>
       <r>    0.3589    0.0000 </r>
       <r>    0.4551    0.0000 </r>
       <r>    0.4748    0.0000 </r>
       <r>    0.4897    0.0000 </r>
       <r>    0.5665    0.0000 </r>
       <r>    1.0707    0.0000 </r>
       <r>    1.2067    0.0000 </r>
       <r>    1.2143    0.0000 </r>
       <r>    1.2301    0.0000 </r>
       <r>    1.3409    0.0000 </r>
       <r>    1.3625    0.0000 </r>
       <r>    1.3751    0.0000 </r>
       <r>    1.4416    0.0000 </r>
       <r>    1.4950    0.0000 </r>
       <r>    1.5777    0.0000 </r>
       <r>    1.6062    0.0000 </r>
       <r>    1.6665    0.0000 </r>
      </set>
     </set>
    </set>
   </array>
  </eigenvalues>
  <separator name="orbital magnetization" >
   <v name="MAGDIPOLOUT">      0.00000000      0.00000000      0.00000000</v>
  </separator>
  <dos>
   <i name="efermi">     -3.60712436 </i>
   <total>
    <array>
     <dimension dim="1">gridpoints</dimension>
     <dimension dim="2">spin</dimension>
     <field>energy</field>
     <field>total</field>
     <field>integrated</field>
     <set>
      <set comment="spin 1">
       <r>    -9.9768     0.0000     0.0000 </r>
       <r>    -9.9352     0.0000     0.0000 </r>
       <r>    -9.8936     0.0000     0.0000 </r>
       <r>    -9.8520     0.0000     0.0000 </r>
       <r>    -9.8105     0.0000     0.0000 </r>
       <r>    -9.7689     0.0000     0.0000 </r>
       <r>    -9.7273     0.0000     0.0000 </r>
       <r>    -9.6858     0.0000     0.0000 </r>
       <r>    -9.6442     0.0000     0.0000 </r>
       <r>    -9.6026     0.0000     0.0000 </r>
       <r>    -9.5611     0.0005     0.0000 </r>
       <r>    -9.5195     0.0461     0.0019 </r>
       <r>    -9.4779     1.2612     0.0544 </r>
       <r>    -9.4364     9.6220     0.4543 </r>
       <r>    -9.3948    21.0898     1.3310 </r>
       <r>    -9.3532    13.4746     1.8911 </r>
       <r>    -9.3117     2.4881     1.9945 </r>
       <r>    -9.2701     0.1293     1.9999 </r>
       <r>    -9.2285     0.0018     2.0000 </r>
       <r>    -9.1870     0.0000     2.0000 </r>
       <r>    -9.1454     0.0000     2.0000 </r>
       <r>    -9.1038     0.0000     2.0000 </r>
       <r>    -9.0622     0.0000     2.0000 </r>
       <r>    -9.0207     0.0000     2.0000 </r>
       <r>    -8.9791     0.0000     2.0000 </r>
       <r>    -8.9375     0.0000     2.0000 </r>
       <r>    -8.8960     0.0000     2.0000 </r>
       <r>    -8.8544     0.0000     2.0000 </r>
       <r>    -8.8128     0.0000     2.0000 </r>
       <r>    -8.7713     0.0000     2.0000 </r>
       <r>    -8.7297     0.0000     2.0000 </r>
       <r>    -8.6881     0.0000     2.0000 </r>
       <r>    -8.6466     0.0000     2.0000 </r>
       <r>    -8.6050     0.0000     2.0000 </r>
       <r>    -8.5634     0.0000     2.0000 </r>
       <r>    -8.5219     0.0000     2.0000 </r>
       <r>    -8.4803     0.0000     2.0000 </r>
       <r>    -8.4387     0.0000     2.0000 </r>
       <r>    -8.3972     0.0000     2.0000 </r>
       <r>    -8.3556     0.0000     2.0000 </r>
       <r>    -8.3140     0.0000     2.0000 </r>
       <r>    -8.2724     0.0000     2.0000 </r>
       <r>    -8.2309     0.0000     2.0000 </r>
       <r>    -8.1893     0.0000     2.0000 </r>
       <r>    -8.1477     0.0000     2.0000 </r>
       <r>    -8.1062     0.0000     2.0000 </r>
       <r>    -8.0646     0.0000     2.0000 </r>
       <r>    -8.0230     0.0000     2.0000 </r>
       <r>    -7.9815     0.0000     2.0000 </r>
       <r>    -7.9399     0.0000     2.0000 </r>
       <r>    -7.8983     0.0000     2.0000 </r>
       <r>    -7.8568     0.0000     2.0000 </r>
       <r>    -7.8152     0.0000     2.0000 </r>
       <r>    -7.7736     0.0000     2.0000 </r>
       <r>    -7.7321     0.0000     2.0000 </r>
       <r>    -7.6905     0.0000     2.0000 </r>
       <r>    -7.6489     0.0000     2.0000 </r>
       <r>    -7.6074     0.0000     2.0000 </r>
       <r>    -7.5658     0.0000     2.0000 </r>
       <r>    -7.5242     0.0000     2.0000 </r>
       <r>    -7.4826     0.0000     2.0000 </r>
       <r>    -7.4411     0.0000     2.0000 </r>
       <r>    -7.3995     0.0000     2.0000 </r>
       <r>    -7.3579     0.0000     2.0000 </r>
       <r>    -7.3164     0.0000     2.0000 </r>
       <r>    -7.2748     0.0000     2.0000 </r>
       <r>    -7.2332     0.0000     2.0000 </r>
       <r>    -7.1917     0.0000     2.0000 </r>
       <r>    -7.1501     0.0000     2.0000 </r>
       <r>    -7.1085     0.0000     2.0000 </r>
       <r>    -7.0670     0.0000     2.0000 </r>
       <r>    -7.0254     0.0000     2.0000 </r>
       <r>    -6.9838     0.0000     2.0000 </r>
       <r>    -6.9423     0.0000     2.0000 </r>
       <r>    -6.9007     0.0000     2.0000 </r>
       <r>    -6.8591     0.0000     2.0000 </r>
       <r>    -6.8176     0.0000     2.0000 </r>
       <r>    -6.7760     0.0000     2.0000 </r>
       <r>    -6.7344     0.0000     2.0000 </r>
       <r>    -6.6928     0.0000     2.0000 </r>
       <r>    -6.6513     0.0000     2.0000 </r>
       <r>    -6.6097     0.0000     2.0000 </r>
       <r>    -6.5681     0.0000     2.0000 </r>
       <r>    -6.5266     0.0000     2.0000 </r>
       <r>    -6.4850     0.0000     2.0000 </r>
       <r>    -6.4434     0.0000     2.0000 </r>
       <r>    -6.4019     0.0000     2.0000 </r>
       <r>    -6.3603     0.0000     2.0000 </r>
       <r>    -6.3187     0.0000     2.0000 </r>
       <r>    -6.2772     0.0000     2.0000 </r>
       <r>    -6.2356     0.0000     2.0000 </r>
       <r>    -6.1940     0.0000     2.0000 </r>
       <r>    -6.1525     0.0000     2.0000 </r>
       <r>    -6.1109     0.0000     2.0000 </r>
       <r>    -6.0693     0.0000     2.0000 </r>
       <r>    -6.0278     0.0000     2.0000 </r>
       <r>    -5.9862     0.0000     2.0000 </r>
       <r>    -5.9446     0.0000     2.0000 </r>
       <r>    -5.9030     0.0000     2.0000 </r>
       <r>    -5.8615     0.0000     2.0000 </r>
       <r>    -5.8199     0.0000     2.0000 </r>
       <r>    -5.7783     0.0000     2.0000 </r>
       <r>    -5.7368     0.0000     2.0000 </r>
       <r>    -5.6952     0.0000     2.0000 </r>
       <r>    -5.6536     0.0000     2.0000 </r>
       <r>    -5.6121     0.0000     2.0000 </r>
       <r>    -5.5705     0.0000     2.0000 </r>
       <r>    -5.5289     0.0000     2.0000 </r>
       <r>    -5.4874     0.0000     2.0000 </r>
       <r>    -5.4458     0.0000     2.0000 </r>
       <r>    -5.4042     0.0000     2.0000 </r>
       <r>    -5.3627     0.0000     2.0000 </r>
       <r>    -5.3211     0.0000     2.0000 </r>
       <r>    -5.2795     0.0000     2.0000 </r>
       <r>    -5.2380     0.0000     2.0000 </r>
       <r>    -5.1964     0.0000     2.0000 </r>
       <r>    -5.1548     0.0000     2.0000 </r>
       <r>    -5.1132     0.0000     2.0000 </r>
       <r>    -5.0717     0.0000     2.0000 </r>
       <r>    -5.0301     0.0000     2.0000 </r>
       <r>    -4.9885     0.0000     2.0000 </r>
       <r>    -4.9470     0.0000     2.0000 </r>
       <r>    -4.9054     0.0000     2.0000 </r>
       <r>    -4.8638     0.0000     2.0000 </r>
       <r>    -4.8223     0.0000     2.0000 </r>
       <r>    -4.7807     0.0000     2.0000 </r>
       <r>    -4.7391     0.0000     2.0000 </r>
       <r>    -4.6976     0.0000     2.0000 </r>
       <r>    -4.6560     0.0000     2.0000 </r>
       <r>    -4.6144     0.0000     2.0000 </r>
       <r>    -4.5729     0.0000     2.0000 </r>
       <r>    -4.5313     0.0000     2.0000 </r>
       <r>    -4.4897     0.0000     2.0000 </r>
       <r>    -4.4482     0.0000     2.0000 </r>
       <r>    -4.4066     0.0000     2.0000 </r>
       <r>    -4.3650     0.0000     2.0000 </r>
       <r>    -4.3234     0.0000     2.0000 </r>
       <r>    -4.2819     0.0000     2.0000 </r>
       <r>    -4.2403     0.0000     2.0000 </r>
       <r>    -4.1987     0.0000     2.0000 </r>
       <r>    -4.1572     0.0000     2.0000 </r>
       <r>    -4.1156     0.0000     2.0000 </r>
       <r>    -4.0740     0.0000     2.0000 </r>
       <r>    -4.0325     0.0000     2.0000 </r>
       <r>    -3.9909     0.0000     2.0000 </r>
       <r>    -3.9493     0.0000     2.0000 </r>
       <r>    -3.9078     0.0000     2.0000 </r>
       <r>    -3.8662     0.0000     2.0000 </r>
       <r>    -3.8246     0.0000     2.0000 </r>
       <r>    -3.7831     0.0000     2.0000 </r>
       <r>    -3.7415     0.0001     2.0000 </r>
       <r>    -3.6999     0.0235     2.0010 </r>
       <r>    -3.6584     1.1076     2.0470 </r>
       <r>    -3.6168    14.3660     2.6442 </r>
       <r>    -3.5752    52.9368     4.8447 </r>
       <r>    -3.5336    56.6619     7.2000 </r>
       <r>    -3.4921    17.6405     7.9333 </r>
       <r>    -3.4505     1.5652     7.9984 </r>
       <r>    -3.4089     0.0384     8.0000 </r>
       <r>    -3.3674     0.0003     8.0000 </r>
       <r>    -3.3258     0.0000     8.0000 </r>
       <r>    -3.2842     0.0000     8.0000 </r>
       <r>    -3.2427     0.0000     8.0000 </r>
       <r>    -3.2011     0.0000     8.0000 </r>
       <r>    -3.1595     0.0000     8.0000 </r>
       <r>    -3.1180     0.0000     8.0000 </r>
       <r>    -3.0764     0.0000     8.0000 </r>
       <r>    -3.0348     0.0000     8.0000 </r>
       <r>    -2.9933     0.0000     8.0000 </r>
       <r>    -2.9517     0.0000     8.0000 </r>
       <r>    -2.9101     0.0000     8.0000 </r>
       <r>    -2.8686     0.0000     8.0000 </r>
       <r>    -2.8270     0.0000     8.0000 </r>
       <r>    -2.7854     0.0000     8.0000 </r>
       <r>    -2.7438     0.0000     8.0000 </r>
       <r>    -2.7023     0.0000     8.0000 </r>
       <r>    -2.6607     0.0000     8.0000 </r>
       <r>    -2.6191     0.0000     8.0000 </r>
       <r>    -2.5776     0.0000     8.0000 </r>
       <r>    -2.5360     0.0000     8.0000 </r>
       <r>    -2.4944     0.0000     8.0000 </r>
       <r>    -2.4529     0.0000     8.0000 </r>
       <r>    -2.4113     0.0000     8.0000 </r>
       <r>    -2.3697     0.0000     8.0000 </r>
       <r>    -2.3282     0.0000     8.0000 </r>
       <r>    -2.2866     0.0000     8.0000 </r>
       <r>    -2.2450     0.0000     8.0000 </r>
       <r>    -2.2035     0.0000     8.0000 </r>
       <r>    -2.1619     0.0000     8.0000 </r>
       <r>    -2.1203     0.0000     8.0000 </r>
       <r>    -2.0788     0.0000     8.0000 </r>
       <r>    -2.0372     0.0000     8.0000 </r>
       <r>    -1.9956     0.0000     8.0000 </r>
       <r>    -1.9540     0.0000     8.0000 </r>
       <r>    -1.9125     0.0000     8.0000 </r>
       <r>    -1.8709     0.0000     8.0000 </r>
       <r>    -1.8293     0.0000     8.0000 </r>
       <r>    -1.7878     0.0000     8.0000 </r>
       <r>    -1.7462     0.0000     8.0000 </r>
       <r>    -1.7046     0.0000     8.0000 </r>
       <r>    -1.6631     0.0000     8.0000 </r>
       <r>    -1.6215     0.0000     8.0000 </r>
       <r>    -1.5799     0.0000     8.0000 </r>
       <r>    -1.5384     0.0000     8.0000 </r>
       <r>    -1.4968     0.0000     8.0000 </r>
       <r>    -1.4552     0.0000     8.0000 </r>
       <r>    -1.4137     0.0000     8.0000 </r>
       <r>    -1.3721     0.0000     8.0000 </r>
       <r>    -1.3305     0.0000     8.0000 </r>
       <r>    -1.2890     0.0000     8.0000 </r>
       <r>    -1.2474     0.0000     8.0000 </r>
       <r>    -1.2058     0.0000     8.0000 </r>
       <r>    -1.1642     0.0000     8.0000 </r>
       <r>    -1.1227     0.0000     8.0000 </r>
       <r>    -1.0811     0.0000     8.0000 </r>
       <r>    -1.0395     0.0000     8.0000 </r>
       <r>    -0.9980     0.0000     8.0000 </r>
       <r>    -0.9564     0.0000     8.0000 </r>
       <r>    -0.9148     0.0000     8.0000 </r>
       <r>    -0.8733     0.0000     8.0000 </r>
       <r>    -0.8317     0.0000     8.0000 </r>
       <r>    -0.7901     0.0000     8.0000 </r>
       <r>    -0.7486     0.0000     8.0000 </r>
       <r>    -0.7070     0.0000     8.0000 </r>
       <r>    -0.6654     0.0000     8.0000 </r>
       <r>    -0.6239     0.0000     8.0000 </r>
       <r>    -0.5823     0.0000     8.0000 </r>
       <r>    -0.5407     0.0000     8.0000 </r>
       <r>    -0.4992     0.0000     8.0000 </r>
       <r>    -0.4576     0.0000     8.0000 </r>
       <r>    -0.4160     0.0000     8.0000 </r>
       <r>    -0.3744     0.0007     8.0000 </r>
       <r>    -0.3329     0.0349     8.0015 </r>
       <r>    -0.2913     0.5340     8.0237 </r>
       <r>    -0.2497     3.0447     8.1502 </r>
       <r>    -0.2082     7.6981     8.4702 </r>
       <r>    -0.1666    10.7094     8.9154 </r>
       <r>    -0.1250    10.4175     9.3485 </r>
       <r>    -0.0835     8.5004     9.7018 </r>
       <r>    -0.0419     5.1492     9.9158 </r>
       <r>    -0.0003     1.7802     9.9898 </r>
       <r>     0.0412     0.6614    10.0173 </r>
       <r>     0.0828     2.0902    10.1042 </r>
       <r>     0.1244     5.7380    10.3427 </r>
       <r>     0.1659    10.3575    10.7733 </r>
       <r>     0.2075    13.9870    11.3547 </r>
       <r>     0.2491    15.6194    12.0040 </r>
       <r>     0.2906    15.7866    12.6602 </r>
       <r>     0.3322    15.9212    13.3220 </r>
       <r>     0.3738    16.2067    13.9957 </r>
       <r>     0.4154    16.5148    14.6822 </r>
       <r>     0.4569    17.5731    15.4127 </r>
       <r>     0.4985    18.4857    16.1811 </r>
       <r>     0.5401    18.4849    16.9495 </r>
       <r>     0.5816    18.9813    17.7385 </r>
       <r>     0.6232    19.8964    18.5656 </r>
       <r>     0.6648    20.3649    19.4121 </r>
       <r>     0.7063    21.0087    20.2854 </r>
       <r>     0.7479    22.4124    21.2171 </r>
       <r>     0.7895    22.4145    22.1488 </r>
       <r>     0.8310    21.8754    23.0581 </r>
       <r>     0.8726    23.3354    24.0282 </r>
       <r>     0.9142    24.5352    25.0480 </r>
       <r>     0.9557    24.2313    26.0553 </r>
       <r>     0.9973    24.8617    27.0888 </r>
       <r>     1.0389    25.9065    28.1657 </r>
       <r>     1.0804    26.0102    29.2469 </r>
       <r>     1.1220    26.0748    30.3307 </r>
       <r>     1.1636    26.8303    31.4460 </r>
       <r>     1.2052    27.7180    32.5982 </r>
       <r>     1.2467    27.3288    33.7343 </r>
       <r>     1.2883    27.4908    34.8770 </r>
       <r>     1.3299    28.5614    36.0643 </r>
       <r>     1.3714    28.6153    37.2537 </r>
       <r>     1.4130    28.3192    38.4309 </r>
       <r>     1.4546    29.3394    39.6505 </r>
       <r>     1.4961    30.8953    40.9348 </r>
       <r>     1.5377    30.0367    42.1834 </r>
       <r>     1.5793    29.5762    43.4128 </r>
       <r>     1.6208    30.0889    44.6636 </r>
       <r>     1.6624    27.7175    45.8157 </r>
       <r>     1.7040    21.2389    46.6986 </r>
       <r>     1.7455    14.0723    47.2836 </r>
       <r>     1.7871     8.3383    47.6302 </r>
       <r>     1.8287     4.8040    47.8299 </r>
       <r>     1.8702     2.5755    47.9369 </r>
       <r>     1.9118     1.0911    47.9823 </r>
       <r>     1.9534     0.3461    47.9967 </r>
       <r>     1.9950     0.0730    47.9997 </r>
       <r>     2.0365     0.0071    48.0000 </r>
       <r>     2.0781     0.0002    48.0000 </r>
       <r>     2.1197     0.0000    48.0000 </r>
       <r>     2.1612     0.0000    48.0000 </r>
       <r>     2.2028     0.0000    48.0000 </r>
       <r>     2.2444     0.0000    48.0000 </r>
       <r>     2.2859     0.0000    48.0000 </r>
       <r>     2.3275     0.0000    48.0000 </r>
       <r>     2.3691     0.0000    48.0000 </r>
       <r>     2.4106     0.0000    48.0000 </r>
       <r>     2.4522     0.0000    48.0000 </r>
       <r>     2.4938     0.0000    48.0000 </r>
      </set>
     </set>
    </array>
   </total>
  </dos>
 </calculation>
 <structure name="finalpos" >
  <crystal>
   <varray name="basis" >
    <v>      15.00000000       0.00000000       0.00000000 </v>
    <v>       0.00000000      12.50000000       0.00000000 </v>
    <v>       0.00000000       0.00000000      18.00000000 </v>
   </varray>
   <i name="volume">   3375.00000000 </i>
   <varray name="rec_basis" >
    <v>       0.06666667       0.00000000       0.00000000 </v>
    <v>       0.00000000       0.08000000       0.00000000 </v>
    <v>       0.00000000       0.00000000       0.05555556 </v>
   </varray>
  </crystal>
  <varray name="positions" >
   <v>       0.52123000       0.54500000       0.63796000 </v>
  </varray>
 </structure>
</modeling>
