   14   14    1    1
  0.1028104E+02  0.5708394E-09  0.4055996E-09  0.6216608E-09  0.5000000E-15
  1.000000000000000E-004
  CAR 
 Convergence                             
     42    175     48
 
  0.5000000E-01  0.3571429E-01  0.0000000E+00  0.3174603E-02
      1        -12.717968   1.000000
      2        -11.576728   1.000000
      3         -8.666498   1.000000
      4         -8.430608   1.000000
      5         -6.080394   1.000000
      6         -5.147341   1.000000
      7         -4.684849   1.000000
      8         -4.285458   1.000000
      9         -4.048693   1.000000
     10         -3.561888   1.000000
     11         -2.619947   1.000000
     12         -2.351543   1.000000
     13         -1.862050   1.000000
     14         -1.121675   1.000000
     15         -0.093331   1.000000
     16         -0.062809   1.000000
     17          0.124963   1.000000
     18          0.144491   1.000000
     19          0.534405   1.000000
     20          1.986289   0.000053
     21          2.048468   0.000000
     22          2.179020   0.000000
     23          5.411186   0.000000
     24          5.701517   0.000000
     25          5.787471   0.000000
     26          5.912049   0.000000
     27          6.761050   0.000000
     28          7.495200   0.000000
     29          7.821153   0.000000
     30          8.466340   0.000000
     31          8.721378   0.000000
     32          8.877643   0.000000
     33          8.960056   0.000000
     34         10.064993   0.000000
     35         11.129824   0.000000
     36         11.257043   0.000000
     37         11.583819   0.000000
     38         11.707415   0.000000
     39         11.874926   0.000000
     40         12.341907   0.000000
     41         12.785721   0.000000
     42         13.367377   0.000000
     43         13.394823   0.000000
     44         15.276268   0.000000
     45         15.473451   0.000000
     46         15.957865   0.000000
     47         16.241237   0.000000
     48         16.260571   0.000000
 
  0.1500000E+00  0.3571429E-01  0.0000000E+00  0.3174603E-02
      1        -12.674287   1.000000
      2        -11.650572   1.000000
      3         -8.645247   1.000000
      4         -8.419107   1.000000
      5         -6.012556   1.000000
      6         -5.485646   1.000000
      7         -4.805573   1.000000
      8         -4.023933   1.000000
      9         -3.807227   1.000000
     10         -3.226436   1.000000
     11         -2.689660   1.000000
     12         -2.331832   1.000000
     13         -1.939257   1.000000
     14         -1.427957   1.000000
     15         -0.053406   1.000000
     16         -0.048176   1.000000
     17          0.066197   1.000000
     18          0.166492   1.000000
     19          0.439166   1.000000
     20          1.900381   0.074322
     21          1.970851   0.000294
     22          2.058535   0.000000
     23          5.500752   0.000000
     24          5.706096   0.000000
     25          5.819705   0.000000
     26          6.255180   0.000000
     27          6.676303   0.000000
     28          7.135237   0.000000
     29          8.026495   0.000000
     30          8.602835   0.000000
     31          8.971187   0.000000
     32          9.052673   0.000000
     33          9.132716   0.000000
     34         10.169935   0.000000
     35         10.867055   0.000000
     36         11.053265   0.000000
     37         11.201869   0.000000
     38         11.625825   0.000000
     39         12.091648   0.000000
     40         12.428935   0.000000
     41         13.035471   0.000000
     42         13.044295   0.000000
     43         13.922140   0.000000
     44         14.768032   0.000000
     45         15.657323   0.000000
     46         15.742083   0.000000
     47         16.127657   0.000000
     48         16.416060   0.000000
 
  0.2500000E+00  0.3571429E-01  0.0000000E+00  0.3174603E-02
      1        -12.588791   1.000000
      2        -11.783586   1.000000
      3         -8.601518   1.000000
      4         -8.404345   1.000000
      5         -5.990686   1.000000
      6         -5.810930   1.000000
      7         -4.759031   1.000000
      8         -3.897966   1.000000
      9         -3.297129   1.000000
     10         -2.856717   1.000000
     11         -2.736747   1.000000
     12         -2.292192   1.000000
     13         -2.048120   1.000000
     14         -1.931251   1.000000
     15         -0.252982   1.000000
     16         -0.013145   1.000000
     17          0.113874   1.000000
     18          0.132166   1.000000
     19          0.409090   1.000000
     20          1.752624   0.996880
     21          1.830732   0.700429
     22          1.838638   0.618684
     23          5.622166   0.000000
     24          5.662415   0.000000
     25          6.128407   0.000000
     26          6.551418   0.000000
     27          6.711431   0.000000
     28          6.881371   0.000000
     29          8.174599   0.000000
     30          8.751932   0.000000
     31          8.920819   0.000000
     32          9.497350   0.000000
     33          9.578098   0.000000
     34         10.209420   0.000000
     35         10.409680   0.000000
     36         10.548010   0.000000
     37         11.318647   0.000000
     38         11.769979   0.000000
     39         12.326013   0.000000
     40         12.480750   0.000000
     41         12.724510   0.000000
     42         12.831296   0.000000
     43         14.545382   0.000000
     44         14.822465   0.000000
     45         15.144641   0.000000
     46         15.887031   0.000000
     47         15.909140   0.000000
     48         16.188251   0.000000
 
  0.3500000E+00  0.3571429E-01  0.0000000E+00  0.3174603E-02
      1        -12.465449   1.000000
      2        -11.952929   1.000000
      3         -8.539733   1.000000
      4         -8.400972   1.000000
      5         -6.070083   1.000000
      6         -6.043543   1.000000
      7         -4.432583   1.000000
      8         -3.730257   1.000000
      9         -3.049395   1.000000
     10         -2.914546   1.000000
     11         -2.464998   1.000000
     12         -2.277003   1.000000
     13         -2.175384   1.000000
     14         -2.147193   1.000000
     15         -0.552096   1.000000
     16         -0.277599   1.000000
     17          0.147490   1.000000
     18          0.222315   1.000000
     19          0.581586   1.000000
     20          1.495352   1.000000
     21          1.631411   1.000000
     22          1.691071   0.999996
     23          5.648095   0.000000
     24          5.706905   0.000000
     25          6.451459   0.000000
     26          6.624424   0.000000
     27          6.649842   0.000000
     28          7.357013   0.000000
     29          8.297075   0.000000
     30          8.625450   0.000000
     31          8.736520   0.000000
     32          9.467762   0.000000
     33          9.978841   0.000000
     34         10.049375   0.000000
     35         10.321880   0.000000
     36         11.061252   0.000000
     37         11.338011   0.000000
     38         11.862145   0.000000
     39         12.126942   0.000000
     40         12.195221   0.000000
     41         12.451766   0.000000
     42         13.185320   0.000000
     43         14.636634   0.000000
     44         14.890667   0.000000
     45         15.162618   0.000000
     46         15.286309   0.000000
     47         15.479606   0.000000
     48         16.282702   0.000000
 
  0.4500000E+00  0.3571429E-01  0.0000000E+00  0.3174603E-02
      1        -12.310892   1.000000
      2        -12.135209   1.000000
      3         -8.473866   1.000000
      4         -8.423260   1.000000
      5         -6.157459   1.000000
      6         -6.153991   1.000000
      7         -3.918713   1.000000
      8         -3.522527   1.000000
      9         -3.320788   1.000000
     10         -3.286427   1.000000
     11         -2.380593   1.000000
     12         -2.255207   1.000000
     13         -1.990080   1.000000
     14         -1.933528   1.000000
     15         -0.772722   1.000000
     16         -0.636401   1.000000
     17          0.230174   1.000000
     18          0.263380   1.000000
     19          0.841444   1.000000
     20          1.157712   1.000000
     21          1.551069   1.000000
     22          1.578007   1.000000
     23          5.677429   0.000000
     24          5.716538   0.000000
     25          6.431360   0.000000
     26          6.495797   0.000000
     27          7.315402   0.000000
     28          8.014261   0.000000
     29          8.038335   0.000000
     30          8.413019   0.000000
     31          8.549457   0.000000
     32          8.726172   0.000000
     33         10.432343   0.000000
     34         10.445129   0.000000
     35         10.682847   0.000000
     36         11.139506   0.000000
     37         11.323336   0.000000
     38         11.512900   0.000000
     39         11.844543   0.000000
     40         12.403930   0.000000
     41         12.646366   0.000000
     42         13.178548   0.000000
     43         14.515483   0.000000
     44         14.645444   0.000000
     45         14.788036   0.000000
     46         14.848088   0.000000
     47         16.001075   0.000000
     48         16.346992   0.000000
 
  0.5000000E-01  0.1071429E+00  0.0000000E+00  0.3174603E-02
      1        -12.694079   1.000000
      2        -11.555182   1.000000
      3         -8.647899   1.000000
      4         -8.407664   1.000000
      5         -6.053875   1.000000
      6         -5.113711   1.000000
      7         -4.662993   1.000000
      8         -4.584542   1.000000
      9         -4.192025   1.000000
     10         -3.539291   1.000000
     11         -3.311441   1.000000
     12         -1.820614   1.000000
     13         -1.117142   1.000000
     14         -1.064935   1.000000
     15         -0.325939   1.000000
     16         -0.297961   1.000000
     17          0.138480   1.000000
     18          0.214720   1.000000
     19          0.612302   1.000000
     20          1.720044   0.999872
     21          1.799060   0.922410
     22          2.230964   0.000000
     23          5.531961   0.000000
     24          5.659113   0.000000
     25          5.696117   0.000000
     26          5.953245   0.000000
     27          7.044795   0.000000
     28          7.780047   0.000000
     29          8.013447   0.000000
     30          8.129188   0.000000
     31          8.726475   0.000000
     32          9.012724   0.000000
     33          9.071509   0.000000
     34         10.512765   0.000000
     35         11.190026   0.000000
     36         11.341489   0.000000
     37         11.518429   0.000000
     38         11.809638   0.000000
     39         11.985965   0.000000
     40         12.619366   0.000000
     41         12.787377   0.000000
     42         13.107713   0.000000
     43         13.110929   0.000000
     44         15.232854   0.000000
     45         15.278450   0.000000
     46         15.762635   0.000000
     47         15.764630   0.000000
     48         16.121073   0.000000
 
  0.1500000E+00  0.1071429E+00  0.0000000E+00  0.3174603E-02
      1        -12.650492   1.000000
      2        -11.628888   1.000000
      3         -8.626497   1.000000
      4         -8.396529   1.000000
      5         -5.984272   1.000000
      6         -5.455644   1.000000
      7         -4.785725   1.000000
      8         -4.503885   1.000000
      9         -3.769115   1.000000
     10         -3.391291   1.000000
     11         -3.188830   1.000000
     12         -1.799108   1.000000
     13         -1.422572   1.000000
     14         -1.181895   1.000000
     15         -0.287461   1.000000
     16         -0.220764   1.000000
     17          0.105488   1.000000
     18          0.188049   1.000000
     19          0.509437   1.000000
     20          1.639899   1.000000
     21          1.722894   0.999825
     22          2.100814   0.000000
     23          5.608174   0.000000
     24          5.758617   0.000000
     25          5.881964   0.000000
     26          6.063260   0.000000
     27          6.962036   0.000000
     28          7.455785   0.000000
     29          8.159304   0.000000
     30          8.295546   0.000000
     31          9.041851   0.000000
     32          9.083363   0.000000
     33          9.341618   0.000000
     34         10.432167   0.000000
     35         10.799721   0.000000
     36         11.006612   0.000000
     37         11.395372   0.000000
     38         11.798581   0.000000
     39         12.204807   0.000000
     40         12.668070   0.000000
     41         12.788396   0.000000
     42         13.068160   0.000000
     43         13.642193   0.000000
     44         14.852407   0.000000
     45         15.302012   0.000000
     46         15.661799   0.000000
     47         15.696575   0.000000
     48         16.301048   0.000000
 
  0.2500000E+00  0.1071429E+00  0.0000000E+00  0.3174603E-02
      1        -12.565185   1.000000
      2        -11.761647   1.000000
      3         -8.582551   1.000000
      4         -8.382461   1.000000
      5         -5.959653   1.000000
      6         -5.780694   1.000000
      7         -4.742535   1.000000
      8         -4.396389   1.000000
      9         -3.512272   1.000000
     10         -3.244805   1.000000
     11         -2.724179   1.000000
     12         -1.926633   1.000000
     13         -1.755215   1.000000
     14         -1.342925   1.000000
     15         -0.254899   1.000000
     16         -0.241867   1.000000
     17          0.026645   1.000000
     18          0.175140   1.000000
     19          0.433387   1.000000
     20          1.505485   1.000000
     21          1.593326   1.000000
     22          1.853752   0.450074
     23          5.803753   0.000000
     24          5.886884   0.000000
     25          5.965631   0.000000
     26          6.509468   0.000000
     27          6.842386   0.000000
     28          7.229069   0.000000
     29          8.366136   0.000000
     30          8.426470   0.000000
     31          9.018258   0.000000
     32          9.535965   0.000000
     33          9.802290   0.000000
     34         10.054764   0.000000
     35         10.279172   0.000000
     36         10.743346   0.000000
     37         11.457558   0.000000
     38         12.033934   0.000000
     39         12.226805   0.000000
     40         12.487143   0.000000
     41         12.870917   0.000000
     42         12.952299   0.000000
     43         14.217557   0.000000
     44         14.987070   0.000000
     45         15.071732   0.000000
     46         15.550318   0.000000
     47         15.618504   0.000000
     48         16.321649   0.000000
 
  0.3500000E+00  0.1071429E+00  0.0000000E+00  0.3174603E-02
      1        -12.442102   1.000000
      2        -11.930649   1.000000
      3         -8.520511   1.000000
      4         -8.379968   1.000000
      5         -6.037853   1.000000
      6         -6.012481   1.000000
      7         -4.418220   1.000000
      8         -4.250423   1.000000
      9         -3.682302   1.000000
     10         -2.867114   1.000000
     11         -2.384123   1.000000
     12         -2.242435   1.000000
     13         -1.691549   1.000000
     14         -1.504509   1.000000
     15         -0.514369   1.000000
     16         -0.337881   1.000000
     17          0.057495   1.000000
     18          0.088838   1.000000
     19          0.592144   1.000000
     20          1.366168   1.000000
     21          1.448634   1.000000
     22          1.531380   1.000000
     23          5.821128   0.000000
     24          5.959753   0.000000
     25          6.469822   0.000000
     26          6.754270   0.000000
     27          6.828006   0.000000
     28          7.318114   0.000000
     29          8.357691   0.000000
     30          8.532946   0.000000
     31          8.865166   0.000000
     32          9.304921   0.000000
     33          9.998433   0.000000
     34         10.021455   0.000000
     35         10.370514   0.000000
     36         11.137333   0.000000
     37         11.292046   0.000000
     38         11.763688   0.000000
     39         12.202502   0.000000
     40         12.475273   0.000000
     41         12.650268   0.000000
     42         13.385588   0.000000
     43         14.677738   0.000000
     44         14.687548   0.000000
     45         15.059760   0.000000
     46         15.219151   0.000000
     47         15.554541   0.000000
     48         16.296968   0.000000
 
  0.4500000E+00  0.1071429E+00  0.0000000E+00  0.3174603E-02
      1        -12.287874   1.000000
      2        -12.112553   1.000000
      3         -8.454299   1.000000
      4         -8.403098   1.000000
      5         -6.125609   1.000000
      6         -6.121704   1.000000
      7         -4.072791   1.000000
      8         -3.911147   1.000000
      9         -3.870770   1.000000
     10         -3.308122   1.000000
     11         -2.128595   1.000000
     12         -1.937127   1.000000
     13         -1.623457   1.000000
     14         -1.617510   1.000000
     15         -0.734961   1.000000
     16         -0.632236   1.000000
     17          0.091896   1.000000
     18          0.122874   1.000000
     19          0.850759   1.000000
     20          1.164200   1.000000
     21          1.313112   1.000000
     22          1.336919   1.000000
     23          5.873408   0.000000
     24          5.940812   0.000000
     25          6.744688   0.000000
     26          6.795523   0.000000
     27          7.134058   0.000000
     28          7.842154   0.000000
     29          7.884350   0.000000
     30          8.562562   0.000000
     31          8.624072   0.000000
     32          8.735373   0.000000
     33         10.245814   0.000000
     34         10.495356   0.000000
     35         10.734313   0.000000
     36         10.831400   0.000000
     37         11.470715   0.000000
     38         11.571420   0.000000
     39         11.921875   0.000000
     40         12.570312   0.000000
     41         12.952228   0.000000
     42         13.407645   0.000000
     43         14.463078   0.000000
     44         14.648630   0.000000
     45         14.748261   0.000000
     46         14.966172   0.000000
     47         16.027151   0.000000
     48         16.322065   0.000000
 
  0.5000000E-01  0.1785714E+00  0.0000000E+00  0.3174603E-02
      1        -12.649951   1.000000
      2        -11.515446   1.000000
      3         -8.613853   1.000000
      4         -8.365322   1.000000
      5         -6.004861   1.000000
      6         -5.140839   1.000000
      7         -5.023789   1.000000
      8         -4.621578   1.000000
      9         -4.175290   1.000000
     10         -3.932067   1.000000
     11         -3.486394   1.000000
     12         -1.230028   1.000000
     13         -1.107951   1.000000
     14         -0.667395   1.000000
     15         -0.564442   1.000000
     16         -0.208553   1.000000
     17          0.159516   1.000000
     18          0.266835   1.000000
     19          0.690139   1.000000
     20          1.339619   1.000000
     21          1.402231   1.000000
     22          2.268602   0.000000
     23          5.245988   0.000000
     24          5.409275   0.000000
     25          6.070465   0.000000
     26          6.139353   0.000000
     27          7.475917   0.000000
     28          7.564880   0.000000
     29          8.259555   0.000000
     30          8.655286   0.000000
     31          8.813404   0.000000
     32          9.152635   0.000000
     33          9.294679   0.000000
     34         10.810475   0.000000
     35         11.244798   0.000000
     36         11.495499   0.000000
     37         11.637956   0.000000
     38         12.008793   0.000000
     39         12.201706   0.000000
     40         12.669828   0.000000
     41         12.681861   0.000000
     42         12.917406   0.000000
     43         13.154268   0.000000
     44         14.571356   0.000000
     45         15.064594   0.000000
     46         15.239601   0.000000
     47         15.346309   0.000000
     48         15.859232   0.000000
 
  0.1500000E+00  0.1785714E+00  0.0000000E+00  0.3174603E-02
      1        -12.606543   1.000000
      2        -11.588892   1.000000
      3         -8.592139   1.000000
      4         -8.354885   1.000000
      5         -5.931879   1.000000
      6         -5.407070   1.000000
      7         -5.044619   1.000000
      8         -4.748353   1.000000
      9         -3.997516   1.000000
     10         -3.727573   1.000000
     11         -3.149501   1.000000
     12         -1.414263   1.000000
     13         -1.204171   1.000000
     14         -0.775732   1.000000
     15         -0.526625   1.000000
     16         -0.126735   1.000000
     17          0.137974   1.000000
     18          0.213054   1.000000
     19          0.577533   1.000000
     20          1.260866   1.000000
     21          1.332755   1.000000
     22          2.133495   0.000000
     23          5.326510   0.000000
     24          5.752706   0.000000
     25          6.085486   0.000000
     26          6.186046   0.000000
     27          7.395646   0.000000
     28          7.721389   0.000000
     29          7.991978   0.000000
     30          8.748055   0.000000
     31          9.167101   0.000000
     32          9.214353   0.000000
     33          9.577739   0.000000
     34         10.446257   0.000000
     35         10.705929   0.000000
     36         11.200748   0.000000
     37         11.655690   0.000000
     38         12.122899   0.000000
     39         12.354828   0.000000
     40         12.429842   0.000000
     41         13.078730   0.000000
     42         13.200156   0.000000
     43         13.351773   0.000000
     44         14.584613   0.000000
     45         14.728856   0.000000
     46         15.172352   0.000000
     47         15.410545   0.000000
     48         15.893365   0.000000
 
  0.2500000E+00  0.1785714E+00  0.0000000E+00  0.3174603E-02
      1        -12.521570   1.000000
      2        -11.721165   1.000000
      3         -8.547761   1.000000
      4         -8.342133   1.000000
      5         -5.901908   1.000000
      6         -5.726079   1.000000
      7         -4.953194   1.000000
      8         -4.711737   1.000000
      9         -4.119895   1.000000
     10         -3.195457   1.000000
     11         -2.680480   1.000000
     12         -1.910371   1.000000
     13         -1.163922   1.000000
     14         -0.915164   1.000000
     15         -0.474270   1.000000
     16         -0.121843   1.000000
     17         -0.014630   1.000000
     18          0.224127   1.000000
     19          0.462950   1.000000
     20          1.129973   1.000000
     21          1.214865   1.000000
     22          1.878150   0.207383
     23          5.646496   0.000000
     24          6.040597   0.000000
     25          6.226000   0.000000
     26          6.316699   0.000000
     27          7.294342   0.000000
     28          7.804206   0.000000
     29          7.955592   0.000000
     30          8.877125   0.000000
     31          9.166062   0.000000
     32          9.644410   0.000000
     33          9.783966   0.000000
     34         10.060157   0.000000
     35         10.182375   0.000000
     36         10.982905   0.000000
     37         11.517311   0.000000
     38         12.030215   0.000000
     39         12.431928   0.000000
     40         12.731253   0.000000
     41         12.958467   0.000000
     42         13.369889   0.000000
     43         13.873392   0.000000
     44         14.496738   0.000000
     45         14.777729   0.000000
     46         15.197901   0.000000
     47         15.426744   0.000000
     48         16.104249   0.000000
 
  0.3500000E+00  0.1785714E+00  0.0000000E+00  0.3174603E-02
      1        -12.398982   1.000000
      2        -11.889538   1.000000
      3         -8.485256   1.000000
      4         -8.341328   1.000000
      5         -5.977788   1.000000
      6         -5.955184   1.000000
      7         -4.818267   1.000000
      8         -4.391737   1.000000
      9         -4.282911   1.000000
     10         -2.829257   1.000000
     11         -2.343808   1.000000
     12         -2.201406   1.000000
     13         -1.107822   1.000000
     14         -1.052518   1.000000
     15         -0.482049   1.000000
     16         -0.406136   1.000000
     17          0.028819   1.000000
     18          0.030499   1.000000
     19          0.609573   1.000000
     20          1.000856   1.000000
     21          1.082671   1.000000
     22          1.544591   1.000000
     23          6.052820   0.000000
     24          6.178716   0.000000
     25          6.347400   0.000000
     26          6.749744   0.000000
     27          7.240243   0.000000
     28          7.726502   0.000000
     29          8.013419   0.000000
     30          8.976546   0.000000
     31          9.038135   0.000000
     32          9.105976   0.000000
     33          9.812148   0.000000
     34         10.110314   0.000000
     35         10.631338   0.000000
     36         11.003828   0.000000
     37         11.235902   0.000000
     38         11.875789   0.000000
     39         12.264414   0.000000
     40         12.911557   0.000000
     41         12.962552   0.000000
     42         13.710514   0.000000
     43         14.286282   0.000000
     44         14.306086   0.000000
     45         14.937766   0.000000
     46         15.032945   0.000000
     47         15.516404   0.000000
     48         16.283393   0.000000
 
  0.4500000E+00  0.1785714E+00  0.0000000E+00  0.3174603E-02
      1        -12.245368   1.000000
      2        -12.070739   1.000000
      3         -8.418373   1.000000
      4         -8.366050   1.000000
      5         -6.066490   1.000000
      6         -6.061601   1.000000
      7         -4.651751   1.000000
      8         -4.467598   1.000000
      9         -3.880637   1.000000
     10         -3.285776   1.000000
     11         -2.061452   1.000000
     12         -1.897196   1.000000
     13         -1.126117   1.000000
     14         -1.066951   1.000000
     15         -0.659857   1.000000
     16         -0.655765   1.000000
     17         -0.020107   1.000000
     18          0.023378   1.000000
     19          0.866356   1.000000
     20          0.938434   1.000000
     21          0.978650   1.000000
     22          1.192462   1.000000
     23          6.144873   0.000000
     24          6.264398   0.000000
     25          6.828008   0.000000
     26          7.162302   0.000000
     27          7.219499   0.000000
     28          7.569328   0.000000
     29          7.872597   0.000000
     30          8.380152   0.000000
     31          9.031747   0.000000
     32          9.063137   0.000000
     33          9.937112   0.000000
     34         10.409967   0.000000
     35         10.632171   0.000000
     36         10.908664   0.000000
     37         11.650271   0.000000
     38         11.661362   0.000000
     39         12.040250   0.000000
     40         12.823000   0.000000
     41         13.338647   0.000000
     42         13.682787   0.000000
     43         14.138849   0.000000
     44         14.292841   0.000000
     45         14.907759   0.000000
     46         15.046130   0.000000
     47         15.894689   0.000000
     48         16.196709   0.000000
 
  0.5000000E-01  0.2500000E+00  0.0000000E+00  0.3174603E-02
      1        -12.592780   1.000000
      2        -11.464106   1.000000
      3         -8.570358   1.000000
      4         -8.310549   1.000000
      5         -5.941256   1.000000
      6         -5.620636   1.000000
      7         -4.954286   1.000000
      8         -4.565891   1.000000
      9         -4.451044   1.000000
     10         -4.136193   1.000000
     11         -3.424883   1.000000
     12         -1.238051   1.000000
     13         -1.093686   1.000000
     14         -1.019169   1.000000
     15         -0.223910   1.000000
     16          0.187504   1.000000
     17          0.309631   1.000000
     18          0.560796   1.000000
     19          0.753373   1.000000
     20          0.956156   1.000000
     21          0.970054   1.000000
     22          2.302406   0.000000
     23          4.905556   0.000000
     24          5.117924   0.000000
     25          6.298365   0.000000
     26          6.528215   0.000000
     27          7.208941   0.000000
     28          7.900972   0.000000
     29          8.624812   0.000000
     30          8.996504   0.000000
     31          9.378263   0.000000
     32          9.513102   0.000000
     33          9.575703   0.000000
     34         10.671834   0.000000
     35         11.191872   0.000000
     36         11.893523   0.000000
     37         11.951120   0.000000
     38         12.214212   0.000000
     39         12.349365   0.000000
     40         12.377130   0.000000
     41         12.488329   0.000000
     42         12.902062   0.000000
     43         13.691304   0.000000
     44         13.801961   0.000000
     45         14.321961   0.000000
     46         15.017607   0.000000
     47         15.320283   0.000000
     48         15.749160   0.000000
 
  0.1500000E+00  0.2500000E+00  0.0000000E+00  0.3174603E-02
      1        -12.549601   1.000000
      2        -11.537212   1.000000
      3         -8.548231   1.000000
      4         -8.301060   1.000000
      5         -5.863686   1.000000
      6         -5.585851   1.000000
      7         -5.289539   1.000000
      8         -4.698924   1.000000