  14  14   0   0
  0.1023493E+02  0.5699849E-09  0.4049924E-09  0.6207302E-09  0.5000000E-15
  1.000000000000000E-004
  CAR 
 Convergence                             
     17.94931914    -14.18373225  301      1.87537613      1.00000000
    -14.184  0.0000E+00  0.0000E+00
    -14.077  0.0000E+00  0.0000E+00
    -13.970  0.0000E+00  0.0000E+00
    -13.862  0.0000E+00  0.0000E+00
    -13.755  0.0000E+00  0.0000E+00
    -13.648  0.0000E+00  0.0000E+00
    -13.541  0.0000E+00  0.0000E+00
    -13.434  0.0000E+00  0.0000E+00
    -13.327  0.0000E+00  0.0000E+00
    -13.220  0.0000E+00  0.0000E+00
    -13.113  0.0000E+00  0.0000E+00
    -13.006  0.4607E-16  0.4934E-17
    -12.898  0.3040E-07  0.3256E-08
    -12.791  0.3841E-02  0.4114E-03
    -12.684  0.5091E+00  0.5495E-01
    -12.577  0.2392E+01  0.3112E+00
    -12.470  0.3568E+01  0.6933E+00
    -12.363  0.4374E+01  0.1162E+01
    -12.256  0.3539E+01  0.1541E+01
    -12.149  0.2736E+01  0.1834E+01
    -12.042  0.2753E+01  0.2129E+01
    -11.934  0.2503E+01  0.2397E+01
    -11.827  0.2771E+01  0.2694E+01
    -11.720  0.3421E+01  0.3060E+01
    -11.613  0.3536E+01  0.3439E+01
    -11.506  0.3123E+01  0.3773E+01
    -11.399  0.1679E+01  0.3953E+01
    -11.292  0.4293E+00  0.3999E+01
    -11.185  0.7707E-02  0.4000E+01
    -11.078  0.2015E-06  0.4000E+01
    -10.970  0.1185E-14  0.4000E+01
    -10.863  0.0000E+00  0.4000E+01
    -10.756  0.0000E+00  0.4000E+01
    -10.649  0.0000E+00  0.4000E+01
    -10.542  0.0000E+00  0.4000E+01
    -10.435  0.0000E+00  0.4000E+01
    -10.328  0.0000E+00  0.4000E+01
    -10.221  0.0000E+00  0.4000E+01
    -10.114  0.0000E+00  0.4000E+01
    -10.006  0.0000E+00  0.4000E+01
     -9.899  0.0000E+00  0.4000E+01
     -9.792  0.0000E+00  0.4000E+01
     -9.685  0.0000E+00  0.4000E+01
     -9.578  0.0000E+00  0.4000E+01
     -9.471  0.0000E+00  0.4000E+01
     -9.364  0.0000E+00  0.4000E+01
     -9.257  0.0000E+00  0.4000E+01
     -9.150  0.0000E+00  0.4000E+01
     -9.042  0.9923E-09  0.4000E+01
     -8.935  0.6366E-03  0.4000E+01
     -8.828  0.2782E+00  0.4030E+01
     -8.721  0.2098E+01  0.4255E+01
     -8.614  0.5349E+01  0.4828E+01
     -8.507  0.6998E+01  0.5577E+01
     -8.400  0.6292E+01  0.6251E+01
     -8.293  0.5327E+01  0.6822E+01
     -8.186  0.4840E+01  0.7340E+01
     -8.078  0.3869E+01  0.7754E+01
     -7.971  0.1664E+01  0.7933E+01
     -7.864  0.5767E+00  0.7994E+01
     -7.757  0.5192E-01  0.8000E+01
     -7.650  0.2418E-04  0.8000E+01
     -7.543  0.2773E-11  0.8000E+01
     -7.436  0.0000E+00  0.8000E+01
     -7.329  0.0000E+00  0.8000E+01
     -7.222  0.0000E+00  0.8000E+01
     -7.114  0.4585E-09  0.8000E+01
     -7.007  0.3827E-03  0.8000E+01
     -6.900  0.1118E+00  0.8012E+01
     -6.793  0.2584E+00  0.8040E+01
     -6.686  0.4255E+00  0.8085E+01
     -6.579  0.7662E+00  0.8167E+01
     -6.472  0.8486E+00  0.8258E+01
     -6.365  0.1440E+01  0.8413E+01
     -6.258  0.1953E+01  0.8622E+01
     -6.150  0.3055E+01  0.8949E+01
     -6.043  0.3790E+01  0.9355E+01
     -5.936  0.4118E+01  0.9796E+01
     -5.829  0.4048E+01  0.1023E+02
     -5.722  0.3871E+01  0.1064E+02
     -5.615  0.4074E+01  0.1108E+02
     -5.508  0.4219E+01  0.1153E+02
     -5.401  0.4554E+01  0.1202E+02
     -5.294  0.4609E+01  0.1251E+02
     -5.186  0.4494E+01  0.1300E+02
     -5.079  0.3875E+01  0.1341E+02
     -4.972  0.3225E+01  0.1376E+02
     -4.865  0.2962E+01  0.1407E+02
     -4.758  0.2325E+01  0.1432E+02
     -4.651  0.2897E+01  0.1463E+02
     -4.544  0.3371E+01  0.1499E+02
     -4.437  0.3462E+01  0.1536E+02
     -4.330  0.3344E+01  0.1572E+02
     -4.222  0.2958E+01  0.1604E+02
     -4.115  0.2909E+01  0.1635E+02
     -4.008  0.2940E+01  0.1667E+02
     -3.901  0.2869E+01  0.1697E+02
     -3.794  0.3114E+01  0.1731E+02
     -3.687  0.2884E+01  0.1762E+02
     -3.580  0.2706E+01  0.1791E+02
     -3.473  0.3071E+01  0.1823E+02
     -3.366  0.2647E+01  0.1852E+02
     -3.258  0.2849E+01  0.1882E+02
     -3.151  0.2764E+01  0.1912E+02
     -3.044  0.2728E+01  0.1941E+02
     -2.937  0.3060E+01  0.1974E+02
     -2.830  0.2979E+01  0.2006E+02
     -2.723  0.2437E+01  0.2032E+02
     -2.616  0.2649E+01  0.2060E+02
     -2.509  0.3017E+01  0.2093E+02
     -2.402  0.2993E+01  0.2125E+02
     -2.295  0.3189E+01  0.2159E+02
     -2.187  0.4005E+01  0.2202E+02
     -2.080  0.3657E+01  0.2241E+02
     -1.973  0.3250E+01  0.2276E+02
     -1.866  0.5073E+01  0.2330E+02
     -1.759  0.5557E+01  0.2390E+02
     -1.652  0.5623E+01  0.2450E+02
     -1.545  0.6179E+01  0.2516E+02
     -1.438  0.6126E+01  0.2582E+02
     -1.331  0.5587E+01  0.2641E+02
     -1.223  0.4683E+01  0.2692E+02
     -1.116  0.6497E+01  0.2761E+02
     -1.009  0.4055E+01  0.2805E+02
     -0.902  0.2276E+01  0.2829E+02
     -0.795  0.2702E+01  0.2858E+02
     -0.688  0.2881E+01  0.2889E+02
     -0.581  0.4484E+01  0.2937E+02
     -0.474  0.6846E+01  0.3010E+02
     -0.367  0.5666E+01  0.3071E+02
     -0.259  0.6679E+01  0.3142E+02
     -0.152  0.6367E+01  0.3211E+02
     -0.045  0.6742E+01  0.3283E+02
      0.062  0.6789E+01  0.3355E+02
      0.169  0.6274E+01  0.3423E+02
      0.276  0.8818E+01  0.3517E+02
      0.383  0.8031E+01  0.3603E+02
      0.490  0.8690E+01  0.3696E+02
      0.597  0.5303E+01  0.3753E+02
      0.705  0.2966E+01  0.3785E+02
      0.812  0.3268E+01  0.3820E+02
      0.919  0.3589E+01  0.3858E+02
      1.026  0.3571E+01  0.3897E+02
      1.133  0.2797E+01  0.3926E+02
      1.240  0.3379E+01  0.3963E+02
      1.347  0.4489E+01  0.4011E+02
      1.454  0.3795E+01  0.4051E+02
      1.561  0.3713E+01  0.4091E+02
      1.669  0.4583E+01  0.4140E+02
      1.776  0.3279E+01  0.4175E+02
      1.883  0.2477E+01  0.4202E+02
      1.990  0.2669E+01  0.4230E+02
      2.097  0.2093E+01  0.4253E+02
      2.204  0.2651E+01  0.4281E+02
      2.311  0.2587E+01  0.4309E+02
      2.418  0.1953E+01  0.4330E+02
      2.525  0.8717E+00  0.4339E+02
      2.633  0.3786E+00  0.4343E+02
      2.740  0.5738E+00  0.4349E+02
      2.847  0.4202E+00  0.4354E+02
      2.954  0.3055E+00  0.4357E+02
      3.061  0.7491E+00  0.4365E+02
      3.168  0.1018E+01  0.4376E+02
      3.275  0.5497E+00  0.4382E+02
      3.382  0.1430E-01  0.4382E+02
      3.489  0.1269E+00  0.4384E+02
      3.597  0.3945E+00  0.4388E+02
      3.704  0.3337E+00  0.4391E+02
      3.811  0.3694E+00  0.4395E+02
      3.918  0.4063E+00  0.4400E+02
      4.025  0.2838E-01  0.4400E+02
      4.132  0.1780E-04  0.4400E+02
      4.239  0.2585E-01  0.4400E+02
      4.346  0.1714E+00  0.4402E+02
      4.453  0.3964E+00  0.4406E+02
      4.561  0.4619E+00  0.4411E+02
      4.668  0.6279E+00  0.4418E+02
      4.775  0.8825E+00  0.4427E+02
      4.882  0.8392E+00  0.4436E+02
      4.989  0.8598E+00  0.4446E+02
      5.096  0.1268E+01  0.4459E+02
      5.203  0.1163E+01  0.4472E+02
      5.310  0.1618E+01  0.4489E+02
      5.417  0.2172E+01  0.4512E+02
      5.525  0.2492E+01  0.4539E+02
      5.632  0.2792E+01  0.4569E+02
      5.739  0.3340E+01  0.4605E+02
      5.846  0.3235E+01  0.4639E+02
      5.953  0.4286E+01  0.4685E+02
      6.060  0.4780E+01  0.4736E+02
      6.167  0.4059E+01  0.4780E+02
      6.274  0.4616E+01  0.4829E+02
      6.381  0.4201E+01  0.4874E+02
      6.489  0.3995E+01  0.4917E+02
      6.596  0.4498E+01  0.4965E+02
      6.703  0.3237E+01  0.5000E+02
      6.810  0.3984E+01  0.5043E+02
      6.917  0.4610E+01  0.5092E+02
      7.024  0.4566E+01  0.5141E+02
      7.131  0.4340E+01  0.5187E+02
      7.238  0.5591E+01  0.5247E+02
      7.345  0.4951E+01  0.5300E+02
      7.453  0.4464E+01  0.5348E+02
      7.560  0.4207E+01  0.5393E+02
      7.667  0.3577E+01  0.5432E+02
      7.774  0.3117E+01  0.5465E+02
      7.881  0.3018E+01  0.5497E+02
      7.988  0.2974E+01  0.5529E+02
      8.095  0.4165E+01  0.5574E+02
      8.202  0.3902E+01  0.5616E+02
      8.309  0.3710E+01  0.5655E+02
      8.417  0.3998E+01  0.5698E+02
      8.524  0.4230E+01  0.5743E+02
      8.631  0.4472E+01  0.5791E+02
      8.738  0.4246E+01  0.5837E+02
      8.845  0.5297E+01  0.5894E+02
      8.952  0.4891E+01  0.5946E+02
      9.059  0.5290E+01  0.6003E+02
      9.166  0.5233E+01  0.6059E+02
      9.273  0.4988E+01  0.6112E+02
      9.381  0.4680E+01  0.6162E+02
      9.488  0.4383E+01  0.6209E+02
      9.595  0.5100E+01  0.6264E+02
      9.702  0.5031E+01  0.6318E+02
      9.809  0.5294E+01  0.6374E+02
      9.916  0.4486E+01  0.6422E+02
     10.023  0.3654E+01  0.6462E+02
     10.130  0.5183E+01  0.6517E+02
     10.237  0.4718E+01  0.6568E+02
     10.344  0.4134E+01  0.6612E+02
     10.452  0.5386E+01  0.6670E+02
     10.559  0.5820E+01  0.6732E+02
     10.666  0.4072E+01  0.6776E+02
     10.773  0.3896E+01  0.6817E+02
     10.880  0.3252E+01  0.6852E+02
     10.987  0.4675E+01  0.6902E+02
     11.094  0.5457E+01  0.6961E+02
     11.201  0.6227E+01  0.7027E+02
     11.308  0.6000E+01  0.7092E+02
     11.416  0.5250E+01  0.7148E+02
     11.523  0.4343E+01  0.7194E+02
     11.630  0.4475E+01  0.7242E+02
     11.737  0.4951E+01  0.7295E+02
     11.844  0.4813E+01  0.7347E+02
     11.951  0.6022E+01  0.7411E+02
     12.058  0.5979E+01  0.7475E+02
     12.165  0.6019E+01  0.7540E+02
     12.272  0.5592E+01  0.7600E+02
     12.380  0.5001E+01  0.7653E+02
     12.487  0.5702E+01  0.7714E+02
     12.594  0.5980E+01  0.7778E+02
     12.701  0.5993E+01  0.7843E+02
     12.808  0.5912E+01  0.7906E+02
     12.915  0.5873E+01  0.7969E+02
     13.022  0.5606E+01  0.8029E+02
     13.129  0.6349E+01  0.8097E+02
     13.236  0.6283E+01  0.8164E+02
     13.344  0.5413E+01  0.8222E+02
     13.451  0.6128E+01  0.8288E+02
     13.558  0.5377E+01  0.8345E+02
     13.665  0.4820E+01  0.8397E+02
     13.772  0.6151E+01  0.8463E+02
     13.879  0.5522E+01  0.8522E+02
     13.986  0.5354E+01  0.8579E+02
     14.093  0.5477E+01  0.8638E+02
     14.200  0.4681E+01  0.8688E+02
     14.308  0.4928E+01  0.8741E+02
     14.415  0.4997E+01  0.8795E+02
     14.522  0.4954E+01  0.8848E+02
     14.629  0.5274E+01  0.8904E+02
     14.736  0.5179E+01  0.8960E+02
     14.843  0.4095E+01  0.9003E+02
     14.950  0.5056E+01  0.9058E+02
     15.057  0.6171E+01  0.9124E+02
     15.164  0.5663E+01  0.9184E+02
     15.272  0.5693E+01  0.9245E+02
     15.379  0.6017E+01  0.9310E+02
     15.486  0.5748E+01  0.9371E+02
     15.593  0.5974E+01  0.9435E+02
     15.700  0.4605E+01  0.9485E+02
     15.807  0.2486E+01  0.9511E+02
     15.914  0.2707E+01  0.9540E+02
     16.021  0.1854E+01  0.9560E+02
     16.128  0.1140E+01  0.9572E+02
     16.236  0.8885E+00  0.9582E+02
     16.343  0.7016E+00  0.9589E+02
     16.450  0.8140E+00  0.9598E+02
     16.557  0.1777E+00  0.9600E+02
     16.664  0.1694E-02  0.9600E+02
     16.771  0.2120E-07  0.9600E+02
     16.878  0.3949E-16  0.9600E+02
     16.985  0.0000E+00  0.9600E+02
     17.092  0.0000E+00  0.9600E+02
     17.200  0.0000E+00  0.9600E+02
     17.307  0.0000E+00  0.9600E+02
     17.414  0.0000E+00  0.9600E+02
     17.521  0.0000E+00  0.9600E+02
     17.628  0.0000E+00  0.9600E+02
     17.735  0.0000E+00  0.9600E+02
     17.842  0.0000E+00  0.9600E+02
     17.949  0.0000E+00  0.9600E+02
