<?xml version="1.0" encoding="ISO-8859-1"?>
<modeling>
 <generator>
  <i name="program" type="string">vasp </i>
  <i name="version" type="string">6.4.3  </i>
  <i name="subversion" type="string">19Mar24 (build May 31 2024 16:31:43) complex                          parallel </i>
  <i name="platform" type="string">LinuxIFC </i>
  <i name="date" type="string">2024 11 05 </i>
  <i name="time" type="string">22:25:05 </i>
 </generator>
 <incar>
  <i type="string" name="SYSTEM">Convergence</i>
  <i type="int" name="ISTART">     0</i>
  <i type="string" name="PREC">Accurate</i>
  <i type="string" name="ALGO">Normal</i>
  <i type="int" name="ISPIN">     1</i>
  <i type="int" name="ICHARG">     2</i>
  <i type="int" name="NELM">   100</i>
  <i type="int" name="IBRION">    -1</i>
  <i name="EDIFF">      0.00000100</i>
  <i name="EDIFFG">     -0.00100000</i>
  <i type="int" name="NSW">     0</i>
  <i type="int" name="ISIF">     2</i>
  <i name="ENCUT">    600.00000000</i>
  <i name="POTIM">      0.50000000</i>
  <i type="int" name="ISMEAR">     0</i>
  <i name="SIGMA">      0.05000000</i>
  <i type="logical" name="LWAVE"> F  </i>
  <i type="logical" name="LCHARG"> F  </i>
  <i type="string" name="GGA">PE</i>
 </incar>
 <primitive_cell>
  <structure name="primitive_cell" >
   <crystal>
    <varray name="basis" >
     <v>       5.69984850       0.00000000       0.00000000 </v>
     <v>       0.00000000       4.04992395       0.00000000 </v>
     <v>       0.00000000       0.00000000       6.20730210 </v>
    </varray>
    <i name="volume">    143.28906963 </i>
    <varray name="rec_basis" >
     <v>       0.17544326       0.00000000       0.00000000 </v>
     <v>       0.00000000       0.24691822       0.00000000 </v>
     <v>       0.00000000       0.00000000       0.16110059 </v>
    </varray>
   </crystal>
   <varray name="positions" >
    <v>       0.52123000       0.50000000       0.63796000 </v>
    <v>       0.47877000       0.50000000       0.36204000 </v>
    <v>       0.97877000       0.50000000       0.63796000 </v>
    <v>       0.02123000       0.50000000       0.36204000 </v>
    <v>       0.60090000       0.50000000       0.89991000 </v>
    <v>       0.39910000       0.50000000       0.10009000 </v>
    <v>       0.89910000       0.50000000       0.89991000 </v>
    <v>       0.10090000       0.50000000       0.10009000 </v>
    <v>       0.75000000       0.79171000       0.72973000 </v>
    <v>       0.25000000       0.20829000       0.27027000 </v>
    <v>       0.75000000       0.20829000       0.72973000 </v>
    <v>       0.25000000       0.79171000       0.27027000 </v>
    <v>       0.25000000       0.50000000       0.52367000 </v>
    <v>       0.75000000       0.50000000       0.47633000 </v>
   </varray>
  </structure>
  <varray name="primitive_index" >
   <v type="int" >        1 </v>
   <v type="int" >        2 </v>
   <v type="int" >        3 </v>
   <v type="int" >        4 </v>
   <v type="int" >        5 </v>
   <v type="int" >        6 </v>
   <v type="int" >        7 </v>
   <v type="int" >        8 </v>
   <v type="int" >        9 </v>
   <v type="int" >       10 </v>
   <v type="int" >       11 </v>
   <v type="int" >       12 </v>
   <v type="int" >       13 </v>
   <v type="int" >       14 </v>
  </varray>
 </primitive_cell>
 <kpoints>
  <generation param="Monkhorst-Pack">
   <v type="int" name="divisions">      10       14        9 </v>
   <v name="usershift">      0.00000000       0.00000000       0.00000000 </v>
   <v name="genvec1">      0.10000000       0.00000000       0.00000000 </v>
   <v name="genvec2">      0.00000000       0.07142857       0.00000000 </v>
   <v name="genvec3">      0.00000000       0.00000000       0.11111111 </v>
   <v name="shift">      0.50000000       0.50000000       0.00000000 </v>
  </generation>
  <varray name="kpointlist" >
   <v>       0.05000000       0.03571429       0.00000000 </v>
   <v>       0.15000000       0.03571429       0.00000000 </v>
   <v>       0.25000000       0.03571429       0.00000000 </v>
   <v>       0.35000000       0.03571429       0.00000000 </v>
   <v>       0.45000000       0.03571429       0.00000000 </v>
   <v>       0.05000000       0.10714286       0.00000000 </v>
   <v>       0.15000000       0.10714286       0.00000000 </v>
   <v>       0.25000000       0.10714286       0.00000000 </v>
   <v>       0.35000000       0.10714286       0.00000000 </v>
   <v>       0.45000000       0.10714286       0.00000000 </v>
   <v>       0.05000000       0.17857143       0.00000000 </v>
   <v>       0.15000000       0.17857143       0.00000000 </v>
   <v>       0.25000000       0.17857143       0.00000000 </v>
   <v>       0.35000000       0.17857143       0.00000000 </v>
   <v>       0.45000000       0.17857143       0.00000000 </v>
   <v>       0.05000000       0.25000000       0.00000000 </v>
   <v>       0.15000000       0.25000000       0.00000000 </v>
   <v>       0.25000000       0.25000000       0.00000000 </v>
   <v>       0.35000000       0.25000000       0.00000000 </v>
   <v>       0.45000000       0.25000000       0.00000000 </v>
   <v>       0.05000000       0.32142857       0.00000000 </v>
   <v>       0.15000000       0.32142857       0.00000000 </v>
   <v>       0.25000000       0.32142857       0.00000000 </v>
   <v>       0.35000000       0.32142857       0.00000000 </v>
   <v>       0.45000000       0.32142857       0.00000000 </v>
   <v>       0.05000000       0.39285714       0.00000000 </v>
   <v>       0.15000000       0.39285714       0.00000000 </v>
   <v>       0.25000000       0.39285714       0.00000000 </v>
   <v>       0.35000000       0.39285714       0.00000000 </v>
   <v>       0.45000000       0.39285714       0.00000000 </v>
   <v>       0.05000000       0.46428571       0.00000000 </v>
   <v>       0.15000000       0.46428571       0.00000000 </v>
   <v>       0.25000000       0.46428571       0.00000000 </v>
   <v>       0.35000000       0.46428571       0.00000000 </v>
   <v>       0.45000000       0.46428571       0.00000000 </v>
   <v>       0.05000000       0.03571429       0.11111111 </v>
   <v>       0.15000000       0.03571429       0.11111111 </v>
   <v>       0.25000000       0.03571429       0.11111111 </v>
   <v>       0.35000000       0.03571429       0.11111111 </v>
   <v>       0.45000000       0.03571429       0.11111111 </v>
   <v>       0.05000000       0.10714286       0.11111111 </v>
   <v>       0.15000000       0.10714286       0.11111111 </v>
   <v>       0.25000000       0.10714286       0.11111111 </v>
   <v>       0.35000000       0.10714286       0.11111111 </v>
   <v>       0.45000000       0.10714286       0.11111111 </v>
   <v>       0.05000000       0.17857143       0.11111111 </v>
   <v>       0.15000000       0.17857143       0.11111111 </v>
   <v>       0.25000000       0.17857143       0.11111111 </v>
   <v>       0.35000000       0.17857143       0.11111111 </v>
   <v>       0.45000000       0.17857143       0.11111111 </v>
   <v>       0.05000000       0.25000000       0.11111111 </v>
   <v>       0.15000000       0.25000000       0.11111111 </v>
   <v>       0.25000000       0.25000000       0.11111111 </v>
   <v>       0.35000000       0.25000000       0.11111111 </v>
   <v>       0.45000000       0.25000000       0.11111111 </v>
   <v>       0.05000000       0.32142857       0.11111111 </v>
   <v>       0.15000000       0.32142857       0.11111111 </v>
   <v>       0.25000000       0.32142857       0.11111111 </v>
   <v>       0.35000000       0.32142857       0.11111111 </v>
   <v>       0.45000000       0.32142857       0.11111111 </v>
   <v>       0.05000000       0.39285714       0.11111111 </v>
   <v>       0.15000000       0.39285714       0.11111111 </v>
   <v>       0.25000000       0.39285714       0.11111111 </v>
   <v>       0.35000000       0.39285714       0.11111111 </v>
   <v>       0.45000000       0.39285714       0.11111111 </v>
   <v>       0.05000000       0.46428571       0.11111111 </v>
   <v>       0.15000000       0.46428571       0.11111111 </v>
   <v>       0.25000000       0.46428571       0.11111111 </v>
   <v>       0.35000000       0.46428571       0.11111111 </v>
   <v>       0.45000000       0.46428571       0.11111111 </v>
   <v>       0.05000000       0.03571429       0.22222222 </v>
   <v>       0.15000000       0.03571429       0.22222222 </v>
   <v>       0.25000000       0.03571429       0.22222222 </v>
   <v>       0.35000000       0.03571429       0.22222222 </v>
   <v>       0.45000000       0.03571429       0.22222222 </v>
   <v>       0.05000000       0.10714286       0.22222222 </v>
   <v>       0.15000000       0.10714286       0.22222222 </v>
   <v>       0.25000000       0.10714286       0.22222222 </v>
   <v>       0.35000000       0.10714286       0.22222222 </v>
   <v>       0.45000000       0.10714286       0.22222222 </v>
   <v>       0.05000000       0.17857143       0.22222222 </v>
   <v>       0.15000000       0.17857143       0.22222222 </v>
   <v>       0.25000000       0.17857143       0.22222222 </v>
   <v>       0.35000000       0.17857143       0.22222222 </v>
   <v>       0.45000000       0.17857143       0.22222222 </v>
   <v>       0.05000000       0.25000000       0.22222222 </v>
   <v>       0.15000000       0.25000000       0.22222222 </v>
   <v>       0.25000000       0.25000000       0.22222222 </v>
   <v>       0.35000000       0.25000000       0.22222222 </v>
   <v>       0.45000000       0.25000000       0.22222222 </v>
   <v>       0.05000000       0.32142857       0.22222222 </v>
   <v>       0.15000000       0.32142857       0.22222222 </v>
   <v>       0.25000000       0.32142857       0.22222222 </v>
   <v>       0.35000000       0.32142857       0.22222222 </v>
   <v>       0.45000000       0.32142857       0.22222222 </v>
   <v>       0.05000000       0.39285714       0.22222222 </v>
   <v>       0.15000000       0.39285714       0.22222222 </v>
   <v>       0.25000000       0.39285714       0.22222222 </v>
   <v>       0.35000000       0.39285714       0.22222222 </v>
   <v>       0.45000000       0.39285714       0.22222222 </v>
   <v>       0.05000000       0.46428571       0.22222222 </v>
   <v>       0.15000000       0.46428571       0.22222222 </v>
   <v>       0.25000000       0.46428571       0.22222222 </v>
   <v>       0.35000000       0.46428571       0.22222222 </v>
   <v>       0.45000000       0.46428571       0.22222222 </v>
   <v>       0.05000000       0.03571429       0.33333333 </v>
   <v>       0.15000000       0.03571429       0.33333333 </v>
   <v>       0.25000000       0.03571429       0.33333333 </v>
   <v>       0.35000000       0.03571429       0.33333333 </v>
   <v>       0.45000000       0.03571429       0.33333333 </v>
   <v>       0.05000000       0.10714286       0.33333333 </v>
   <v>       0.15000000       0.10714286       0.33333333 </v>
   <v>       0.25000000       0.10714286       0.33333333 </v>
   <v>       0.35000000       0.10714286       0.33333333 </v>
   <v>       0.45000000       0.10714286       0.33333333 </v>
   <v>       0.05000000       0.17857143       0.33333333 </v>
   <v>       0.15000000       0.17857143       0.33333333 </v>
   <v>       0.25000000       0.17857143       0.33333333 </v>
   <v>       0.35000000       0.17857143       0.33333333 </v>
   <v>       0.45000000       0.17857143       0.33333333 </v>
   <v>       0.05000000       0.25000000       0.33333333 </v>
   <v>       0.15000000       0.25000000       0.33333333 </v>
   <v>       0.25000000       0.25000000       0.33333333 </v>
   <v>       0.35000000       0.25000000       0.33333333 </v>
   <v>       0.45000000       0.25000000       0.33333333 </v>
   <v>       0.05000000       0.32142857       0.33333333 </v>
   <v>       0.15000000       0.32142857       0.33333333 </v>
   <v>       0.25000000       0.32142857       0.33333333 </v>
   <v>       0.35000000       0.32142857       0.33333333 </v>
   <v>       0.45000000       0.32142857       0.33333333 </v>
   <v>       0.05000000       0.39285714       0.33333333 </v>
   <v>       0.15000000       0.39285714       0.33333333 </v>
   <v>       0.25000000       0.39285714       0.33333333 </v>
   <v>       0.35000000       0.39285714       0.33333333 </v>
   <v>       0.45000000       0.39285714       0.33333333 </v>
   <v>       0.05000000       0.46428571       0.33333333 </v>
   <v>       0.15000000       0.46428571       0.33333333 </v>
   <v>       0.25000000       0.46428571       0.33333333 </v>
   <v>       0.35000000       0.46428571       0.33333333 </v>
   <v>       0.45000000       0.46428571       0.33333333 </v>
   <v>       0.05000000       0.03571429       0.44444444 </v>
   <v>       0.15000000       0.03571429       0.44444444 </v>
   <v>       0.25000000       0.03571429       0.44444444 </v>
   <v>       0.35000000       0.03571429       0.44444444 </v>
   <v>       0.45000000       0.03571429       0.44444444 </v>
   <v>       0.05000000       0.10714286       0.44444444 </v>
   <v>       0.15000000       0.10714286       0.44444444 </v>
   <v>       0.25000000       0.10714286       0.44444444 </v>
   <v>       0.35000000       0.10714286       0.44444444 </v>
   <v>       0.45000000       0.10714286       0.44444444 </v>
   <v>       0.05000000       0.17857143       0.44444444 </v>
   <v>       0.15000000       0.17857143       0.44444444 </v>
   <v>       0.25000000       0.17857143       0.44444444 </v>
   <v>       0.35000000       0.17857143       0.44444444 </v>
   <v>       0.45000000       0.17857143       0.44444444 </v>
   <v>       0.05000000       0.25000000       0.44444444 </v>
   <v>       0.15000000       0.25000000       0.44444444 </v>
   <v>       0.25000000       0.25000000       0.44444444 </v>
   <v>       0.35000000       0.25000000       0.44444444 </v>
   <v>       0.45000000       0.25000000       0.44444444 </v>
   <v>       0.05000000       0.32142857       0.44444444 </v>
   <v>       0.15000000       0.32142857       0.44444444 </v>
   <v>       0.25000000       0.32142857       0.44444444 </v>
   <v>       0.35000000       0.32142857       0.44444444 </v>
   <v>       0.45000000       0.32142857       0.44444444 </v>
   <v>       0.05000000       0.39285714       0.44444444 </v>
   <v>       0.15000000       0.39285714       0.44444444 </v>
   <v>       0.25000000       0.39285714       0.44444444 </v>
   <v>       0.35000000       0.39285714       0.44444444 </v>
   <v>       0.45000000       0.39285714       0.44444444 </v>
   <v>       0.05000000       0.46428571       0.44444444 </v>
   <v>       0.15000000       0.46428571       0.44444444 </v>
   <v>       0.25000000       0.46428571       0.44444444 </v>
   <v>       0.35000000       0.46428571       0.44444444 </v>
   <v>       0.45000000       0.46428571       0.44444444 </v>
  </varray>
  <varray name="weights" >
   <v>       0.00317460 </v>
   <v>       0.00317460 </v>
   <v>       0.00317460 </v>
   <v>       0.00317460 </v>
   <v>       0.00317460 </v>
   <v>       0.00317460 </v>
   <v>       0.00317460 </v>
   <v>       0.00317460 </v>
   <v>       0.00317460 </v>
   <v>       0.00317460 </v>
   <v>       0.00317460 </v>
   <v>       0.00317460 </v>
   <v>       0.00317460 </v>
   <v>       0.00317460 </v>
   <v>       0.00317460 </v>
   <v>       0.00317460 </v>
   <v>       0.00317460 </v>
   <v>       0.00317460 </v>
   <v>       0.00317460 </v>
   <v>       0.00317460 </v>
   <v>       0.00317460 </v>
   <v>       0.00317460 </v>
   <v>       0.00317460 </v>
   <v>       0.00317460 </v>
   <v>       0.00317460 </v>
   <v>       0.00317460 </v>
   <v>       0.00317460 </v>
   <v>       0.00317460 </v>
   <v>       0.00317460 </v>
   <v>       0.00317460 </v>
   <v>       0.00317460 </v>
   <v>       0.00317460 </v>
   <v>       0.00317460 </v>
   <v>       0.00317460 </v>
   <v>       0.00317460 </v>
   <v>       0.00634921 </v>
   <v>       0.00634921 </v>
   <v>       0.00634921 </v>
   <v>       0.00634921 </v>
   <v>       0.00634921 </v>
   <v>       0.00634921 </v>
   <v>       0.00634921 </v>
   <v>       0.00634921 </v>
   <v>       0.00634921 </v>
   <v>       0.00634921 </v>
   <v>       0.00634921 </v>
   <v>       0.00634921 </v>
   <v>       0.00634921 </v>
   <v>       0.00634921 </v>
   <v>       0.00634921 </v>
   <v>       0.00634921 </v>
   <v>       0.00634921 </v>
   <v>       0.00634921 </v>
   <v>       0.00634921 </v>
   <v>       0.00634921 </v>
   <v>       0.00634921 </v>
   <v>       0.00634921 </v>
   <v>       0.00634921 </v>
   <v>       0.00634921 </v>
   <v>       0.00634921 </v>
   <v>       0.00634921 </v>
   <v>       0.00634921 </v>
   <v>       0.00634921 </v>
   <v>       0.00634921 </v>
   <v>       0.00634921 </v>
   <v>       0.00634921 </v>
   <v>       0.00634921 </v>
   <v>       0.00634921 </v>
   <v>       0.00634921 </v>
   <v>       0.00634921 </v>
   <v>       0.00634921 </v>
   <v>       0.00634921 </v>
   <v>       0.00634921 </v>
   <v>       0.00634921 </v>
   <v>       0.00634921 </v>
   <v>       0.00634921 </v>
   <v>       0.00634921 </v>
   <v>       0.00634921 </v>
   <v>       0.00634921 </v>
   <v>       0.00634921 </v>
   <v>       0.00634921 </v>
   <v>       0.00634921 </v>
   <v>       0.00634921 </v>
   <v>       0.00634921 </v>
   <v>       0.00634921 </v>
   <v>       0.00634921 </v>
   <v>       0.00634921 </v>
   <v>       0.00634921 </v>
   <v>       0.00634921 </v>
   <v>       0.00634921 </v>
   <v>       0.00634921 </v>
   <v>       0.00634921 </v>
   <v>       0.00634921 </v>
   <v>       0.00634921 </v>
   <v>       0.00634921 </v>
   <v>       0.00634921 </v>
   <v>       0.00634921 </v>
   <v>       0.00634921 </v>
   <v>       0.00634921 </v>
   <v>       0.00634921 </v>
   <v>       0.00634921 </v>
   <v>       0.00634921 </v>
   <v>       0.00634921 </v>
   <v>       0.00634921 </v>
   <v>       0.00634921 </v>
   <v>       0.00634921 </v>
   <v>       0.00634921 </v>
   <v>       0.00634921 </v>
   <v>       0.00634921 </v>
   <v>       0.00634921 </v>
   <v>       0.00634921 </v>
   <v>       0.00634921 </v>
   <v>       0.00634921 </v>
   <v>       0.00634921 </v>
   <v>       0.00634921 </v>
   <v>       0.00634921 </v>
   <v>       0.00634921 </v>
   <v>       0.00634921 </v>
   <v>       0.00634921 </v>
   <v>       0.00634921 </v>
   <v>       0.00634921 </v>
   <v>       0.00634921 </v>
   <v>       0.00634921 </v>
   <v>       0.00634921 </v>
   <v>       0.00634921 </v>
   <v>       0.00634921 </v>
   <v>       0.00634921 </v>
   <v>       0.00634921 </v>
   <v>       0.00634921 </v>
   <v>       0.00634921 </v>
   <v>       0.00634921 </v>
   <v>       0.00634921 </v>
   <v>       0.00634921 </v>
   <v>       0.00634921 </v>
   <v>       0.00634921 </v>
   <v>       0.00634921 </v>
   <v>       0.00634921 </v>
   <v>       0.00634921 </v>
   <v>       0.00634921 </v>
   <v>       0.00634921 </v>
   <v>       0.00634921 </v>
   <v>       0.00634921 </v>
   <v>       0.00634921 </v>
   <v>       0.00634921 </v>
   <v>       0.00634921 </v>
   <v>       0.00634921 </v>
   <v>       0.00634921 </v>
   <v>       0.00634921 </v>
   <v>       0.00634921 </v>
   <v>       0.00634921 </v>
   <v>       0.00634921 </v>
   <v>       0.00634921 </v>
   <v>       0.00634921 </v>
   <v>       0.00634921 </v>
   <v>       0.00634921 </v>
   <v>       0.00634921 </v>
   <v>       0.00634921 </v>
   <v>       0.00634921 </v>
   <v>       0.00634921 </v>
   <v>       0.00634921 </v>
   <v>       0.00634921 </v>
   <v>       0.00634921 </v>
   <v>       0.00634921 </v>
   <v>       0.00634921 </v>
   <v>       0.00634921 </v>
   <v>       0.00634921 </v>
   <v>       0.00634921 </v>
   <v>       0.00634921 </v>
   <v>       0.00634921 </v>
   <v>       0.00634921 </v>
   <v>       0.00634921 </v>
   <v>       0.00634921 </v>
   <v>       0.00634921 </v>
   <v>       0.00634921 </v>
   <v>       0.00634921 </v>
  </varray>
 </kpoints>
 <parameters>
  <separator name="general" >
   <i type="string" name="SYSTEM">Convergence</i>
   <i type="logical" name="LCOMPAT"> F  </i>
  </separator>
  <separator name="electronic" >
   <i type="string" name="PREC">accura</i>
   <i name="ENMAX">    600.00000000</i>
   <i name="ENAUG">    535.51400000</i>
   <i name="EDIFF">      0.00000100</i>
   <i type="int" name="IALGO">    38</i>
   <i type="int" name="IWAVPR">    10</i>
   <i type="int" name="NBANDS">    48</i>
   <i type="int" name="NBANDSLOW">    -1</i>
   <i type="int" name="NBANDSHIGH">    -1</i>
   <i name="NELECT">     42.00000000</i>
   <i type="int" name="TURBO">     0</i>
   <i type="int" name="IRESTART">     0</i>
   <i type="int" name="NREBOOT">     0</i>
   <i type="int" name="NMIN">     0</i>
   <i name="EREF">      0.00000000</i>
   <separator name="electronic smearing" >
    <i type="int" name="ISMEAR">     0</i>
    <i name="SIGMA">      0.05000000</i>
    <i name="KSPACING">      0.50000000</i>
    <i type="logical" name="KGAMMA"> T  </i>
    <i type="logical" name="KBLOWUP"> T  </i>
   </separator>
   <separator name="electronic projectors" >
    <i type="logical" name="LREAL"> F  </i>
    <v name="ROPT">      0.00000000</v>
    <i type="int" name="LMAXPAW">  -100</i>
    <i type="int" name="LMAXMIX">     2</i>
    <i type="logical" name="NLSPLINE"> F  </i>
   </separator>
   <separator name="electronic startup" >
    <i type="int" name="ISTART">     0</i>
    <i type="int" name="ICHARG">     2</i>
    <i type="int" name="INIWAV">     1</i>
   </separator>
   <separator name="electronic spin" >
    <i type="int" name="ISPIN">     1</i>
    <i type="logical" name="LNONCOLLINEAR"> F  </i>
    <v name="MAGMOM">      1.00000000      1.00000000      1.00000000      1.00000000      1.00000000      1.00000000      1.00000000      1.00000000      1.00000000      1.00000000      1.00000000      1.00000000      1.00000000      1.00000000</v>
    <i name="NUPDOWN">     -1.00000000</i>
    <i type="logical" name="LSORBIT"> F  </i>
    <v name="SAXIS">      0.00000000      0.00000000      1.00000000</v>
    <i type="logical" name="LSPIRAL"> F  </i>
    <v name="QSPIRAL">      0.00000000      0.00000000      0.00000000</v>
    <i type="logical" name="LZEROZ"> F  </i>
   </separator>
   <separator name="electronic exchange-correlation" >
    <i type="logical" name="LASPH"> F  </i>
   </separator>
   <separator name="electronic convergence" >
    <i type="int" name="NELM">   100</i>
    <i type="int" name="NELMDL">    -5</i>
    <i type="int" name="NELMIN">     2</i>
    <i name="ENINI">    600.00000000</i>
    <separator name="electronic convergence detail" >
     <i type="logical" name="LDIAG"> T  </i>
     <i type="logical" name="LSUBROT"> F  </i>
     <i name="WEIMIN">      0.00000000</i>
     <i name="EBREAK">      0.00000001</i>
     <i name="DEPER">      0.30000000</i>
     <i type="int" name="NRMM">     4</i>
     <i name="TIME">      0.40000000</i>
    </separator>
   </separator>
   <separator name="electronic mixer" >
    <i name="AMIX">      0.40000000</i>
    <i name="BMIX">      1.00000000</i>
    <i name="AMIN">      0.10000000</i>
    <i name="AMIX_MAG">      1.60000000</i>
    <i name="BMIX_MAG">      1.00000000</i>
    <separator name="electronic mixer details" >
     <i type="int" name="IMIX">     4</i>
     <i type="logical" name="MIXFIRST"> F  </i>
     <i type="int" name="MAXMIX">   -45</i>
     <i name="WC">    100.00000000</i>
     <i type="int" name="INIMIX">     1</i>
     <i type="int" name="MIXPRE">     1</i>
     <i type="int" name="MREMOVE">     5</i>
    </separator>
   </separator>
   <separator name="electronic dipolcorrection" >
    <i type="logical" name="LDIPOL"> F  </i>
    <i type="logical" name="LMONO"> F  </i>
    <i type="int" name="IDIPOL">     0</i>
    <i name="EPSILON">      1.00000000</i>
    <v name="DIPOL">   -100.00000000   -100.00000000   -100.00000000</v>
    <i name="EFIELD">      0.00000000</i>
    <i type="logical" name="LVACPOTAV"> F  </i>
   </separator>
  </separator>
  <separator name="grids" >
   <i type="int" name="NGX">    48</i>
   <i type="int" name="NGY">    32</i>
   <i type="int" name="NGZ">    50</i>
   <i type="int" name="NGXF">    96</i>
   <i type="int" name="NGYF">    64</i>
   <i type="int" name="NGZF">   100</i>
   <i type="logical" name="ADDGRID"> F  </i>
  </separator>
  <separator name="ionic" >
   <i type="int" name="NSW">     0</i>
   <i type="int" name="IBRION">    -1</i>
   <i type="int" name="MDALGO">     0</i>
   <i type="int" name="ISIF">     2</i>
   <i name="PSTRESS">      0.00000000</i>
   <i name="EDIFFG">     -0.00100000</i>
   <i type="int" name="NFREE">     0</i>
   <i name="POTIM">      0.50000000</i>
   <i name="SMASS">     -3.00000000</i>
   <i name="SCALEE">      1.00000000</i>
  </separator>
  <separator name="ionic md" >
   <i name="TEBEG">      0.00010000</i>
   <i name="TEEND">      0.00010000</i>
   <i type="int" name="NBLOCK">     1</i>
   <i type="int" name="KBLOCK">     1</i>
   <i type="int" name="NPACO">   256</i>
   <i name="APACO">     10.00000000</i>
  </separator>
  <separator name="symmetry" >
   <i type="int" name="ISYM">     2</i>
   <i name="SYMPREC">      0.00001000</i>
  </separator>
  <separator name="dos" >
   <i type="int" name="LORBIT">     0</i>
   <v name="RWIGS">     -1.00000000</v>
   <i type="int" name="NEDOS">   301</i>
   <i name="EMIN">     10.00000000</i>
   <i name="EMAX">    -10.00000000</i>
   <i name="EFERMI">      0.00000000</i>
  </separator>
  <separator name="writing" >
   <i type="int" name="NWRITE">     2</i>
   <i type="logical" name="LWAVE"> F  </i>
   <i type="logical" name="LDOWNSAMPLE"> F  </i>
   <i type="logical" name="LCHARG"> F  </i>
   <i type="logical" name="LPARD"> F  </i>
   <i type="logical" name="LVTOT"> F  </i>
   <i type="logical" name="LVHAR"> F  </i>
   <i type="logical" name="LELF"> F  </i>
   <i type="logical" name="LOPTICS"> F  </i>
   <v name="STM">      0.00000000      0.00000000      0.00000000      0.00000000      0.00000000      0.00000000      0.00000000</v>
  </separator>
  <separator name="performance" >
   <i type="int" name="NPAR">    24</i>
   <i type="int" name="NSIM">     4</i>
   <i type="int" name="NBLK">    -1</i>
   <i type="logical" name="LPLANE"> T  </i>
   <i type="logical" name="LSCALAPACK"> T  </i>
   <i type="logical" name="LSCAAWARE"> F  </i>
   <i type="logical" name="LSCALU"> F  </i>
   <i type="logical" name="LASYNC"> F  </i>
   <i type="logical" name="LORBITALREAL"> F  </i>
  </separator>
  <separator name="miscellaneous" >
   <i type="int" name="IDIOT">     3</i>
   <i type="int" name="PHON_NSTRUCT">    -1</i>
   <i type="logical" name="LMUSIC"> F  </i>
   <v name="POMASS">     10.81100000</v>
   <v name="DARWINR">      0.00000000</v>
   <v name="DARWINV">      1.00000000</v>
   <i type="logical" name="LCORR"> T  </i>
  </separator>
  <i type="logical" name="GGA_COMPAT"> T  </i>
  <i type="logical" name="LBERRY"> F  </i>
  <i type="int" name="ICORELEVEL">     0</i>
  <i type="logical" name="LDAU"> F  </i>
  <i type="int" name="I_CONSTRAINED_M">     0</i>
  <separator name="electronic exchange-correlation" >
   <i type="string" name="GGA    ">PE</i>
   <i type="string" name="XC_C">1</i>
   <i type="int" name="VOSKOWN">     0</i>
   <i type="logical" name="LHFCALC"> F  </i>
   <i type="string" name="PRECFOCK"></i>
   <i type="logical" name="LSYMGRAD"> F  </i>
   <i type="logical" name="LHFONE"> F  </i>
   <i type="logical" name="LRHFCALC"> F  </i>
   <i type="logical" name="LTHOMAS"> F  </i>
   <i type="logical" name="LMODELHF"> F  </i>
   <i type="logical" name="LFOCKACE"> F  </i>
   <i name="ENCUT4O">     -1.00000000</i>
   <i type="int" name="EXXOEP">     0</i>
   <i type="int" name="FOURORBIT">     0</i>
   <i name="AEXX">      0.00000000</i>
   <i name="HFALPHA">      0.00000000</i>
   <i name="MCALPHA">      0.00000000</i>
   <i name="ALDAX">      1.00000000</i>
   <i name="AGGAX">      1.00000000</i>
   <i name="AMGGAX">      1.00000000</i>
   <i name="ALDAC">      1.00000000</i>
   <i name="AGGAC">      1.00000000</i>
   <i name="AMGGAC">      1.00000000</i>
   <i type="int" name="NKREDX">     1</i>
   <i type="int" name="NKREDY">     1</i>
   <i type="int" name="NKREDZ">     1</i>
   <i type="logical" name="SHIFTRED"> F  </i>
   <i type="logical" name="ODDONLY"> F  </i>
   <i type="logical" name="EVENONLY"> F  </i>
   <i type="int" name="LMAXFOCK">     0</i>
   <i type="int" name="NMAXFOCKAE">     0</i>
   <i type="logical" name="LFOCKAEDFT"> F  </i>
   <i name="HFSCREEN">      0.00000000</i>
   <i name="HFSCREENC">      0.00000000</i>
   <i type="int" name="NBANDSGWLOW">     0</i>
  </separator>
  <separator name="vdW DFT" >
   <i type="logical" name="LUSE_VDW"> F  </i>
   <i type="int" name="IVDW_NL">    -1</i>
   <i type="logical" name="LSPIN_VDW"> F  </i>
   <i name="ZAB_VDW">     -0.84910000</i>
   <i name="GAMMA_VDW">      1.39626340</i>
   <i name="ALPHA_VDW">      0.00000000</i>
   <i name="PARAM1">      0.12340000</i>
   <i name="PARAM2">      1.00000000</i>
   <i name="BPARAM">      6.30000000</i>
   <i name="CPARAM">      0.00930000</i>
  </separator>
  <separator name="model GW" >
   <i type="int" name="MODEL_GW">     0</i>
   <i name="MODEL_EPS0">      6.14096013</i>
   <i name="MODEL_ALPHA">      1.00000000</i>
  </separator>
  <separator name="linear response parameters" >
   <i type="logical" name="LEPSILON"> F  </i>
   <i type="logical" name="LRPA"> F  </i>
   <i type="logical" name="LNABLA"> F  </i>
   <i type="logical" name="LVEL"> F  </i>
   <i name="CSHIFT">      0.10000000</i>
   <i name="OMEGAMAX">     -1.00000000</i>
   <i name="DEG_THRESHOLD">      0.00200000</i>
   <i name="RTIME">     -0.10000000</i>
   <i name="WPLASMAI">      0.00000000</i>
   <v name="DFIELD">      0.00000000      0.00000000      0.00000000</v>
   <v name="WPLASMA">      0.00000000      0.00000000      0.00000000      0.00000000      0.00000000      0.00000000      0.00000000      0.00000000      0.00000000</v>
  </separator>
  <separator name="orbital magnetization" >
   <i type="logical" name="NUCIND"> F  </i>
   <v name="MAGPOS">      0.00000000      0.00000000      0.00000000</v>
   <i type="logical" name="LNICSALL"> T  </i>
   <i type="logical" name="ORBITALMAG"> F  </i>
   <i type="logical" name="LMAGBLOCH"> F  </i>
   <i type="logical" name="LCHIMAG"> F  </i>
   <i type="logical" name="LGAUGE"> T  </i>
   <i type="int" name="MAGATOM">     0</i>
   <v name="MAGDIPOL">      0.00000000      0.00000000      0.00000000</v>
   <v name="AVECCONST">      0.00000000      0.00000000      0.00000000</v>
  </separator>
  <separator name="response functions" >
   <i type="logical" name="LALL_IN_ONE"> F  </i>
   <i type="int" name="IALL_IN_ONE">    -1</i>
   <i type="int" name="NBANDS_WAVE">    -1</i>
   <i type="logical" name="LFINITE_TEMPERATURE"> F  </i>
   <i type="logical" name="LADDER"> F  </i>
   <i type="logical" name="LRPAFORCE"> F  </i>
   <i type="logical" name="LFXC"> F  </i>
   <i type="logical" name="LHARTREE"> T  </i>
   <i type="int" name="IBSE">     0</i>
   <v type="int" name="KPOINT">    -1     0     0     0</v>
   <i type="logical" name="LTCTC"> F  </i>
   <i type="logical" name="LTCTE"> F  </i>
   <i type="logical" name="LTETE"> F  </i>
   <i type="logical" name="LTRIPLET"> F  </i>
   <i type="logical" name="LFXCEPS"> F  </i>
   <i type="logical" name="LFXHEG"> F  </i>
   <i type="int" name="NATURALO">     2</i>
   <i type="logical" name="LHOLEGF"> F  </i>
   <i type="logical" name="L2ORDER"> F  </i>
   <i type="logical" name="LDMP1"> F  </i>
   <i type="logical" name="LMP2LT"> F  </i>
   <i type="logical" name="LSMP2LT"> F  </i>
   <i type="logical" name="LGWLF"> F  </i>
   <i name="ENCUTGW">     -1.60000002</i>
   <i name="ENCUTGWSOFT">     -1.60000002</i>
   <i name="ENCUTLF">     -1.00000000</i>
   <i type="logical" name="ESF_SPLINES"> F  </i>
   <i name="ESF_CONV">      0.01000000</i>
   <i type="int" name="ESF_NINTER">    15</i>
   <i type="int" name="LMAXMP2">    -1</i>
   <i name="SCISSOR">      0.00000000</i>
   <i type="int" name="NOMEGA">     0</i>
   <i type="int" name="NOMEGAR">     0</i>
   <i type="int" name="NBANDSGW">    -1</i>
   <i type="int" name="NBANDSO">    -1</i>
   <i type="int" name="NBANDSV">    -1</i>
   <i type="int" name="NELMGW">     1</i>
   <i type="int" name="NELMHF">     1</i>
   <i type="int" name="DIM">     3</i>
   <i type="int" name="IESPILON">     4</i>
   <i type="int" name="ANTIRES">     0</i>
   <i name="OMEGAMAX">    -30.00000000</i>
   <i name="OMEGAMIN">    -30.00000000</i>
   <i name="OMEGATL">   -200.00000000</i>
   <i type="int" name="OMEGAGRID">     0</i>
   <i name="CSHIFT">     -0.10000000</i>
   <i type="logical" name="LSELFENERGY"> F  </i>
   <i type="logical" name="LSPECTRAL"> F  </i>
   <i type="logical" name="LSPECTRALGW"> F  </i>
   <i type="logical" name="LSINGLES"> F  </i>
   <i type="logical" name="LFERMIGW"> F  </i>
   <i type="logical" name="ODDONLYGW"> F  </i>
   <i type="logical" name="EVENONLYGW"> F  </i>
   <i type="int" name="NKREDLFX">     1</i>
   <i type="int" name="NKREDLFY">     1</i>
   <i type="int" name="NKREDLFZ">     1</i>
   <i type="int" name="MAXMEM">  2800</i>
   <i type="int" name="TELESCOPE">     0</i>
   <i type="int" name="NTAUPAR">    -1</i>
   <i type="int" name="NOMEGAPAR">    -1</i>
   <i name="DAMP_NEWTON">      0.80000001</i>
   <i name="LAMBDA">      1.00000000</i>
  </separator>
  <separator name="External order field" >
   <i name="OFIELD_KAPPA">      0.00000000</i>
   <v name="OFIELD_K">      0.00000000      0.00000000      0.00000000</v>
   <i name="OFIELD_Q6_NEAR">      0.00000000</i>
   <i name="OFIELD_Q6_FAR">      0.00000000</i>
   <i name="OFIELD_A">      0.00000000</i>
  </separator>
  <separator name="optional k-points parameters" >
   <i type="int" name="KPOINTS_OPT_MODE">     1</i>
   <i type="logical" name="LKPOINTS_OPT"> F  </i>
  </separator>
 </parameters>
 <atominfo>
  <atoms>      14 </atoms>
  <types>       1 </types>
  <array name="atoms" >
   <dimension dim="1">ion</dimension>
   <field type="string">element</field>
   <field type="int">atomtype</field>
   <set>
    <rc><c>B </c><c>   1</c></rc>
    <rc><c>B </c><c>   1</c></rc>
    <rc><c>B </c><c>   1</c></rc>
    <rc><c>B </c><c>   1</c></rc>
    <rc><c>B </c><c>   1</c></rc>
    <rc><c>B </c><c>   1</c></rc>
    <rc><c>B </c><c>   1</c></rc>
    <rc><c>B </c><c>   1</c></rc>
    <rc><c>B </c><c>   1</c></rc>
    <rc><c>B </c><c>   1</c></rc>
    <rc><c>B </c><c>   1</c></rc>
    <rc><c>B </c><c>   1</c></rc>
    <rc><c>B </c><c>   1</c></rc>
    <rc><c>B </c><c>   1</c></rc>
   </set>
  </array>
  <array name="atomtypes" >
   <dimension dim="1">type</dimension>
   <field type="int">atomspertype</field>
   <field type="string">element</field>
   <field>mass</field>
   <field>valence</field>
   <field type="string">pseudopotential</field>
   <set>
    <rc><c>  14</c><c>B </c><c>     10.81100000</c><c>      3.00000000</c><c>  PAW_PBE B 06Sep2000                   </c></rc>
   </set>
  </array>
 </atominfo>
 <structure name="initialpos" >
  <crystal>
   <varray name="basis" >
    <v>       5.69984850       0.00000000       0.00000000 </v>
    <v>       0.00000000       4.04992395       0.00000000 </v>
    <v>       0.00000000       0.00000000       6.20730210 </v>
   </varray>
   <i name="volume">    143.28906963 </i>
   <varray name="rec_basis" >
    <v>       0.17544326       0.00000000       0.00000000 </v>
    <v>       0.00000000       0.24691822       0.00000000 </v>
    <v>       0.00000000       0.00000000       0.16110059 </v>
   </varray>
  </crystal>
  <varray name="positions" >
   <v>       0.52123000       0.50000000       0.63796000 </v>
   <v>       0.47877000       0.50000000       0.36204000 </v>
   <v>       0.97877000       0.50000000       0.63796000 </v>
   <v>       0.02123000       0.50000000       0.36204000 </v>
   <v>       0.60090000       0.50000000       0.89991000 </v>
   <v>       0.39910000       0.50000000       0.10009000 </v>
   <v>       0.89910000       0.50000000       0.89991000 </v>
   <v>       0.10090000       0.50000000       0.10009000 </v>
   <v>       0.75000000       0.79171000       0.72973000 </v>
   <v>       0.25000000       0.20829000       0.27027000 </v>
   <v>       0.75000000       0.20829000       0.72973000 </v>
   <v>       0.25000000       0.79171000       0.27027000 </v>
   <v>       0.25000000       0.50000000       0.52367000 </v>
   <v>       0.75000000       0.50000000       0.47633000 </v>
  </varray>
 </structure>
 <calculation>
  <scstep>
   <time name="dav">    5.64    5.64</time>
   <time name="total">    5.66    5.66</time>
   <energy>
    <i name="alphaZ">     94.10235579 </i>
    <i name="ewald">   -795.36889647 </i>
    <i name="hartreedc">   -271.48540858 </i>
    <i name="XCdc">     97.46316357 </i>
    <i name="pawpsdc">    608.99811708 </i>
    <i name="pawaedc">   -597.02363782 </i>
    <i name="eentropy">     -0.00206906 </i>
    <i name="bandstr">    -54.04526211 </i>
    <i name="atom">    996.37441054 </i>
    <i name="e_fr_energy">     79.01277295 </i>
    <i name="e_wo_entrp">     79.01484200 </i>
    <i name="e_0_energy">     79.01380747 </i>
   </energy>
  </scstep>
  <scstep>
   <time name="dav">    7.38    7.39</time>
   <time name="total">    7.39    7.39</time>
   <energy>
    <i name="e_fr_energy">    -91.79485963 </i>
    <i name="e_wo_entrp">    -91.79048462 </i>
    <i name="e_0_energy">    -91.79267213 </i>
   </energy>
  </scstep>
  <scstep>
   <time name="dav">    7.97    7.97</time>
   <time name="total">    7.97    7.98</time>
   <energy>
    <i name="e_fr_energy">    -97.58074005 </i>
    <i name="e_wo_entrp">    -97.57707517 </i>
    <i name="e_0_energy">    -97.57890761 </i>
   </energy>
  </scstep>
  <scstep>
   <time name="dav">    6.44    6.45</time>
   <time name="total">    6.45    6.45</time>
   <energy>
    <i name="e_fr_energy">    -97.61498861 </i>
    <i name="e_wo_entrp">    -97.61133073 </i>
    <i name="e_0_energy">    -97.61315967 </i>
   </energy>
  </scstep>
  <scstep>
   <time name="dav">    7.97    7.98</time>
   <time name="total">    8.07    8.07</time>
   <energy>
    <i name="e_fr_energy">    -97.61537165 </i>
    <i name="e_wo_entrp">    -97.61171379 </i>
    <i name="e_0_energy">    -97.61354272 </i>
   </energy>
  </scstep>
  <scstep>
   <time name="dav">    7.82    7.82</time>
   <time name="total">    7.92    7.92</time>
   <energy>
    <i name="e_fr_energy">    -92.22183315 </i>
    <i name="e_wo_entrp">    -92.21839486 </i>
    <i name="e_0_energy">    -92.22011400 </i>
   </energy>
  </scstep>
  <scstep>
   <time name="dav">    8.06    8.06</time>
   <time name="total">    8.16    8.17</time>
   <energy>
    <i name="e_fr_energy">    -90.57617703 </i>
    <i name="e_wo_entrp">    -90.57303785 </i>
    <i name="e_0_energy">    -90.57460744 </i>
   </energy>
  </scstep>
  <scstep>
   <time name="dav">    6.11    6.11</time>
   <time name="total">    6.21    6.21</time>
   <energy>
    <i name="e_fr_energy">    -90.58861459 </i>
    <i name="e_wo_entrp">    -90.58543556 </i>
    <i name="e_0_energy">    -90.58702507 </i>
   </energy>
  </scstep>
  <scstep>
   <time name="dav">    7.51    7.51</time>
   <time name="total">    7.61    7.62</time>
   <energy>
    <i name="e_fr_energy">    -90.60278894 </i>
    <i name="e_wo_entrp">    -90.59952479 </i>
    <i name="e_0_energy">    -90.60115687 </i>
   </energy>
  </scstep>
  <scstep>
   <time name="dav">    6.37    6.37</time>
   <time name="total">    6.47    6.47</time>
   <energy>
    <i name="e_fr_energy">    -90.60683478 </i>
    <i name="e_wo_entrp">    -90.60361640 </i>
    <i name="e_0_energy">    -90.60522559 </i>
   </energy>
  </scstep>
  <scstep>
   <time name="dav">    6.98    6.98</time>
   <time name="total">    7.08    7.08</time>
   <energy>
    <i name="e_fr_energy">    -90.60790228 </i>
    <i name="e_wo_entrp">    -90.60469461 </i>
    <i name="e_0_energy">    -90.60629844 </i>
   </energy>
  </scstep>
  <scstep>
   <time name="dav">    6.82    6.82</time>
   <time name="total">    6.93    6.93</time>
   <energy>
    <i name="e_fr_energy">    -90.60801732 </i>
    <i name="e_wo_entrp">    -90.60480349 </i>
    <i name="e_0_energy">    -90.60641040 </i>
   </energy>
  </scstep>
  <scstep>
   <time name="dav">    7.44    7.44</time>
   <time name="total">    7.54    7.54</time>
   <energy>
    <i name="e_fr_energy">    -90.60802218 </i>
    <i name="e_wo_entrp">    -90.60480808 </i>
    <i name="e_0_energy">    -90.60641513 </i>
   </energy>
  </scstep>
  <scstep>
   <time name="dav">    6.71    6.71</time>
   <time name="total">    6.72    6.72</time>
   <energy>
    <i name="alphaZ">     94.10235579 </i>
    <i name="ewald">   -795.36889647 </i>
    <i name="hartreedc">   -349.12156653 </i>
    <i name="XCdc">    101.55150612 </i>
    <i name="pawpsdc">   3728.09075301 </i>
    <i name="pawaedc">  -3717.27384861 </i>
    <i name="eentropy">     -0.00321422 </i>
    <i name="bandstr">   -148.95952250 </i>
    <i name="atom">    996.37441054 </i>
    <i name="e_fr_energy">    -90.60802286 </i>
    <i name="e_wo_entrp">    -90.60480864 </i>
    <i name="e_0_energy">    -90.60641575 </i>
   </energy>
  </scstep>
  <structure>
   <crystal>
    <varray name="basis" >
     <v>       5.69984850       0.00000000       0.00000000 </v>
     <v>       0.00000000       4.04992395       0.00000000 </v>
     <v>       0.00000000       0.00000000       6.20730210 </v>
    </varray>
    <i name="volume">    143.28906963 </i>
    <varray name="rec_basis" >
     <v>       0.17544326       0.00000000       0.00000000 </v>
     <v>       0.00000000       0.24691822       0.00000000 </v>
     <v>       0.00000000       0.00000000       0.16110059 </v>
    </varray>
   </crystal>
   <varray name="positions" >
    <v>       0.52123000       0.50000000       0.63796000 </v>
    <v>       0.47877000       0.50000000       0.36204000 </v>
    <v>       0.97877000       0.50000000       0.63796000 </v>
    <v>       0.02123000       0.50000000       0.36204000 </v>
    <v>       0.60090000       0.50000000       0.89991000 </v>
    <v>       0.39910000       0.50000000       0.10009000 </v>
    <v>       0.89910000       0.50000000       0.89991000 </v>
    <v>       0.10090000       0.50000000       0.10009000 </v>
    <v>       0.75000000       0.79171000       0.72973000 </v>
    <v>       0.25000000       0.20829000       0.27027000 </v>
    <v>       0.75000000       0.20829000       0.72973000 </v>
    <v>       0.25000000       0.79171000       0.27027000 </v>
    <v>       0.25000000       0.50000000       0.52367000 </v>
    <v>       0.75000000       0.50000000       0.47633000 </v>
   </varray>
  </structure>
  <varray name="forces" >
   <v>       0.00417088       0.00000000       0.04793713 </v>
   <v>      -0.00417088       0.00000000      -0.04793713 </v>
   <v>      -0.00417088       0.00000000       0.04793713 </v>
   <v>       0.00417088       0.00000000      -0.04793713 </v>
   <v>      -0.82607898       0.00000000       0.26832992 </v>
   <v>       0.82607898       0.00000000      -0.26832992 </v>
   <v>       0.82607898       0.00000000       0.26832992 </v>
   <v>      -0.82607898       0.00000000      -0.26832992 </v>
   <v>      -0.00000000       0.06118540      -0.07638935 </v>
   <v>      -0.00000000      -0.06118540       0.07638935 </v>
   <v>      -0.00000000      -0.06118540      -0.07638935 </v>
   <v>       0.00000000       0.06118540       0.07638935 </v>
   <v>      -0.00000000       0.00000000       0.06237078 </v>
   <v>       0.00000000       0.00000000      -0.06237078 </v>
  </varray>
  <varray name="stress" >
   <v>      11.09539322       0.00000000       0.00000000 </v>
   <v>       0.00000000      -0.95864576       0.00000000 </v>
   <v>       0.00000000       0.00000000      -9.67973877 </v>
  </varray>
  <energy>
   <i name="e_fr_energy">    -90.60802286 </i>
   <i name="e_wo_entrp">    -90.60480864 </i>
   <i name="e_0_energy">    -90.60641575 </i>
  </energy>
  <time name="totalsc">  104.82  104.89</time>
  <eigenvalues>
   <array>
    <dimension dim="1">band</dimension>
    <dimension dim="2">kpoint</dimension>
    <dimension dim="3">spin</dimension>
    <field>eigene</field>
    <field>occ</field>
    <set>
     <set comment="spin 1">
      <set comment="kpoint 1">
       <r>  -12.7231    1.0000 </r>
       <r>  -11.5814    1.0000 </r>
       <r>   -8.6601    1.0000 </r>
       <r>   -8.4235    1.0000 </r>
       <r>   -6.0678    1.0000 </r>
       <r>   -5.1343    1.0000 </r>
       <r>   -4.6704    1.0000 </r>
       <r>   -4.2775    1.0000 </r>
       <r>   -4.0368    1.0000 </r>
       <r>   -3.5482    1.0000 </r>
       <r>   -2.6001    1.0000 </r>
       <r>   -2.3312    1.0000 </r>
       <r>   -1.8406    1.0000 </r>
       <r>   -1.1022    1.0000 </r>
       <r>   -0.0756    1.0000 </r>
       <r>   -0.0453    1.0000 </r>
       <r>    0.1485    1.0000 </r>
       <r>    0.1696    1.0000 </r>
       <r>    0.5580    1.0000 </r>
       <r>    2.0108    0.0001 </r>
       <r>    2.0736    0.0000 </r>
       <r>    2.2077    0.0000 </r>
       <r>    5.4462    0.0000 </r>
       <r>    5.7372    0.0000 </r>
       <r>    5.8255    0.0000 </r>
       <r>    5.9474    0.0000 </r>
       <r>    6.8011    0.0000 </r>
       <r>    7.5352    0.0000 </r>
       <r>    7.8636    0.0000 </r>
       <r>    8.5181    0.0000 </r>
       <r>    8.7820    0.0000 </r>
       <r>    8.9316    0.0000 </r>
       <r>    9.0289    0.0000 </r>
       <r>   10.1086    0.0000 </r>
       <r>   11.1703    0.0000 </r>
       <r>   11.3150    0.0000 </r>
       <r>   11.6443    0.0000 </r>
       <r>   11.7631    0.0000 </r>
       <r>   11.9243    0.0000 </r>
       <r>   12.3878    0.0000 </r>
       <r>   12.8476    0.0000 </r>
       <r>   13.4309    0.0000 </r>
       <r>   13.4582    0.0000 </r>
       <r>   15.3548    0.0000 </r>
       <r>   15.5462    0.0000 </r>
       <r>   16.0352    0.0000 </r>
       <r>   16.3098    0.0000 </r>
       <r>   16.3319    0.0000 </r>
      </set>
      <set comment="kpoint 2">
       <r>  -12.6794    1.0000 </r>
       <r>  -11.6552    1.0000 </r>
       <r>   -8.6389    1.0000 </r>
       <r>   -8.4120    1.0000 </r>
       <r>   -5.9997    1.0000 </r>
       <r>   -5.4747    1.0000 </r>
       <r>   -4.7925    1.0000 </r>
       <r>   -4.0131    1.0000 </r>
       <r>   -3.7957    1.0000 </r>
       <r>   -3.2112    1.0000 </r>
       <r>   -2.6702    1.0000 </r>
       <r>   -2.3112    1.0000 </r>
       <r>   -1.9189    1.0000 </r>
       <r>   -1.4090    1.0000 </r>
       <r>   -0.0353    1.0000 </r>
       <r>   -0.0256    1.0000 </r>
       <r>    0.0870    1.0000 </r>
       <r>    0.1903    1.0000 </r>
       <r>    0.4629    1.0000 </r>
       <r>    1.9246    0.0818 </r>
       <r>    1.9957    0.0003 </r>
       <r>    2.0866    0.0000 </r>
       <r>    5.5352    0.0000 </r>
       <r>    5.7447    0.0000 </r>
       <r>    5.8544    0.0000 </r>
       <r>    6.2924    0.0000 </r>
       <r>    6.7158    0.0000 </r>
       <r>    7.1738    0.0000 </r>
       <r>    8.0724    0.0000 </r>
       <r>    8.6545    0.0000 </r>
       <r>    9.0371    0.0000 </r>
       <r>    9.1116    0.0000 </r>
       <r>    9.1862    0.0000 </r>
       <r>   10.2194    0.0000 </r>
       <r>   10.9232    0.0000 </r>
       <r>   11.1110    0.0000 </r>
       <r>   11.2431    0.0000 </r>
       <r>   11.6805    0.0000 </r>
       <r>   12.1414    0.0000 </r>
       <r>   12.4767    0.0000 </r>
       <r>   13.0995    0.0000 </r>
       <r>   13.1067    0.0000 </r>
       <r>   13.9886    0.0000 </r>
       <r>   14.8439    0.0000 </r>
       <r>   15.7268    0.0000 </r>
       <r>   15.8072    0.0000 </r>
       <r>   16.2016    0.0000 </r>
       <r>   16.4887    0.0000 </r>
      </set>
      <set comment="kpoint 3">
       <r>  -12.5938    1.0000 </r>
       <r>  -11.7882    1.0000 </r>
       <r>   -8.5953    1.0000 </r>
       <r>   -8.3973    1.0000 </r>
       <r>   -5.9781    1.0000 </r>
       <r>   -5.8009    1.0000 </r>
       <r>   -4.7465    1.0000 </r>
       <r>   -3.8860    1.0000 </r>
       <r>   -3.2849    1.0000 </r>
       <r>   -2.8386    1.0000 </r>
       <r>   -2.7195    1.0000 </r>
       <r>   -2.2710    1.0000 </r>
       <r>   -2.0291    1.0000 </r>
       <r>   -1.9131    1.0000 </r>
       <r>   -0.2275    1.0000 </r>
       <r>    0.0074    1.0000 </r>
       <r>    0.1363    1.0000 </r>
       <r>    0.1510    1.0000 </r>
       <r>    0.4327    1.0000 </r>
       <r>    1.7770    0.9973 </r>
       <r>    1.8574    0.6942 </r>
       <r>    1.8631    0.6354 </r>
       <r>    5.6562    0.0000 </r>
       <r>    5.7012    0.0000 </r>
       <r>    6.1634    0.0000 </r>
       <r>    6.5900    0.0000 </r>
       <r>    6.7504    0.0000 </r>
       <r>    6.9194    0.0000 </r>
       <r>    8.2226    0.0000 </r>
       <r>    8.8031    0.0000 </r>
       <r>    8.9805    0.0000 </r>
       <r>    9.5559    0.0000 </r>
       <r>    9.6305    0.0000 </r>
       <r>   10.2628    0.0000 </r>
       <r>   10.4668    0.0000 </r>
       <r>   10.6062    0.0000 </r>
       <r>   11.3625    0.0000 </r>
       <r>   11.8231    0.0000 </r>
       <r>   12.3762    0.0000 </r>
       <r>   12.5445    0.0000 </r>
       <r>   12.7758    0.0000 </r>
       <r>   12.8965    0.0000 </r>
       <r>   14.6137    0.0000 </r>
       <r>   14.8940    0.0000 </r>
       <r>   15.2054    0.0000 </r>
       <r>   15.9589    0.0000 </r>
       <r>   15.9787    0.0000 </r>
       <r>   16.2650    0.0000 </r>
      </set>
      <set comment="kpoint 4">
       <r>  -12.4703    1.0000 </r>
       <r>  -11.9575    1.0000 </r>
       <r>   -8.5335    1.0000 </r>
       <r>   -8.3941    1.0000 </r>
       <r>   -6.0585    1.0000 </r>
       <r>   -6.0339    1.0000 </r>
       <r>   -4.4193    1.0000 </r>
       <r>   -3.7174    1.0000 </r>
       <r>   -3.0323    1.0000 </r>
       <r>   -2.9009    1.0000 </r>
       <r>   -2.4491    1.0000 </r>
       <r>   -2.2586    1.0000 </r>
       <r>   -2.1530    1.0000 </r>
       <r>   -2.1296    1.0000 </r>
       <r>   -0.5266    1.0000 </r>
       <r>   -0.2531    1.0000 </r>
       <r>    0.1666    1.0000 </r>
       <r>    0.2419    1.0000 </r>
       <r>    0.6057    1.0000 </r>
       <r>    1.5218    1.0000 </r>
       <r>    1.6546    1.0000 </r>
       <r>    1.7150    1.0000 </r>
       <r>    5.6862    0.0000 </r>
       <r>    5.7414    0.0000 </r>
       <r>    6.4890    0.0000 </r>
       <r>    6.6610    0.0000 </r>
       <r>    6.6867    0.0000 </r>
       <r>    7.3991    0.0000 </r>
       <r>    8.3465    0.0000 </r>
       <r>    8.6731    0.0000 </r>
       <r>    8.7912    0.0000 </r>
       <r>    9.5182    0.0000 </r>
       <r>   10.0368    0.0000 </r>
       <r>   10.1012    0.0000 </r>
       <r>   10.3794    0.0000 </r>
       <r>   11.1271    0.0000 </r>
       <r>   11.3880    0.0000 </r>
       <r>   11.9250    0.0000 </r>
       <r>   12.1853    0.0000 </r>
       <r>   12.2552    0.0000 </r>
       <r>   12.5039    0.0000 </r>
       <r>   13.2393    0.0000 </r>
       <r>   14.6941    0.0000 </r>
       <r>   14.9553    0.0000 </r>
       <r>   15.2382    0.0000 </r>
       <r>   15.3527    0.0000 </r>
       <r>   15.5496    0.0000 </r>
       <r>   16.3536    0.0000 </r>
      </set>
      <set comment="kpoint 5">
       <r>  -12.3157    1.0000 </r>
       <r>  -12.1399    1.0000 </r>
       <r>   -8.4675    1.0000 </r>
       <r>   -8.4166    1.0000 </r>
       <r>   -6.1476    1.0000 </r>
       <r>   -6.1434    1.0000 </r>
       <r>   -3.9043    1.0000 </r>
       <r>   -3.5085    1.0000 </r>
       <r>   -3.3052    1.0000 </r>
       <r>   -3.2709    1.0000 </r>
       <r>   -2.3662    1.0000 </r>
       <r>   -2.2385    1.0000 </r>
       <r>   -1.9684    1.0000 </r>
       <r>   -1.9145    1.0000 </r>
       <r>   -0.7472    1.0000 </r>
       <r>   -0.6115    1.0000 </r>
       <r>    0.2497    1.0000 </r>
       <r>    0.2832    1.0000 </r>
       <r>    0.8662    1.0000 </r>
       <r>    1.1833    1.0000 </r>
       <r>    1.5741    1.0000 </r>
       <r>    1.6014    1.0000 </r>
       <r>    5.7145    0.0000 </r>
       <r>    5.7523    0.0000 </r>
       <r>    6.4679    0.0000 </r>
       <r>    6.5320    0.0000 </r>
       <r>    7.3550    0.0000 </r>
       <r>    8.0591    0.0000 </r>
       <r>    8.0813    0.0000 </r>
       <r>    8.4639    0.0000 </r>
       <r>    8.6020    0.0000 </r>
       <r>    8.7738    0.0000 </r>
       <r>   10.4842    0.0000 </r>
       <r>   10.4997    0.0000 </r>
       <r>   10.7416    0.0000 </r>
       <r>   11.1993    0.0000 </r>
       <r>   11.3836    0.0000 </r>
       <r>   11.5782    0.0000 </r>
       <r>   11.9113    0.0000 </r>
       <r>   12.4630    0.0000 </r>
       <r>   12.6991    0.0000 </r>
       <r>   13.2342    0.0000 </r>
       <r>   14.5720    0.0000 </r>
       <r>   14.7127    0.0000 </r>
       <r>   14.8491    0.0000 </r>
       <r>   14.9081    0.0000 </r>
       <r>   16.0768    0.0000 </r>
       <r>   16.4217    0.0000 </r>
      </set>
      <set comment="kpoint 6">
       <r>  -12.6992    1.0000 </r>
       <r>  -11.5598    1.0000 </r>
       <r>   -8.6413    1.0000 </r>
       <r>   -8.4004    1.0000 </r>
       <r>   -6.0411    1.0000 </r>
       <r>   -5.1006    1.0000 </r>
       <r>   -4.6484    1.0000 </r>
       <r>   -4.5759    1.0000 </r>
       <r>   -4.1806    1.0000 </r>
       <r>   -3.5254    1.0000 </r>
       <r>   -3.2929    1.0000 </r>
       <r>   -1.8003    1.0000 </r>
       <r>   -1.0977    1.0000 </r>
       <r>   -1.0421    1.0000 </r>
       <r>   -0.3091    1.0000 </r>
       <r>   -0.2811    1.0000 </r>
       <r>    0.1620    1.0000 </r>
       <r>    0.2399    1.0000 </r>
       <r>    0.6363    1.0000 </r>
       <r>    1.7434    0.9999 </r>
       <r>    1.8231    0.9304 </r>
       <r>    2.2598    0.0000 </r>
       <r>    5.5652    0.0000 </r>
       <r>    5.6957    0.0000 </r>
       <r>    5.7303    0.0000 </r>
       <r>    5.9935    0.0000 </r>
       <r>    7.0866    0.0000 </r>
       <r>    7.8206    0.0000 </r>
       <r>    8.0612    0.0000 </r>
       <r>    8.1733    0.0000 </r>
       <r>    8.7864    0.0000 </r>
       <r>    9.0778    0.0000 </r>
       <r>    9.1303    0.0000 </r>
       <r>   10.5597    0.0000 </r>
       <r>   11.2468    0.0000 </r>
       <r>   11.3846    0.0000 </r>
       <r>   11.5784    0.0000 </r>
       <r>   11.8657    0.0000 </r>
       <r>   12.0351    0.0000 </r>
       <r>   12.6674    0.0000 </r>
       <r>   12.8481    0.0000 </r>
       <r>   13.1685    0.0000 </r>
       <r>   13.1739    0.0000 </r>
       <r>   15.3063    0.0000 </r>
       <r>   15.3549    0.0000 </r>
       <r>   15.8345    0.0000 </r>
       <r>   15.8420    0.0000 </r>
       <r>   16.1952    0.0000 </r>
      </set>
      <set comment="kpoint 7">
       <r>  -12.6555    1.0000 </r>
       <r>  -11.6335    1.0000 </r>
       <r>   -8.6200    1.0000 </r>
       <r>   -8.3893    1.0000 </r>
       <r>   -5.9712    1.0000 </r>
       <r>   -5.4446    1.0000 </r>
       <r>   -4.7725    1.0000 </r>
       <r>   -4.4936    1.0000 </r>
       <r>   -3.7567    1.0000 </r>
       <r>   -3.3735    1.0000 </r>
       <r>   -3.1732    1.0000 </r>
       <r>   -1.7787    1.0000 </r>
       <r>   -1.4036    1.0000 </r>
       <r>   -1.1608    1.0000 </r>
       <r>   -0.2702    1.0000 </r>
       <r>   -0.2012    1.0000 </r>
       <r>    0.1294    1.0000 </r>
       <r>    0.2118    1.0000 </r>
       <r>    0.5335    1.0000 </r>
       <r>    1.6629    1.0000 </r>
       <r>    1.7467    0.9999 </r>
       <r>    2.1291    0.0000 </r>
       <r>    5.6411    0.0000 </r>
       <r>    5.7945    0.0000 </r>
       <r>    5.9219    0.0000 </r>
       <r>    6.0996    0.0000 </r>
       <r>    7.0033    0.0000 </r>
       <r>    7.4956    0.0000 </r>
       <r>    8.2070    0.0000 </r>
       <r>    8.3428    0.0000 </r>
       <r>    9.1080    0.0000 </r>
       <r>    9.1413    0.0000 </r>
       <r>    9.3974    0.0000 </r>
       <r>   10.4833    0.0000 </r>
       <r>   10.8547    0.0000 </r>
       <r>   11.0638    0.0000 </r>
       <r>   11.4390    0.0000 </r>
       <r>   11.8533    0.0000 </r>
       <r>   12.2546    0.0000 </r>
       <r>   12.7209    0.0000 </r>
       <r>   12.8469    0.0000 </r>
       <r>   13.1307    0.0000 </r>
       <r>   13.7066    0.0000 </r>
       <r>   14.9289    0.0000 </r>
       <r>   15.3741    0.0000 </r>
       <r>   15.7278    0.0000 </r>
       <r>   15.7708    0.0000 </r>
       <r>   16.3753    0.0000 </r>
      </set>
      <set comment="kpoint 8">
       <r>  -12.5701    1.0000 </r>
       <r>  -11.7662    1.0000 </r>
       <r>   -8.5762    1.0000 </r>
       <r>   -8.3753    1.0000 </r>
       <r>   -5.9468    1.0000 </r>
       <r>   -5.7706    1.0000 </r>
       <r>   -4.7299    1.0000 </r>
       <r>   -4.3853    1.0000 </r>
       <r>   -3.4952    1.0000 </r>
       <r>   -3.2311    1.0000 </r>
       <r>   -2.7072    1.0000 </r>
       <r>   -1.9085    1.0000 </r>
       <r>   -1.7345    1.0000 </r>
       <r>   -1.3235    1.0000 </r>
       <r>   -0.2297    1.0000 </r>
       <r>   -0.2234    1.0000 </r>
       <r>    0.0462    1.0000 </r>
       <r>    0.1989    1.0000 </r>
       <r>    0.4572    1.0000 </r>
       <r>    1.5281    1.0000 </r>
       <r>    1.6167    1.0000 </r>
       <r>    1.8812    0.4350 </r>
       <r>    5.8427    0.0000 </r>
       <r>    5.9223    0.0000 </r>
       <r>    6.0003    0.0000 </r>
       <r>    6.5477    0.0000 </r>
       <r>    6.8828    0.0000 </r>
       <r>    7.2680    0.0000 </r>
       <r>    8.4134    0.0000 </r>
       <r>    8.4754    0.0000 </r>
       <r>    9.0800    0.0000 </r>
       <r>    9.5939    0.0000 </r>
       <r>    9.8559    0.0000 </r>
       <r>   10.1070    0.0000 </r>
       <r>   10.3345    0.0000 </r>
       <r>   10.8031    0.0000 </r>
       <r>   11.5038    0.0000 </r>
       <r>   12.0880    0.0000 </r>
       <r>   12.2878    0.0000 </r>
       <r>   12.5380    0.0000 </r>
       <r>   12.9361    0.0000 </r>
       <r>   13.0053    0.0000 </r>
       <r>   14.2832    0.0000 </r>
       <r>   15.0612    0.0000 </r>
       <r>   15.1393    0.0000 </r>
       <r>   15.6215    0.0000 </r>
       <r>   15.6861    0.0000 </r>
       <r>   16.3956    0.0000 </r>
      </set>
      <set comment="kpoint 9">
       <r>  -12.4469    1.0000 </r>
       <r>  -11.9352    1.0000 </r>
       <r>   -8.5142    1.0000 </r>
       <r>   -8.3729    1.0000 </r>
       <r>   -6.0260    1.0000 </r>
       <r>   -6.0027    1.0000 </r>
       <r>   -4.4048    1.0000 </r>
       <r>   -4.2384    1.0000 </r>
       <r>   -3.6665    1.0000 </r>
       <r>   -2.8519    1.0000 </r>
       <r>   -2.3676    1.0000 </r>
       <r>   -2.2243    1.0000 </r>
       <r>   -1.6703    1.0000 </r>
       <r>   -1.4863    1.0000 </r>
       <r>   -0.4883    1.0000 </r>
       <r>   -0.3154    1.0000 </r>
       <r>    0.0780    1.0000 </r>
       <r>    0.1082    1.0000 </r>
       <r>    0.6163    1.0000 </r>
       <r>    1.3886    1.0000 </r>
       <r>    1.4715    1.0000 </r>
       <r>    1.5575    1.0000 </r>
       <r>    5.8606    0.0000 </r>
       <r>    5.9957    0.0000 </r>
       <r>    6.5053    0.0000 </r>
       <r>    6.7936    0.0000 </r>
       <r>    6.8667    0.0000 </r>
       <r>    7.3585    0.0000 </r>
       <r>    8.4027    0.0000 </r>
       <r>    8.5829    0.0000 </r>
       <r>    8.9208    0.0000 </r>
       <r>    9.3540    0.0000 </r>
       <r>   10.0537    0.0000 </r>
       <r>   10.0793    0.0000 </r>
       <r>   10.4236    0.0000 </r>
       <r>   11.2040    0.0000 </r>
       <r>   11.3459    0.0000 </r>
       <r>   11.8219    0.0000 </r>
       <r>   12.2703    0.0000 </r>
       <r>   12.5279    0.0000 </r>
       <r>   12.7036    0.0000 </r>
       <r>   13.4412    0.0000 </r>
       <r>   14.7435    0.0000 </r>
       <r>   14.7518    0.0000 </r>
       <r>   15.1303    0.0000 </r>
       <r>   15.2854    0.0000 </r>
       <r>   15.6275    0.0000 </r>
       <r>   16.3670    0.0000 </r>
      </set>
      <set comment="kpoint 10">
       <r>  -12.2926    1.0000 </r>
       <r>  -12.1171    1.0000 </r>
       <r>   -8.4478    1.0000 </r>
       <r>   -8.3963    1.0000 </r>
       <r>   -6.1155    1.0000 </r>
       <r>   -6.1109    1.0000 </r>
       <r>   -4.0596    1.0000 </r>
       <r>   -3.8969    1.0000 </r>
       <r>   -3.8560    1.0000 </r>
       <r>   -3.2924    1.0000 </r>
       <r>   -2.1132    1.0000 </r>
       <r>   -1.9199    1.0000 </r>
       <r>   -1.6022    1.0000 </r>
       <r>   -1.5986    1.0000 </r>
       <r>   -0.7090    1.0000 </r>
       <r>   -0.6076    1.0000 </r>
       <r>    0.1113    1.0000 </r>
       <r>    0.1424    1.0000 </r>
       <r>    0.8756    1.0000 </r>
       <r>    1.1897    1.0000 </r>
       <r>    1.3351    1.0000 </r>
       <r>    1.3592    1.0000 </r>
       <r>    5.9120    0.0000 </r>
       <r>    5.9781    0.0000 </r>
       <r>    6.7829    0.0000 </r>
       <r>    6.8335    0.0000 </r>
       <r>    7.1721    0.0000 </r>
       <r>    7.8835    0.0000 </r>
       <r>    7.9279    0.0000 </r>
       <r>    8.6094    0.0000 </r>
       <r>    8.6752    0.0000 </r>
       <r>    8.7877    0.0000 </r>
       <r>   10.3016    0.0000 </r>
       <r>   10.5502    0.0000 </r>
       <r>   10.7875    0.0000 </r>
       <r>   10.8901    0.0000 </r>
       <r>   11.5309    0.0000 </r>
       <r>   11.6373    0.0000 </r>
       <r>   11.9900    0.0000 </r>
       <r>   12.6315    0.0000 </r>
       <r>   13.0070    0.0000 </r>
       <r>   13.4650    0.0000 </r>
       <r>   14.5273    0.0000 </r>
       <r>   14.7121    0.0000 </r>
       <r>   14.8097    0.0000 </r>
       <r>   15.0274    0.0000 </r>
       <r>   16.1016    0.0000 </r>
       <r>   16.3961    0.0000 </r>
      </set>
      <set comment="kpoint 11">
       <r>  -12.6548    1.0000 </r>
       <r>  -11.5201    1.0000 </r>
       <r>   -8.6070    1.0000 </r>
       <r>   -8.3578    1.0000 </r>
       <r>   -5.9917    1.0000 </r>
       <r>   -5.1327    1.0000 </r>
       <r>   -5.0099    1.0000 </r>
       <r>   -4.6067    1.0000 </r>
       <r>   -4.1643    1.0000 </r>
       <r>   -3.9147    1.0000 </r>
       <r>   -3.4723    1.0000 </r>
       <r>   -1.2109    1.0000 </r>
       <r>   -1.0884    1.0000 </r>
       <r>   -0.6525    1.0000 </r>
       <r>   -0.5473    1.0000 </r>
       <r>   -0.1841    1.0000 </r>
       <r>    0.1832    1.0000 </r>
       <r>    0.2926    1.0000 </r>
       <r>    0.7146    1.0000 </r>
       <r>    1.3611    1.0000 </r>
       <r>    1.4245    1.0000 </r>
       <r>    2.2978    0.0000 </r>
       <r>    5.2767    0.0000 </r>
       <r>    5.4417    0.0000 </r>
       <r>    6.1098    0.0000 </r>
       <r>    6.1814    0.0000 </r>
       <r>    7.5210    0.0000 </r>
       <r>    7.6098    0.0000 </r>
       <r>    8.3024    0.0000 </r>
       <r>    8.7085    0.0000 </r>
       <r>    8.8649    0.0000 </r>
       <r>    9.2189    0.0000 </r>
       <r>    9.3518    0.0000 </r>
       <r>   10.8631    0.0000 </r>
       <r>   11.2993    0.0000 </r>
       <r>   11.5524    0.0000 </r>
       <r>   11.6846    0.0000 </r>
       <r>   12.0660    0.0000 </r>
       <r>   12.2512    0.0000 </r>
       <r>   12.7264    0.0000 </r>
       <r>   12.7395    0.0000 </r>
       <r>   12.9833    0.0000 </r>
       <r>   13.2062    0.0000 </r>
       <r>   14.6490    0.0000 </r>
       <r>   15.1362    0.0000 </r>
       <r>   15.3162    0.0000 </r>
       <r>   15.4087    0.0000 </r>
       <r>   15.9352    0.0000 </r>
      </set>
      <set comment="kpoint 12">
       <r>  -12.6114    1.0000 </r>
       <r>  -11.5934    1.0000 </r>
       <r>   -8.5854    1.0000 </r>
       <r>   -8.3474    1.0000 </r>
       <r>   -5.9184    1.0000 </r>
       <r>   -5.3963    1.0000 </r>
       <r>   -5.0346    1.0000 </r>
       <r>   -4.7349    1.0000 </r>
       <r>   -3.9807    1.0000 </r>
       <r>   -3.7147    1.0000 </r>
       <r>   -3.1338    1.0000 </r>
       <r>   -1.3954    1.0000 </r>
       <r>   -1.1846    1.0000 </r>
       <r>   -0.7599    1.0000 </r>
       <r>   -0.5093    1.0000 </r>
       <r>   -0.1029    1.0000 </r>
       <r>    0.1632    1.0000 </r>
       <r>    0.2369    1.0000 </r>
       <r>    0.6021    1.0000 </r>
       <r>    1.2821    1.0000 </r>
       <r>    1.3549    1.0000 </r>
       <r>    2.1621    0.0000 </r>
       <r>    5.3570    0.0000 </r>
       <r>    5.7871    0.0000 </r>
       <r>    6.1274    0.0000 </r>
       <r>    6.2245    0.0000 </r>
       <r>    7.4404    0.0000 </r>
       <r>    7.7663    0.0000 </r>
       <r>    8.0347    0.0000 </r>
       <r>    8.7998    0.0000 </r>
       <r>    9.2313    0.0000 </r>
       <r>    9.2680    0.0000 </r>
       <r>    9.6360    0.0000 </r>
       <r>   10.4986    0.0000 </r>
       <r>   10.7603    0.0000 </r>
       <r>   11.2566    0.0000 </r>
       <r>   11.7025    0.0000 </r>
       <r>   12.1787    0.0000 </r>
       <r>   12.4113    0.0000 </r>
       <r>   12.4823    0.0000 </r>
       <r>   13.1408    0.0000 </r>
       <r>   13.2540    0.0000 </r>
       <r>   13.4152    0.0000 </r>
       <r>   14.6599    0.0000 </r>
       <r>   14.7983    0.0000 </r>
       <r>   15.2551    0.0000 </r>
       <r>   15.4726    0.0000 </r>
       <r>   15.9633    0.0000 </r>
      </set>
      <set comment="kpoint 13">
       <r>  -12.5263    1.0000 </r>
       <r>  -11.7256    1.0000 </r>
       <r>   -8.5412    1.0000 </r>
       <r>   -8.3347    1.0000 </r>
       <r>   -5.8886    1.0000 </r>
       <r>   -5.7158    1.0000 </r>
       <r>   -4.9430    1.0000 </r>
       <r>   -4.6988    1.0000 </r>
       <r>   -4.1041    1.0000 </r>
       <r>   -3.1811    1.0000 </r>
       <r>   -2.6633    1.0000 </r>
       <r>   -1.8921    1.0000 </r>
       <r>   -1.1440    1.0000 </r>
       <r>   -0.8989    1.0000 </r>
       <r>   -0.4565    1.0000 </r>
       <r>   -0.0948    1.0000 </r>
       <r>    0.0066    1.0000 </r>
       <r>    0.2486    1.0000 </r>
       <r>    0.4871    1.0000 </r>
       <r>    1.1507    1.0000 </r>
       <r>    1.2367    1.0000 </r>
       <r>    1.9059    0.1942 </r>
       <r>    5.6780    0.0000 </r>
       <r>    6.0825    0.0000 </r>
       <r>    6.2626    0.0000 </r>
       <r>    6.3546    0.0000 </r>
       <r>    7.3382    0.0000 </r>
       <r>    7.8458    0.0000 </r>
       <r>    8.0003    0.0000 </r>
       <r>    8.9285    0.0000 </r>
       <r>    9.2263    0.0000 </r>
       <r>    9.7003    0.0000 </r>
       <r>    9.8344    0.0000 </r>
       <r>   10.1182    0.0000 </r>
       <r>   10.2357    0.0000 </r>
       <r>   11.0422    0.0000 </r>
       <r>   11.5689    0.0000 </r>
       <r>   12.0858    0.0000 </r>
       <r>   12.4894    0.0000 </r>
       <r>   12.7833    0.0000 </r>
       <r>   13.0225    0.0000 </r>
       <r>   13.4269    0.0000 </r>
       <r>   13.9375    0.0000 </r>
       <r>   14.5694    0.0000 </r>
       <r>   14.8478    0.0000 </r>
       <r>   15.2766    0.0000 </r>
       <r>   15.4910    0.0000 </r>
       <r>   16.1740    0.0000 </r>
      </set>
      <set comment="kpoint 14">
       <r>  -12.4036    1.0000 </r>
       <r>  -11.8940    1.0000 </r>
       <r>   -8.4787    1.0000 </r>
       <r>   -8.3341    1.0000 </r>
       <r>   -5.9655    1.0000 </r>
       <r>   -5.9451    1.0000 </r>
       <r>   -4.8073    1.0000 </r>
       <r>   -4.3781    1.0000 </r>
       <r>   -4.2683    1.0000 </r>
       <r>   -2.8134    1.0000 </r>
       <r>   -2.3268    1.0000 </r>
       <r>   -2.1832    1.0000 </r>
       <r>   -1.0876    1.0000 </r>
       <r>   -1.0359    1.0000 </r>
       <r>   -0.4624    1.0000 </r>
       <r>   -0.3804    1.0000 </r>
       <r>    0.0504    1.0000 </r>
       <r>    0.0537    1.0000 </r>
       <r>    0.6339    1.0000 </r>
       <r>    1.0213    1.0000 </r>
       <r>    1.1040    1.0000 </r>
       <r>    1.5712    1.0000 </r>
       <r>    6.0940    0.0000 </r>
       <r>    6.2124    0.0000 </r>
       <r>    6.3860    0.0000 </r>
       <r>    6.7889    0.0000 </r>
       <r>    7.2827    0.0000 </r>
       <r>    7.7673    0.0000 </r>
       <r>    8.0560    0.0000 </r>
       <r>    9.0280    0.0000 </r>
       <r>    9.0872    0.0000 </r>
       <r>    9.1584    0.0000 </r>
       <r>    9.8687    0.0000 </r>
       <r>   10.1675    0.0000 </r>
       <r>   10.6836    0.0000 </r>
       <r>   11.0590    0.0000 </r>
       <r>   11.3029    0.0000 </r>
       <r>   11.9318    0.0000 </r>
       <r>   12.3327    0.0000 </r>
       <r>   12.9667    0.0000 </r>
       <r>   13.0177    0.0000 </r>
       <r>   13.7701    0.0000 </r>
       <r>   14.3567    0.0000 </r>
       <r>   14.3735    0.0000 </r>
       <r>   15.0068    0.0000 </r>
       <r>   15.1006    0.0000 </r>
       <r>   15.5893    0.0000 </r>
       <r>   16.3518    0.0000 </r>
      </set>
      <set comment="kpoint 15">
       <r>  -12.2499    1.0000 </r>
       <r>  -12.0752    1.0000 </r>
       <r>   -8.4116    1.0000 </r>
       <r>   -8.3590    1.0000 </r>
       <r>   -6.0561    1.0000 </r>
       <r>   -6.0504    1.0000 </r>
       <r>   -4.6397    1.0000 </r>
       <r>   -4.4543    1.0000 </r>
       <r>   -3.8659    1.0000 </r>
       <r>   -3.2699    1.0000 </r>
       <r>   -2.0447    1.0000 </r>
       <r>   -1.8794    1.0000 </r>
       <r>   -1.1080    1.0000 </r>
       <r>   -1.0470    1.0000 </r>
       <r>   -0.6370    1.0000 </r>
       <r>   -0.6310    1.0000 </r>
       <r>    0.0009    1.0000 </r>
       <r>    0.0444    1.0000 </r>
       <r>    0.8912    1.0000 </r>
       <r>    0.9589    1.0000 </r>
       <r>    0.9996    1.0000 </r>
       <r>    1.2181    1.0000 </r>
       <r>    6.1857    0.0000 </r>
       <r>    6.3043    0.0000 </r>
       <r>    6.8644    0.0000 </r>
       <r>    7.2027    0.0000 </r>
       <r>    7.2610    0.0000 </r>
       <r>    7.6082    0.0000 </r>
       <r>    7.9141    0.0000 </r>
       <r>    8.4246    0.0000 </r>
       <r>    9.0839    0.0000 </r>
       <r>    9.1158    0.0000 </r>
       <r>    9.9928    0.0000 </r>
       <r>   10.4650    0.0000 </r>
       <r>   10.6887    0.0000 </r>
       <r>   10.9606    0.0000 </r>
       <r>   11.7109    0.0000 </r>
       <r>   11.7274    0.0000 </r>
       <r>   12.1104    0.0000 </r>
       <r>   12.8878    0.0000 </r>
       <r>   13.3960    0.0000 </r>
       <r>   13.7426    0.0000 </r>
       <r>   14.2055    0.0000 </r>
       <r>   14.3599    0.0000 </r>
       <r>   14.9714    0.0000 </r>
       <r>   15.1110    0.0000 </r>
       <r>   15.9662    0.0000 </r>
       <r>   16.2697    0.0000 </r>
      </set>
      <set comment="kpoint 16">
       <r>  -12.5974    1.0000 </r>
       <r>  -11.4687    1.0000 </r>
       <r>   -8.5632    1.0000 </r>
       <r>   -8.3027    1.0000 </r>
       <r>   -5.9276    1.0000 </r>
       <r>   -5.6134    1.0000 </r>
       <r>   -4.9398    1.0000 </r>
       <r>   -4.5506    1.0000 </r>
       <r>   -4.4346    1.0000 </r>
       <r>   -4.1250    1.0000 </r>
       <r>   -3.4104    1.0000 </r>
       <r>   -1.2245    1.0000 </r>
       <r>   -1.0742    1.0000 </r>
       <r>   -1.0064    1.0000 </r>
       <r>   -0.2017    1.0000 </r>
       <r>    0.2114    1.0000 </r>
       <r>    0.3358    1.0000 </r>
       <r>    0.5863    1.0000 </r>
       <r>    0.7781    1.0000 </r>
       <r>    0.9764    1.0000 </r>
       <r>    0.9905    1.0000 </r>
       <r>    2.3319    0.0000 </r>
       <r>    4.9338    0.0000 </r>
       <r>    5.1487    0.0000 </r>
       <r>    6.3414    0.0000 </r>
       <r>    6.5710    0.0000 </r>
       <r>    7.2519    0.0000 </r>
       <r>    7.9506    0.0000 </r>
       <r>    8.6816    0.0000 </r>
       <r>    9.0425    0.0000 </r>
       <r>    9.4425    0.0000 </r>
       <r>    9.5623    0.0000 </r>
       <r>    9.6329    0.0000 </r>
       <r>   10.7245    0.0000 </r>
       <r>   11.2489    0.0000 </r>
       <r>   11.9472    0.0000 </r>
       <r>   12.0002    0.0000 </r>
       <r>   12.2740    0.0000 </r>
       <r>   12.4042    0.0000 </r>
       <r>   12.4294    0.0000 </r>
       <r>   12.5450    0.0000 </r>
       <r>   12.9685    0.0000 </r>
       <r>   13.7672    0.0000 </r>
       <r>   13.8597    0.0000 </r>
       <r>   14.3929    0.0000 </r>
       <r>   15.0805    0.0000 </r>
       <r>   15.3816    0.0000 </r>
       <r>   15.8315    0.0000 </r>
      </set>
      <set comment="kpoint 17">
       <r>  -12.5542    1.0000 </r>
       <r>  -11.5417    1.0000 </r>
       <r>   -8.5412    1.0000 </r>
       <r>   -8.2933    1.0000 </r>
       <r>   -5.8497    1.0000 </r>
       <r>   -5.5786    1.0000 </r>
       <r>   -5.2766    1.0000 </r>
       <r>   -4.6851    1.0000 </r>
       <r>   -4.4999    1.0000 </r>
       <r>   -3.6609    1.0000 </r>
       <r>   -3.0723    1.0000 </r>
       <r>   -1.3892    1.0000 </r>
       <r>   -1.1674    1.0000 </r>
       <r>   -1.0213    1.0000 </r>
       <r>   -0.2030    1.0000 </r>
       <r>    0.1959    1.0000 </r>
       <r>    0.2685    1.0000 </r>
       <r>    0.5659    1.0000 </r>
       <r>    0.6568    1.0000 </r>
       <r>    0.9110    1.0000 </r>
       <r>    0.9490    1.0000 </r>
       <r>    2.1943    0.0000 </r>
       <r>    5.0299    0.0000 </r>
       <r>    5.4798    0.0000 </r>
       <r>    6.2875    0.0000 </r>
       <r>    6.7031    0.0000 </r>
       <r>    7.3874    0.0000 </r>
       <r>    7.9083    0.0000 </r>
       <r>    8.6167    0.0000 </r>
       <r>    9.1567    0.0000 </r>
       <r>    9.4077    0.0000 </r>
       <r>    9.7721    0.0000 </r>
       <r>    9.8759    0.0000 </r>
       <r>   10.3171    0.0000 </r>
       <r>   10.6878    0.0000 </r>
       <r>   11.6856    0.0000 </r>
       <r>   11.8673    0.0000 </r>
       <r>   12.2262    0.0000 </r>
       <r>   12.4577    0.0000 </r>
       <r>   12.6235    0.0000 </r>
       <r>   12.9394    0.0000 </r>
       <r>   13.3692    0.0000 </r>
       <r>   13.7667    0.0000 </r>
       <r>   13.9016    0.0000 </r>
       <r>   14.2311    0.0000 </r>
       <r>   15.0508    0.0000 </r>
       <r>   15.4107    0.0000 </r>
       <r>   15.7056    0.0000 </r>
      </set>
      <set comment="kpoint 18">
       <r>  -12.4696    1.0000 </r>
       <r>  -11.6733    1.0000 </r>
       <r>   -8.4964    1.0000 </r>
       <r>   -8.2824    1.0000 </r>
       <r>   -5.8124    1.0000 </r>
       <r>   -5.6635    1.0000 </r>
       <r>   -5.4241    1.0000 </r>
       <r>   -4.6591    1.0000 </r>
       <r>   -4.6220    1.0000 </r>
       <r>   -3.1220    1.0000 </r>
       <r>   -2.6029    1.0000 </r>
       <r>   -1.8732    1.0000 </r>
       <r>   -1.1068    1.0000 </r>
       <r>   -1.0402    1.0000 </r>
       <r>   -0.2212    1.0000 </r>
       <r>   -0.0582    1.0000 </r>
       <r>    0.3066    1.0000 </r>
       <r>    0.4984    1.0000 </r>
       <r>    0.5144    1.0000 </r>
       <r>    0.8223    1.0000 </r>
       <r>    0.8819    1.0000 </r>
       <r>    1.9343    0.0477 </r>
       <r>    5.3553    0.0000 </r>
       <r>    5.9538    0.0000 </r>
       <r>    6.2602    0.0000 </r>
       <r>    6.8163    0.0000 </r>
       <r>    7.5546    0.0000 </r>
       <r>    7.9292    0.0000 </r>
       <r>    8.5435    0.0000 </r>
       <r>    9.3448    0.0000 </r>
       <r>    9.3756    0.0000 </r>
       <r>    9.5747    0.0000 </r>
       <r>   10.0246    0.0000 </r>
       <r>   10.0911    0.0000 </r>
       <r>   10.5397    0.0000 </r>
       <r>   11.3669    0.0000 </r>
       <r>   11.3786    0.0000 </r>
       <r>   12.2199    0.0000 </r>
       <r>   12.7183    0.0000 </r>
       <r>   12.9370    0.0000 </r>
       <r>   13.1588    0.0000 </r>
       <r>   13.4989    0.0000 </r>
       <r>   13.7400    0.0000 </r>
       <r>   13.9938    0.0000 </r>
       <r>   14.3666    0.0000 </r>
       <r>   15.1423    0.0000 </r>
       <r>   15.3359    0.0000 </r>
       <r>   15.9677    0.0000 </r>
      </set>
      <set comment="kpoint 19">
       <r>  -12.3476    1.0000 </r>
       <r>  -11.8407    1.0000 </r>
       <r>   -8.4332    1.0000 </r>
       <r>   -8.2840    1.0000 </r>
       <r>   -5.8861    1.0000 </r>
       <r>   -5.8725    1.0000 </r>
       <r>   -5.3108    1.0000 </r>
       <r>   -4.7860    1.0000 </r>
       <r>   -4.3425    1.0000 </r>
       <r>   -2.7688    1.0000 </r>
       <r>   -2.2843    1.0000 </r>
       <r>   -2.1275    1.0000 </r>
       <r>   -1.0487    1.0000 </r>
       <r>   -1.0224    1.0000 </r>
       <r>   -0.3820    1.0000 </r>
       <r>   -0.3365    1.0000 </r>
       <r>    0.1439    1.0000 </r>
       <r>    0.3684    1.0000 </r>
       <r>    0.6538    1.0000 </r>
       <r>    0.7660    1.0000 </r>
       <r>    0.8154    1.0000 </r>
       <r>    1.5959    1.0000 </r>
       <r>    5.8820    0.0000 </r>
       <r>    6.2926    0.0000 </r>
       <r>    6.5316    0.0000 </r>
       <r>    6.7682    0.0000 </r>
       <r>    7.5545    0.0000 </r>
       <r>    7.9885    0.0000 </r>
       <r>    8.4980    0.0000 </r>
       <r>    8.8988    0.0000 </r>
       <r>    9.2540    0.0000 </r>
       <r>    9.5637    0.0000 </r>
       <r>    9.8835    0.0000 </r>
       <r>   10.3255    0.0000 </r>
       <r>   10.7756    0.0000 </r>
       <r>   11.0745    0.0000 </r>
       <r>   11.4201    0.0000 </r>
       <r>   12.1480    0.0000 </r>
       <r>   12.3982    0.0000 </r>
       <r>   13.1380    0.0000 </r>
       <r>   13.2600    0.0000 </r>
       <r>   13.6347    0.0000 </r>
       <r>   13.8767    0.0000 </r>
       <r>   14.1286    0.0000 </r>
       <r>   14.7348    0.0000 </r>
       <r>   14.9687    0.0000 </r>
       <r>   15.4091    0.0000 </r>
       <r>   16.3015    0.0000 </r>
      </set>
      <set comment="kpoint 20">
       <r>  -12.1947    1.0000 </r>
       <r>  -12.0210    1.0000 </r>
       <r>   -8.3653    1.0000 </r>
       <r>   -8.3111    1.0000 </r>
       <r>   -5.9788    1.0000 </r>
       <r>   -5.9712    1.0000 </r>
       <r>   -5.1498    1.0000 </r>
       <r>   -4.9685    1.0000 </r>
       <r>   -3.8338    1.0000 </r>
       <r>   -3.2398    1.0000 </r>
       <r>   -1.9879    1.0000 </r>
       <r>   -1.8334    1.0000 </r>
       <r>   -0.9863    1.0000 </r>
       <r>   -0.9268    1.0000 </r>
       <r>   -0.6792    1.0000 </r>
       <r>   -0.6361    1.0000 </r>
       <r>    0.1202    1.0000 </r>
       <r>    0.2209    1.0000 </r>
       <r>    0.7504    1.0000 </r>
       <r>    0.7664    1.0000 </r>
       <r>    0.9169    1.0000 </r>
       <r>    1.2397    1.0000 </r>
       <r>    6.4258    0.0000 </r>
       <r>    6.5420    0.0000 </r>
       <r>    6.6051    0.0000 </r>
       <r>    7.1210    0.0000 </r>
       <r>    7.1920    0.0000 </r>
       <r>    7.6776    0.0000 </r>
       <r>    8.4870    0.0000 </r>
       <r>    8.5510    0.0000 </r>
       <r>    9.4482    0.0000 </r>
       <r>    9.6198    0.0000 </r>
       <r>    9.8240    0.0000 </r>
       <r>   10.1224    0.0000 </r>
       <r>   10.8393    0.0000 </r>
       <r>   11.2150    0.0000 </r>
       <r>   11.8466    0.0000 </r>
       <r>   11.9231    0.0000 </r>
       <r>   12.2315    0.0000 </r>
       <r>   13.1229    0.0000 </r>
       <r>   13.4151    0.0000 </r>
       <r>   13.5993    0.0000 </r>
       <r>   13.8174    0.0000 </r>
       <r>   13.9245    0.0000 </r>
       <r>   15.0774    0.0000 </r>
       <r>   15.0947    0.0000 </r>
       <r>   15.6430    0.0000 </r>
       <r>   15.9447    0.0000 </r>
      </set>
      <set comment="kpoint 21">
       <r>  -12.5374    1.0000 </r>
[...]
       <r>   -2.3237    1.0000 </r>
       <r>   -2.1496    1.0000 </r>
       <r>   -1.9863    1.0000 </r>
       <r>   -1.4988    1.0000 </r>
       <r>   -0.7442    1.0000 </r>
       <r>   -0.2098    1.0000 </r>
       <r>    0.1597    1.0000 </r>
       <r>    0.3788    1.0000 </r>
       <r>    0.5037    1.0000 </r>
       <r>    1.5797    1.0000 </r>
       <r>    1.6066    1.0000 </r>
       <r>    1.8618    0.6490 </r>
       <r>    5.5007    0.0000 </r>
       <r>    6.1340    0.0000 </r>
       <r>    6.6543    0.0000 </r>
       <r>    7.2001    0.0000 </r>
       <r>    7.7630    0.0000 </r>
       <r>    8.2103    0.0000 </r>
       <r>    8.9750    0.0000 </r>
       <r>    9.1324    0.0000 </r>
       <r>    9.7028    0.0000 </r>
       <r>    9.9376    0.0000 </r>
       <r>   10.5672    0.0000 </r>
       <r>   11.0149    0.0000 </r>
       <r>   11.1825    0.0000 </r>
       <r>   11.4528    0.0000 </r>
       <r>   11.5457    0.0000 </r>
       <r>   11.9303    0.0000 </r>
       <r>   12.8155    0.0000 </r>
       <r>   13.1165    0.0000 </r>
       <r>   13.3455    0.0000 </r>
       <r>   13.7243    0.0000 </r>
       <r>   13.8450    0.0000 </r>
       <r>   14.1318    0.0000 </r>
       <r>   14.4505    0.0000 </r>
       <r>   14.9449    0.0000 </r>
       <r>   15.0688    0.0000 </r>
       <r>   15.3689    0.0000 </r>
      </set>
      <set comment="kpoint 175">
       <r>  -12.0195    1.0000 </r>
       <r>  -11.8804    1.0000 </r>
       <r>   -8.5496    1.0000 </r>
       <r>   -8.4373    1.0000 </r>
       <r>   -5.9298    1.0000 </r>
       <r>   -5.8239    1.0000 </r>
       <r>   -4.8969    1.0000 </r>
       <r>   -4.5740    1.0000 </r>
       <r>   -4.4182    1.0000 </r>
       <r>   -3.9807    1.0000 </r>
       <r>   -2.2018    1.0000 </r>
       <r>   -2.1404    1.0000 </r>
       <r>   -2.0660    1.0000 </r>
       <r>   -1.7817    1.0000 </r>
       <r>   -0.2269    1.0000 </r>
       <r>   -0.0141    1.0000 </r>
       <r>    0.3818    1.0000 </r>
       <r>    0.4696    1.0000 </r>
       <r>    0.5394    1.0000 </r>
       <r>    0.8660    1.0000 </r>
       <r>    1.6207    1.0000 </r>
       <r>    1.7203    1.0000 </r>
       <r>    5.8467    0.0000 </r>
       <r>    6.0319    0.0000 </r>
       <r>    6.8568    0.0000 </r>
       <r>    7.3883    0.0000 </r>
       <r>    7.4597    0.0000 </r>
       <r>    7.5577    0.0000 </r>
       <r>    9.3797    0.0000 </r>
       <r>    9.5625    0.0000 </r>
       <r>    9.7708    0.0000 </r>
       <r>    9.9483    0.0000 </r>
       <r>   10.4429    0.0000 </r>
       <r>   10.7914    0.0000 </r>
       <r>   11.2196    0.0000 </r>
       <r>   11.4883    0.0000 </r>
       <r>   11.4946    0.0000 </r>
       <r>   11.5921    0.0000 </r>
       <r>   13.0591    0.0000 </r>
       <r>   13.1645    0.0000 </r>
       <r>   13.6921    0.0000 </r>
       <r>   14.0290    0.0000 </r>
       <r>   14.1624    0.0000 </r>
       <r>   14.2634    0.0000 </r>
       <r>   14.5681    0.0000 </r>
       <r>   14.7143    0.0000 </r>
       <r>   14.8637    0.0000 </r>
       <r>   15.0190    0.0000 </r>
      </set>
     </set>
    </set>
   </array>
  </eigenvalues>
  <separator name="orbital magnetization" >
   <v name="MAGDIPOLOUT">      0.00000000      0.00000000      0.00000000</v>
  </separator>
  <dos>
   <i name="efermi">      1.87537613 </i>
   <total>
    <array>
     <dimension dim="1">gridpoints</dimension>
     <dimension dim="2">spin</dimension>
     <field>energy</field>
     <field>total</field>
     <field>integrated</field>
     <set>
      <set comment="spin 1">
       <r>   -14.1837     0.0000     0.0000 </r>
       <r>   -14.0766     0.0000     0.0000 </r>
       <r>   -13.9695     0.0000     0.0000 </r>
       <r>   -13.8624     0.0000     0.0000 </r>
       <r>   -13.7553     0.0000     0.0000 </r>
       <r>   -13.6482     0.0000     0.0000 </r>
       <r>   -13.5411     0.0000     0.0000 </r>
       <r>   -13.4340     0.0000     0.0000 </r>
       <r>   -13.3269     0.0000     0.0000 </r>
       <r>   -13.2197     0.0000     0.0000 </r>
       <r>   -13.1126     0.0000     0.0000 </r>
       <r>   -13.0055     0.0000     0.0000 </r>
       <r>   -12.8984     0.0000     0.0000 </r>
       <r>   -12.7913     0.0038     0.0004 </r>
       <r>   -12.6842     0.5091     0.0549 </r>
       <r>   -12.5771     2.3921     0.3112 </r>
       <r>   -12.4700     3.5676     0.6933 </r>
       <r>   -12.3629     4.3740     1.1618 </r>
       <r>   -12.2557     3.5390     1.5409 </r>
       <r>   -12.1486     2.7359     1.8339 </r>
       <r>   -12.0415     2.7526     2.1287 </r>
       <r>   -11.9344     2.5028     2.3968 </r>
       <r>   -11.8273     2.7714     2.6936 </r>
       <r>   -11.7202     3.4214     3.0601 </r>
       <r>   -11.6131     3.5360     3.4389 </r>
       <r>   -11.5060     3.1234     3.7734 </r>
       <r>   -11.3989     1.6786     3.9532 </r>
       <r>   -11.2918     0.4293     3.9992 </r>
       <r>   -11.1846     0.0077     4.0000 </r>
       <r>   -11.0775     0.0000     4.0000 </r>
       <r>   -10.9704     0.0000     4.0000 </r>
       <r>   -10.8633     0.0000     4.0000 </r>
       <r>   -10.7562     0.0000     4.0000 </r>
       <r>   -10.6491     0.0000     4.0000 </r>
       <r>   -10.5420     0.0000     4.0000 </r>
       <r>   -10.4349     0.0000     4.0000 </r>
       <r>   -10.3278     0.0000     4.0000 </r>
       <r>   -10.2207     0.0000     4.0000 </r>
       <r>   -10.1135     0.0000     4.0000 </r>
       <r>   -10.0064     0.0000     4.0000 </r>
       <r>    -9.8993     0.0000     4.0000 </r>
       <r>    -9.7922     0.0000     4.0000 </r>
       <r>    -9.6851     0.0000     4.0000 </r>
       <r>    -9.5780     0.0000     4.0000 </r>
       <r>    -9.4709     0.0000     4.0000 </r>
       <r>    -9.3638     0.0000     4.0000 </r>
       <r>    -9.2567     0.0000     4.0000 </r>
       <r>    -9.1496     0.0000     4.0000 </r>
       <r>    -9.0424     0.0000     4.0000 </r>
       <r>    -8.9353     0.0006     4.0001 </r>
       <r>    -8.8282     0.2782     4.0299 </r>
       <r>    -8.7211     2.0984     4.2546 </r>
       <r>    -8.6140     5.3488     4.8275 </r>
       <r>    -8.5069     6.9984     5.5771 </r>
       <r>    -8.3998     6.2922     6.2511 </r>
       <r>    -8.2927     5.3269     6.8217 </r>
       <r>    -8.1856     4.8398     7.3401 </r>
       <r>    -8.0785     3.8688     7.7544 </r>
       <r>    -7.9713     1.6640     7.9327 </r>
       <r>    -7.8642     0.5767     7.9944 </r>
       <r>    -7.7571     0.0519     8.0000 </r>
       <r>    -7.6500     0.0000     8.0000 </r>
       <r>    -7.5429     0.0000     8.0000 </r>
       <r>    -7.4358     0.0000     8.0000 </r>
       <r>    -7.3287     0.0000     8.0000 </r>
       <r>    -7.2216     0.0000     8.0000 </r>
       <r>    -7.1145     0.0000     8.0000 </r>
       <r>    -7.0074     0.0004     8.0000 </r>
       <r>    -6.9002     0.1118     8.0120 </r>
       <r>    -6.7931     0.2584     8.0397 </r>
       <r>    -6.6860     0.4255     8.0853 </r>
       <r>    -6.5789     0.7662     8.1673 </r>
       <r>    -6.4718     0.8486     8.2582 </r>
       <r>    -6.3647     1.4403     8.4125 </r>
       <r>    -6.2576     1.9527     8.6217 </r>
       <r>    -6.1505     3.0546     8.9488 </r>
       <r>    -6.0434     3.7897     9.3547 </r>
       <r>    -5.9362     4.1180     9.7958 </r>
       <r>    -5.8291     4.0483    10.2294 </r>
       <r>    -5.7220     3.8713    10.6441 </r>
       <r>    -5.6149     4.0740    11.0805 </r>
       <r>    -5.5078     4.2192    11.5324 </r>
       <r>    -5.4007     4.5538    12.0201 </r>
       <r>    -5.2936     4.6089    12.5138 </r>
       <r>    -5.1865     4.4937    12.9951 </r>
       <r>    -5.0794     3.8750    13.4102 </r>
       <r>    -4.9723     3.2253    13.7556 </r>
       <r>    -4.8651     2.9616    14.0729 </r>
       <r>    -4.7580     2.3251    14.3219 </r>
       <r>    -4.6509     2.8967    14.6322 </r>
       <r>    -4.5438     3.3707    14.9932 </r>
       <r>    -4.4367     3.4615    15.3640 </r>
       <r>    -4.3296     3.3445    15.7222 </r>
       <r>    -4.2225     2.9577    16.0390 </r>
       <r>    -4.1154     2.9091    16.3506 </r>
       <r>    -4.0083     2.9397    16.6655 </r>
       <r>    -3.9012     2.8694    16.9728 </r>
       <r>    -3.7940     3.1143    17.3064 </r>
       <r>    -3.6869     2.8841    17.6153 </r>
       <r>    -3.5798     2.7059    17.9051 </r>
       <r>    -3.4727     3.0706    18.2340 </r>
       <r>    -3.3656     2.6467    18.5175 </r>
       <r>    -3.2585     2.8493    18.8227 </r>
       <r>    -3.1514     2.7637    19.1187 </r>
       <r>    -3.0443     2.7283    19.4109 </r>
       <r>    -2.9372     3.0605    19.7388 </r>
       <r>    -2.8301     2.9792    20.0579 </r>
       <r>    -2.7229     2.4366    20.3189 </r>
       <r>    -2.6158     2.6488    20.6026 </r>
       <r>    -2.5087     3.0172    20.9257 </r>
       <r>    -2.4016     2.9928    21.2463 </r>
       <r>    -2.2945     3.1888    21.5878 </r>
       <r>    -2.1874     4.0046    22.0168 </r>
       <r>    -2.0803     3.6569    22.4085 </r>
       <r>    -1.9732     3.2499    22.7566 </r>
       <r>    -1.8661     5.0731    23.2999 </r>
       <r>    -1.7590     5.5567    23.8951 </r>
       <r>    -1.6518     5.6235    24.4975 </r>
       <r>    -1.5447     6.1794    25.1593 </r>
       <r>    -1.4376     6.1258    25.8155 </r>
       <r>    -1.3305     5.5872    26.4139 </r>
       <r>    -1.2234     4.6834    26.9156 </r>
       <r>    -1.1163     6.4971    27.6115 </r>
       <r>    -1.0092     4.0546    28.0458 </r>
       <r>    -0.9021     2.2762    28.2896 </r>
       <r>    -0.7950     2.7017    28.5789 </r>
       <r>    -0.6879     2.8807    28.8875 </r>
       <r>    -0.5807     4.4842    29.3678 </r>
       <r>    -0.4736     6.8465    30.1011 </r>
       <r>    -0.3665     5.6664    30.7081 </r>
       <r>    -0.2594     6.6792    31.4235 </r>
       <r>    -0.1523     6.3672    32.1055 </r>
       <r>    -0.0452     6.7423    32.8276 </r>
       <r>     0.0619     6.7894    33.5548 </r>
       <r>     0.1690     6.2744    34.2269 </r>
       <r>     0.2761     8.8182    35.1714 </r>
       <r>     0.3833     8.0310    36.0316 </r>
       <r>     0.4904     8.6896    36.9624 </r>
       <r>     0.5975     5.3034    37.5304 </r>
       <r>     0.7046     2.9660    37.8481 </r>
       <r>     0.8117     3.2677    38.1981 </r>
       <r>     0.9188     3.5889    38.5825 </r>
       <r>     1.0259     3.5711    38.9650 </r>
       <r>     1.1330     2.7969    39.2646 </r>
       <r>     1.2401     3.3794    39.6266 </r>
       <r>     1.3472     4.4894    40.1074 </r>
       <r>     1.4544     3.7953    40.5139 </r>
       <r>     1.5615     3.7133    40.9117 </r>
       <r>     1.6686     4.5828    41.4025 </r>
       <r>     1.7757     3.2792    41.7538 </r>
       <r>     1.8828     2.4774    42.0191 </r>
       <r>     1.9899     2.6687    42.3050 </r>
       <r>     2.0970     2.0933    42.5292 </r>
       <r>     2.2041     2.6511    42.8131 </r>
       <r>     2.3112     2.5870    43.0902 </r>
       <r>     2.4183     1.9533    43.2995 </r>
       <r>     2.5255     0.8717    43.3928 </r>
       <r>     2.6326     0.3786    43.4334 </r>
       <r>     2.7397     0.5738    43.4948 </r>
       <r>     2.8468     0.4202    43.5398 </r>
       <r>     2.9539     0.3055    43.5726 </r>
       <r>     3.0610     0.7491    43.6528 </r>
       <r>     3.1681     1.0183    43.7619 </r>
       <r>     3.2752     0.5497    43.8207 </r>
       <r>     3.3823     0.0143    43.8223 </r>
       <r>     3.4894     0.1269    43.8359 </r>
       <r>     3.5966     0.3945    43.8781 </r>
       <r>     3.7037     0.3337    43.9139 </r>
       <r>     3.8108     0.3694    43.9534 </r>
       <r>     3.9179     0.4063    43.9970 </r>
       <r>     4.0250     0.0284    44.0000 </r>
       <r>     4.1321     0.0000    44.0000 </r>
       <r>     4.2392     0.0258    44.0028 </r>
       <r>     4.3463     0.1714    44.0211 </r>
       <r>     4.4534     0.3964    44.0636 </r>
       <r>     4.5605     0.4619    44.1131 </r>
       <r>     4.6677     0.6279    44.1803 </r>
       <r>     4.7748     0.8825    44.2748 </r>
       <r>     4.8819     0.8392    44.3647 </r>
       <r>     4.9890     0.8598    44.4568 </r>
       <r>     5.0961     1.2685    44.5927 </r>
       <r>     5.2032     1.1626    44.7172 </r>
       <r>     5.3103     1.6176    44.8905 </r>
       <r>     5.4174     2.1724    45.1232 </r>
       <r>     5.5245     2.4924    45.3901 </r>
       <r>     5.6316     2.7922    45.6892 </r>
       <r>     5.7388     3.3401    46.0470 </r>
       <r>     5.8459     3.2352    46.3935 </r>
       <r>     5.9530     4.2859    46.8526 </r>
       <r>     6.0601     4.7797    47.3645 </r>
       <r>     6.1672     4.0593    47.7993 </r>
       <r>     6.2743     4.6159    48.2937 </r>
       <r>     6.3814     4.2007    48.7437 </r>
       <r>     6.4885     3.9949    49.1715 </r>
       <r>     6.5956     4.4984    49.6534 </r>
       <r>     6.7028     3.2373    50.0001 </r>
       <r>     6.8099     3.9837    50.4268 </r>
       <r>     6.9170     4.6104    50.9206 </r>
       <r>     7.0241     4.5655    51.4096 </r>
       <r>     7.1312     4.3403    51.8745 </r>
       <r>     7.2383     5.5910    52.4734 </r>
       <r>     7.3454     4.9509    53.0037 </r>
       <r>     7.4525     4.4643    53.4819 </r>
       <r>     7.5596     4.2073    53.9325 </r>
       <r>     7.6667     3.5769    54.3156 </r>
       <r>     7.7739     3.1171    54.6495 </r>
       <r>     7.8810     3.0183    54.9728 </r>
       <r>     7.9881     2.9737    55.2913 </r>
       <r>     8.0952     4.1650    55.7374 </r>
       <r>     8.2023     3.9024    56.1554 </r>
       <r>     8.3094     3.7103    56.5528 </r>
       <r>     8.4165     3.9983    56.9811 </r>
       <r>     8.5236     4.2297    57.4341 </r>
       <r>     8.6307     4.4720    57.9131 </r>
       <r>     8.7378     4.2463    58.3679 </r>
       <r>     8.8450     5.2969    58.9353 </r>
       <r>     8.9521     4.8915    59.4592 </r>
       <r>     9.0592     5.2896    60.0258 </r>
       <r>     9.1663     5.2328    60.5863 </r>
       <r>     9.2734     4.9878    61.1205 </r>
       <r>     9.3805     4.6802    61.6218 </r>
       <r>     9.4876     4.3827    62.0912 </r>
       <r>     9.5947     5.0998    62.6375 </r>
       <r>     9.7018     5.0313    63.1764 </r>
       <r>     9.8089     5.2941    63.7434 </r>
       <r>     9.9161     4.4864    64.2240 </r>
       <r>    10.0232     3.6544    64.6154 </r>
       <r>    10.1303     5.1830    65.1705 </r>
       <r>    10.2374     4.7183    65.6759 </r>
       <r>    10.3445     4.1341    66.1187 </r>
       <r>    10.4516     5.3856    66.6956 </r>
       <r>    10.5587     5.8196    67.3189 </r>
       <r>    10.6658     4.0724    67.7551 </r>
       <r>    10.7729     3.8955    68.1724 </r>
       <r>    10.8800     3.2522    68.5207 </r>
       <r>    10.9872     4.6752    69.0215 </r>
       <r>    11.0943     5.4570    69.6060 </r>
       <r>    11.2014     6.2271    70.2729 </r>
       <r>    11.3085     5.9998    70.9156 </r>
       <r>    11.4156     5.2504    71.4780 </r>
       <r>    11.5227     4.3434    71.9432 </r>
       <r>    11.6298     4.4750    72.4225 </r>
       <r>    11.7369     4.9511    72.9528 </r>
       <r>    11.8440     4.8128    73.4683 </r>
       <r>    11.9511     6.0218    74.1133 </r>
       <r>    12.0583     5.9786    74.7537 </r>
       <r>    12.1654     6.0193    75.3984 </r>
       <r>    12.2725     5.5918    75.9974 </r>
       <r>    12.3796     5.0008    76.5330 </r>
       <r>    12.4867     5.7022    77.1438 </r>
       <r>    12.5938     5.9802    77.7843 </r>
       <r>    12.7009     5.9927    78.4262 </r>
       <r>    12.8080     5.9116    79.0594 </r>
       <r>    12.9151     5.8733    79.6885 </r>
       <r>    13.0223     5.6062    80.2889 </r>
       <r>    13.1294     6.3486    80.9689 </r>
       <r>    13.2365     6.2834    81.6420 </r>
       <r>    13.3436     5.4133    82.2218 </r>
       <r>    13.4507     6.1284    82.8782 </r>
       <r>    13.5578     5.3765    83.4541 </r>
       <r>    13.6649     4.8204    83.9704 </r>
       <r>    13.7720     6.1513    84.6293 </r>
       <r>    13.8791     5.5218    85.2207 </r>
       <r>    13.9862     5.3538    85.7942 </r>
       <r>    14.0934     5.4769    86.3808 </r>
       <r>    14.2005     4.6815    86.8822 </r>
       <r>    14.3076     4.9280    87.4101 </r>
       <r>    14.4147     4.9971    87.9453 </r>
       <r>    14.5218     4.9539    88.4759 </r>
       <r>    14.6289     5.2739    89.0408 </r>
       <r>    14.7360     5.1793    89.5956 </r>
       <r>    14.8431     4.0951    90.0342 </r>
       <r>    14.9502     5.0565    90.5758 </r>
       <r>    15.0573     6.1708    91.2367 </r>
       <r>    15.1645     5.6628    91.8433 </r>
       <r>    15.2716     5.6930    92.4530 </r>
       <r>    15.3787     6.0171    93.0975 </r>
       <r>    15.4858     5.7480    93.7132 </r>
       <r>    15.5929     5.9736    94.3530 </r>
       <r>    15.7000     4.6055    94.8463 </r>
       <r>    15.8071     2.4855    95.1125 </r>
       <r>    15.9142     2.7074    95.4025 </r>
       <r>    16.0213     1.8541    95.6011 </r>
       <r>    16.1284     1.1403    95.7233 </r>
       <r>    16.2356     0.8885    95.8185 </r>
       <r>    16.3427     0.7016    95.8936 </r>
       <r>    16.4498     0.8140    95.9808 </r>
       <r>    16.5569     0.1777    95.9998 </r>
       <r>    16.6640     0.0017    96.0000 </r>
       <r>    16.7711     0.0000    96.0000 </r>
       <r>    16.8782     0.0000    96.0000 </r>
       <r>    16.9853     0.0000    96.0000 </r>
       <r>    17.0924     0.0000    96.0000 </r>
       <r>    17.1995     0.0000    96.0000 </r>
       <r>    17.3067     0.0000    96.0000 </r>
       <r>    17.4138     0.0000    96.0000 </r>
       <r>    17.5209     0.0000    96.0000 </r>
       <r>    17.6280     0.0000    96.0000 </r>
       <r>    17.7351     0.0000    96.0000 </r>
       <r>    17.8422     0.0000    96.0000 </r>
       <r>    17.9493     0.0000    96.0000 </r>
      </set>
     </set>
    </array>
   </total>
  </dos>
 </calculation>
 <structure name="finalpos" >
  <crystal>
   <varray name="basis" >
    <v>       5.69984850       0.00000000       0.00000000 </v>
    <v>       0.00000000       4.04992395       0.00000000 </v>
    <v>       0.00000000       0.00000000       6.20730210 </v>
   </varray>
   <i name="volume">    143.28906963 </i>
   <varray name="rec_basis" >
    <v>       0.17544326       0.00000000       0.00000000 </v>
    <v>       0.00000000       0.24691822       0.00000000 </v>
    <v>       0.00000000       0.00000000       0.16110059 </v>
   </varray>
  </crystal>
  <varray name="positions" >
   <v>       0.52123000       0.50000000       0.63796000 </v>
   <v>       0.47877000       0.50000000       0.36204000 </v>
   <v>       0.97877000       0.50000000       0.63796000 </v>
   <v>       0.02123000       0.50000000       0.36204000 </v>
   <v>       0.60090000       0.50000000       0.89991000 </v>
   <v>       0.39910000       0.50000000       0.10009000 </v>
   <v>       0.89910000       0.50000000       0.89991000 </v>
   <v>       0.10090000       0.50000000       0.10009000 </v>
   <v>       0.75000000       0.79171000       0.72973000 </v>
   <v>       0.25000000       0.20829000       0.27027000 </v>
   <v>       0.75000000       0.20829000       0.72973000 </v>
   <v>       0.25000000       0.79171000       0.27027000 </v>
   <v>       0.25000000       0.50000000       0.52367000 </v>
   <v>       0.75000000       0.50000000       0.47633000 </v>
  </varray>
 </structure>
</modeling>
