       N       E                     dE             d eps       ncg     rms          rms(c)
DAV:   1    -0.116776110013E+00   -0.11678E+00   -0.12049E+04 16800   0.432E+02
DAV:   2    -0.942693907456E+02   -0.94153E+02   -0.89362E+02 24576   0.106E+02
DAV:   3    -0.968424161965E+02   -0.25730E+01   -0.25664E+01 23328   0.166E+01
DAV:   4    -0.968574447334E+02   -0.15029E-01   -0.15027E-01 23448   0.133E+00
DAV:   5    -0.968576305282E+02   -0.18579E-03   -0.18579E-03 22824   0.148E-01    0.135E+01
DAV:   6    -0.915509247007E+02    0.53067E+01   -0.38470E+00 24240   0.639E+00    0.751E+00
DAV:   7    -0.899203555636E+02    0.16306E+01   -0.31946E+00 25128   0.575E+00    0.183E+00
DAV:   8    -0.899322012523E+02   -0.11846E-01   -0.23056E-01 18816   0.160E+00    0.756E-01
DAV:   9    -0.899460535388E+02   -0.13852E-01   -0.16657E-02 23040   0.421E-01    0.201E-01
DAV:  10    -0.899497645369E+02   -0.37110E-02   -0.19667E-03 19560   0.151E-01    0.614E-02
DAV:  11    -0.899508236774E+02   -0.10591E-02   -0.58425E-04 22056   0.769E-02    0.336E-02
DAV:  12    -0.899509249671E+02   -0.10129E-03   -0.75555E-05 21384   0.290E-02    0.444E-03
DAV:  13    -0.899509284974E+02   -0.35303E-05   -0.31787E-06 23448   0.649E-03    0.202E-03
DAV:  14    -0.899509289663E+02   -0.46894E-06   -0.20669E-07 19944   0.158E-03
   1 F= -.89950929E+02 E0= -.89949293E+02  d E =-.327097E-02
