 vasp.6.4.3 19Mar24 (build May 31 2024 16:31:43) complex                        
  
 executed on             LinuxIFC date 2024.10.29  16:38:24
 running   24 mpi-ranks, with    1 threads/rank, on    1 nodes
 distrk:  each k-point on   24 cores,    1 groups
 distr:  one band on NCORE=   1 cores,   24 groups


--------------------------------------------------------------------------------------------------------


 INCAR:
   SYSTEM = Kpoints
   ISTART = 0
   ICHARG = 2
   PREC = Accurate
   ENCUT = 250
   LCHARG = .FALSE.
   LWAVE = .FALSE.
   ALGO = Normal
   NELM = 100
   EDIFF = 1E-6
   EDIFFG = -1E-3
   SIGMA = 0.05
   ISMEAR = 0
   ISPIN = 1
   NSW = 0
   IBRION = -1
   POTIM = .5
   ISIF = 2
   GGA = PE

 POTCAR:    PAW_PBE B 06Sep2000                   
 POTCAR:    PAW_PBE B 06Sep2000                   
   SHA256 =  a32ced30f5ae56fd4d10b4325ff17eb3e4e38ee0f4288bc219fb012fddfa6e97 B/POTCAR              
   COPYR  = (c) Copyright 06Sep2000 Georg Kresse                                                    
   COPYR  = This file is part of the software VASP. Any use, copying, and all other rights are regul
   COPYR  = If you do not have a valid VASP license, you may not use, copy or distribute this file. 
   VRHFIN =B: s2p1                                                                                  
   LEXCH  = PE                                                                                      
   EATOM  =    71.1703 eV,    5.2309 Ry                                                             
                                                                                                    
   TITEL  = PAW_PBE B 06Sep2000                                                                     
   LULTRA =        F    use ultrasoft PP ?                                                          
   IUNSCR =        1    unscreen: 0-lin 1-nonlin 2-no                                               
   RPACOR =    1.200    partial core radius                                                         
   POMASS =   10.811; ZVAL   =    3.000    mass and valenz                                          
   RCORE  =    1.700    outmost cutoff radius                                                       
   RWIGS  =    1.710; RWIGS  =    0.905    wigner-seitz radius (au A)                               
   ENMAX  =  318.614; ENMIN  =  238.960 eV                                                          
   ICORE  =        2    local potential                                                             
   LCOR   =        T    correct aug charges                                                         
   LPAW   =        T    paw PP                                                                      
   EAUG   =  535.514                                                                                
   DEXC   =    0.000                                                                                
   RMAX   =    1.732    core radius for proj-oper                                                   
   RAUG   =    1.300    factor for augmentation sphere                                              
   RDEP   =    1.757    radius for radial grids                                                     
   RDEPT  =    1.436    core radius for aug-charge                                                  
                                                                                                    
   Atomic configuration                                                                             
    4 entries                                                                                       
     n  l   j            E        occ.                                                              
     1  0  0.50      -180.5896   2.0000                                                             
     2  0  0.50        -9.4431   2.0000                                                             
     2  1  0.50        -3.6068   1.0000                                                             
     3  2  1.50        -4.0817   0.0000                                                             
   Description                                                                                      
     l       E           TYP  RCUT    TYP  RCUT                                                     
     0     -9.4430752     23  1.500                                                                 
     0      0.8675899     23  1.500                                                                 
     1     -3.6067955     23  1.700                                                                 
     1      6.1086146     23  1.700                                                                 
     2     -4.0817478      7  1.700                                                                 
  local pseudopotential read in
  partial core-charges read in
  partial kinetic energy density read in
  atomic valenz-charges read in
  non local Contribution for L=           0  read in
    real space projection operators read in
  non local Contribution for L=           0  read in
    real space projection operators read in
  non local Contribution for L=           1  read in
    real space projection operators read in
  non local Contribution for L=           1  read in
    real space projection operators read in
    PAW grid and wavefunctions read in
 
   number of l-projection  operators is LMAX  =           4
   number of lm-projection operators is LMMAX =           8
 
  PAW_PBE B 06Sep2000                   :
 energy of atom  1       EATOM=  -71.1703
 kinetic energy error for atom=    0.0401 (will be added to EATOM!!)
 
 
 POSCAR: o-B14
  positions in direct lattice
  No initial velocities read in


 exchange-correlation table for PE
   RHO(1)=    0.500       N(1)  =     2000
   RHO(2)=  100.500       N(2)  =     4000
 


--------------------------------------------------------------------------------------------------------


 ion  position               nearest neighbor table
   1  0.521  0.500  0.638-  14 1.64   5 1.69  13 1.70   2 1.73   9 1.85  11 1.85
   2  0.479  0.500  0.362-  13 1.64   6 1.69  14 1.70   1 1.73  10 1.85  12 1.85
   3  0.979  0.500  0.638-  14 1.64   7 1.69  13 1.70   4 1.73   9 1.85  11 1.85
   4  0.021  0.500  0.362-  13 1.64   8 1.69  14 1.70   3 1.73  10 1.85  12 1.85
   5  0.601  0.500  0.900-   1 1.69   6 1.69   7 1.70   9 1.80  11 1.80
   6  0.399  0.500  0.100-   2 1.69   5 1.69   8 1.70  10 1.80  12 1.80
   7  0.899  0.500  0.900-   3 1.69   8 1.69   5 1.70   9 1.80  11 1.80
   8  0.101  0.500  0.100-   4 1.69   7 1.69   6 1.70  10 1.80  12 1.80
   9  0.750  0.792  0.730-  11 1.69   7 1.80   5 1.80   3 1.85   1 1.85  14 1.97
  10  0.250  0.208  0.270-  12 1.69   8 1.80   6 1.80   4 1.85   2 1.85  13 1.97
  11  0.750  0.208  0.730-   9 1.69   7 1.80   5 1.80   3 1.85   1 1.85  14 1.97
  12  0.250  0.792  0.270-  10 1.69   8 1.80   6 1.80   4 1.85   2 1.85  13 1.97
  13  0.250  0.500  0.524-   2 1.64   4 1.64   3 1.70   1 1.70  10 1.97  12 1.97
  14  0.750  0.500  0.476-   1 1.64   3 1.64   2 1.70   4 1.70   9 1.97  11 1.97
 
  LATTYP: Found a simple orthorhombic cell.
 ALAT       =     4.0479000000
 B/A-ratio  =     1.4073964278
 C/A-ratio  =     1.5326959658
  
  Lattice vectors:
  
 A1 = (   0.0000000000,  -4.0479000000,   0.0000000000)
 A2 = (   5.6970000000,   0.0000000000,   0.0000000000)
 A3 = (   0.0000000000,   0.0000000000,   6.2042000000)


Analysis of symmetry for initial positions (statically):
=====================================================================
 Subroutine PRICEL returns:
 Original cell was already a primitive cell.
 

 Routine SETGRP: Setting up the symmetry group for a 
 simple orthorhombic supercell.


 Subroutine GETGRP returns: Found  8 space group operations
 (whereof  4 operations were pure point group operations)
 out of a pool of  8 trial point group operations.


The static configuration has the point symmetry C_2h.
 The point group associated with its full space group is D_2h.


Analysis of symmetry for dynamics (positions and initial velocities):
=====================================================================
 Subroutine PRICEL returns:
 Original cell was already a primitive cell.
 

 Routine SETGRP: Setting up the symmetry group for a 
 simple orthorhombic supercell.


 Subroutine GETGRP returns: Found  8 space group operations
 (whereof  4 operations were pure point group operations)
 out of a pool of  8 trial point group operations.


The dynamic configuration has the point symmetry C_2h.
 The point group associated with its full space group is D_2h.


 Subroutine INISYM returns: Found  8 space group operations
 (whereof  4 operations are pure point group operations),
 and found     1 'primitive' translations


----------------------------------------------------------------------------------------

                                     Primitive cell                                     

  volume of cell :     143.0744

  direct lattice vectors                    reciprocal lattice vectors
     5.697000000  0.000000000  0.000000000     0.175530981  0.000000000  0.000000000
     0.000000000  4.047900000  0.000000000     0.000000000  0.247041676  0.000000000
     0.000000000  0.000000000  6.204200000     0.000000000  0.000000000  0.161181135

  length of vectors
     5.697000000  4.047900000  6.204200000     0.175530981  0.247041676  0.161181135

  position of ions in fractional coordinates (direct lattice)
     0.521230000  0.500000000  0.637960000
     0.478770000  0.500000000  0.362040000
     0.978770000  0.500000000  0.637960000
     0.021230000  0.500000000  0.362040000
     0.600900000  0.500000000  0.899910000
     0.399100000  0.500000000  0.100090000
     0.899100000  0.500000000  0.899910000
     0.100900000  0.500000000  0.100090000
     0.750000000  0.791710000  0.729730000
     0.250000000  0.208290000  0.270270000
     0.750000000  0.208290000  0.729730000
     0.250000000  0.791710000  0.270270000
     0.250000000  0.500000000  0.523670000
     0.750000000  0.500000000  0.476330000

  ion indices of the primitive-cell ions
   primitive index   ion index
                 1           1
                 2           2
                 3           3
                 4           4
                 5           5
                 6           6
                 7           7
                 8           8
                 9           9
                10          10
                11          11
                12          12
                13          13
                14          14

----------------------------------------------------------------------------------------

 
 
 KPOINTS: k-points                                

Automatic generation of k-mesh.
 Grid dimensions read from file:
 generate k-points for:   10   14    9

 Generating k-lattice:

  Cartesian coordinates                     Fractional coordinates (reciprocal lattice)
     0.017553098  0.000000000  0.000000000     0.100000000  0.000000000  0.000000000
     0.000000000  0.017645834  0.000000000     0.000000000  0.071428571  0.000000000
     0.000000000  0.000000000  0.017909015     0.000000000  0.000000000  0.111111111

  Length of vectors
     0.017553098  0.017645834  0.017909015

  Shift w.r.t. Gamma in fractional coordinates (k-lattice)
     0.500000000  0.500000000  0.000000000

 
 Subroutine IBZKPT returns following result:
 ===========================================
 
 Found    175 irreducible k-points:
 
 Following reciprocal coordinates:
            Coordinates               Weight
  0.050000  0.035714  0.000000      4.000000
  0.150000  0.035714  0.000000      4.000000
  0.250000  0.035714  0.000000      4.000000
  0.350000  0.035714  0.000000      4.000000
  0.450000  0.035714  0.000000      4.000000
  0.050000  0.107143  0.000000      4.000000
  0.150000  0.107143  0.000000      4.000000
  0.250000  0.107143  0.000000      4.000000
  0.350000  0.107143  0.000000      4.000000
  0.450000  0.107143  0.000000      4.000000
  0.050000  0.178571  0.000000      4.000000
  0.150000  0.178571  0.000000      4.000000
  0.250000  0.178571  0.000000      4.000000
  0.350000  0.178571  0.000000      4.000000
  0.450000  0.178571  0.000000      4.000000
  0.050000  0.250000  0.000000      4.000000
  0.150000  0.250000  0.000000      4.000000
  0.250000  0.250000  0.000000      4.000000
  0.350000  0.250000  0.000000      4.000000
  0.450000  0.250000  0.000000      4.000000
  0.050000  0.321429  0.000000      4.000000
  0.150000  0.321429  0.000000      4.000000
  0.250000  0.321429  0.000000      4.000000
  0.350000  0.321429  0.000000      4.000000
  0.450000  0.321429  0.000000      4.000000
  0.050000  0.392857  0.000000      4.000000
  0.150000  0.392857  0.000000      4.000000
  0.250000  0.392857  0.000000      4.000000
  0.350000  0.392857  0.000000      4.000000
  0.450000  0.392857  0.000000      4.000000
  0.050000  0.464286  0.000000      4.000000
  0.150000  0.464286  0.000000      4.000000
  0.250000  0.464286  0.000000      4.000000
  0.350000  0.464286  0.000000      4.000000
  0.450000  0.464286  0.000000      4.000000
  0.050000  0.035714  0.111111      8.000000
  0.150000  0.035714  0.111111      8.000000
  0.250000  0.035714  0.111111      8.000000
  0.350000  0.035714  0.111111      8.000000
  0.450000  0.035714  0.111111      8.000000
  0.050000  0.107143  0.111111      8.000000
  0.150000  0.107143  0.111111      8.000000
  0.250000  0.107143  0.111111      8.000000
  0.350000  0.107143  0.111111      8.000000
  0.450000  0.107143  0.111111      8.000000
  0.050000  0.178571  0.111111      8.000000
  0.150000  0.178571  0.111111      8.000000
  0.250000  0.178571  0.111111      8.000000
  0.350000  0.178571  0.111111      8.000000
  0.450000  0.178571  0.111111      8.000000
  0.050000  0.250000  0.111111      8.000000
  0.150000  0.250000  0.111111      8.000000
  0.250000  0.250000  0.111111      8.000000
  0.350000  0.250000  0.111111      8.000000
  0.450000  0.250000  0.111111      8.000000
  0.050000  0.321429  0.111111      8.000000
  0.150000  0.321429  0.111111      8.000000
  0.250000  0.321429  0.111111      8.000000
  0.350000  0.321429  0.111111      8.000000
  0.450000  0.321429  0.111111      8.000000
  0.050000  0.392857  0.111111      8.000000
  0.150000  0.392857  0.111111      8.000000
  0.250000  0.392857  0.111111      8.000000
  0.350000  0.392857  0.111111      8.000000
  0.450000  0.392857  0.111111      8.000000
  0.050000  0.464286  0.111111      8.000000
  0.150000  0.464286  0.111111      8.000000
  0.250000  0.464286  0.111111      8.000000
  0.350000  0.464286  0.111111      8.000000
  0.450000  0.464286  0.111111      8.000000
  0.050000  0.035714  0.222222      8.000000
  0.150000  0.035714  0.222222      8.000000
  0.250000  0.035714  0.222222      8.000000
  0.350000  0.035714  0.222222      8.000000
  0.450000  0.035714  0.222222      8.000000
  0.050000  0.107143  0.222222      8.000000
  0.150000  0.107143  0.222222      8.000000
  0.250000  0.107143  0.222222      8.000000
  0.350000  0.107143  0.222222      8.000000
  0.450000  0.107143  0.222222      8.000000
  0.050000  0.178571  0.222222      8.000000
  0.150000  0.178571  0.222222      8.000000
  0.250000  0.178571  0.222222      8.000000
  0.350000  0.178571  0.222222      8.000000
  0.450000  0.178571  0.222222      8.000000
  0.050000  0.250000  0.222222      8.000000
  0.150000  0.250000  0.222222      8.000000
  0.250000  0.250000  0.222222      8.000000
  0.350000  0.250000  0.222222      8.000000
  0.450000  0.250000  0.222222      8.000000
  0.050000  0.321429  0.222222      8.000000
  0.150000  0.321429  0.222222      8.000000
  0.250000  0.321429  0.222222      8.000000
  0.350000  0.321429  0.222222      8.000000
  0.450000  0.321429  0.222222      8.000000
  0.050000  0.392857  0.222222      8.000000
  0.150000  0.392857  0.222222      8.000000
  0.250000  0.392857  0.222222      8.000000
  0.350000  0.392857  0.222222      8.000000
  0.450000  0.392857  0.222222      8.000000
  0.050000  0.464286  0.222222      8.000000
  0.150000  0.464286  0.222222      8.000000
  0.250000  0.464286  0.222222      8.000000
  0.350000  0.464286  0.222222      8.000000
  0.450000  0.464286  0.222222      8.000000
  0.050000  0.035714  0.333333      8.000000
  0.150000  0.035714  0.333333      8.000000
  0.250000  0.035714  0.333333      8.000000
  0.350000  0.035714  0.333333      8.000000
  0.450000  0.035714  0.333333      8.000000
  0.050000  0.107143  0.333333      8.000000
  0.150000  0.107143  0.333333      8.000000
  0.250000  0.107143  0.333333      8.000000
  0.350000  0.107143  0.333333      8.000000
  0.450000  0.107143  0.333333      8.000000
  0.050000  0.178571  0.333333      8.000000
  0.150000  0.178571  0.333333      8.000000
  0.250000  0.178571  0.333333      8.000000
  0.350000  0.178571  0.333333      8.000000
  0.450000  0.178571  0.333333      8.000000
  0.050000  0.250000  0.333333      8.000000
  0.150000  0.250000  0.333333      8.000000
  0.250000  0.250000  0.333333      8.000000
  0.350000  0.250000  0.333333      8.000000
  0.450000  0.250000  0.333333      8.000000
  0.050000  0.321429  0.333333      8.000000
  0.150000  0.321429  0.333333      8.000000
  0.250000  0.321429  0.333333      8.000000
  0.350000  0.321429  0.333333      8.000000
  0.450000  0.321429  0.333333      8.000000
  0.050000  0.392857  0.333333      8.000000
  0.150000  0.392857  0.333333      8.000000
  0.250000  0.392857  0.333333      8.000000
  0.350000  0.392857  0.333333      8.000000
  0.450000  0.392857  0.333333      8.000000
  0.050000  0.464286  0.333333      8.000000
  0.150000  0.464286  0.333333      8.000000
  0.250000  0.464286  0.333333      8.000000
  0.350000  0.464286  0.333333      8.000000
  0.450000  0.464286  0.333333      8.000000
  0.050000  0.035714  0.444444      8.000000
  0.150000  0.035714  0.444444      8.000000
  0.250000  0.035714  0.444444      8.000000
  0.350000  0.035714  0.444444      8.000000
  0.450000  0.035714  0.444444      8.000000
  0.050000  0.107143  0.444444      8.000000
  0.150000  0.107143  0.444444      8.000000
  0.250000  0.107143  0.444444      8.000000
  0.350000  0.107143  0.444444      8.000000
  0.450000  0.107143  0.444444      8.000000
  0.050000  0.178571  0.444444      8.000000
  0.150000  0.178571  0.444444      8.000000
  0.250000  0.178571  0.444444      8.000000
  0.350000  0.178571  0.444444      8.000000
  0.450000  0.178571  0.444444      8.000000
  0.050000  0.250000  0.444444      8.000000
  0.150000  0.250000  0.444444      8.000000
  0.250000  0.250000  0.444444      8.000000
  0.350000  0.250000  0.444444      8.000000
  0.450000  0.250000  0.444444      8.000000
  0.050000  0.321429  0.444444      8.000000
  0.150000  0.321429  0.444444      8.000000
  0.250000  0.321429  0.444444      8.000000
  0.350000  0.321429  0.444444      8.000000
  0.450000  0.321429  0.444444      8.000000
  0.050000  0.392857  0.444444      8.000000
  0.150000  0.392857  0.444444      8.000000
  0.250000  0.392857  0.444444      8.000000
  0.350000  0.392857  0.444444      8.000000
  0.450000  0.392857  0.444444      8.000000
  0.050000  0.464286  0.444444      8.000000
  0.150000  0.464286  0.444444      8.000000
  0.250000  0.464286  0.444444      8.000000
  0.350000  0.464286  0.444444      8.000000
  0.450000  0.464286  0.444444      8.000000
 
 Following cartesian coordinates:
            Coordinates               Weight
  0.008777  0.008823  0.000000      4.000000
  0.026330  0.008823  0.000000      4.000000
  0.043883  0.008823  0.000000      4.000000
  0.061436  0.008823  0.000000      4.000000
  0.078989  0.008823  0.000000      4.000000
  0.008777  0.026469  0.000000      4.000000
  0.026330  0.026469  0.000000      4.000000
  0.043883  0.026469  0.000000      4.000000
  0.061436  0.026469  0.000000      4.000000
  0.078989  0.026469  0.000000      4.000000
  0.008777  0.044115  0.000000      4.000000
  0.026330  0.044115  0.000000      4.000000
  0.043883  0.044115  0.000000      4.000000
  0.061436  0.044115  0.000000      4.000000
  0.078989  0.044115  0.000000      4.000000
  0.008777  0.061760  0.000000      4.000000
  0.026330  0.061760  0.000000      4.000000
  0.043883  0.061760  0.000000      4.000000
  0.061436  0.061760  0.000000      4.000000
  0.078989  0.061760  0.000000      4.000000
  0.008777  0.079406  0.000000      4.000000
  0.026330  0.079406  0.000000      4.000000
  0.043883  0.079406  0.000000      4.000000
  0.061436  0.079406  0.000000      4.000000
  0.078989  0.079406  0.000000      4.000000
  0.008777  0.097052  0.000000      4.000000
  0.026330  0.097052  0.000000      4.000000
  0.043883  0.097052  0.000000      4.000000
  0.061436  0.097052  0.000000      4.000000
  0.078989  0.097052  0.000000      4.000000
  0.008777  0.114698  0.000000      4.000000
  0.026330  0.114698  0.000000      4.000000
  0.043883  0.114698  0.000000      4.000000
  0.061436  0.114698  0.000000      4.000000
  0.078989  0.114698  0.000000      4.000000
  0.008777  0.008823  0.017909      8.000000
  0.026330  0.008823  0.017909      8.000000
  0.043883  0.008823  0.017909      8.000000
  0.061436  0.008823  0.017909      8.000000
  0.078989  0.008823  0.017909      8.000000
  0.008777  0.026469  0.017909      8.000000
  0.026330  0.026469  0.017909      8.000000
  0.043883  0.026469  0.017909      8.000000
  0.061436  0.026469  0.017909      8.000000
  0.078989  0.026469  0.017909      8.000000
  0.008777  0.044115  0.017909      8.000000
  0.026330  0.044115  0.017909      8.000000
  0.043883  0.044115  0.017909      8.000000
  0.061436  0.044115  0.017909      8.000000
  0.078989  0.044115  0.017909      8.000000
  0.008777  0.061760  0.017909      8.000000
  0.026330  0.061760  0.017909      8.000000
  0.043883  0.061760  0.017909      8.000000
  0.061436  0.061760  0.017909      8.000000
  0.078989  0.061760  0.017909      8.000000
  0.008777  0.079406  0.017909      8.000000
  0.026330  0.079406  0.017909      8.000000
  0.043883  0.079406  0.017909      8.000000
  0.061436  0.079406  0.017909      8.000000
  0.078989  0.079406  0.017909      8.000000
  0.008777  0.097052  0.017909      8.000000
  0.026330  0.097052  0.017909      8.000000
  0.043883  0.097052  0.017909      8.000000
  0.061436  0.097052  0.017909      8.000000
  0.078989  0.097052  0.017909      8.000000
  0.008777  0.114698  0.017909      8.000000
  0.026330  0.114698  0.017909      8.000000
  0.043883  0.114698  0.017909      8.000000
  0.061436  0.114698  0.017909      8.000000
  0.078989  0.114698  0.017909      8.000000
  0.008777  0.008823  0.035818      8.000000
  0.026330  0.008823  0.035818      8.000000
  0.043883  0.008823  0.035818      8.000000
  0.061436  0.008823  0.035818      8.000000
  0.078989  0.008823  0.035818      8.000000
  0.008777  0.026469  0.035818      8.000000
  0.026330  0.026469  0.035818      8.000000
  0.043883  0.026469  0.035818      8.000000
  0.061436  0.026469  0.035818      8.000000
  0.078989  0.026469  0.035818      8.000000
  0.008777  0.044115  0.035818      8.000000
  0.026330  0.044115  0.035818      8.000000
  0.043883  0.044115  0.035818      8.000000
  0.061436  0.044115  0.035818      8.000000
  0.078989  0.044115  0.035818      8.000000
  0.008777  0.061760  0.035818      8.000000
  0.026330  0.061760  0.035818      8.000000
  0.043883  0.061760  0.035818      8.000000
  0.061436  0.061760  0.035818      8.000000
  0.078989  0.061760  0.035818      8.000000
  0.008777  0.079406  0.035818      8.000000
  0.026330  0.079406  0.035818      8.000000
  0.043883  0.079406  0.035818      8.000000
  0.061436  0.079406  0.035818      8.000000
  0.078989  0.079406  0.035818      8.000000
  0.008777  0.097052  0.035818      8.000000
  0.026330  0.097052  0.035818      8.000000
  0.043883  0.097052  0.035818      8.000000
  0.061436  0.097052  0.035818      8.000000
  0.078989  0.097052  0.035818      8.000000
  0.008777  0.114698  0.035818      8.000000
  0.026330  0.114698  0.035818      8.000000
  0.043883  0.114698  0.035818      8.000000
  0.061436  0.114698  0.035818      8.000000
  0.078989  0.114698  0.035818      8.000000
  0.008777  0.008823  0.053727      8.000000
  0.026330  0.008823  0.053727      8.000000
  0.043883  0.008823  0.053727      8.000000
  0.061436  0.008823  0.053727      8.000000
  0.078989  0.008823  0.053727      8.000000
  0.008777  0.026469  0.053727      8.000000
  0.026330  0.026469  0.053727      8.000000
  0.043883  0.026469  0.053727      8.000000
  0.061436  0.026469  0.053727      8.000000
  0.078989  0.026469  0.053727      8.000000
  0.008777  0.044115  0.053727      8.000000
  0.026330  0.044115  0.053727      8.000000
  0.043883  0.044115  0.053727      8.000000
  0.061436  0.044115  0.053727      8.000000
  0.078989  0.044115  0.053727      8.000000
  0.008777  0.061760  0.053727      8.000000
  0.026330  0.061760  0.053727      8.000000
  0.043883  0.061760  0.053727      8.000000
  0.061436  0.061760  0.053727      8.000000
  0.078989  0.061760  0.053727      8.000000
  0.008777  0.079406  0.053727      8.000000
  0.026330  0.079406  0.053727      8.000000
  0.043883  0.079406  0.053727      8.000000
  0.061436  0.079406  0.053727      8.000000
  0.078989  0.079406  0.053727      8.000000
  0.008777  0.097052  0.053727      8.000000
  0.026330  0.097052  0.053727      8.000000
  0.043883  0.097052  0.053727      8.000000
  0.061436  0.097052  0.053727      8.000000
  0.078989  0.097052  0.053727      8.000000
  0.008777  0.114698  0.053727      8.000000
  0.026330  0.114698  0.053727      8.000000
  0.043883  0.114698  0.053727      8.000000
  0.061436  0.114698  0.053727      8.000000
  0.078989  0.114698  0.053727      8.000000
  0.008777  0.008823  0.071636      8.000000
  0.026330  0.008823  0.071636      8.000000
  0.043883  0.008823  0.071636      8.000000
  0.061436  0.008823  0.071636      8.000000
  0.078989  0.008823  0.071636      8.000000
  0.008777  0.026469  0.071636      8.000000
  0.026330  0.026469  0.071636      8.000000
  0.043883  0.026469  0.071636      8.000000
  0.061436  0.026469  0.071636      8.000000
  0.078989  0.026469  0.071636      8.000000
  0.008777  0.044115  0.071636      8.000000
  0.026330  0.044115  0.071636      8.000000
  0.043883  0.044115  0.071636      8.000000
  0.061436  0.044115  0.071636      8.000000
  0.078989  0.044115  0.071636      8.000000
  0.008777  0.061760  0.071636      8.000000
  0.026330  0.061760  0.071636      8.000000
  0.043883  0.061760  0.071636      8.000000
  0.061436  0.061760  0.071636      8.000000
  0.078989  0.061760  0.071636      8.000000
  0.008777  0.079406  0.071636      8.000000
  0.026330  0.079406  0.071636      8.000000
  0.043883  0.079406  0.071636      8.000000
  0.061436  0.079406  0.071636      8.000000
  0.078989  0.079406  0.071636      8.000000
  0.008777  0.097052  0.071636      8.000000
  0.026330  0.097052  0.071636      8.000000
  0.043883  0.097052  0.071636      8.000000
  0.061436  0.097052  0.071636      8.000000
  0.078989  0.097052  0.071636      8.000000
  0.008777  0.114698  0.071636      8.000000
  0.026330  0.114698  0.071636      8.000000
  0.043883  0.114698  0.071636      8.000000
  0.061436  0.114698  0.071636      8.000000
  0.078989  0.114698  0.071636      8.000000
 


--------------------------------------------------------------------------------------------------------




 Dimension of arrays:
   k-points           NKPTS =    175   k-points in BZ     NKDIM =    175   number of bands    NBANDS=     48
   number of dos      NEDOS =    301   number of ions     NIONS =     14
   non local maximal  LDIM  =      4   non local SUM 2l+1 LMDIM =      8
   total plane-waves  NPLWV =  23040
   max r-space proj   IRMAX =      1   max aug-charges    IRDMAX=   2710
   dimension x,y,z NGX =    30 NGY =   24 NGZ =   32
   dimension x,y,z NGXF=    60 NGYF=   48 NGZF=   64
   support grid    NGXF=    60 NGYF=   48 NGZF=   64
   ions per type =              14
   NGX,Y,Z   is equivalent  to a cutoff of   8.75,  9.86,  8.57 a.u.
   NGXF,Y,Z  is equivalent  to a cutoff of  17.51, 19.71, 17.15 a.u.

 SYSTEM =  Kpoints                                 
 POSCAR =  o-B14                                   

 Startparameter for this run:
   NWRITE =      2    write-flag & timer
   PREC   = accura    normal or accurate (medium, high low for compatibility)
   ISTART =      0    job   : 0-new  1-cont  2-samecut
   ICHARG =      2    charge: 1-file 2-atom 10-const
   ISPIN  =      1    spin polarized calculation?
   LNONCOLLINEAR =      F non collinear calculations
   LSORBIT =      F    spin-orbit coupling
   INIWAV =      1    electr: 0-lowe 1-rand  2-diag
   LASPH  =      F    aspherical Exc in radial PAW
 Electronic Relaxation 1
   ENCUT  =  250.0 eV  18.37 Ry    4.29 a.u.   7.34  5.22  8.00*2*pi/ulx,y,z
   ENINI  =  250.0     initial cutoff
   ENAUG  =  535.5 eV  augmentation charge cutoff
   NELM   =    100;   NELMIN=  2; NELMDL= -5     # of ELM steps 
   EDIFF  = 0.1E-05   stopping-criterion for ELM
   LREAL  =      F    real-space projection
   NLSPLINE    = F    spline interpolate recip. space projectors
   LCOMPAT=      F    compatible to vasp.4.4
   GGA_COMPAT  = T    GGA compatible to vasp.4.4-vasp.4.6
   LMAXPAW     = -100 max onsite density
   LMAXMIX     =    2 max onsite mixed and CHGCAR
   VOSKOWN=      0    Vosko Wilk Nusair interpolation
   ROPT   =    0.00000
 Ionic relaxation
   EDIFFG = -.1E-02   stopping-criterion for IOM
   NSW    =      0    number of steps for IOM
   NBLOCK =      1;   KBLOCK =      1    inner block; outer block 
   IBRION =     -1    ionic relax: 0-MD 1-quasi-New 2-CG
   NFREE  =      0    steps in history (QN), initial steepest desc. (CG)
   ISIF   =      2    stress and relaxation
   IWAVPR =     10    prediction:  0-non 1-charg 2-wave 3-comb
   ISYM   =      2    0-nonsym 1-usesym 2-fastsym
   LCORR  =      T    Harris-Foulkes like correction to forces

   POTIM  = 0.5000    time-step for ionic-motion
   TEIN   =    0.0    initial temperature
   TEBEG  =    0.0;   TEEND  =   0.0 temperature during run
   SMASS  =  -3.00    Nose mass-parameter (am)
   estimated Nose-frequenzy (Omega)   =  0.10E-29 period in steps = 0.13E+47 mass=  -0.742E-27a.u.
   SCALEE = 1.0000    scale energy and forces
   NPACO  =    256;   APACO  = 10.0  distance and # of slots for P.C.
   PSTRESS=    0.0 pullay stress

  Mass of Ions in am
   POMASS =  10.81
  Ionic Valenz
   ZVAL   =   3.00
  Atomic Wigner-Seitz radii
   RWIGS  =  -1.00
  virtual crystal weights 
   VCA    =   1.00
   NELECT =      42.0000    total number of electrons
   NUPDOWN=      -1.0000    fix difference up-down

 DOS related values:
   EMIN   =  10.00;   EMAX   =-10.00  energy-range for DOS
   EFERMI =   0.00;   METHOD = LEGACY      
   ISMEAR =     0;   SIGMA  =   0.05  broadening in eV -4-tet -1-fermi 0-gaus

 Electronic relaxation 2 (details)
   IALGO  =     38    algorithm
   LDIAG  =      T    sub-space diagonalisation (order eigenvalues)
   LSUBROT=      F    optimize rotation matrix (better conditioning)
   TURBO    =      0    0=normal 1=particle mesh
   IRESTART =      0    0=no restart 2=restart with 2 vectors
   NREBOOT  =      0    no. of reboots
   NMIN     =      0    reboot dimension
   EREF     =   0.00    reference energy to select bands
   IMIX   =      4    mixing-type and parameters
     AMIX     =   0.40;   BMIX     =  1.00
     AMIX_MAG =   1.60;   BMIX_MAG =  1.00
     AMIN     =   0.10
     WC   =   100.;   INIMIX=   1;  MIXPRE=   1;  MAXMIX= -45

 Intra band minimization:
   WEIMIN = 0.0000     energy-eigenvalue tresh-hold
   EBREAK =  0.52E-08  absolut break condition
   DEPER  =   0.30     relativ break condition  

   TIME   =   0.40     timestep for ELM

  volume/ion in A,a.u.               =      10.22        68.97
  Fermi-wavevector in a.u.,A,eV,Ry     =   1.088021  2.056062 16.106441  1.183790
  Thomas-Fermi vector in A             =   2.224193
 
 Write flags
   LWAVE        =      F    write WAVECAR
   LDOWNSAMPLE  =      F    k-point downsampling of WAVECAR
   LCHARG       =      F    write CHGCAR
   LVTOT        =      F    write LOCPOT, total local potential
   LVHAR        =      F    write LOCPOT, Hartree potential only
   WRT_POTENTIAL= false  ! write potential to hdf5 file
   LELF         =      F    write electronic localiz. function (ELF)
   LORBIT       =      0    0 simple, 1 ext, 2 COOP (PROOUT), +10 PAW based schemes


 Dipole corrections
   LMONO      =      F    monopole corrections only (constant potential shift)
   LDIPOL     =      F    correct potential (dipole corrections)
   IDIPOL     =      0    1-x, 2-y, 3-z, 4-all directions 
   EPSILON    =  1.0000000 bulk dielectric constant
   LVACPOTAV  =      F  vacuum potentials using an averaging scheme for the charge density
   VACPOTFLAT =  0.1000000 required flatness to determine vacuum potential
 Exchange correlation treatment:
   GGA     = PE    functional components
   XC_C    = 1    coefficients multiplying the functional components
   LIBXC   =     F    Libxc                    
   VOSKOWN =     0    Vosko Wilk Nusair interpolation
   LHFCALC =     F    Hartree Fock is set to
   LHFONE  =     F    Hartree Fock one center treatment
   AEXX    =    0.0000 exact exchange contribution

 Parameters of functionals:
   PE:
     No parameter
 
 Van der Waals corrections
   IVDW    =     0    specifies the selected vdW correction

 Linear response parameters
   LEPSILON=     F    determine dielectric tensor
   LRPA    =     F    only Hartree local field effects (RPA)
   LNABLA  =     F    use nabla operator in PAW spheres
   LVEL    =     F    velocity operator in full k-point grid
   CSHIFT  =0.1000    complex shift for real part using Kramers Kronig
   OMEGAMAX=  -1.0    maximum frequency
   DEG_THRESHOLD= 0.2000000E-02 threshold for treating states as degnerate
   RTIME   =   -0.100 relaxation time in fs
  (WPLASMAI=    0.000 imaginary part of plasma frequency in eV, 0.658/RTIME)
   DFIELD  = 0.0000000 0.0000000 0.0000000 field for delta impulse in time
 
  Optional k-point grid parameters
   LKPOINTS_OPT  =     F    use optional k-point grid
   KPOINTS_OPT_MODE=     1    mode for optional k-point grid
 
 Orbital magnetization related:
   ORBITALMAG=     F  switch on orbital magnetization
   LCHIMAG   =     F  perturbation theory with respect to B field
   DQ        =  0.001000  dq finite difference perturbation B field
   LLRAUG    =     F  two centre corrections for induced B field
   LBONE     =     F  B-component reconstruction in AE one-centre
   LVGVCALC  =     T  calculate vGv susceptibility
   LVGVAPPL  =     F  apply vGv susceptibility instead of pGv for G=0

 Random number generation:
   RANDOM_GENERATOR = DEFAULT
   PCG_SEED         = not used


--------------------------------------------------------------------------------------------------------


 Static calculation
 charge density and potential will be updated during run
 non-spin polarized calculation
 Variant of blocked Davidson
 Davidson routine will perform the subspace rotation
 perform sub-space diagonalisation
    after iterative eigenvector-optimisation
 modified Broyden-mixing scheme, WC =      100.0
 initial mixing is a Kerker type mixing with AMIX =  0.4000 and BMIX =      1.0000
 Hartree-type preconditioning will be used
 using additional bands           27
 reciprocal scheme for non local part
 use partial core corrections
 calculate Harris-corrections to forces 
   (improved forces if not selfconsistent)
 use gradient corrections 
 use of overlap-Matrix (Vanderbilt PP)
 Gauss-broadening in eV      SIGMA  =   0.05


--------------------------------------------------------------------------------------------------------


  energy-cutoff  :      250.00
  volume of cell :      143.07
      direct lattice vectors                 reciprocal lattice vectors
     5.697000000  0.000000000  0.000000000     0.175530981  0.000000000  0.000000000
     0.000000000  4.047900000  0.000000000     0.000000000  0.247041676  0.000000000
     0.000000000  0.000000000  6.204200000     0.000000000  0.000000000  0.161181135

  length of vectors
     5.697000000  4.047900000  6.204200000     0.175530981  0.247041676  0.161181135


 
 k-points in units of 2pi/SCALE and weight: k-points                                
   0.00877655  0.00882292  0.00000000       0.003
   0.02632965  0.00882292  0.00000000       0.003
   0.04388275  0.00882292  0.00000000       0.003
   0.06143584  0.00882292  0.00000000       0.003
   0.07898894  0.00882292  0.00000000       0.003
   0.00877655  0.02646875  0.00000000       0.003
   0.02632965  0.02646875  0.00000000       0.003
   0.04388275  0.02646875  0.00000000       0.003
   0.06143584  0.02646875  0.00000000       0.003
   0.07898894  0.02646875  0.00000000       0.003
   0.00877655  0.04411458  0.00000000       0.003
   0.02632965  0.04411458  0.00000000       0.003
   0.04388275  0.04411458  0.00000000       0.003
   0.06143584  0.04411458  0.00000000       0.003
   0.07898894  0.04411458  0.00000000       0.003
   0.00877655  0.06176042  0.00000000       0.003
   0.02632965  0.06176042  0.00000000       0.003
   0.04388275  0.06176042  0.00000000       0.003
   0.06143584  0.06176042  0.00000000       0.003
   0.07898894  0.06176042  0.00000000       0.003
   0.00877655  0.07940625  0.00000000       0.003
   0.02632965  0.07940625  0.00000000       0.003
   0.04388275  0.07940625  0.00000000       0.003
   0.06143584  0.07940625  0.00000000       0.003
   0.07898894  0.07940625  0.00000000       0.003
   0.00877655  0.09705209  0.00000000       0.003
   0.02632965  0.09705209  0.00000000       0.003
   0.04388275  0.09705209  0.00000000       0.003
   0.06143584  0.09705209  0.00000000       0.003
   0.07898894  0.09705209  0.00000000       0.003
   0.00877655  0.11469792  0.00000000       0.003
   0.02632965  0.11469792  0.00000000       0.003
   0.04388275  0.11469792  0.00000000       0.003
   0.06143584  0.11469792  0.00000000       0.003
   0.07898894  0.11469792  0.00000000       0.003
   0.00877655  0.00882292  0.01790902       0.006
   0.02632965  0.00882292  0.01790902       0.006
   0.04388275  0.00882292  0.01790902       0.006
   0.06143584  0.00882292  0.01790902       0.006
   0.07898894  0.00882292  0.01790902       0.006
   0.00877655  0.02646875  0.01790902       0.006
   0.02632965  0.02646875  0.01790902       0.006
   0.04388275  0.02646875  0.01790902       0.006
   0.06143584  0.02646875  0.01790902       0.006
   0.07898894  0.02646875  0.01790902       0.006
   0.00877655  0.04411458  0.01790902       0.006
   0.02632965  0.04411458  0.01790902       0.006
   0.04388275  0.04411458  0.01790902       0.006
   0.06143584  0.04411458  0.01790902       0.006
   0.07898894  0.04411458  0.01790902       0.006
   0.00877655  0.06176042  0.01790902       0.006
   0.02632965  0.06176042  0.01790902       0.006
   0.04388275  0.06176042  0.01790902       0.006
   0.06143584  0.06176042  0.01790902       0.006
   0.07898894  0.06176042  0.01790902       0.006
   0.00877655  0.07940625  0.01790902       0.006
   0.02632965  0.07940625  0.01790902       0.006
   0.04388275  0.07940625  0.01790902       0.006
   0.06143584  0.07940625  0.01790902       0.006
   0.07898894  0.07940625  0.01790902       0.006
   0.00877655  0.09705209  0.01790902       0.006
   0.02632965  0.09705209  0.01790902       0.006
   0.04388275  0.09705209  0.01790902       0.006
   0.06143584  0.09705209  0.01790902       0.006
   0.07898894  0.09705209  0.01790902       0.006
   0.00877655  0.11469792  0.01790902       0.006
   0.02632965  0.11469792  0.01790902       0.006
   0.04388275  0.11469792  0.01790902       0.006
   0.06143584  0.11469792  0.01790902       0.006
   0.07898894  0.11469792  0.01790902       0.006
   0.00877655  0.00882292  0.03581803       0.006
   0.02632965  0.00882292  0.03581803       0.006
   0.04388275  0.00882292  0.03581803       0.006
   0.06143584  0.00882292  0.03581803       0.006
   0.07898894  0.00882292  0.03581803       0.006
   0.00877655  0.02646875  0.03581803       0.006
   0.02632965  0.02646875  0.03581803       0.006
   0.04388275  0.02646875  0.03581803       0.006
   0.06143584  0.02646875  0.03581803       0.006
   0.07898894  0.02646875  0.03581803       0.006
   0.00877655  0.04411458  0.03581803       0.006
   0.02632965  0.04411458  0.03581803       0.006
   0.04388275  0.04411458  0.03581803       0.006
   0.06143584  0.04411458  0.03581803       0.006
   0.07898894  0.04411458  0.03581803       0.006
   0.00877655  0.06176042  0.03581803       0.006
   0.02632965  0.06176042  0.03581803       0.006
   0.04388275  0.06176042  0.03581803       0.006
   0.06143584  0.06176042  0.03581803       0.006
   0.07898894  0.06176042  0.03581803       0.006
   0.00877655  0.07940625  0.03581803       0.006
   0.02632965  0.07940625  0.03581803       0.006
   0.04388275  0.07940625  0.03581803       0.006
   0.06143584  0.07940625  0.03581803       0.006
   0.07898894  0.07940625  0.03581803       0.006
   0.00877655  0.09705209  0.03581803       0.006
   0.02632965  0.09705209  0.03581803       0.006
   0.04388275  0.09705209  0.03581803       0.006
   0.06143584  0.09705209  0.03581803       0.006
   0.07898894  0.09705209  0.03581803       0.006
   0.00877655  0.11469792  0.03581803       0.006
   0.02632965  0.11469792  0.03581803       0.006
   0.04388275  0.11469792  0.03581803       0.006
   0.06143584  0.11469792  0.03581803       0.006
   0.07898894  0.11469792  0.03581803       0.006
   0.00877655  0.00882292  0.05372705       0.006
   0.02632965  0.00882292  0.05372705       0.006
   0.04388275  0.00882292  0.05372705       0.006
   0.06143584  0.00882292  0.05372705       0.006
   0.07898894  0.00882292  0.05372705       0.006
   0.00877655  0.02646875  0.05372705       0.006
   0.02632965  0.02646875  0.05372705       0.006
   0.04388275  0.02646875  0.05372705       0.006
   0.06143584  0.02646875  0.05372705       0.006
   0.07898894  0.02646875  0.05372705       0.006
   0.00877655  0.04411458  0.05372705       0.006
   0.02632965  0.04411458  0.05372705       0.006
   0.04388275  0.04411458  0.05372705       0.006
   0.06143584  0.04411458  0.05372705       0.006
   0.07898894  0.04411458  0.05372705       0.006
   0.00877655  0.06176042  0.05372705       0.006
   0.02632965  0.06176042  0.05372705       0.006
   0.04388275  0.06176042  0.05372705       0.006
   0.06143584  0.06176042  0.05372705       0.006
   0.07898894  0.06176042  0.05372705       0.006
   0.00877655  0.07940625  0.05372705       0.006
   0.02632965  0.07940625  0.05372705       0.006
   0.04388275  0.07940625  0.05372705       0.006
   0.06143584  0.07940625  0.05372705       0.006
   0.07898894  0.07940625  0.05372705       0.006
   0.00877655  0.09705209  0.05372705       0.006
   0.02632965  0.09705209  0.05372705       0.006
   0.04388275  0.09705209  0.05372705       0.006
   0.06143584  0.09705209  0.05372705       0.006
   0.07898894  0.09705209  0.05372705       0.006
   0.00877655  0.11469792  0.05372705       0.006
   0.02632965  0.11469792  0.05372705       0.006
   0.04388275  0.11469792  0.05372705       0.006
   0.06143584  0.11469792  0.05372705       0.006
   0.07898894  0.11469792  0.05372705       0.006
   0.00877655  0.00882292  0.07163606       0.006
   0.02632965  0.00882292  0.07163606       0.006
   0.04388275  0.00882292  0.07163606       0.006
   0.06143584  0.00882292  0.07163606       0.006
   0.07898894  0.00882292  0.07163606       0.006
   0.00877655  0.02646875  0.07163606       0.006
   0.02632965  0.02646875  0.07163606       0.006
   0.04388275  0.02646875  0.07163606       0.006
   0.06143584  0.02646875  0.07163606       0.006
   0.07898894  0.02646875  0.07163606       0.006
   0.00877655  0.04411458  0.07163606       0.006
   0.02632965  0.04411458  0.07163606       0.006
   0.04388275  0.04411458  0.07163606       0.006
   0.06143584  0.04411458  0.07163606       0.006
   0.07898894  0.04411458  0.07163606       0.006
   0.00877655  0.06176042  0.07163606       0.006
   0.02632965  0.06176042  0.07163606       0.006
   0.04388275  0.06176042  0.07163606       0.006
   0.06143584  0.06176042  0.07163606       0.006
   0.07898894  0.06176042  0.07163606       0.006
   0.00877655  0.07940625  0.07163606       0.006
   0.02632965  0.07940625  0.07163606       0.006
   0.04388275  0.07940625  0.07163606       0.006
   0.06143584  0.07940625  0.07163606       0.006
   0.07898894  0.07940625  0.07163606       0.006
   0.00877655  0.09705209  0.07163606       0.006
   0.02632965  0.09705209  0.07163606       0.006
   0.04388275  0.09705209  0.07163606       0.006
   0.06143584  0.09705209  0.07163606       0.006
   0.07898894  0.09705209  0.07163606       0.006
   0.00877655  0.11469792  0.07163606       0.006
   0.02632965  0.11469792  0.07163606       0.006
   0.04388275  0.11469792  0.07163606       0.006
   0.06143584  0.11469792  0.07163606       0.006
   0.07898894  0.11469792  0.07163606       0.006
 
 k-points in reciprocal lattice and weights: k-points                                
   0.05000000  0.03571429  0.00000000       0.003
   0.15000000  0.03571429  0.00000000       0.003
   0.25000000  0.03571429  0.00000000       0.003
   0.35000000  0.03571429  0.00000000       0.003
   0.45000000  0.03571429  0.00000000       0.003
   0.05000000  0.10714286  0.00000000       0.003
   0.15000000  0.10714286  0.00000000       0.003
   0.25000000  0.10714286  0.00000000       0.003
   0.35000000  0.10714286  0.00000000       0.003
   0.45000000  0.10714286  0.00000000       0.003
   0.05000000  0.17857143  0.00000000       0.003
   0.15000000  0.17857143  0.00000000       0.003
   0.25000000  0.17857143  0.00000000       0.003
   0.35000000  0.17857143  0.00000000       0.003
   0.45000000  0.17857143  0.00000000       0.003
   0.05000000  0.25000000  0.00000000       0.003
   0.15000000  0.25000000  0.00000000       0.003
   0.25000000  0.25000000  0.00000000       0.003
   0.35000000  0.25000000  0.00000000       0.003
   0.45000000  0.25000000  0.00000000       0.003
   0.05000000  0.32142857  0.00000000       0.003
   0.15000000  0.32142857  0.00000000       0.003
   0.25000000  0.32142857  0.00000000       0.003
   0.35000000  0.32142857  0.00000000       0.003
   0.45000000  0.32142857  0.00000000       0.003
   0.05000000  0.39285714  0.00000000       0.003
   0.15000000  0.39285714  0.00000000       0.003
   0.25000000  0.39285714  0.00000000       0.003
   0.35000000  0.39285714  0.00000000       0.003
   0.45000000  0.39285714  0.00000000       0.003
   0.05000000  0.46428571  0.00000000       0.003
   0.15000000  0.46428571  0.00000000       0.003
   0.25000000  0.46428571  0.00000000       0.003
   0.35000000  0.46428571  0.00000000       0.003
   0.45000000  0.46428571  0.00000000       0.003
   0.05000000  0.03571429  0.11111111       0.006
   0.15000000  0.03571429  0.11111111       0.006
   0.25000000  0.03571429  0.11111111       0.006
   0.35000000  0.03571429  0.11111111       0.006
   0.45000000  0.03571429  0.11111111       0.006
   0.05000000  0.10714286  0.11111111       0.006
   0.15000000  0.10714286  0.11111111       0.006
   0.25000000  0.10714286  0.11111111       0.006
   0.35000000  0.10714286  0.11111111       0.006
   0.45000000  0.10714286  0.11111111       0.006
   0.05000000  0.17857143  0.11111111       0.006
   0.15000000  0.17857143  0.11111111       0.006
   0.25000000  0.17857143  0.11111111       0.006
   0.35000000  0.17857143  0.11111111       0.006
   0.45000000  0.17857143  0.11111111       0.006
   0.05000000  0.25000000  0.11111111       0.006
   0.15000000  0.25000000  0.11111111       0.006
   0.25000000  0.25000000  0.11111111       0.006
   0.35000000  0.25000000  0.11111111       0.006
   0.45000000  0.25000000  0.11111111       0.006
   0.05000000  0.32142857  0.11111111       0.006
   0.15000000  0.32142857  0.11111111       0.006
   0.25000000  0.32142857  0.11111111       0.006
   0.35000000  0.32142857  0.11111111       0.006
   0.45000000  0.32142857  0.11111111       0.006
   0.05000000  0.39285714  0.11111111       0.006
   0.15000000  0.39285714  0.11111111       0.006
   0.25000000  0.39285714  0.11111111       0.006
   0.35000000  0.39285714  0.11111111       0.006
   0.45000000  0.39285714  0.11111111       0.006
   0.05000000  0.46428571  0.11111111       0.006
   0.15000000  0.46428571  0.11111111       0.006
   0.25000000  0.46428571  0.11111111       0.006
   0.35000000  0.46428571  0.11111111       0.006
   0.45000000  0.46428571  0.11111111       0.006
   0.05000000  0.03571429  0.22222222       0.006
   0.15000000  0.03571429  0.22222222       0.006
   0.25000000  0.03571429  0.22222222       0.006
   0.35000000  0.03571429  0.22222222       0.006
   0.45000000  0.03571429  0.22222222       0.006
   0.05000000  0.10714286  0.22222222       0.006
   0.15000000  0.10714286  0.22222222       0.006
   0.25000000  0.10714286  0.22222222       0.006
   0.35000000  0.10714286  0.22222222       0.006
   0.45000000  0.10714286  0.22222222       0.006
   0.05000000  0.17857143  0.22222222       0.006
   0.15000000  0.17857143  0.22222222       0.006
   0.25000000  0.17857143  0.22222222       0.006
   0.35000000  0.17857143  0.22222222       0.006
   0.45000000  0.17857143  0.22222222       0.006
   0.05000000  0.25000000  0.22222222       0.006
   0.15000000  0.25000000  0.22222222       0.006
   0.25000000  0.25000000  0.22222222       0.006
   0.35000000  0.25000000  0.22222222       0.006
   0.45000000  0.25000000  0.22222222       0.006
   0.05000000  0.32142857  0.22222222       0.006
   0.15000000  0.32142857  0.22222222       0.006
   0.25000000  0.32142857  0.22222222       0.006
   0.35000000  0.32142857  0.22222222       0.006
   0.45000000  0.32142857  0.22222222       0.006
   0.05000000  0.39285714  0.22222222       0.006
   0.15000000  0.39285714  0.22222222       0.006
   0.25000000  0.39285714  0.22222222       0.006
   0.35000000  0.39285714  0.22222222       0.006
   0.45000000  0.39285714  0.22222222       0.006
   0.05000000  0.46428571  0.22222222       0.006
   0.15000000  0.46428571  0.22222222       0.006
   0.25000000  0.46428571  0.22222222       0.006
   0.35000000  0.46428571  0.22222222       0.006
   0.45000000  0.46428571  0.22222222       0.006
   0.05000000  0.03571429  0.33333333       0.006
   0.15000000  0.03571429  0.33333333       0.006
   0.25000000  0.03571429  0.33333333       0.006
   0.35000000  0.03571429  0.33333333       0.006
   0.45000000  0.03571429  0.33333333       0.006
   0.05000000  0.10714286  0.33333333       0.006
   0.15000000  0.10714286  0.33333333       0.006
   0.25000000  0.10714286  0.33333333       0.006
   0.35000000  0.10714286  0.33333333       0.006
   0.45000000  0.10714286  0.33333333       0.006
   0.05000000  0.17857143  0.33333333       0.006
   0.15000000  0.17857143  0.33333333       0.006
   0.25000000  0.17857143  0.33333333       0.006
   0.35000000  0.17857143  0.33333333       0.006
   0.45000000  0.17857143  0.33333333       0.006
   0.05000000  0.25000000  0.33333333       0.006
   0.15000000  0.25000000  0.33333333       0.006
   0.25000000  0.25000000  0.33333333       0.006
   0.35000000  0.25000000  0.33333333       0.006
   0.45000000  0.25000000  0.33333333       0.006
   0.05000000  0.32142857  0.33333333       0.006
   0.15000000  0.32142857  0.33333333       0.006
   0.25000000  0.32142857  0.33333333       0.006
   0.35000000  0.32142857  0.33333333       0.006
   0.45000000  0.32142857  0.33333333       0.006
   0.05000000  0.39285714  0.33333333       0.006
   0.15000000  0.39285714  0.33333333       0.006
   0.25000000  0.39285714  0.33333333       0.006
   0.35000000  0.39285714  0.33333333       0.006
   0.45000000  0.39285714  0.33333333       0.006
   0.05000000  0.46428571  0.33333333       0.006
   0.15000000  0.46428571  0.33333333       0.006
   0.25000000  0.46428571  0.33333333       0.006
   0.35000000  0.46428571  0.33333333       0.006
   0.45000000  0.46428571  0.33333333       0.006
   0.05000000  0.03571429  0.44444444       0.006
   0.15000000  0.03571429  0.44444444       0.006
   0.25000000  0.03571429  0.44444444       0.006
   0.35000000  0.03571429  0.44444444       0.006
   0.45000000  0.03571429  0.44444444       0.006
   0.05000000  0.10714286  0.44444444       0.006
   0.15000000  0.10714286  0.44444444       0.006
   0.25000000  0.10714286  0.44444444       0.006
   0.35000000  0.10714286  0.44444444       0.006
   0.45000000  0.10714286  0.44444444       0.006
   0.05000000  0.17857143  0.44444444       0.006
   0.15000000  0.17857143  0.44444444       0.006
   0.25000000  0.17857143  0.44444444       0.006
   0.35000000  0.17857143  0.44444444       0.006
   0.45000000  0.17857143  0.44444444       0.006
   0.05000000  0.25000000  0.44444444       0.006
   0.15000000  0.25000000  0.44444444       0.006
   0.25000000  0.25000000  0.44444444       0.006
   0.35000000  0.25000000  0.44444444       0.006
   0.45000000  0.25000000  0.44444444       0.006
   0.05000000  0.32142857  0.44444444       0.006
   0.15000000  0.32142857  0.44444444       0.006
   0.25000000  0.32142857  0.44444444       0.006
   0.35000000  0.32142857  0.44444444       0.006
   0.45000000  0.32142857  0.44444444       0.006
   0.05000000  0.39285714  0.44444444       0.006
   0.15000000  0.39285714  0.44444444       0.006
   0.25000000  0.39285714  0.44444444       0.006
   0.35000000  0.39285714  0.44444444       0.006
   0.45000000  0.39285714  0.44444444       0.006
   0.05000000  0.46428571  0.44444444       0.006
   0.15000000  0.46428571  0.44444444       0.006
   0.25000000  0.46428571  0.44444444       0.006
   0.35000000  0.46428571  0.44444444       0.006
   0.45000000  0.46428571  0.44444444       0.006
 
 position of ions in fractional coordinates (direct lattice) 
   0.52123000  0.50000000  0.63796000
   0.47877000  0.50000000  0.36204000
   0.97877000  0.50000000  0.63796000
   0.02123000  0.50000000  0.36204000
   0.60090000  0.50000000  0.89991000
   0.39910000  0.50000000  0.10009000
   0.89910000  0.50000000  0.89991000
   0.10090000  0.50000000  0.10009000
   0.75000000  0.79171000  0.72973000
   0.25000000  0.20829000  0.27027000
   0.75000000  0.20829000  0.72973000
   0.25000000  0.79171000  0.27027000
   0.25000000  0.50000000  0.52367000
   0.75000000  0.50000000  0.47633000
 
 position of ions in cartesian coordinates  (Angst):
   2.96944731  2.02395000  3.95803143
   2.72755269  2.02395000  2.24616857
   5.57605269  2.02395000  3.95803143
   0.12094731  2.02395000  2.24616857
   3.42332730  2.02395000  5.58322162
   2.27367270  2.02395000  0.62097838
   5.12217270  2.02395000  5.58322162
   0.57482730  2.02395000  0.62097838
   4.27275000  3.20476291  4.52739087
   1.42425000  0.84313709  1.67680913
   4.27275000  0.84313709  4.52739087
   1.42425000  3.20476291  1.67680913
   1.42425000  2.02395000  3.24895341
   4.27275000  2.02395000  2.95524659
 


--------------------------------------------------------------------------------------------------------


 k-point     1 :   0.0500 0.0357 0.0000  plane waves:    1279
 k-point     2 :   0.1500 0.0357 0.0000  plane waves:    1282
 k-point     3 :   0.2500 0.0357 0.0000  plane waves:    1281
 k-point     4 :   0.3500 0.0357 0.0000  plane waves:    1290
 k-point     5 :   0.4500 0.0357 0.0000  plane waves:    1296
 k-point     6 :   0.0500 0.1071 0.0000  plane waves:    1277
 k-point     7 :   0.1500 0.1071 0.0000  plane waves:    1272
 k-point     8 :   0.2500 0.1071 0.0000  plane waves:    1273
 k-point     9 :   0.3500 0.1071 0.0000  plane waves:    1281
 k-point    10 :   0.4500 0.1071 0.0000  plane waves:    1294
 k-point    11 :   0.0500 0.1786 0.0000  plane waves:    1278
 k-point    12 :   0.1500 0.1786 0.0000  plane waves:    1268
 k-point    13 :   0.2500 0.1786 0.0000  plane waves:    1280
 k-point    14 :   0.3500 0.1786 0.0000  plane waves:    1281
 k-point    15 :   0.4500 0.1786 0.0000  plane waves:    1284
 k-point    16 :   0.0500 0.2500 0.0000  plane waves:    1283
 k-point    17 :   0.1500 0.2500 0.0000  plane waves:    1284
 k-point    18 :   0.2500 0.2500 0.0000  plane waves:    1277
 k-point    19 :   0.3500 0.2500 0.0000  plane waves:    1275
 k-point    20 :   0.4500 0.2500 0.0000  plane waves:    1278
 k-point    21 :   0.0500 0.3214 0.0000  plane waves:    1287
 k-point    22 :   0.1500 0.3214 0.0000  plane waves:    1281
 k-point    23 :   0.2500 0.3214 0.0000  plane waves:    1278
 k-point    24 :   0.3500 0.3214 0.0000  plane waves:    1281
 k-point    25 :   0.4500 0.3214 0.0000  plane waves:    1274
 k-point    26 :   0.0500 0.3929 0.0000  plane waves:    1282
 k-point    27 :   0.1500 0.3929 0.0000  plane waves:    1285
 k-point    28 :   0.2500 0.3929 0.0000  plane waves:    1285
 k-point    29 :   0.3500 0.3929 0.0000  plane waves:    1276
 k-point    30 :   0.4500 0.3929 0.0000  plane waves:    1265
 k-point    31 :   0.0500 0.4643 0.0000  plane waves:    1278
 k-point    32 :   0.1500 0.4643 0.0000  plane waves:    1272
 k-point    33 :   0.2500 0.4643 0.0000  plane waves:    1287
 k-point    34 :   0.3500 0.4643 0.0000  plane waves:    1269
 k-point    35 :   0.4500 0.4643 0.0000  plane waves:    1262
 k-point    36 :   0.0500 0.0357 0.1111  plane waves:    1276
 k-point    37 :   0.1500 0.0357 0.1111  plane waves:    1275
 k-point    38 :   0.2500 0.0357 0.1111  plane waves:    1280
 k-point    39 :   0.3500 0.0357 0.1111  plane waves:    1292
 k-point    40 :   0.4500 0.0357 0.1111  plane waves:    1295
 k-point    41 :   0.0500 0.1071 0.1111  plane waves:    1282
 k-point    42 :   0.1500 0.1071 0.1111  plane waves:    1276
 k-point    43 :   0.2500 0.1071 0.1111  plane waves:    1281
 k-point    44 :   0.3500 0.1071 0.1111  plane waves:    1284
 k-point    45 :   0.4500 0.1071 0.1111  plane waves:    1290
 k-point    46 :   0.0500 0.1786 0.1111  plane waves:    1279
 k-point    47 :   0.1500 0.1786 0.1111  plane waves:    1283
 k-point    48 :   0.2500 0.1786 0.1111  plane waves:    1278
 k-point    49 :   0.3500 0.1786 0.1111  plane waves:    1278
 k-point    50 :   0.4500 0.1786 0.1111  plane waves:    1284
 k-point    51 :   0.0500 0.2500 0.1111  plane waves:    1287
 k-point    52 :   0.1500 0.2500 0.1111  plane waves:    1285
 k-point    53 :   0.2500 0.2500 0.1111  plane waves:    1282
 k-point    54 :   0.3500 0.2500 0.1111  plane waves:    1275
 k-point    55 :   0.4500 0.2500 0.1111  plane waves:    1278
 k-point    56 :   0.0500 0.3214 0.1111  plane waves:    1285
 k-point    57 :   0.1500 0.3214 0.1111  plane waves:    1280
 k-point    58 :   0.2500 0.3214 0.1111  plane waves:    1282
 k-point    59 :   0.3500 0.3214 0.1111  plane waves:    1277
 k-point    60 :   0.4500 0.3214 0.1111  plane waves:    1283
 k-point    61 :   0.0500 0.3929 0.1111  plane waves:    1282
 k-point    62 :   0.1500 0.3929 0.1111  plane waves:    1287
 k-point    63 :   0.2500 0.3929 0.1111  plane waves:    1284
 k-point    64 :   0.3500 0.3929 0.1111  plane waves:    1278
 k-point    65 :   0.4500 0.3929 0.1111  plane waves:    1276
 k-point    66 :   0.0500 0.4643 0.1111  plane waves:    1288
 k-point    67 :   0.1500 0.4643 0.1111  plane waves:    1284
 k-point    68 :   0.2500 0.4643 0.1111  plane waves:    1281
 k-point    69 :   0.3500 0.4643 0.1111  plane waves:    1281
 k-point    70 :   0.4500 0.4643 0.1111  plane waves:    1271
 k-point    71 :   0.0500 0.0357 0.2222  plane waves:    1277
 k-point    72 :   0.1500 0.0357 0.2222  plane waves:    1282
 k-point    73 :   0.2500 0.0357 0.2222  plane waves:    1284
 k-point    74 :   0.3500 0.0357 0.2222  plane waves:    1289
 k-point    75 :   0.4500 0.0357 0.2222  plane waves:    1302
 k-point    76 :   0.0500 0.1071 0.2222  plane waves:    1282
 k-point    77 :   0.1500 0.1071 0.2222  plane waves:    1284
 k-point    78 :   0.2500 0.1071 0.2222  plane waves:    1286
 k-point    79 :   0.3500 0.1071 0.2222  plane waves:    1286
 k-point    80 :   0.4500 0.1071 0.2222  plane waves:    1285
 k-point    81 :   0.0500 0.1786 0.2222  plane waves:    1282
 k-point    82 :   0.1500 0.1786 0.2222  plane waves:    1284
 k-point    83 :   0.2500 0.1786 0.2222  plane waves:    1285
 k-point    84 :   0.3500 0.1786 0.2222  plane waves:    1284
 k-point    85 :   0.4500 0.1786 0.2222  plane waves:    1282
 k-point    86 :   0.0500 0.2500 0.2222  plane waves:    1283
 k-point    87 :   0.1500 0.2500 0.2222  plane waves:    1282
 k-point    88 :   0.2500 0.2500 0.2222  plane waves:    1278
 k-point    89 :   0.3500 0.2500 0.2222  plane waves:    1280
 k-point    90 :   0.4500 0.2500 0.2222  plane waves:    1283
 k-point    91 :   0.0500 0.3214 0.2222  plane waves:    1293
 k-point    92 :   0.1500 0.3214 0.2222  plane waves:    1287
 k-point    93 :   0.2500 0.3214 0.2222  plane waves:    1284
 k-point    94 :   0.3500 0.3214 0.2222  plane waves:    1278
 k-point    95 :   0.4500 0.3214 0.2222  plane waves:    1281
 k-point    96 :   0.0500 0.3929 0.2222  plane waves:    1287
 k-point    97 :   0.1500 0.3929 0.2222  plane waves:    1289
 k-point    98 :   0.2500 0.3929 0.2222  plane waves:    1289
 k-point    99 :   0.3500 0.3929 0.2222  plane waves:    1279
 k-point   100 :   0.4500 0.3929 0.2222  plane waves:    1276
 k-point   101 :   0.0500 0.4643 0.2222  plane waves:    1294
 k-point   102 :   0.1500 0.4643 0.2222  plane waves:    1287
 k-point   103 :   0.2500 0.4643 0.2222  plane waves:    1287
 k-point   104 :   0.3500 0.4643 0.2222  plane waves:    1283
 k-point   105 :   0.4500 0.4643 0.2222  plane waves:    1280
 k-point   106 :   0.0500 0.0357 0.3333  plane waves:    1284
 k-point   107 :   0.1500 0.0357 0.3333  plane waves:    1286
 k-point   108 :   0.2500 0.0357 0.3333  plane waves:    1285
 k-point   109 :   0.3500 0.0357 0.3333  plane waves:    1285
 k-point   110 :   0.4500 0.0357 0.3333  plane waves:    1287
 k-point   111 :   0.0500 0.1071 0.3333  plane waves:    1284
 k-point   112 :   0.1500 0.1071 0.3333  plane waves:    1286
 k-point   113 :   0.2500 0.1071 0.3333  plane waves:    1284
 k-point   114 :   0.3500 0.1071 0.3333  plane waves:    1285
 k-point   115 :   0.4500 0.1071 0.3333  plane waves:    1279
 k-point   116 :   0.0500 0.1786 0.3333  plane waves:    1284
 k-point   117 :   0.1500 0.1786 0.3333  plane waves:    1283
 k-point   118 :   0.2500 0.1786 0.3333  plane waves:    1284
 k-point   119 :   0.3500 0.1786 0.3333  plane waves:    1290
 k-point   120 :   0.4500 0.1786 0.3333  plane waves:    1283
 k-point   121 :   0.0500 0.2500 0.3333  plane waves:    1287
 k-point   122 :   0.1500 0.2500 0.3333  plane waves:    1285
 k-point   123 :   0.2500 0.2500 0.3333  plane waves:    1277
 k-point   124 :   0.3500 0.2500 0.3333  plane waves:    1280
 k-point   125 :   0.4500 0.2500 0.3333  plane waves:    1281
 k-point   126 :   0.0500 0.3214 0.3333  plane waves:    1291
 k-point   127 :   0.1500 0.3214 0.3333  plane waves:    1289
 k-point   128 :   0.2500 0.3214 0.3333  plane waves:    1286
 k-point   129 :   0.3500 0.3214 0.3333  plane waves:    1283
 k-point   130 :   0.4500 0.3214 0.3333  plane waves:    1283
 k-point   131 :   0.0500 0.3929 0.3333  plane waves:    1293
 k-point   132 :   0.1500 0.3929 0.3333  plane waves:    1294
 k-point   133 :   0.2500 0.3929 0.3333  plane waves:    1287
 k-point   134 :   0.3500 0.3929 0.3333  plane waves:    1288
 k-point   135 :   0.4500 0.3929 0.3333  plane waves:    1285
 k-point   136 :   0.0500 0.4643 0.3333  plane waves:    1290
 k-point   137 :   0.1500 0.4643 0.3333  plane waves:    1294
 k-point   138 :   0.2500 0.4643 0.3333  plane waves:    1297
 k-point   139 :   0.3500 0.4643 0.3333  plane waves:    1290
 k-point   140 :   0.4500 0.4643 0.3333  plane waves:    1284
 k-point   141 :   0.0500 0.0357 0.4444  plane waves:    1294
 k-point   142 :   0.1500 0.0357 0.4444  plane waves:    1291
 k-point   143 :   0.2500 0.0357 0.4444  plane waves:    1285
 k-point   144 :   0.3500 0.0357 0.4444  plane waves:    1276
 k-point   145 :   0.4500 0.0357 0.4444  plane waves:    1271
 k-point   146 :   0.0500 0.1071 0.4444  plane waves:    1291
 k-point   147 :   0.1500 0.1071 0.4444  plane waves:    1291
 k-point   148 :   0.2500 0.1071 0.4444  plane waves:    1280
 k-point   149 :   0.3500 0.1071 0.4444  plane waves:    1280
 k-point   150 :   0.4500 0.1071 0.4444  plane waves:    1276
 k-point   151 :   0.0500 0.1786 0.4444  plane waves:    1282
 k-point   152 :   0.1500 0.1786 0.4444  plane waves:    1282
 k-point   153 :   0.2500 0.1786 0.4444  plane waves:    1286
 k-point   154 :   0.3500 0.1786 0.4444  plane waves:    1286
 k-point   155 :   0.4500 0.1786 0.4444  plane waves:    1280
 k-point   156 :   0.0500 0.2500 0.4444  plane waves:    1286
 k-point   157 :   0.1500 0.2500 0.4444  plane waves:    1281
 k-point   158 :   0.2500 0.2500 0.4444  plane waves:    1279
 k-point   159 :   0.3500 0.2500 0.4444  plane waves:    1280
 k-point   160 :   0.4500 0.2500 0.4444  plane waves:    1289
 k-point   161 :   0.0500 0.3214 0.4444  plane waves:    1292
 k-point   162 :   0.1500 0.3214 0.4444  plane waves:    1293
 k-point   163 :   0.2500 0.3214 0.4444  plane waves:    1283
 k-point   164 :   0.3500 0.3214 0.4444  plane waves:    1284
 k-point   165 :   0.4500 0.3214 0.4444  plane waves:    1288
 k-point   166 :   0.0500 0.3929 0.4444  plane waves:    1300
 k-point   167 :   0.1500 0.3929 0.4444  plane waves:    1298
 k-point   168 :   0.2500 0.3929 0.4444  plane waves:    1295
 k-point   169 :   0.3500 0.3929 0.4444  plane waves:    1285
 k-point   170 :   0.4500 0.3929 0.4444  plane waves:    1284
 k-point   171 :   0.0500 0.4643 0.4444  plane waves:    1296
 k-point   172 :   0.1500 0.4643 0.4444  plane waves:    1302
 k-point   173 :   0.2500 0.4643 0.4444  plane waves:    1298
 k-point   174 :   0.3500 0.4643 0.4444  plane waves:    1284
 k-point   175 :   0.4500 0.4643 0.4444  plane waves:    1293

 maximum and minimum number of plane-waves per node :      1302     1262

 maximum number of plane-waves:      1302
 maximum index in each direction: 
   IXMAX=    7   IYMAX=    5   IZMAX=    7
   IXMIN=   -7   IYMIN=   -5   IZMIN=   -8


 serial   3D FFT for wavefunctions
 parallel 3D FFT for charge:
    minimum data exchange during FFTs selected (reduces bandwidth)


 total amount of memory used by VASP MPI-rank0    54978. kBytes
=======================================================================

   base      :      30000. kBytes
   nonl-proj :      15079. kBytes
   fftplans  :        408. kBytes
   grid      :       1384. kBytes
   one-center:         43. kBytes
   wavefun   :       8064. kBytes
 
     INWAV:  cpu time      0.0000: real time      0.0000
 Broyden mixing: mesh for mixing (old mesh)
   NGX = 15   NGY = 11   NGZ = 15
  (NGX  = 60   NGY  = 48   NGZ  = 64)
  gives a total of   2475 points

 initial charge density was supplied:
 charge density of overlapping atoms calculated
 number of electron      42.0000000 magnetization 
 keeping initial charge density in first step


--------------------------------------------------------------------------------------------------------


 Maximum index for augmentation-charges          230 (set IRDMAX)


--------------------------------------------------------------------------------------------------------


 First call to EWALD:  gamma=   0.339
 Maximum number of real-space cells 3x 3x 2
 Maximum number of reciprocal cells 3x 2x 3

    FEWALD:  cpu time      0.0025: real time      0.0025


--------------------------------------- Ionic step        1  -------------------------------------------




--------------------------------------- Iteration      1(   1)  ---------------------------------------


    POTLOK:  cpu time      0.0092: real time      0.0101
    SETDIJ:  cpu time      0.0024: real time      0.0024
     EDDAV:  cpu time      3.3459: real time      3.3554
       DOS:  cpu time      0.0017: real time      0.0017
    --------------------------------------------
      LOOP:  cpu time      3.3592: real time      3.3697

 eigenvalue-minimisations  : 16800
 total energy-change (2. order) :-0.1167761E+00  (-0.1204948E+04)
 number of electron      42.0000000 magnetization 
 augmentation part       42.0000000 magnetization 

 Free energy of the ion-electron system (eV)
  ---------------------------------------------------
  alpha Z        PSCENC =        94.24357992
  Ewald energy   TEWEN  =      -795.76658092
  -Hartree energ DENC   =      -271.33601302
  -exchange      EXHF   =         0.00000000
  -V(xc)+E(xc)   XCENC  =        97.50108289
  PAW double counting   =       608.99811708     -597.02363782
  entropy T*S    EENTRO =        -0.00217729
  eigenvalues    EBANDS =      -132.55441747
  atomic energy  EATOM  =       995.82327052
  Solvation  Ediel_sol  =         0.00000000
  ---------------------------------------------------
  free energy    TOTEN  =        -0.11677611 eV

  energy without entropy =       -0.11459882  energy(sigma->0) =       -0.11568747


--------------------------------------------------------------------------------------------------------




--------------------------------------- Iteration      1(   2)  ---------------------------------------


     EDDAV:  cpu time      4.9328: real time      4.9357
       DOS:  cpu time      0.0013: real time      0.0013
    --------------------------------------------
      LOOP:  cpu time      4.9342: real time      4.9370

 eigenvalue-minimisations  : 24576
 total energy-change (2. order) :-0.9415261E+02  (-0.8936186E+02)
 number of electron      42.0000000 magnetization 
 augmentation part       42.0000000 magnetization 

 Free energy of the ion-electron system (eV)
  ---------------------------------------------------
  alpha Z        PSCENC =        94.24357992
  Ewald energy   TEWEN  =      -795.76658092
  -Hartree energ DENC   =      -271.33601302
  -exchange      EXHF   =         0.00000000
  -V(xc)+E(xc)   XCENC  =        97.50108289
  PAW double counting   =       608.99811708     -597.02363782
  entropy T*S    EENTRO =        -0.00395155
  eigenvalues    EBANDS =      -226.70525785
  atomic energy  EATOM  =       995.82327052
  Solvation  Ediel_sol  =         0.00000000
  ---------------------------------------------------
  free energy    TOTEN  =       -94.26939075 eV

  energy without entropy =      -94.26543920  energy(sigma->0) =      -94.26741497


--------------------------------------------------------------------------------------------------------




--------------------------------------- Iteration      1(   3)  ---------------------------------------


     EDDAV:  cpu time      4.4557: real time      4.4588
       DOS:  cpu time      0.0012: real time      0.0012
    --------------------------------------------
      LOOP:  cpu time      4.4568: real time      4.4599

 eigenvalue-minimisations  : 23328
 total energy-change (2. order) :-0.2573025E+01  (-0.2566384E+01)
 number of electron      42.0000000 magnetization 
 augmentation part       42.0000000 magnetization 

 Free energy of the ion-electron system (eV)
  ---------------------------------------------------
  alpha Z        PSCENC =        94.24357992
  Ewald energy   TEWEN  =      -795.76658092
  -Hartree energ DENC   =      -271.33601302
  -exchange      EXHF   =         0.00000000
  -V(xc)+E(xc)   XCENC  =        97.50108289
  PAW double counting   =       608.99811708     -597.02363782
  entropy T*S    EENTRO =        -0.00366802
  eigenvalues    EBANDS =      -229.27856682
  atomic energy  EATOM  =       995.82327052
  Solvation  Ediel_sol  =         0.00000000
  ---------------------------------------------------
  free energy    TOTEN  =       -96.84241620 eV

  energy without entropy =      -96.83874817  energy(sigma->0) =      -96.84058218


--------------------------------------------------------------------------------------------------------




--------------------------------------- Iteration      1(   4)  ---------------------------------------


     EDDAV:  cpu time      4.3976: real time      4.4009
       DOS:  cpu time      0.0012: real time      0.0012
    --------------------------------------------
      LOOP:  cpu time      4.3988: real time      4.4021

 eigenvalue-minimisations  : 23448
 total energy-change (2. order) :-0.1502854E-01  (-0.1502741E-01)
 number of electron      42.0000000 magnetization 
 augmentation part       42.0000000 magnetization 

 Free energy of the ion-electron system (eV)
  ---------------------------------------------------
  alpha Z        PSCENC =        94.24357992
  Ewald energy   TEWEN  =      -795.76658092
  -Hartree energ DENC   =      -271.33601302
  -exchange      EXHF   =         0.00000000
  -V(xc)+E(xc)   XCENC  =        97.50108289
  PAW double counting   =       608.99811708     -597.02363782
  entropy T*S    EENTRO =        -0.00366585
  eigenvalues    EBANDS =      -229.29359753
  atomic energy  EATOM  =       995.82327052
  Solvation  Ediel_sol  =         0.00000000
  ---------------------------------------------------
  free energy    TOTEN  =       -96.85744473 eV

  energy without entropy =      -96.85377888  energy(sigma->0) =      -96.85561181


--------------------------------------------------------------------------------------------------------




--------------------------------------- Iteration      1(   5)  ---------------------------------------


     EDDAV:  cpu time      3.6544: real time      3.6566
       DOS:  cpu time      0.0021: real time      0.0022
    CHARGE:  cpu time      0.0341: real time      0.0361
    MIXING:  cpu time      0.0012: real time      0.0012
    --------------------------------------------
      LOOP:  cpu time      3.6918: real time      3.6961

 eigenvalue-minimisations  : 22824
 total energy-change (2. order) :-0.1857948E-03  (-0.1857924E-03)
 number of electron      41.9999997 magnetization 
 augmentation part       -0.2199163 magnetization 

 Broyden mixing:
  rms(total) = 0.13466E+01    rms(broyden)= 0.13460E+01
  rms(prec ) = 0.23194E+01
  weight for this iteration     100.00

 Free energy of the ion-electron system (eV)
  ---------------------------------------------------
  alpha Z        PSCENC =        94.24357992
  Ewald energy   TEWEN  =      -795.76658092
  -Hartree energ DENC   =      -271.33601302
  -exchange      EXHF   =         0.00000000
  -V(xc)+E(xc)   XCENC  =        97.50108289
  PAW double counting   =       608.99811708     -597.02363782
  entropy T*S    EENTRO =        -0.00366583
  eigenvalues    EBANDS =      -229.29378335
  atomic energy  EATOM  =       995.82327052
  Solvation  Ediel_sol  =         0.00000000
  ---------------------------------------------------
  free energy    TOTEN  =       -96.85763053 eV

  energy without entropy =      -96.85396470  energy(sigma->0) =      -96.85579761


--------------------------------------------------------------------------------------------------------




--------------------------------------- Iteration      1(   6)  ---------------------------------------


    POTLOK:  cpu time      0.0042: real time      0.0051
    SETDIJ:  cpu time      0.0010: real time      0.0010
     EDDAV:  cpu time      3.8432: real time      3.8451
       DOS:  cpu time      0.0013: real time      0.0013
    CHARGE:  cpu time      0.0342: real time      0.0345
    MIXING:  cpu time      0.0006: real time      0.0006
    --------------------------------------------
      LOOP:  cpu time      3.8845: real time      3.8876

 eigenvalue-minimisations  : 24240
 total energy-change (2. order) : 0.5306706E+01  (-0.3847038E+00)
 number of electron      41.9999996 magnetization 
 augmentation part       -0.2393737 magnetization 

 Broyden mixing:
  rms(total) = 0.75147E+00    rms(broyden)= 0.75145E+00
  rms(prec ) = 0.12044E+01
  weight for this iteration     100.00

 eigenvalues of (default mixing * dielectric matrix)
  average eigenvalue GAMMA=   2.1314
  2.1314

 Free energy of the ion-electron system (eV)
  ---------------------------------------------------
  alpha Z        PSCENC =        94.24357992
  Ewald energy   TEWEN  =      -795.76658092
  -Hartree energ DENC   =      -305.96120014
  -exchange      EXHF   =         0.00000000
  -V(xc)+E(xc)   XCENC  =        99.21172249
  PAW double counting   =      1715.40838548    -1703.98979592
  entropy T*S    EENTRO =        -0.00348418
  eigenvalues    EBANDS =      -190.51682196
  atomic energy  EATOM  =       995.82327052
  Solvation  Ediel_sol  =         0.00000000
  ---------------------------------------------------
  free energy    TOTEN  =       -91.55092470 eV

  energy without entropy =      -91.54744052  energy(sigma->0) =      -91.54918261


--------------------------------------------------------------------------------------------------------




--------------------------------------- Iteration      1(   7)  ---------------------------------------


    POTLOK:  cpu time      0.0042: real time      0.0051
    SETDIJ:  cpu time      0.0010: real time      0.0010
     EDDAV:  cpu time      3.9575: real time      3.9591
       DOS:  cpu time      0.0019: real time      0.0020
    CHARGE:  cpu time      0.0338: real time      0.0342
    MIXING:  cpu time      0.0004: real time      0.0005
    --------------------------------------------
      LOOP:  cpu time      3.9989: real time      4.0019

 eigenvalue-minimisations  : 25128
 total energy-change (2. order) : 0.1630569E+01  (-0.3194586E+00)
 number of electron      41.9999996 magnetization 
 augmentation part       -0.2545096 magnetization 

 Broyden mixing:
  rms(total) = 0.18326E+00    rms(broyden)= 0.18319E+00
  rms(prec ) = 0.25600E+00
  weight for this iteration     100.00

 eigenvalues of (default mixing * dielectric matrix)
  average eigenvalue GAMMA=   1.9052
  1.4998  2.3107

 Free energy of the ion-electron system (eV)
  ---------------------------------------------------
  alpha Z        PSCENC =        94.24357992
  Ewald energy   TEWEN  =      -795.76658092
  -Hartree energ DENC   =      -342.73070951
  -exchange      EXHF   =         0.00000000
  -V(xc)+E(xc)   XCENC  =       101.24840335
  PAW double counting   =      3742.40744586    -3731.50201079
  entropy T*S    EENTRO =        -0.00317113
  eigenvalues    EBANDS =      -153.64058287
  atomic energy  EATOM  =       995.82327052
  Solvation  Ediel_sol  =         0.00000000
  ---------------------------------------------------
  free energy    TOTEN  =       -89.92035556 eV

  energy without entropy =      -89.91718444  energy(sigma->0) =      -89.91877000


--------------------------------------------------------------------------------------------------------




--------------------------------------- Iteration      1(   8)  ---------------------------------------


    POTLOK:  cpu time      0.0041: real time      0.0048
    SETDIJ:  cpu time      0.0010: real time      0.0010
     EDDAV:  cpu time      3.1070: real time      3.1080
       DOS:  cpu time      0.0050: real time      0.0051
    CHARGE:  cpu time      0.0487: real time      0.0491
    MIXING:  cpu time      0.0004: real time      0.0004
    --------------------------------------------
      LOOP:  cpu time      3.1662: real time      3.1684

 eigenvalue-minimisations  : 18816
 total energy-change (2. order) :-0.1184569E-01  (-0.2305639E-01)
 number of electron      41.9999996 magnetization 
 augmentation part       -0.2612554 magnetization 

 Broyden mixing:
  rms(total) = 0.75627E-01    rms(broyden)= 0.75607E-01
  rms(prec ) = 0.10748E+00
  weight for this iteration     100.00

 eigenvalues of (default mixing * dielectric matrix)
[...]
     43      13.8470      0.00000
     44      14.2984      0.00000
     45      14.7347      0.00000
     46      14.7994      0.00000
     47      15.0683      0.00000
     48      15.4072      0.00000

 k-point   170 :       0.4500    0.3929    0.4444
  band No.  band energies     occupation 
      1     -12.0515      2.00000
      2     -11.9113      2.00000
      3      -8.5776      2.00000
      4      -8.4645      2.00000
      5      -5.7818      2.00000
      6      -5.6773      2.00000
      7      -4.9216      2.00000
      8      -4.6092      2.00000
      9      -4.4316      2.00000
     10      -3.9953      2.00000
     11      -2.1127      2.00000
     12      -1.9945      2.00000
     13      -1.9913      2.00000
     14      -1.7676      2.00000
     15      -0.2171      2.00000
     16      -0.0075      2.00000
     17       0.5361      2.00000
     18       0.5731      2.00000
     19       0.6660      2.00000
     20       0.8812      2.00000
     21       1.3884      2.00000
     22       1.4969      2.00000
     23       5.9399      0.00000
     24       6.1055      0.00000
     25       6.9559      0.00000
     26       7.4086      0.00000
     27       7.5338      0.00000
     28       7.6370      0.00000
     29       9.1009      0.00000
     30       9.2386      0.00000
     31       9.8998      0.00000
     32      10.1374      0.00000
     33      10.3145      0.00000
     34      10.5086      0.00000
     35      11.2293      0.00000
     36      11.5257      0.00000
     37      11.8537      0.00000
     38      11.8584      0.00000
     39      13.1207      0.00000
     40      13.2438      0.00000
     41      13.3847      0.00000
     42      13.7655      0.00000
     43      14.0166      0.00000
     44      14.2106      0.00000
     45      14.5039      0.00000
     46      14.6438      0.00000
     47      14.9319      0.00000
     48      15.3219      0.00000

 k-point   171 :       0.0500    0.4643    0.4444
  band No.  band energies     occupation 
      1     -12.3746      2.00000
      2     -11.5062      2.00000
      3      -8.4340      2.00000
      4      -7.8798      2.00000
      5      -6.5892      2.00000
      6      -6.2445      2.00000
      7      -5.6190      2.00000
      8      -5.3720      2.00000
      9      -3.2423      2.00000
     10      -2.7691      2.00000
     11      -2.0137      2.00000
     12      -1.5820      2.00000
     13      -1.4760      2.00000
     14      -1.3652      2.00000
     15      -1.2864      2.00000
     16      -0.8640      2.00000
     17      -0.6618      2.00000
     18      -0.4186      2.00000
     19       0.4428      2.00000
     20       1.7801      1.99989
     21       2.1802      0.00000
     22       3.9181      0.00000
     23       4.6489      0.00000
     24       5.8042      0.00000
     25       6.4870      0.00000
     26       7.2945      0.00000
     27       7.3267      0.00000
     28       7.9031      0.00000
     29       9.1183      0.00000
     30       9.4544      0.00000
     31       9.4754      0.00000
     32      10.1291      0.00000
     33      11.1032      0.00000
     34      11.3382      0.00000
     35      11.6250      0.00000
     36      11.7251      0.00000
     37      11.8977      0.00000
     38      12.0527      0.00000
     39      12.3397      0.00000
     40      12.6326      0.00000
     41      12.7792      0.00000
     42      12.9021      0.00000
     43      13.3135      0.00000
     44      13.4071      0.00000
     45      14.1180      0.00000
     46      15.3716      0.00000
     47      15.4439      0.00000
     48      15.6189      0.00000

 k-point   172 :       0.1500    0.4643    0.4444
  band No.  band energies     occupation 
      1     -12.3358      2.00000
      2     -11.5493      2.00000
      3      -8.5086      2.00000
      4      -7.9644      2.00000
      5      -6.3405      2.00000
      6      -6.2063      2.00000
      7      -5.6358      2.00000
      8      -5.2797      2.00000
      9      -3.4511      2.00000
     10      -2.6919      2.00000
     11      -2.2783      2.00000
     12      -1.7375      2.00000
     13      -1.5290      2.00000
     14      -1.4775      2.00000
     15      -1.2236      2.00000
     16      -0.7049      2.00000
     17      -0.4307      2.00000
     18      -0.1372      2.00000
     19       0.4344      2.00000
     20       1.7499      2.00000
     21       2.1319      0.00000
     22       3.2601      0.00000
     23       4.8095      0.00000
     24       6.3200      0.00000
     25       6.3881      0.00000
     26       7.0763      0.00000
     27       7.6345      0.00000
     28       8.1764      0.00000
     29       8.8737      0.00000
     30       9.2251      0.00000
     31       9.4983      0.00000
     32      10.4576      0.00000
     33      10.7559      0.00000
     34      11.3355      0.00000
     35      11.4340      0.00000
     36      11.5365      0.00000
     37      11.8459      0.00000
     38      12.0312      0.00000
     39      12.5304      0.00000
     40      12.6551      0.00000
     41      12.8651      0.00000
     42      13.0845      0.00000
     43      13.5503      0.00000
     44      13.6386      0.00000
     45      14.4319      0.00000
     46      14.8890      0.00000
     47      15.4487      0.00000
     48      15.5852      0.00000

 k-point   173 :       0.2500    0.4643    0.4444
  band No.  band energies     occupation 
      1     -12.2603      2.00000
      2     -11.6322      2.00000
      3      -8.5824      2.00000
      4      -8.1115      2.00000
      5      -6.1352      2.00000
      6      -5.9171      2.00000
      7      -5.6729      2.00000
      8      -5.1079      2.00000
      9      -3.7626      2.00000
     10      -2.8026      2.00000
     11      -2.5073      2.00000
     12      -1.9753      2.00000
     13      -1.7379      2.00000
     14      -1.3201      2.00000
     15      -1.1336      2.00000
     16      -0.4716      2.00000
     17      -0.1111      2.00000
     18       0.1719      2.00000
     19       0.4766      2.00000
     20       1.6979      2.00000
     21       2.0376      0.00063
     22       2.4373      0.00000
     23       5.1215      0.00000
     24       6.2503      0.00000
     25       6.8143      0.00000
     26       6.8900      0.00000
     27       7.9618      0.00000
     28       8.5369      0.00000
     29       8.6494      0.00000
     30       8.9632      0.00000
     31       9.6750      0.00000
     32      10.0992      0.00000
     33      10.8036      0.00000
     34      11.0860      0.00000
     35      11.3219      0.00000
     36      11.4615      0.00000
     37      11.6884      0.00000
     38      12.3055      0.00000
     39      12.5001      0.00000
     40      12.7341      0.00000
     41      13.2464      0.00000
     42      13.4445      0.00000
     43      13.8134      0.00000
     44      14.1047      0.00000
     45      14.1334      0.00000
     46      14.8758      0.00000
     47      15.3083      0.00000
     48      15.4940      0.00000

 k-point   174 :       0.3500    0.4643    0.4444
  band No.  band energies     occupation 
      1     -12.1535      2.00000
      2     -11.7478      2.00000
      3      -8.6010      2.00000
      4      -8.2807      2.00000
      5      -6.0385      2.00000
      6      -5.7376      2.00000
      7      -5.3978      2.00000
      8      -4.8631      2.00000
      9      -4.1060      2.00000
     10      -3.3698      2.00000
     11      -2.3097      2.00000
     12      -2.1266      2.00000
     13      -1.9612      2.00000
     14      -1.4798      2.00000
     15      -0.7192      2.00000
     16      -0.1816      2.00000
     17       0.1900      2.00000
     18       0.4118      2.00000
     19       0.5332      2.00000
     20       1.6156      2.00000
     21       1.6538      2.00000
     22       1.9076      1.20569
     23       5.5340      0.00000
     24       6.1623      0.00000
     25       6.6869      0.00000
     26       7.2435      0.00000
     27       7.7962      0.00000
     28       8.2504      0.00000
     29       9.0147      0.00000
     30       9.1704      0.00000
     31       9.7503      0.00000
     32       9.9846      0.00000
     33      10.6206      0.00000
     34      11.0477      0.00000
     35      11.2149      0.00000
     36      11.4731      0.00000
     37      11.5827      0.00000
     38      11.9786      0.00000
     39      12.8628      0.00000
     40      13.1590      0.00000
     41      13.3835      0.00000
     42      13.7859      0.00000
     43      13.8900      0.00000
     44      14.1932      0.00000
     45      14.5214      0.00000
     46      14.9884      0.00000
     47      15.1222      0.00000
     48      15.4129      0.00000

 k-point   175 :       0.4500    0.4643    0.4444
  band No.  band energies     occupation 
      1     -12.0244      2.00000
      2     -11.8843      2.00000
      3      -8.5509      2.00000
      4      -8.4374      2.00000
      5      -5.9303      2.00000
      6      -5.8251      2.00000
      7      -4.8874      2.00000
      8      -4.5630      2.00000
      9      -4.4068      2.00000
     10      -3.9661      2.00000
     11      -2.1801      2.00000
     12      -2.1179      2.00000
     13      -2.0506      2.00000
     14      -1.7648      2.00000
     15      -0.2004      2.00000
     16       0.0145      2.00000
     17       0.4133      2.00000
     18       0.5025      2.00000
     19       0.5713      2.00000
     20       0.8990      2.00000
     21       1.6662      2.00000
     22       1.7660      1.99998
     23       5.8786      0.00000
     24       6.0610      0.00000
     25       6.8919      0.00000
     26       7.4214      0.00000
     27       7.4976      0.00000
     28       7.5891      0.00000
     29       9.4230      0.00000
     30       9.6082      0.00000
     31       9.8165      0.00000
     32       9.9991      0.00000
     33      10.4888      0.00000
     34      10.8340      0.00000
     35      11.2508      0.00000
     36      11.5158      0.00000
     37      11.5181      0.00000
     38      11.6286      0.00000
     39      13.1040      0.00000
     40      13.2092      0.00000
     41      13.7316      0.00000
     42      14.0865      0.00000
     43      14.2181      0.00000
     44      14.3138      0.00000
     45      14.6231      0.00000
     46      14.7545      0.00000
     47      14.9016      0.00000
     48      15.0847      0.00000


--------------------------------------------------------------------------------------------------------


 soft charge-density along one line, spin component           1
         0         1         2         3         4         5         6         7         8         9
 total charge-density along one line
 
 pseudopotential strength for first ion, spin component:           1
  6.443   9.811  -0.000  -0.009   0.005  -0.000  -0.014   0.008
  9.811  14.933  -0.000  -0.014   0.008  -0.000  -0.021   0.011
 -0.000  -0.000  -2.176  -0.000  -0.000  -3.699  -0.000  -0.000
 -0.009  -0.014  -0.000  -2.181  -0.001  -0.000  -3.710  -0.002
  0.005   0.008  -0.000  -0.001  -2.180  -0.000  -0.002  -3.707
 -0.000  -0.000  -3.699  -0.000  -0.000  -6.089  -0.000  -0.000
 -0.014  -0.021  -0.000  -3.710  -0.002  -0.000  -6.111  -0.004
  0.008   0.011  -0.000  -0.002  -3.707  -0.000  -0.004  -6.106
 total augmentation occupancy for first ion, spin component:           1
  3.869  -1.077   0.000  -0.231   0.455   0.000   0.115  -0.194
 -1.077   0.324   0.000   0.167  -0.224   0.000  -0.060   0.087
  0.000   0.000   2.832   0.000   0.000  -0.784   0.000   0.000
 -0.231   0.167   0.000   4.394   0.366  -0.000  -1.332  -0.140
  0.455  -0.224   0.000   0.366   4.247   0.000  -0.141  -1.268
  0.000   0.000  -0.784   0.000   0.000   0.220  -0.000   0.000
  0.115  -0.060   0.000  -1.332  -0.141   0.000   0.413   0.053
 -0.194   0.087   0.000  -0.140  -1.268   0.000   0.053   0.387


------------------------ aborting loop because EDIFF is reached ----------------------------------------


    CHARGE:  cpu time      0.0326: real time      0.0326
    FORLOC:  cpu time      0.0005: real time      0.0005
    FORNL :  cpu time      0.2222: real time      0.2223
    STRESS:  cpu time      1.0788: real time      1.0790
    FORCOR:  cpu time      0.0041: real time      0.0041
    FORHAR:  cpu time      0.0014: real time      0.0014
    MIXING:  cpu time      0.0004: real time      0.0004
    OFIELD:  cpu time      0.0000: real time      0.0000

  FORCE on cell =-STRESS in cart. coord.  units (eV):
  Direction    XX          YY          ZZ          XY          YZ          ZX
  --------------------------------------------------------------------------------------
  Alpha Z    94.24358    94.24358    94.24358
  Ewald     -90.05465  -558.27634  -147.43815    -0.00000    -0.00000     0.00000
  Hartree   186.76126     5.95844   155.94241    -0.00000    -0.00000    -0.00000
  E(xc)    -135.01165  -135.98756  -134.97468    -0.00000    -0.00000    -0.00000
  Local    -498.81139   120.59412  -410.87028     0.00000     0.00000    -0.00000
  n-local   -10.36864   -12.76701   -10.76103     0.00620    -0.02329     0.08719
  augment     2.00860     2.03561     2.03259     0.00000    -0.00000     0.00000
  Kinetic   447.84266   478.75325   446.52749     0.29844     0.05708    -1.18426
  Fock        0.00000     0.00000     0.00000     0.00000     0.00000     0.00000
  -------------------------------------------------------------------------------------
  Total      -3.39023    -5.44592    -5.29808     0.00000     0.00000    -0.00000
  in kB     -37.96448   -60.98460   -59.32902     0.00000     0.00000    -0.00000
  external pressure =      -52.76 kB  Pullay stress =        0.00 kB


 VOLUME and BASIS-vectors are now :
 -----------------------------------------------------------------------------
  energy-cutoff  :      250.00
  volume of cell :      143.07
      direct lattice vectors                 reciprocal lattice vectors
     5.697000000  0.000000000  0.000000000     0.175530981  0.000000000  0.000000000
     0.000000000  4.047900000  0.000000000     0.000000000  0.247041676  0.000000000
     0.000000000  0.000000000  6.204200000     0.000000000  0.000000000  0.161181135

  length of vectors
     5.697000000  4.047900000  6.204200000     0.175530981  0.247041676  0.161181135


 FORCES acting on ions
    electron-ion (+dipol)            ewald-force                    non-local-force                 convergence-correction
 -----------------------------------------------------------------------------------------------
   0.497E+02 0.344E-12 -.249E+02   -.515E+02 0.211E-14 0.284E+02   0.181E+01 -.337E-18 -.337E+01   -.605E-04 0.101E-14 0.754E-04
   -.497E+02 -.255E-12 0.249E+02   0.515E+02 0.448E-16 -.284E+02   -.181E+01 -.360E-18 0.337E+01   0.605E-04 0.173E-14 -.754E-04
   -.497E+02 -.237E-12 -.249E+02   0.515E+02 0.587E-14 0.284E+02   -.181E+01 0.221E-18 -.337E+01   0.605E-04 0.119E-14 0.754E-04
   0.497E+02 0.196E-13 0.249E+02   -.515E+02 0.181E-14 -.284E+02   0.181E+01 0.252E-18 0.337E+01   -.605E-04 0.190E-14 -.754E-04
   0.313E+02 -.280E-12 -.527E+02   -.341E+02 0.342E-14 0.571E+02   0.198E+01 0.308E-18 -.415E+01   -.894E-04 0.206E-14 -.812E-04
   -.313E+02 0.355E-12 0.527E+02   0.341E+02 0.354E-14 -.571E+02   -.198E+01 0.297E-18 0.415E+01   0.894E-04 0.100E-14 0.812E-04
   -.313E+02 -.211E-12 -.527E+02   0.341E+02 0.299E-14 0.571E+02   -.198E+01 0.152E-18 -.415E+01   0.894E-04 0.193E-14 -.812E-04
   0.313E+02 0.436E-13 0.527E+02   -.341E+02 0.353E-14 -.571E+02   0.198E+01 0.155E-18 0.415E+01   -.894E-04 0.132E-14 0.812E-04
   -.178E-13 -.559E+02 -.155E+02   -.720E-14 0.613E+02 0.166E+02   0.139E-17 -.545E+01 -.110E+01   0.643E-14 0.546E-04 0.175E-04
   -.381E-13 0.559E+02 0.155E+02   0.108E-13 -.613E+02 -.166E+02   -.141E-17 0.545E+01 0.110E+01   -.862E-14 -.546E-04 -.175E-04
   -.177E-13 0.559E+02 -.155E+02   0.393E-14 -.613E+02 0.166E+02   -.747E-18 0.545E+01 -.110E+01   0.663E-14 -.546E-04 0.175E-04
   -.384E-13 -.559E+02 0.155E+02   0.643E-14 0.613E+02 -.166E+02   0.655E-18 -.545E+01 0.110E+01   -.909E-14 0.546E-04 -.175E-04
   -.233E-13 0.169E-13 -.623E+02   0.123E-13 0.532E-14 0.649E+02   -.818E-19 0.328E-18 -.249E+01   -.175E-13 0.143E-14 0.437E-04
   -.169E-13 -.575E-13 0.623E+02   0.173E-13 0.235E-14 -.649E+02   0.925E-19 0.244E-19 0.249E+01   0.183E-13 0.152E-14 -.437E-04
 -----------------------------------------------------------------------------------------------
   -.438E-12 -.173E-12 -.206E-11   0.152E-13 0.767E-14 -.284E-13   0.222E-15 0.352E-18 -.444E-15   -.609E-14 0.132E-13 0.246E-13
 
 
 POSITION                                       TOTAL-FORCE (eV/Angst)
 -----------------------------------------------------------------------------------
      2.96945      2.02395      3.95803         0.016027     -0.000000      0.078665
      2.72755      2.02395      2.24617        -0.016027     -0.000000     -0.078665
      5.57605      2.02395      3.95803        -0.016027     -0.000000      0.078665
      0.12095      2.02395      2.24617         0.016027     -0.000000     -0.078665
      3.42333      2.02395      5.58322        -0.780289     -0.000000      0.234868
      2.27367      2.02395      0.62098         0.780289     -0.000000     -0.234868
      5.12217      2.02395      5.58322         0.780289     -0.000000      0.234868
      0.57483      2.02395      0.62098        -0.780289     -0.000000     -0.234868
      4.27275      3.20476      4.52739        -0.000000     -0.048827     -0.064975
      1.42425      0.84314      1.67681        -0.000000      0.048827      0.064975
      4.27275      0.84314      4.52739        -0.000000      0.048827     -0.064975
      1.42425      3.20476      1.67681        -0.000000     -0.048827      0.064975
      1.42425      2.02395      3.24895        -0.000000     -0.000000      0.090610
      4.27275      2.02395      2.95525        -0.000000     -0.000000     -0.090610
 -----------------------------------------------------------------------------------
    total drift:                               -0.000000     -0.000000     -0.000000


--------------------------------------------------------------------------------------------------------



  FREE ENERGIE OF THE ION-ELECTRON SYSTEM (eV)
  ---------------------------------------------------
  free  energy   TOTEN  =       -89.95092897 eV

  energy  without entropy=      -89.94765800  energy(sigma->0) =      -89.94929348
 


--------------------------------------------------------------------------------------------------------


    POTLOK:  cpu time      0.0058: real time      0.0058


--------------------------------------------------------------------------------------------------------


     LOOP+:  cpu time     54.0277: real time     54.0776
    4ORBIT:  cpu time      0.0000: real time      0.0000

 total amount of memory used by VASP MPI-rank0    54978. kBytes
=======================================================================

   base      :      30000. kBytes
   nonl-proj :      15079. kBytes
   fftplans  :        408. kBytes
   grid      :       1384. kBytes
   one-center:         43. kBytes
   wavefun   :       8064. kBytes
 
  
  
 General timing and accounting informations for this job:
 ========================================================
  
                  Total CPU time used (sec):       56.580
                            User time (sec):       55.377
                          System time (sec):        1.203
                         Elapsed time (sec):       57.926
  
                   Maximum memory used (kb):      369424.
                   Average memory used (kb):          N/A
  
                          Minor page faults:       234080
                          Major page faults:         1828
                 Voluntary context switches:         6410
