Automatically generated mesh
     240
Reciprocal lattice
    0.00000000000000    0.00000000000000    0.05000000000000             2
    0.09090909090909    0.00000000000000    0.05000000000000             4
    0.18181818181818    0.00000000000000    0.05000000000000             4
    0.27272727272727    0.00000000000000    0.05000000000000             4
    0.36363636363637    0.00000000000000    0.05000000000000             4
    0.45454545454545    0.00000000000000    0.05000000000000             4
    0.00000000000000    0.06666666666667    0.05000000000000             4
    0.09090909090909    0.06666666666667    0.05000000000000             8
    0.18181818181818    0.06666666666667    0.05000000000000             8
    0.27272727272727    0.06666666666667    0.05000000000000             8
    0.36363636363637    0.06666666666667    0.05000000000000             8
    0.45454545454545    0.06666666666667    0.05000000000000             8
    0.00000000000000    0.13333333333333    0.05000000000000             4
    0.09090909090909    0.13333333333333    0.05000000000000             8
    0.18181818181818    0.13333333333333    0.05000000000000             8
    0.27272727272727    0.13333333333333    0.05000000000000             8
    0.36363636363637    0.13333333333333    0.05000000000000             8
    0.45454545454545    0.13333333333333    0.05000000000000             8
    0.00000000000000    0.20000000000000    0.05000000000000             4
    0.09090909090909    0.20000000000000    0.05000000000000             8
    0.18181818181818    0.20000000000000    0.05000000000000             8
    0.27272727272727    0.20000000000000    0.05000000000000             8
    0.36363636363637    0.20000000000000    0.05000000000000             8
    0.45454545454545    0.20000000000000    0.05000000000000             8
    0.00000000000000    0.26666666666667    0.05000000000000             4
    0.09090909090909    0.26666666666667    0.05000000000000             8
    0.18181818181818    0.26666666666667    0.05000000000000             8
    0.27272727272727    0.26666666666667    0.05000000000000             8
    0.36363636363637    0.26666666666667    0.05000000000000             8
    0.45454545454545    0.26666666666667    0.05000000000000             8
    0.00000000000000    0.33333333333334    0.05000000000000             4
    0.09090909090909    0.33333333333334    0.05000000000000             8
    0.18181818181818    0.33333333333334    0.05000000000000             8
    0.27272727272727    0.33333333333334    0.05000000000000             8
    0.36363636363637    0.33333333333334    0.05000000000000             8
    0.45454545454545    0.33333333333334    0.05000000000000             8
    0.00000000000000    0.40000000000000    0.05000000000000             4
    0.09090909090909    0.40000000000000    0.05000000000000             8
    0.18181818181818    0.40000000000000    0.05000000000000             8
    0.27272727272727    0.40000000000000    0.05000000000000             8
    0.36363636363637    0.40000000000000    0.05000000000000             8
    0.45454545454545    0.40000000000000    0.05000000000000             8
    0.00000000000000    0.46666666666667    0.05000000000000             4
    0.09090909090909    0.46666666666667    0.05000000000000             8
    0.18181818181818    0.46666666666667    0.05000000000000             8
    0.27272727272727    0.46666666666667    0.05000000000000             8
    0.36363636363637    0.46666666666667    0.05000000000000             8
    0.45454545454545    0.46666666666667    0.05000000000000             8
    0.00000000000000    0.00000000000000    0.15000000000000             2
    0.09090909090909    0.00000000000000    0.15000000000000             4
    0.18181818181818    0.00000000000000    0.15000000000000             4
    0.27272727272727    0.00000000000000    0.15000000000000             4
    0.36363636363637    0.00000000000000    0.15000000000000             4
    0.45454545454545    0.00000000000000    0.15000000000000             4
    0.00000000000000    0.06666666666667    0.15000000000000             4
    0.09090909090909    0.06666666666667    0.15000000000000             8
    0.18181818181818    0.06666666666667    0.15000000000000             8
    0.27272727272727    0.06666666666667    0.15000000000000             8
    0.36363636363637    0.06666666666667    0.15000000000000             8
    0.45454545454545    0.06666666666667    0.15000000000000             8
    0.00000000000000    0.13333333333333    0.15000000000000             4
    0.09090909090909    0.13333333333333    0.15000000000000             8
    0.18181818181818    0.13333333333333    0.15000000000000             8
    0.27272727272727    0.13333333333333    0.15000000000000             8
    0.36363636363637    0.13333333333333    0.15000000000000             8
    0.45454545454545    0.13333333333333    0.15000000000000             8
    0.00000000000000    0.20000000000000    0.15000000000000             4
    0.09090909090909    0.20000000000000    0.15000000000000             8
    0.18181818181818    0.20000000000000    0.15000000000000             8
    0.27272727272727    0.20000000000000    0.15000000000000             8
    0.36363636363637    0.20000000000000    0.15000000000000             8
    0.45454545454545    0.20000000000000    0.15000000000000             8
    0.00000000000000    0.26666666666667    0.15000000000000             4
    0.09090909090909    0.26666666666667    0.15000000000000             8
    0.18181818181818    0.26666666666667    0.15000000000000             8
    0.27272727272727    0.26666666666667    0.15000000000000             8
    0.36363636363637    0.26666666666667    0.15000000000000             8
    0.45454545454545    0.26666666666667    0.15000000000000             8
    0.00000000000000    0.33333333333334    0.15000000000000             4
    0.09090909090909    0.33333333333334    0.15000000000000             8
    0.18181818181818    0.33333333333334    0.15000000000000             8
    0.27272727272727    0.33333333333334    0.15000000000000             8
    0.36363636363637    0.33333333333334    0.15000000000000             8
    0.45454545454545    0.33333333333334    0.15000000000000             8
    0.00000000000000    0.40000000000000    0.15000000000000             4
    0.09090909090909    0.40000000000000    0.15000000000000             8
    0.18181818181818    0.40000000000000    0.15000000000000             8
    0.27272727272727    0.40000000000000    0.15000000000000             8
    0.36363636363637    0.40000000000000    0.15000000000000             8
    0.45454545454545    0.40000000000000    0.15000000000000             8
    0.00000000000000    0.46666666666667    0.15000000000000             4
    0.09090909090909    0.46666666666667    0.15000000000000             8
    0.18181818181818    0.46666666666667    0.15000000000000             8
    0.27272727272727    0.46666666666667    0.15000000000000             8
    0.36363636363637    0.46666666666667    0.15000000000000             8
    0.45454545454545    0.46666666666667    0.15000000000000             8
    0.00000000000000    0.00000000000000    0.25000000000000             2
    0.09090909090909    0.00000000000000    0.25000000000000             4
    0.18181818181818    0.00000000000000    0.25000000000000             4
    0.27272727272727    0.00000000000000    0.25000000000000             4
    0.36363636363637    0.00000000000000    0.25000000000000             4
    0.45454545454545    0.00000000000000    0.25000000000000             4
    0.00000000000000    0.06666666666667    0.25000000000000             4
    0.09090909090909    0.06666666666667    0.25000000000000             8
    0.18181818181818    0.06666666666667    0.25000000000000             8
    0.27272727272727    0.06666666666667    0.25000000000000             8
    0.36363636363637    0.06666666666667    0.25000000000000             8
    0.45454545454545    0.06666666666667    0.25000000000000             8
    0.00000000000000    0.13333333333333    0.25000000000000             4
    0.09090909090909    0.13333333333333    0.25000000000000             8
    0.18181818181818    0.13333333333333    0.25000000000000             8
    0.27272727272727    0.13333333333333    0.25000000000000             8
    0.36363636363637    0.13333333333333    0.25000000000000             8
    0.45454545454545    0.13333333333333    0.25000000000000             8
    0.00000000000000    0.20000000000000    0.25000000000000             4
    0.09090909090909    0.20000000000000    0.25000000000000             8
    0.18181818181818    0.20000000000000    0.25000000000000             8
    0.27272727272727    0.20000000000000    0.25000000000000             8
    0.36363636363637    0.20000000000000    0.25000000000000             8
    0.45454545454545    0.20000000000000    0.25000000000000             8
    0.00000000000000    0.26666666666667    0.25000000000000             4
    0.09090909090909    0.26666666666667    0.25000000000000             8
    0.18181818181818    0.26666666666667    0.25000000000000             8
    0.27272727272727    0.26666666666667    0.25000000000000             8
    0.36363636363637    0.26666666666667    0.25000000000000             8
    0.45454545454545    0.26666666666667    0.25000000000000             8
    0.00000000000000    0.33333333333334    0.25000000000000             4
    0.09090909090909    0.33333333333334    0.25000000000000             8
    0.18181818181818    0.33333333333334    0.25000000000000             8
    0.27272727272727    0.33333333333334    0.25000000000000             8
    0.36363636363637    0.33333333333334    0.25000000000000             8
    0.45454545454545    0.33333333333334    0.25000000000000             8
    0.00000000000000    0.40000000000000    0.25000000000000             4
    0.09090909090909    0.40000000000000    0.25000000000000             8
    0.18181818181818    0.40000000000000    0.25000000000000             8
    0.27272727272727    0.40000000000000    0.25000000000000             8
    0.36363636363637    0.40000000000000    0.25000000000000             8
    0.45454545454545    0.40000000000000    0.25000000000000             8
    0.00000000000000    0.46666666666667    0.25000000000000             4
    0.09090909090909    0.46666666666667    0.25000000000000             8
    0.18181818181818    0.46666666666667    0.25000000000000             8
    0.27272727272727    0.46666666666667    0.25000000000000             8
    0.36363636363637    0.46666666666667    0.25000000000000             8
    0.45454545454545    0.46666666666667    0.25000000000000             8
    0.00000000000000    0.00000000000000    0.35000000000000             2
    0.09090909090909    0.00000000000000    0.35000000000000             4
    0.18181818181818    0.00000000000000    0.35000000000000             4
    0.27272727272727    0.00000000000000    0.35000000000000             4
    0.36363636363637    0.00000000000000    0.35000000000000             4
    0.45454545454545    0.00000000000000    0.35000000000000             4
    0.00000000000000    0.06666666666667    0.35000000000000             4
    0.09090909090909    0.06666666666667    0.35000000000000             8
    0.18181818181818    0.06666666666667    0.35000000000000             8
    0.27272727272727    0.06666666666667    0.35000000000000             8
    0.36363636363637    0.06666666666667    0.35000000000000             8
    0.45454545454545    0.06666666666667    0.35000000000000             8
    0.00000000000000    0.13333333333333    0.35000000000000             4
    0.09090909090909    0.13333333333333    0.35000000000000             8
    0.18181818181818    0.13333333333333    0.35000000000000             8
    0.27272727272727    0.13333333333333    0.35000000000000             8
    0.36363636363637    0.13333333333333    0.35000000000000             8
    0.45454545454545    0.13333333333333    0.35000000000000             8
    0.00000000000000    0.20000000000000    0.35000000000000             4
    0.09090909090909    0.20000000000000    0.35000000000000             8
    0.18181818181818    0.20000000000000    0.35000000000000             8
    0.27272727272727    0.20000000000000    0.35000000000000             8
    0.36363636363637    0.20000000000000    0.35000000000000             8
    0.45454545454545    0.20000000000000    0.35000000000000             8
    0.00000000000000    0.26666666666667    0.35000000000000             4
    0.09090909090909    0.26666666666667    0.35000000000000             8
    0.18181818181818    0.26666666666667    0.35000000000000             8
    0.27272727272727    0.26666666666667    0.35000000000000             8
    0.36363636363637    0.26666666666667    0.35000000000000             8
    0.45454545454545    0.26666666666667    0.35000000000000             8
    0.00000000000000    0.33333333333334    0.35000000000000             4
    0.09090909090909    0.33333333333334    0.35000000000000             8
    0.18181818181818    0.33333333333334    0.35000000000000             8
    0.27272727272727    0.33333333333334    0.35000000000000             8
    0.36363636363637    0.33333333333334    0.35000000000000             8
    0.45454545454545    0.33333333333334    0.35000000000000             8
    0.00000000000000    0.40000000000000    0.35000000000000             4
    0.09090909090909    0.40000000000000    0.35000000000000             8
    0.18181818181818    0.40000000000000    0.35000000000000             8
    0.27272727272727    0.40000000000000    0.35000000000000             8
    0.36363636363637    0.40000000000000    0.35000000000000             8
    0.45454545454545    0.40000000000000    0.35000000000000             8
    0.00000000000000    0.46666666666667    0.35000000000000             4
    0.09090909090909    0.46666666666667    0.35000000000000             8
    0.18181818181818    0.46666666666667    0.35000000000000             8
    0.27272727272727    0.46666666666667    0.35000000000000             8
    0.36363636363637    0.46666666666667    0.35000000000000             8
    0.45454545454545    0.46666666666667    0.35000000000000             8
    0.00000000000000    0.00000000000000    0.45000000000000             2
    0.09090909090909    0.00000000000000    0.45000000000000             4
    0.18181818181818    0.00000000000000    0.45000000000000             4
    0.27272727272727    0.00000000000000    0.45000000000000             4
    0.36363636363637    0.00000000000000    0.45000000000000             4
    0.45454545454545    0.00000000000000    0.45000000000000             4
    0.00000000000000    0.06666666666667    0.45000000000000             4
    0.09090909090909    0.06666666666667    0.45000000000000             8
    0.18181818181818    0.06666666666667    0.45000000000000             8
    0.27272727272727    0.06666666666667    0.45000000000000             8
    0.36363636363637    0.06666666666667    0.45000000000000             8
    0.45454545454545    0.06666666666667    0.45000000000000             8
    0.00000000000000    0.13333333333333    0.45000000000000             4
    0.09090909090909    0.13333333333333    0.45000000000000             8
    0.18181818181818    0.13333333333333    0.45000000000000             8
    0.27272727272727    0.13333333333333    0.45000000000000             8
    0.36363636363637    0.13333333333333    0.45000000000000             8
    0.45454545454545    0.13333333333333    0.45000000000000             8
    0.00000000000000    0.20000000000000    0.45000000000000             4
    0.09090909090909    0.20000000000000    0.45000000000000             8
    0.18181818181818    0.20000000000000    0.45000000000000             8
    0.27272727272727    0.20000000000000    0.45000000000000             8
    0.36363636363637    0.20000000000000    0.45000000000000             8
    0.45454545454545    0.20000000000000    0.45000000000000             8
    0.00000000000000    0.26666666666667    0.45000000000000             4
    0.09090909090909    0.26666666666667    0.45000000000000             8
    0.18181818181818    0.26666666666667    0.45000000000000             8
    0.27272727272727    0.26666666666667    0.45000000000000             8
    0.36363636363637    0.26666666666667    0.45000000000000             8
    0.45454545454545    0.26666666666667    0.45000000000000             8
    0.00000000000000    0.33333333333334    0.45000000000000             4
    0.09090909090909    0.33333333333334    0.45000000000000             8
    0.18181818181818    0.33333333333334    0.45000000000000             8
    0.27272727272727    0.33333333333334    0.45000000000000             8
    0.36363636363637    0.33333333333334    0.45000000000000             8
    0.45454545454545    0.33333333333334    0.45000000000000             8
    0.00000000000000    0.40000000000000    0.45000000000000             4
    0.09090909090909    0.40000000000000    0.45000000000000             8
    0.18181818181818    0.40000000000000    0.45000000000000             8
    0.27272727272727    0.40000000000000    0.45000000000000             8
    0.36363636363637    0.40000000000000    0.45000000000000             8
    0.45454545454545    0.40000000000000    0.45000000000000             8
    0.00000000000000    0.46666666666667    0.45000000000000             4
    0.09090909090909    0.46666666666667    0.45000000000000             8
    0.18181818181818    0.46666666666667    0.45000000000000             8
    0.27272727272727    0.46666666666667    0.45000000000000             8
    0.36363636363637    0.46666666666667    0.45000000000000             8
    0.45454545454545    0.46666666666667    0.45000000000000             8
