<?xml version="1.0" encoding="ISO-8859-1"?>
<modeling>
 <generator>
  <i name="program" type="string">vasp </i>
  <i name="version" type="string">6.4.3  </i>
  <i name="subversion" type="string">19Mar24 (build May 31 2024 16:31:43) complex                          parallel </i>
  <i name="platform" type="string">LinuxIFC </i>
  <i name="date" type="string">2024 10 30 </i>
  <i name="time" type="string">19:26:57 </i>
 </generator>
 <incar>
  <i type="string" name="SYSTEM">Kpoints</i>
  <i type="int" name="ISTART">     0</i>
  <i type="string" name="PREC">Accurate</i>
  <i type="string" name="ALGO">Normal</i>
  <i type="int" name="ISPIN">     1</i>
  <i type="int" name="ICHARG">     2</i>
  <i type="int" name="NELM">   100</i>
  <i type="int" name="IBRION">    -1</i>
  <i name="EDIFF">      0.00000100</i>
  <i name="EDIFFG">     -0.00100000</i>
  <i type="int" name="NSW">     0</i>
  <i type="int" name="ISIF">     2</i>
  <i name="ENCUT">    540.00000000</i>
  <i name="POTIM">      0.50000000</i>
  <i type="int" name="ISMEAR">     0</i>
  <i name="SIGMA">      0.05000000</i>
  <i type="logical" name="LWAVE"> F  </i>
  <i type="logical" name="LCHARG"> F  </i>
  <i type="string" name="GGA">PE</i>
 </incar>
 <primitive_cell>
  <structure name="primitive_cell" >
   <crystal>
    <varray name="basis" >
     <v>       5.69700000       0.00000000       0.00000000 </v>
     <v>       0.00000000       4.04790000       0.00000000 </v>
     <v>       0.00000000       0.00000000       6.20420000 </v>
    </varray>
    <i name="volume">    143.07435078 </i>
    <varray name="rec_basis" >
     <v>       0.17553098       0.00000000       0.00000000 </v>
     <v>       0.00000000       0.24704168       0.00000000 </v>
     <v>       0.00000000       0.00000000       0.16118114 </v>
    </varray>
   </crystal>
   <varray name="positions" >
    <v>       0.52123000       0.50000000       0.63796000 </v>
    <v>       0.47877000       0.50000000       0.36204000 </v>
    <v>       0.97877000       0.50000000       0.63796000 </v>
    <v>       0.02123000       0.50000000       0.36204000 </v>
    <v>       0.60090000       0.50000000       0.89991000 </v>
    <v>       0.39910000       0.50000000       0.10009000 </v>
    <v>       0.89910000       0.50000000       0.89991000 </v>
    <v>       0.10090000       0.50000000       0.10009000 </v>
    <v>       0.75000000       0.79171000       0.72973000 </v>
    <v>       0.25000000       0.20829000       0.27027000 </v>
    <v>       0.75000000       0.20829000       0.72973000 </v>
    <v>       0.25000000       0.79171000       0.27027000 </v>
    <v>       0.25000000       0.50000000       0.52367000 </v>
    <v>       0.75000000       0.50000000       0.47633000 </v>
   </varray>
  </structure>
  <varray name="primitive_index" >
   <v type="int" >        1 </v>
   <v type="int" >        2 </v>
   <v type="int" >        3 </v>
   <v type="int" >        4 </v>
   <v type="int" >        5 </v>
   <v type="int" >        6 </v>
   <v type="int" >        7 </v>
   <v type="int" >        8 </v>
   <v type="int" >        9 </v>
   <v type="int" >       10 </v>
   <v type="int" >       11 </v>
   <v type="int" >       12 </v>
   <v type="int" >       13 </v>
   <v type="int" >       14 </v>
  </varray>
 </primitive_cell>
 <kpoints>
  <generation param="Monkhorst-Pack">
   <v type="int" name="divisions">      10       14        9 </v>
   <v name="usershift">      0.00000000       0.00000000       0.00000000 </v>
   <v name="genvec1">      0.10000000       0.00000000       0.00000000 </v>
   <v name="genvec2">      0.00000000       0.07142857       0.00000000 </v>
   <v name="genvec3">      0.00000000       0.00000000       0.11111111 </v>
   <v name="shift">      0.50000000       0.50000000       0.00000000 </v>
  </generation>
  <varray name="kpointlist" >
   <v>       0.05000000       0.03571429       0.00000000 </v>
   <v>       0.15000000       0.03571429       0.00000000 </v>
   <v>       0.25000000       0.03571429       0.00000000 </v>
   <v>       0.35000000       0.03571429       0.00000000 </v>
   <v>       0.45000000       0.03571429       0.00000000 </v>
   <v>       0.05000000       0.10714286       0.00000000 </v>
   <v>       0.15000000       0.10714286       0.00000000 </v>
   <v>       0.25000000       0.10714286       0.00000000 </v>
   <v>       0.35000000       0.10714286       0.00000000 </v>
   <v>       0.45000000       0.10714286       0.00000000 </v>
   <v>       0.05000000       0.17857143       0.00000000 </v>
   <v>       0.15000000       0.17857143       0.00000000 </v>
   <v>       0.25000000       0.17857143       0.00000000 </v>
   <v>       0.35000000       0.17857143       0.00000000 </v>
   <v>       0.45000000       0.17857143       0.00000000 </v>
   <v>       0.05000000       0.25000000       0.00000000 </v>
   <v>       0.15000000       0.25000000       0.00000000 </v>
   <v>       0.25000000       0.25000000       0.00000000 </v>
   <v>       0.35000000       0.25000000       0.00000000 </v>
   <v>       0.45000000       0.25000000       0.00000000 </v>
   <v>       0.05000000       0.32142857       0.00000000 </v>
   <v>       0.15000000       0.32142857       0.00000000 </v>
   <v>       0.25000000       0.32142857       0.00000000 </v>
   <v>       0.35000000       0.32142857       0.00000000 </v>
   <v>       0.45000000       0.32142857       0.00000000 </v>
   <v>       0.05000000       0.39285714       0.00000000 </v>
   <v>       0.15000000       0.39285714       0.00000000 </v>
   <v>       0.25000000       0.39285714       0.00000000 </v>
   <v>       0.35000000       0.39285714       0.00000000 </v>
   <v>       0.45000000       0.39285714       0.00000000 </v>
   <v>       0.05000000       0.46428571       0.00000000 </v>
   <v>       0.15000000       0.46428571       0.00000000 </v>
   <v>       0.25000000       0.46428571       0.00000000 </v>
   <v>       0.35000000       0.46428571       0.00000000 </v>
   <v>       0.45000000       0.46428571       0.00000000 </v>
   <v>       0.05000000       0.03571429       0.11111111 </v>
   <v>       0.15000000       0.03571429       0.11111111 </v>
   <v>       0.25000000       0.03571429       0.11111111 </v>
   <v>       0.35000000       0.03571429       0.11111111 </v>
   <v>       0.45000000       0.03571429       0.11111111 </v>
   <v>       0.05000000       0.10714286       0.11111111 </v>
   <v>       0.15000000       0.10714286       0.11111111 </v>
   <v>       0.25000000       0.10714286       0.11111111 </v>
   <v>       0.35000000       0.10714286       0.11111111 </v>
   <v>       0.45000000       0.10714286       0.11111111 </v>
   <v>       0.05000000       0.17857143       0.11111111 </v>
   <v>       0.15000000       0.17857143       0.11111111 </v>
   <v>       0.25000000       0.17857143       0.11111111 </v>
   <v>       0.35000000       0.17857143       0.11111111 </v>
   <v>       0.45000000       0.17857143       0.11111111 </v>
   <v>       0.05000000       0.25000000       0.11111111 </v>
   <v>       0.15000000       0.25000000       0.11111111 </v>
   <v>       0.25000000       0.25000000       0.11111111 </v>
   <v>       0.35000000       0.25000000       0.11111111 </v>
   <v>       0.45000000       0.25000000       0.11111111 </v>
   <v>       0.05000000       0.32142857       0.11111111 </v>
   <v>       0.15000000       0.32142857       0.11111111 </v>
   <v>       0.25000000       0.32142857       0.11111111 </v>
   <v>       0.35000000       0.32142857       0.11111111 </v>
   <v>       0.45000000       0.32142857       0.11111111 </v>
   <v>       0.05000000       0.39285714       0.11111111 </v>
   <v>       0.15000000       0.39285714       0.11111111 </v>
   <v>       0.25000000       0.39285714       0.11111111 </v>
   <v>       0.35000000       0.39285714       0.11111111 </v>
   <v>       0.45000000       0.39285714       0.11111111 </v>
   <v>       0.05000000       0.46428571       0.11111111 </v>
   <v>       0.15000000       0.46428571       0.11111111 </v>
   <v>       0.25000000       0.46428571       0.11111111 </v>
   <v>       0.35000000       0.46428571       0.11111111 </v>
   <v>       0.45000000       0.46428571       0.11111111 </v>
   <v>       0.05000000       0.03571429       0.22222222 </v>
   <v>       0.15000000       0.03571429       0.22222222 </v>
   <v>       0.25000000       0.03571429       0.22222222 </v>
   <v>       0.35000000       0.03571429       0.22222222 </v>
   <v>       0.45000000       0.03571429       0.22222222 </v>
   <v>       0.05000000       0.10714286       0.22222222 </v>
   <v>       0.15000000       0.10714286       0.22222222 </v>
   <v>       0.25000000       0.10714286       0.22222222 </v>
   <v>       0.35000000       0.10714286       0.22222222 </v>
   <v>       0.45000000       0.10714286       0.22222222 </v>
   <v>       0.05000000       0.17857143       0.22222222 </v>
   <v>       0.15000000       0.17857143       0.22222222 </v>
   <v>       0.25000000       0.17857143       0.22222222 </v>
   <v>       0.35000000       0.17857143       0.22222222 </v>
   <v>       0.45000000       0.17857143       0.22222222 </v>
   <v>       0.05000000       0.25000000       0.22222222 </v>
   <v>       0.15000000       0.25000000       0.22222222 </v>
   <v>       0.25000000       0.25000000       0.22222222 </v>
   <v>       0.35000000       0.25000000       0.22222222 </v>
   <v>       0.45000000       0.25000000       0.22222222 </v>
   <v>       0.05000000       0.32142857       0.22222222 </v>
   <v>       0.15000000       0.32142857       0.22222222 </v>
   <v>       0.25000000       0.32142857       0.22222222 </v>
   <v>       0.35000000       0.32142857       0.22222222 </v>
   <v>       0.45000000       0.32142857       0.22222222 </v>
   <v>       0.05000000       0.39285714       0.22222222 </v>
   <v>       0.15000000       0.39285714       0.22222222 </v>
   <v>       0.25000000       0.39285714       0.22222222 </v>
   <v>       0.35000000       0.39285714       0.22222222 </v>
   <v>       0.45000000       0.39285714       0.22222222 </v>
   <v>       0.05000000       0.46428571       0.22222222 </v>
   <v>       0.15000000       0.46428571       0.22222222 </v>
   <v>       0.25000000       0.46428571       0.22222222 </v>
   <v>       0.35000000       0.46428571       0.22222222 </v>
   <v>       0.45000000       0.46428571       0.22222222 </v>
   <v>       0.05000000       0.03571429       0.33333333 </v>
   <v>       0.15000000       0.03571429       0.33333333 </v>
   <v>       0.25000000       0.03571429       0.33333333 </v>
   <v>       0.35000000       0.03571429       0.33333333 </v>
   <v>       0.45000000       0.03571429       0.33333333 </v>
   <v>       0.05000000       0.10714286       0.33333333 </v>
   <v>       0.15000000       0.10714286       0.33333333 </v>
   <v>       0.25000000       0.10714286       0.33333333 </v>
   <v>       0.35000000       0.10714286       0.33333333 </v>
   <v>       0.45000000       0.10714286       0.33333333 </v>
   <v>       0.05000000       0.17857143       0.33333333 </v>
   <v>       0.15000000       0.17857143       0.33333333 </v>
   <v>       0.25000000       0.17857143       0.33333333 </v>
   <v>       0.35000000       0.17857143       0.33333333 </v>
   <v>       0.45000000       0.17857143       0.33333333 </v>
   <v>       0.05000000       0.25000000       0.33333333 </v>
   <v>       0.15000000       0.25000000       0.33333333 </v>
   <v>       0.25000000       0.25000000       0.33333333 </v>
   <v>       0.35000000       0.25000000       0.33333333 </v>
   <v>       0.45000000       0.25000000       0.33333333 </v>
   <v>       0.05000000       0.32142857       0.33333333 </v>
   <v>       0.15000000       0.32142857       0.33333333 </v>
   <v>       0.25000000       0.32142857       0.33333333 </v>
   <v>       0.35000000       0.32142857       0.33333333 </v>
   <v>       0.45000000       0.32142857       0.33333333 </v>
   <v>       0.05000000       0.39285714       0.33333333 </v>
   <v>       0.15000000       0.39285714       0.33333333 </v>
   <v>       0.25000000       0.39285714       0.33333333 </v>
   <v>       0.35000000       0.39285714       0.33333333 </v>
   <v>       0.45000000       0.39285714       0.33333333 </v>
   <v>       0.05000000       0.46428571       0.33333333 </v>
   <v>       0.15000000       0.46428571       0.33333333 </v>
   <v>       0.25000000       0.46428571       0.33333333 </v>
   <v>       0.35000000       0.46428571       0.33333333 </v>
   <v>       0.45000000       0.46428571       0.33333333 </v>
   <v>       0.05000000       0.03571429       0.44444444 </v>
   <v>       0.15000000       0.03571429       0.44444444 </v>
   <v>       0.25000000       0.03571429       0.44444444 </v>
   <v>       0.35000000       0.03571429       0.44444444 </v>
   <v>       0.45000000       0.03571429       0.44444444 </v>
   <v>       0.05000000       0.10714286       0.44444444 </v>
   <v>       0.15000000       0.10714286       0.44444444 </v>
   <v>       0.25000000       0.10714286       0.44444444 </v>
   <v>       0.35000000       0.10714286       0.44444444 </v>
   <v>       0.45000000       0.10714286       0.44444444 </v>
   <v>       0.05000000       0.17857143       0.44444444 </v>
   <v>       0.15000000       0.17857143       0.44444444 </v>
   <v>       0.25000000       0.17857143       0.44444444 </v>
   <v>       0.35000000       0.17857143       0.44444444 </v>
   <v>       0.45000000       0.17857143       0.44444444 </v>
   <v>       0.05000000       0.25000000       0.44444444 </v>
   <v>       0.15000000       0.25000000       0.44444444 </v>
   <v>       0.25000000       0.25000000       0.44444444 </v>
   <v>       0.35000000       0.25000000       0.44444444 </v>
   <v>       0.45000000       0.25000000       0.44444444 </v>
   <v>       0.05000000       0.32142857       0.44444444 </v>
   <v>       0.15000000       0.32142857       0.44444444 </v>
   <v>       0.25000000       0.32142857       0.44444444 </v>
   <v>       0.35000000       0.32142857       0.44444444 </v>
   <v>       0.45000000       0.32142857       0.44444444 </v>
   <v>       0.05000000       0.39285714       0.44444444 </v>
   <v>       0.15000000       0.39285714       0.44444444 </v>
   <v>       0.25000000       0.39285714       0.44444444 </v>
   <v>       0.35000000       0.39285714       0.44444444 </v>
   <v>       0.45000000       0.39285714       0.44444444 </v>
   <v>       0.05000000       0.46428571       0.44444444 </v>
   <v>       0.15000000       0.46428571       0.44444444 </v>
   <v>       0.25000000       0.46428571       0.44444444 </v>
   <v>       0.35000000       0.46428571       0.44444444 </v>
   <v>       0.45000000       0.46428571       0.44444444 </v>
  </varray>
  <varray name="weights" >
   <v>       0.00317460 </v>
   <v>       0.00317460 </v>
   <v>       0.00317460 </v>
   <v>       0.00317460 </v>
   <v>       0.00317460 </v>
   <v>       0.00317460 </v>
   <v>       0.00317460 </v>
   <v>       0.00317460 </v>
   <v>       0.00317460 </v>
   <v>       0.00317460 </v>
   <v>       0.00317460 </v>
   <v>       0.00317460 </v>
   <v>       0.00317460 </v>
   <v>       0.00317460 </v>
   <v>       0.00317460 </v>
   <v>       0.00317460 </v>
   <v>       0.00317460 </v>
   <v>       0.00317460 </v>
   <v>       0.00317460 </v>
   <v>       0.00317460 </v>
   <v>       0.00317460 </v>
   <v>       0.00317460 </v>
   <v>       0.00317460 </v>
   <v>       0.00317460 </v>
   <v>       0.00317460 </v>
   <v>       0.00317460 </v>
   <v>       0.00317460 </v>
   <v>       0.00317460 </v>
   <v>       0.00317460 </v>
   <v>       0.00317460 </v>
   <v>       0.00317460 </v>
   <v>       0.00317460 </v>
   <v>       0.00317460 </v>
   <v>       0.00317460 </v>
   <v>       0.00317460 </v>
   <v>       0.00634921 </v>
   <v>       0.00634921 </v>
   <v>       0.00634921 </v>
   <v>       0.00634921 </v>
   <v>       0.00634921 </v>
   <v>       0.00634921 </v>
   <v>       0.00634921 </v>
   <v>       0.00634921 </v>
   <v>       0.00634921 </v>
   <v>       0.00634921 </v>
   <v>       0.00634921 </v>
   <v>       0.00634921 </v>
   <v>       0.00634921 </v>
   <v>       0.00634921 </v>
   <v>       0.00634921 </v>
   <v>       0.00634921 </v>
   <v>       0.00634921 </v>
   <v>       0.00634921 </v>
   <v>       0.00634921 </v>
   <v>       0.00634921 </v>
   <v>       0.00634921 </v>
   <v>       0.00634921 </v>
   <v>       0.00634921 </v>
   <v>       0.00634921 </v>
   <v>       0.00634921 </v>
   <v>       0.00634921 </v>
   <v>       0.00634921 </v>
   <v>       0.00634921 </v>
   <v>       0.00634921 </v>
   <v>       0.00634921 </v>
   <v>       0.00634921 </v>
   <v>       0.00634921 </v>
   <v>       0.00634921 </v>
   <v>       0.00634921 </v>
   <v>       0.00634921 </v>
   <v>       0.00634921 </v>
   <v>       0.00634921 </v>
   <v>       0.00634921 </v>
   <v>       0.00634921 </v>
   <v>       0.00634921 </v>
   <v>       0.00634921 </v>
   <v>       0.00634921 </v>
   <v>       0.00634921 </v>
   <v>       0.00634921 </v>
   <v>       0.00634921 </v>
   <v>       0.00634921 </v>
   <v>       0.00634921 </v>
   <v>       0.00634921 </v>
   <v>       0.00634921 </v>
   <v>       0.00634921 </v>
   <v>       0.00634921 </v>
   <v>       0.00634921 </v>
   <v>       0.00634921 </v>
   <v>       0.00634921 </v>
   <v>       0.00634921 </v>
   <v>       0.00634921 </v>
   <v>       0.00634921 </v>
   <v>       0.00634921 </v>
   <v>       0.00634921 </v>
   <v>       0.00634921 </v>
   <v>       0.00634921 </v>
   <v>       0.00634921 </v>
   <v>       0.00634921 </v>
   <v>       0.00634921 </v>
   <v>       0.00634921 </v>
   <v>       0.00634921 </v>
   <v>       0.00634921 </v>
   <v>       0.00634921 </v>
   <v>       0.00634921 </v>
   <v>       0.00634921 </v>
   <v>       0.00634921 </v>
   <v>       0.00634921 </v>
   <v>       0.00634921 </v>
   <v>       0.00634921 </v>
   <v>       0.00634921 </v>
   <v>       0.00634921 </v>
   <v>       0.00634921 </v>
   <v>       0.00634921 </v>
   <v>       0.00634921 </v>
   <v>       0.00634921 </v>
   <v>       0.00634921 </v>
   <v>       0.00634921 </v>
   <v>       0.00634921 </v>
   <v>       0.00634921 </v>
   <v>       0.00634921 </v>
   <v>       0.00634921 </v>
   <v>       0.00634921 </v>
   <v>       0.00634921 </v>
   <v>       0.00634921 </v>
   <v>       0.00634921 </v>
   <v>       0.00634921 </v>
   <v>       0.00634921 </v>
   <v>       0.00634921 </v>
   <v>       0.00634921 </v>
   <v>       0.00634921 </v>
   <v>       0.00634921 </v>
   <v>       0.00634921 </v>
   <v>       0.00634921 </v>
   <v>       0.00634921 </v>
   <v>       0.00634921 </v>
   <v>       0.00634921 </v>
   <v>       0.00634921 </v>
   <v>       0.00634921 </v>
   <v>       0.00634921 </v>
   <v>       0.00634921 </v>
   <v>       0.00634921 </v>
   <v>       0.00634921 </v>
   <v>       0.00634921 </v>
   <v>       0.00634921 </v>
   <v>       0.00634921 </v>
   <v>       0.00634921 </v>
   <v>       0.00634921 </v>
   <v>       0.00634921 </v>
   <v>       0.00634921 </v>
   <v>       0.00634921 </v>
   <v>       0.00634921 </v>
   <v>       0.00634921 </v>
   <v>       0.00634921 </v>
   <v>       0.00634921 </v>
   <v>       0.00634921 </v>
   <v>       0.00634921 </v>
   <v>       0.00634921 </v>
   <v>       0.00634921 </v>
   <v>       0.00634921 </v>
   <v>       0.00634921 </v>
   <v>       0.00634921 </v>
   <v>       0.00634921 </v>
   <v>       0.00634921 </v>
   <v>       0.00634921 </v>
   <v>       0.00634921 </v>
   <v>       0.00634921 </v>
   <v>       0.00634921 </v>
   <v>       0.00634921 </v>
   <v>       0.00634921 </v>
   <v>       0.00634921 </v>
   <v>       0.00634921 </v>
   <v>       0.00634921 </v>
   <v>       0.00634921 </v>
   <v>       0.00634921 </v>
   <v>       0.00634921 </v>
  </varray>
 </kpoints>
 <parameters>
  <separator name="general" >
   <i type="string" name="SYSTEM">Kpoints</i>
   <i type="logical" name="LCOMPAT"> F  </i>
  </separator>
  <separator name="electronic" >
   <i type="string" name="PREC">accura</i>
   <i name="ENMAX">    540.00000000</i>
   <i name="ENAUG">    535.51400000</i>
   <i name="EDIFF">      0.00000100</i>
   <i type="int" name="IALGO">    38</i>
   <i type="int" name="IWAVPR">    10</i>
   <i type="int" name="NBANDS">    48</i>
   <i type="int" name="NBANDSLOW">    -1</i>
   <i type="int" name="NBANDSHIGH">    -1</i>
   <i name="NELECT">     42.00000000</i>
   <i type="int" name="TURBO">     0</i>
   <i type="int" name="IRESTART">     0</i>
   <i type="int" name="NREBOOT">     0</i>
   <i type="int" name="NMIN">     0</i>
   <i name="EREF">      0.00000000</i>
   <separator name="electronic smearing" >
    <i type="int" name="ISMEAR">     0</i>
    <i name="SIGMA">      0.05000000</i>
    <i name="KSPACING">      0.50000000</i>
    <i type="logical" name="KGAMMA"> T  </i>
    <i type="logical" name="KBLOWUP"> T  </i>
   </separator>
   <separator name="electronic projectors" >
    <i type="logical" name="LREAL"> F  </i>
    <v name="ROPT">      0.00000000</v>
    <i type="int" name="LMAXPAW">  -100</i>
    <i type="int" name="LMAXMIX">     2</i>
    <i type="logical" name="NLSPLINE"> F  </i>
   </separator>
   <separator name="electronic startup" >
    <i type="int" name="ISTART">     0</i>
    <i type="int" name="ICHARG">     2</i>
    <i type="int" name="INIWAV">     1</i>
   </separator>
   <separator name="electronic spin" >
    <i type="int" name="ISPIN">     1</i>
    <i type="logical" name="LNONCOLLINEAR"> F  </i>
    <v name="MAGMOM">      1.00000000      1.00000000      1.00000000      1.00000000      1.00000000      1.00000000      1.00000000      1.00000000      1.00000000      1.00000000      1.00000000      1.00000000      1.00000000      1.00000000</v>
    <i name="NUPDOWN">     -1.00000000</i>
    <i type="logical" name="LSORBIT"> F  </i>
    <v name="SAXIS">      0.00000000      0.00000000      1.00000000</v>
    <i type="logical" name="LSPIRAL"> F  </i>
    <v name="QSPIRAL">      0.00000000      0.00000000      0.00000000</v>
    <i type="logical" name="LZEROZ"> F  </i>
   </separator>
   <separator name="electronic exchange-correlation" >
    <i type="logical" name="LASPH"> F  </i>
   </separator>
   <separator name="electronic convergence" >
    <i type="int" name="NELM">   100</i>
    <i type="int" name="NELMDL">    -5</i>
    <i type="int" name="NELMIN">     2</i>
    <i name="ENINI">    540.00000000</i>
    <separator name="electronic convergence detail" >
     <i type="logical" name="LDIAG"> T  </i>
     <i type="logical" name="LSUBROT"> F  </i>
     <i name="WEIMIN">      0.00000000</i>
     <i name="EBREAK">      0.00000001</i>
     <i name="DEPER">      0.30000000</i>
     <i type="int" name="NRMM">     4</i>
     <i name="TIME">      0.40000000</i>
    </separator>
   </separator>
   <separator name="electronic mixer" >
    <i name="AMIX">      0.40000000</i>
    <i name="BMIX">      1.00000000</i>
    <i name="AMIN">      0.10000000</i>
    <i name="AMIX_MAG">      1.60000000</i>
    <i name="BMIX_MAG">      1.00000000</i>
    <separator name="electronic mixer details" >
     <i type="int" name="IMIX">     4</i>
     <i type="logical" name="MIXFIRST"> F  </i>
     <i type="int" name="MAXMIX">   -45</i>
     <i name="WC">    100.00000000</i>
     <i type="int" name="INIMIX">     1</i>
     <i type="int" name="MIXPRE">     1</i>
     <i type="int" name="MREMOVE">     5</i>
    </separator>
   </separator>
   <separator name="electronic dipolcorrection" >
    <i type="logical" name="LDIPOL"> F  </i>
    <i type="logical" name="LMONO"> F  </i>
    <i type="int" name="IDIPOL">     0</i>
    <i name="EPSILON">      1.00000000</i>
    <v name="DIPOL">   -100.00000000   -100.00000000   -100.00000000</v>
    <i name="EFIELD">      0.00000000</i>
    <i type="logical" name="LVACPOTAV"> F  </i>
   </separator>
  </separator>
  <separator name="grids" >
   <i type="int" name="NGX">    48</i>
   <i type="int" name="NGY">    32</i>
   <i type="int" name="NGZ">    48</i>
   <i type="int" name="NGXF">    96</i>
   <i type="int" name="NGYF">    64</i>
   <i type="int" name="NGZF">    96</i>
   <i type="logical" name="ADDGRID"> F  </i>
  </separator>
  <separator name="ionic" >
   <i type="int" name="NSW">     0</i>
   <i type="int" name="IBRION">    -1</i>
   <i type="int" name="MDALGO">     0</i>
   <i type="int" name="ISIF">     2</i>
   <i name="PSTRESS">      0.00000000</i>
   <i name="EDIFFG">     -0.00100000</i>
   <i type="int" name="NFREE">     0</i>
   <i name="POTIM">      0.50000000</i>
   <i name="SMASS">     -3.00000000</i>
   <i name="SCALEE">      1.00000000</i>
  </separator>
  <separator name="ionic md" >
   <i name="TEBEG">      0.00010000</i>
   <i name="TEEND">      0.00010000</i>
   <i type="int" name="NBLOCK">     1</i>
   <i type="int" name="KBLOCK">     1</i>
   <i type="int" name="NPACO">   256</i>
   <i name="APACO">     10.00000000</i>
  </separator>
  <separator name="symmetry" >
   <i type="int" name="ISYM">     2</i>
   <i name="SYMPREC">      0.00001000</i>
  </separator>
  <separator name="dos" >
   <i type="int" name="LORBIT">     0</i>
   <v name="RWIGS">     -1.00000000</v>
   <i type="int" name="NEDOS">   301</i>
   <i name="EMIN">     10.00000000</i>
   <i name="EMAX">    -10.00000000</i>
   <i name="EFERMI">      0.00000000</i>
  </separator>
  <separator name="writing" >
   <i type="int" name="NWRITE">     2</i>
   <i type="logical" name="LWAVE"> F  </i>
   <i type="logical" name="LDOWNSAMPLE"> F  </i>
   <i type="logical" name="LCHARG"> F  </i>
   <i type="logical" name="LPARD"> F  </i>
   <i type="logical" name="LVTOT"> F  </i>
   <i type="logical" name="LVHAR"> F  </i>
   <i type="logical" name="LELF"> F  </i>
   <i type="logical" name="LOPTICS"> F  </i>
   <v name="STM">      0.00000000      0.00000000      0.00000000      0.00000000      0.00000000      0.00000000      0.00000000</v>
  </separator>
  <separator name="performance" >
   <i type="int" name="NPAR">    24</i>
   <i type="int" name="NSIM">     4</i>
   <i type="int" name="NBLK">    -1</i>
   <i type="logical" name="LPLANE"> T  </i>
   <i type="logical" name="LSCALAPACK"> T  </i>
   <i type="logical" name="LSCAAWARE"> F  </i>
   <i type="logical" name="LSCALU"> F  </i>
   <i type="logical" name="LASYNC"> F  </i>
   <i type="logical" name="LORBITALREAL"> F  </i>
  </separator>
  <separator name="miscellaneous" >
   <i type="int" name="IDIOT">     3</i>
   <i type="int" name="PHON_NSTRUCT">    -1</i>
   <i type="logical" name="LMUSIC"> F  </i>
   <v name="POMASS">     10.81100000</v>
   <v name="DARWINR">      0.00000000</v>
   <v name="DARWINV">      1.00000000</v>
   <i type="logical" name="LCORR"> T  </i>
  </separator>
  <i type="logical" name="GGA_COMPAT"> T  </i>
  <i type="logical" name="LBERRY"> F  </i>
  <i type="int" name="ICORELEVEL">     0</i>
  <i type="logical" name="LDAU"> F  </i>
  <i type="int" name="I_CONSTRAINED_M">     0</i>
  <separator name="electronic exchange-correlation" >
   <i type="string" name="GGA    ">PE</i>
   <i type="string" name="XC_C">1</i>
   <i type="int" name="VOSKOWN">     0</i>
   <i type="logical" name="LHFCALC"> F  </i>
   <i type="string" name="PRECFOCK"></i>
   <i type="logical" name="LSYMGRAD"> F  </i>
   <i type="logical" name="LHFONE"> F  </i>
   <i type="logical" name="LRHFCALC"> F  </i>
   <i type="logical" name="LTHOMAS"> F  </i>
   <i type="logical" name="LMODELHF"> F  </i>
   <i type="logical" name="LFOCKACE"> F  </i>
   <i name="ENCUT4O">     -1.00000000</i>
   <i type="int" name="EXXOEP">     0</i>
   <i type="int" name="FOURORBIT">     0</i>
   <i name="AEXX">      0.00000000</i>
   <i name="HFALPHA">      0.00000000</i>
   <i name="MCALPHA">      0.00000000</i>
   <i name="ALDAX">      1.00000000</i>
   <i name="AGGAX">      1.00000000</i>
   <i name="AMGGAX">      1.00000000</i>
   <i name="ALDAC">      1.00000000</i>
   <i name="AGGAC">      1.00000000</i>
   <i name="AMGGAC">      1.00000000</i>
   <i type="int" name="NKREDX">     1</i>
   <i type="int" name="NKREDY">     1</i>
   <i type="int" name="NKREDZ">     1</i>
   <i type="logical" name="SHIFTRED"> F  </i>
   <i type="logical" name="ODDONLY"> F  </i>
   <i type="logical" name="EVENONLY"> F  </i>
   <i type="int" name="LMAXFOCK">     0</i>
   <i type="int" name="NMAXFOCKAE">     0</i>
   <i type="logical" name="LFOCKAEDFT"> F  </i>
   <i name="HFSCREEN">      0.00000000</i>
   <i name="HFSCREENC">      0.00000000</i>
   <i type="int" name="NBANDSGWLOW">     0</i>
  </separator>
  <separator name="vdW DFT" >
   <i type="logical" name="LUSE_VDW"> F  </i>
   <i type="int" name="IVDW_NL">    -1</i>
   <i type="logical" name="LSPIN_VDW"> F  </i>
   <i name="ZAB_VDW">     -0.84910000</i>
   <i name="GAMMA_VDW">      1.39626340</i>
   <i name="ALPHA_VDW">      0.00000000</i>
   <i name="PARAM1">      0.12340000</i>
   <i name="PARAM2">      1.00000000</i>
   <i name="BPARAM">      6.30000000</i>
   <i name="CPARAM">      0.00930000</i>
  </separator>
  <separator name="model GW" >
   <i type="int" name="MODEL_GW">     0</i>
   <i name="MODEL_EPS0">      6.13175789</i>
   <i name="MODEL_ALPHA">      1.00000000</i>
  </separator>
  <separator name="linear response parameters" >
   <i type="logical" name="LEPSILON"> F  </i>
   <i type="logical" name="LRPA"> F  </i>
   <i type="logical" name="LNABLA"> F  </i>
   <i type="logical" name="LVEL"> F  </i>
   <i name="CSHIFT">      0.10000000</i>
   <i name="OMEGAMAX">     -1.00000000</i>
   <i name="DEG_THRESHOLD">      0.00200000</i>
   <i name="RTIME">     -0.10000000</i>
   <i name="WPLASMAI">      0.00000000</i>
   <v name="DFIELD">      0.00000000      0.00000000      0.00000000</v>
   <v name="WPLASMA">      0.00000000      0.00000000      0.00000000      0.00000000      0.00000000      0.00000000      0.00000000      0.00000000      0.00000000</v>
  </separator>
  <separator name="orbital magnetization" >
   <i type="logical" name="NUCIND"> F  </i>
   <v name="MAGPOS">      0.00000000      0.00000000      0.00000000</v>
   <i type="logical" name="LNICSALL"> T  </i>
   <i type="logical" name="ORBITALMAG"> F  </i>
   <i type="logical" name="LMAGBLOCH"> F  </i>
   <i type="logical" name="LCHIMAG"> F  </i>
   <i type="logical" name="LGAUGE"> T  </i>
   <i type="int" name="MAGATOM">     0</i>
   <v name="MAGDIPOL">      0.00000000      0.00000000      0.00000000</v>
   <v name="AVECCONST">      0.00000000      0.00000000      0.00000000</v>
  </separator>
  <separator name="response functions" >
   <i type="logical" name="LALL_IN_ONE"> F  </i>
   <i type="int" name="IALL_IN_ONE">    -1</i>
   <i type="int" name="NBANDS_WAVE">    -1</i>
   <i type="logical" name="LFINITE_TEMPERATURE"> F  </i>
   <i type="logical" name="LADDER"> F  </i>
   <i type="logical" name="LRPAFORCE"> F  </i>
   <i type="logical" name="LFXC"> F  </i>
   <i type="logical" name="LHARTREE"> T  </i>
   <i type="int" name="IBSE">     0</i>
   <v type="int" name="KPOINT">    -1     0     0     0</v>
   <i type="logical" name="LTCTC"> F  </i>
   <i type="logical" name="LTCTE"> F  </i>
   <i type="logical" name="LTETE"> F  </i>
   <i type="logical" name="LTRIPLET"> F  </i>
   <i type="logical" name="LFXCEPS"> F  </i>
   <i type="logical" name="LFXHEG"> F  </i>
   <i type="int" name="NATURALO">     2</i>
   <i type="logical" name="LHOLEGF"> F  </i>
   <i type="logical" name="L2ORDER"> F  </i>
   <i type="logical" name="LDMP1"> F  </i>
   <i type="logical" name="LMP2LT"> F  </i>
   <i type="logical" name="LSMP2LT"> F  </i>
   <i type="logical" name="LGWLF"> F  </i>
   <i name="ENCUTGW">     -1.60000002</i>
   <i name="ENCUTGWSOFT">     -1.60000002</i>
   <i name="ENCUTLF">     -1.00000000</i>
   <i type="logical" name="ESF_SPLINES"> F  </i>
   <i name="ESF_CONV">      0.01000000</i>
   <i type="int" name="ESF_NINTER">    15</i>
   <i type="int" name="LMAXMP2">    -1</i>
   <i name="SCISSOR">      0.00000000</i>
   <i type="int" name="NOMEGA">     0</i>
   <i type="int" name="NOMEGAR">     0</i>
   <i type="int" name="NBANDSGW">    -1</i>
   <i type="int" name="NBANDSO">    -1</i>
   <i type="int" name="NBANDSV">    -1</i>
   <i type="int" name="NELMGW">     1</i>
   <i type="int" name="NELMHF">     1</i>
   <i type="int" name="DIM">     3</i>
   <i type="int" name="IESPILON">     4</i>
   <i type="int" name="ANTIRES">     0</i>
   <i name="OMEGAMAX">    -30.00000000</i>
   <i name="OMEGAMIN">    -30.00000000</i>
   <i name="OMEGATL">   -200.00000000</i>
   <i type="int" name="OMEGAGRID">     0</i>
   <i name="CSHIFT">     -0.10000000</i>
   <i type="logical" name="LSELFENERGY"> F  </i>
   <i type="logical" name="LSPECTRAL"> F  </i>
   <i type="logical" name="LSPECTRALGW"> F  </i>
   <i type="logical" name="LSINGLES"> F  </i>
   <i type="logical" name="LFERMIGW"> F  </i>
   <i type="logical" name="ODDONLYGW"> F  </i>
   <i type="logical" name="EVENONLYGW"> F  </i>
   <i type="int" name="NKREDLFX">     1</i>
   <i type="int" name="NKREDLFY">     1</i>
   <i type="int" name="NKREDLFZ">     1</i>
   <i type="int" name="MAXMEM">  2800</i>
   <i type="int" name="TELESCOPE">     0</i>
   <i type="int" name="NTAUPAR">    -1</i>
   <i type="int" name="NOMEGAPAR">    -1</i>
   <i name="DAMP_NEWTON">      0.80000001</i>
   <i name="LAMBDA">      1.00000000</i>
  </separator>
  <separator name="External order field" >
   <i name="OFIELD_KAPPA">      0.00000000</i>
   <v name="OFIELD_K">      0.00000000      0.00000000      0.00000000</v>
   <i name="OFIELD_Q6_NEAR">      0.00000000</i>
   <i name="OFIELD_Q6_FAR">      0.00000000</i>
   <i name="OFIELD_A">      0.00000000</i>
  </separator>
  <separator name="optional k-points parameters" >
   <i type="int" name="KPOINTS_OPT_MODE">     1</i>
   <i type="logical" name="LKPOINTS_OPT"> F  </i>
  </separator>
 </parameters>
 <atominfo>
  <atoms>      14 </atoms>
  <types>       1 </types>
  <array name="atoms" >
   <dimension dim="1">ion</dimension>
   <field type="string">element</field>
   <field type="int">atomtype</field>
   <set>
    <rc><c>B </c><c>   1</c></rc>
    <rc><c>B </c><c>   1</c></rc>
    <rc><c>B </c><c>   1</c></rc>
    <rc><c>B </c><c>   1</c></rc>
    <rc><c>B </c><c>   1</c></rc>
    <rc><c>B </c><c>   1</c></rc>
    <rc><c>B </c><c>   1</c></rc>
    <rc><c>B </c><c>   1</c></rc>
    <rc><c>B </c><c>   1</c></rc>
    <rc><c>B </c><c>   1</c></rc>
    <rc><c>B </c><c>   1</c></rc>
    <rc><c>B </c><c>   1</c></rc>
    <rc><c>B </c><c>   1</c></rc>
    <rc><c>B </c><c>   1</c></rc>
   </set>
  </array>
  <array name="atomtypes" >
   <dimension dim="1">type</dimension>
   <field type="int">atomspertype</field>
   <field type="string">element</field>
   <field>mass</field>
   <field>valence</field>
   <field type="string">pseudopotential</field>
   <set>
    <rc><c>  14</c><c>B </c><c>     10.81100000</c><c>      3.00000000</c><c>  PAW_PBE B 06Sep2000                   </c></rc>
   </set>
  </array>
 </atominfo>
 <structure name="initialpos" >
  <crystal>
   <varray name="basis" >
    <v>       5.69700000       0.00000000       0.00000000 </v>
    <v>       0.00000000       4.04790000       0.00000000 </v>
    <v>       0.00000000       0.00000000       6.20420000 </v>
   </varray>
   <i name="volume">    143.07435078 </i>
   <varray name="rec_basis" >
    <v>       0.17553098       0.00000000       0.00000000 </v>
    <v>       0.00000000       0.24704168       0.00000000 </v>
    <v>       0.00000000       0.00000000       0.16118114 </v>
   </varray>
  </crystal>
  <varray name="positions" >
   <v>       0.52123000       0.50000000       0.63796000 </v>
   <v>       0.47877000       0.50000000       0.36204000 </v>
   <v>       0.97877000       0.50000000       0.63796000 </v>
   <v>       0.02123000       0.50000000       0.36204000 </v>
   <v>       0.60090000       0.50000000       0.89991000 </v>
   <v>       0.39910000       0.50000000       0.10009000 </v>
   <v>       0.89910000       0.50000000       0.89991000 </v>
   <v>       0.10090000       0.50000000       0.10009000 </v>
   <v>       0.75000000       0.79171000       0.72973000 </v>
   <v>       0.25000000       0.20829000       0.27027000 </v>
   <v>       0.75000000       0.20829000       0.72973000 </v>
   <v>       0.25000000       0.79171000       0.27027000 </v>
   <v>       0.25000000       0.50000000       0.52367000 </v>
   <v>       0.75000000       0.50000000       0.47633000 </v>
  </varray>
 </structure>
 <calculation>
  <scstep>
   <time name="dav">    5.12    5.12</time>
   <time name="total">    5.14    5.14</time>
   <energy>
    <i name="alphaZ">     94.24357992 </i>
    <i name="ewald">   -795.76658092 </i>
    <i name="hartreedc">   -271.33601302 </i>
    <i name="XCdc">     97.50108037 </i>
    <i name="pawpsdc">    608.99811708 </i>
    <i name="pawaedc">   -597.02363782 </i>
    <i name="eentropy">     -0.00262031 </i>
    <i name="bandstr">    -65.75808308 </i>
    <i name="atom">    996.37065227 </i>
    <i name="e_fr_energy">     67.22649449 </i>
    <i name="e_wo_entrp">     67.22911480 </i>
    <i name="e_0_energy">     67.22780465 </i>
   </energy>
  </scstep>
  <scstep>
   <time name="dav">    6.64    6.64</time>
   <time name="total">    6.64    6.65</time>
   <energy>
    <i name="e_fr_energy">    -92.33862261 </i>
    <i name="e_wo_entrp">    -92.33432487 </i>
    <i name="e_0_energy">    -92.33647374 </i>
   </energy>
  </scstep>
  <scstep>
   <time name="dav">    7.06    7.06</time>
   <time name="total">    7.06    7.06</time>
   <energy>
    <i name="e_fr_energy">    -97.60169633 </i>
    <i name="e_wo_entrp">    -97.59803879 </i>
    <i name="e_0_energy">    -97.59986756 </i>
   </energy>
  </scstep>
  <scstep>
   <time name="dav">    5.87    5.87</time>
   <time name="total">    5.87    5.88</time>
   <energy>
    <i name="e_fr_energy">    -97.63249065 </i>
    <i name="e_wo_entrp">    -97.62883492 </i>
    <i name="e_0_energy">    -97.63066279 </i>
   </energy>
  </scstep>
  <scstep>
   <time name="dav">    7.04    7.04</time>
   <time name="total">    7.14    7.14</time>
   <energy>
    <i name="e_fr_energy">    -97.63283922 </i>
    <i name="e_wo_entrp">    -97.62918350 </i>
    <i name="e_0_energy">    -97.63101136 </i>
   </energy>
  </scstep>
  <scstep>
   <time name="dav">    6.96    6.96</time>
   <time name="total">    7.06    7.06</time>
   <energy>
    <i name="e_fr_energy">    -92.21739463 </i>
    <i name="e_wo_entrp">    -92.21396352 </i>
    <i name="e_0_energy">    -92.21567907 </i>
   </energy>
  </scstep>
  <scstep>
   <time name="dav">    7.20    7.20</time>
   <time name="total">    7.30    7.30</time>
   <energy>
    <i name="e_fr_energy">    -90.56599900 </i>
    <i name="e_wo_entrp">    -90.56286455 </i>
    <i name="e_0_energy">    -90.56443177 </i>
   </energy>
  </scstep>
  <scstep>
   <time name="dav">    5.41    5.41</time>
   <time name="total">    5.50    5.50</time>
   <energy>
    <i name="e_fr_energy">    -90.57839620 </i>
    <i name="e_wo_entrp">    -90.57521863 </i>
    <i name="e_0_energy">    -90.57680742 </i>
   </energy>
  </scstep>
  <scstep>
   <time name="dav">    6.71    6.71</time>
   <time name="total">    6.81    6.81</time>
   <energy>
    <i name="e_fr_energy">    -90.59256935 </i>
    <i name="e_wo_entrp">    -90.58930555 </i>
    <i name="e_0_energy">    -90.59093745 </i>
   </energy>
  </scstep>
  <scstep>
   <time name="dav">    5.58    5.58</time>
   <time name="total">    5.68    5.68</time>
   <energy>
    <i name="e_fr_energy">    -90.59661537 </i>
    <i name="e_wo_entrp">    -90.59339775 </i>
    <i name="e_0_energy">    -90.59500656 </i>
   </energy>
  </scstep>
  <scstep>
   <time name="dav">    6.19    6.19</time>
   <time name="total">    6.28    6.28</time>
   <energy>
    <i name="e_fr_energy">    -90.59768017 </i>
    <i name="e_wo_entrp">    -90.59447331 </i>
    <i name="e_0_energy">    -90.59607674 </i>
   </energy>
  </scstep>
  <scstep>
   <time name="dav">    6.01    6.01</time>
   <time name="total">    6.11    6.11</time>
   <energy>
    <i name="e_fr_energy">    -90.59779478 </i>
    <i name="e_wo_entrp">    -90.59458172 </i>
    <i name="e_0_energy">    -90.59618825 </i>
   </energy>
  </scstep>
  <scstep>
   <time name="dav">    6.72    6.72</time>
   <time name="total">    6.82    6.82</time>
   <energy>
    <i name="e_fr_energy">    -90.59779952 </i>
    <i name="e_wo_entrp">    -90.59458617 </i>
    <i name="e_0_energy">    -90.59619285 </i>
   </energy>
  </scstep>
  <scstep>
   <time name="dav">    6.04    6.04</time>
   <time name="total">    6.05    6.05</time>
   <energy>
    <i name="alphaZ">     94.24357992 </i>
    <i name="ewald">   -795.76658092 </i>
    <i name="hartreedc">   -349.10232826 </i>
    <i name="XCdc">    101.59272365 </i>
    <i name="pawpsdc">   3735.27871923 </i>
    <i name="pawaedc">  -3724.46793886 </i>
    <i name="eentropy">     -0.00321346 </i>
    <i name="bandstr">   -148.74341377 </i>
    <i name="atom">    996.37065227 </i>
    <i name="e_fr_energy">    -90.59780018 </i>
    <i name="e_wo_entrp">    -90.59458672 </i>
    <i name="e_0_energy">    -90.59619345 </i>
   </energy>
  </scstep>
  <structure>
   <crystal>
    <varray name="basis" >
     <v>       5.69700000       0.00000000       0.00000000 </v>
     <v>       0.00000000       4.04790000       0.00000000 </v>
     <v>       0.00000000       0.00000000       6.20420000 </v>
    </varray>
    <i name="volume">    143.07435078 </i>
    <varray name="rec_basis" >
     <v>       0.17553098       0.00000000       0.00000000 </v>
     <v>       0.00000000       0.24704168       0.00000000 </v>
     <v>       0.00000000       0.00000000       0.16118114 </v>
    </varray>
   </crystal>
   <varray name="positions" >
    <v>       0.52123000       0.50000000       0.63796000 </v>
    <v>       0.47877000       0.50000000       0.36204000 </v>
    <v>       0.97877000       0.50000000       0.63796000 </v>
    <v>       0.02123000       0.50000000       0.36204000 </v>
    <v>       0.60090000       0.50000000       0.89991000 </v>
    <v>       0.39910000       0.50000000       0.10009000 </v>
    <v>       0.89910000       0.50000000       0.89991000 </v>
    <v>       0.10090000       0.50000000       0.10009000 </v>
    <v>       0.75000000       0.79171000       0.72973000 </v>
    <v>       0.25000000       0.20829000       0.27027000 </v>
    <v>       0.75000000       0.20829000       0.72973000 </v>
    <v>       0.25000000       0.79171000       0.27027000 </v>
    <v>       0.25000000       0.50000000       0.52367000 </v>
    <v>       0.75000000       0.50000000       0.47633000 </v>
   </varray>
  </structure>
  <varray name="forces" >
   <v>      -0.00503252       0.00000000       0.05170738 </v>
   <v>       0.00503252       0.00000000      -0.05170738 </v>
   <v>       0.00503252       0.00000000       0.05170738 </v>
   <v>      -0.00503252       0.00000000      -0.05170738 </v>
   <v>      -0.83233080       0.00000000       0.27731751 </v>
   <v>       0.83233080       0.00000000      -0.27731751 </v>
   <v>       0.83233080       0.00000000       0.27731751 </v>
   <v>      -0.83233080       0.00000000      -0.27731751 </v>
   <v>       0.00000000       0.05961711      -0.07772926 </v>
   <v>       0.00000000      -0.05961711       0.07772926 </v>
   <v>       0.00000000      -0.05961711      -0.07772926 </v>
   <v>      -0.00000000       0.05961711       0.07772926 </v>
   <v>      -0.00000000       0.00000000       0.07389069 </v>
   <v>      -0.00000000       0.00000000      -0.07389069 </v>
  </varray>
  <varray name="stress" >
   <v>      14.16285793       0.00000000       0.00000000 </v>
   <v>       0.00000000       0.68736407       0.00000000 </v>
   <v>       0.00000000       0.00000000      -6.96913884 </v>
  </varray>
  <energy>
   <i name="e_fr_energy">    -90.59780018 </i>
   <i name="e_wo_entrp">    -90.59458672 </i>
   <i name="e_0_energy">    -90.59619345 </i>
  </energy>
  <time name="totalsc">   93.53   93.55</time>
  <eigenvalues>
   <array>
    <dimension dim="1">band</dimension>
    <dimension dim="2">kpoint</dimension>
    <dimension dim="3">spin</dimension>
    <field>eigene</field>
    <field>occ</field>
    <set>
     <set comment="spin 1">
      <set comment="kpoint 1">
       <r>  -12.7249    1.0000 </r>
       <r>  -11.5829    1.0000 </r>
       <r>   -8.6578    1.0000 </r>
       <r>   -8.4211    1.0000 </r>
       <r>   -6.0635    1.0000 </r>
       <r>   -5.1297    1.0000 </r>
       <r>   -4.6654    1.0000 </r>
       <r>   -4.2746    1.0000 </r>
       <r>   -4.0326    1.0000 </r>
       <r>   -3.5435    1.0000 </r>
       <r>   -2.5932    1.0000 </r>
       <r>   -2.3242    1.0000 </r>
       <r>   -1.8330    1.0000 </r>
       <r>   -1.0954    1.0000 </r>
       <r>   -0.0692    1.0000 </r>
       <r>   -0.0390    1.0000 </r>
       <r>    0.1568    1.0000 </r>
       <r>    0.1783    1.0000 </r>
       <r>    0.5664    1.0000 </r>
       <r>    2.0195    0.0001 </r>
       <r>    2.0825    0.0000 </r>
       <r>    2.2177    0.0000 </r>
       <r>    5.4584    0.0000 </r>
       <r>    5.7497    0.0000 </r>
       <r>    5.8388    0.0000 </r>
       <r>    5.9598    0.0000 </r>
       <r>    6.8150    0.0000 </r>
       <r>    7.5490    0.0000 </r>
       <r>    7.8784    0.0000 </r>
       <r>    8.5358    0.0000 </r>
       <r>    8.8027    0.0000 </r>
       <r>    8.9501    0.0000 </r>
       <r>    9.0524    0.0000 </r>
       <r>   10.1234    0.0000 </r>
       <r>   11.1840    0.0000 </r>
       <r>   11.3350    0.0000 </r>
       <r>   11.6652    0.0000 </r>
       <r>   11.7822    0.0000 </r>
       <r>   11.9414    0.0000 </r>
       <r>   12.4036    0.0000 </r>
       <r>   12.8687    0.0000 </r>
       <r>   13.4528    0.0000 </r>
       <r>   13.4801    0.0000 </r>
       <r>   15.3816    0.0000 </r>
       <r>   15.5710    0.0000 </r>
       <r>   16.0616    0.0000 </r>
       <r>   16.3332    0.0000 </r>
       <r>   16.3565    0.0000 </r>
      </set>
      <set comment="kpoint 2">
       <r>  -12.6812    1.0000 </r>
       <r>  -11.6567    1.0000 </r>
       <r>   -8.6367    1.0000 </r>
       <r>   -8.4096    1.0000 </r>
       <r>   -5.9953    1.0000 </r>
       <r>   -5.4708    1.0000 </r>
       <r>   -4.7880    1.0000 </r>
       <r>   -4.0092    1.0000 </r>
       <r>   -3.7916    1.0000 </r>
       <r>   -3.2059    1.0000 </r>
       <r>   -2.6634    1.0000 </r>
       <r>   -2.3041    1.0000 </r>
       <r>   -1.9117    1.0000 </r>
       <r>   -1.4023    1.0000 </r>
       <r>   -0.0288    1.0000 </r>
       <r>   -0.0177    1.0000 </r>
       <r>    0.0944    1.0000 </r>
       <r>    0.1987    1.0000 </r>
       <r>    0.4713    1.0000 </r>
       <r>    1.9332    0.0843 </r>
       <r>    2.0046    0.0003 </r>
       <r>    2.0965    0.0000 </r>
       <r>    5.5472    0.0000 </r>
       <r>    5.7581    0.0000 </r>
       <r>    5.8665    0.0000 </r>
       <r>    6.3054    0.0000 </r>
       <r>    6.7295    0.0000 </r>
       <r>    7.1872    0.0000 </r>
       <r>    8.0883    0.0000 </r>
       <r>    8.6722    0.0000 </r>
       <r>    9.0595    0.0000 </r>
       <r>    9.1318    0.0000 </r>
       <r>    9.2045    0.0000 </r>
       <r>   10.2363    0.0000 </r>
       <r>   10.9426    0.0000 </r>
       <r>   11.1310    0.0000 </r>
       <r>   11.2571    0.0000 </r>
       <r>   11.6992    0.0000 </r>
       <r>   12.1586    0.0000 </r>
       <r>   12.4930    0.0000 </r>
       <r>   13.1216    0.0000 </r>
       <r>   13.1281    0.0000 </r>
       <r>   14.0115    0.0000 </r>
       <r>   14.8698    0.0000 </r>
       <r>   15.7505    0.0000 </r>
       <r>   15.8294    0.0000 </r>
       <r>   16.2268    0.0000 </r>
       <r>   16.5137    0.0000 </r>
      </set>
      <set comment="kpoint 3">
       <r>  -12.5955    1.0000 </r>
       <r>  -11.7897    1.0000 </r>
       <r>   -8.5932    1.0000 </r>
       <r>   -8.3949    1.0000 </r>
       <r>   -5.9737    1.0000 </r>
       <r>   -5.7975    1.0000 </r>
       <r>   -4.7421    1.0000 </r>
       <r>   -3.8818    1.0000 </r>
       <r>   -3.2806    1.0000 </r>
       <r>   -2.8322    1.0000 </r>
       <r>   -2.7135    1.0000 </r>
       <r>   -2.2637    1.0000 </r>
       <r>   -2.0224    1.0000 </r>
       <r>   -1.9067    1.0000 </r>
       <r>   -0.2187    1.0000 </r>
       <r>    0.0147    1.0000 </r>
       <r>    0.1443    1.0000 </r>
       <r>    0.1577    1.0000 </r>
       <r>    0.4410    1.0000 </r>
       <r>    1.7856    0.9974 </r>
       <r>    1.8668    0.6920 </r>
       <r>    1.8718    0.6407 </r>
       <r>    5.6680    0.0000 </r>
       <r>    5.7146    0.0000 </r>
       <r>    6.1756    0.0000 </r>
       <r>    6.6034    0.0000 </r>
       <r>    6.7639    0.0000 </r>
       <r>    6.9326    0.0000 </r>
       <r>    8.2392    0.0000 </r>
       <r>    8.8206    0.0000 </r>
       <r>    9.0008    0.0000 </r>
       <r>    9.5759    0.0000 </r>
       <r>    9.6484    0.0000 </r>
       <r>   10.2814    0.0000 </r>
       <r>   10.4864    0.0000 </r>
       <r>   10.6262    0.0000 </r>
       <r>   11.3775    0.0000 </r>
       <r>   11.8413    0.0000 </r>
       <r>   12.3935    0.0000 </r>
       <r>   12.5664    0.0000 </r>
       <r>   12.7935    0.0000 </r>
       <r>   12.9189    0.0000 </r>
       <r>   14.6371    0.0000 </r>
       <r>   14.9185    0.0000 </r>
       <r>   15.2262    0.0000 </r>
       <r>   15.9835    0.0000 </r>
       <r>   16.0024    0.0000 </r>
       <r>   16.2913    0.0000 </r>
      </set>
      <set comment="kpoint 4">
       <r>  -12.4720    1.0000 </r>
       <r>  -11.9590    1.0000 </r>
       <r>   -8.5314    1.0000 </r>
       <r>   -8.3917    1.0000 </r>
       <r>   -6.0544    1.0000 </r>
       <r>   -6.0305    1.0000 </r>
       <r>   -4.4146    1.0000 </r>
       <r>   -3.7128    1.0000 </r>
       <r>   -3.0263    1.0000 </r>
       <r>   -2.8961    1.0000 </r>
       <r>   -2.4435    1.0000 </r>
       <r>   -2.2522    1.0000 </r>
       <r>   -2.1453    1.0000 </r>
       <r>   -2.1235    1.0000 </r>
       <r>   -0.5178    1.0000 </r>
       <r>   -0.2445    1.0000 </r>
       <r>    0.1734    1.0000 </r>
       <r>    0.2488    1.0000 </r>
       <r>    0.6141    1.0000 </r>
       <r>    1.5310    1.0000 </r>
       <r>    1.6628    1.0000 </r>
       <r>    1.7235    1.0000 </r>
       <r>    5.6993    0.0000 </r>
       <r>    5.7533    0.0000 </r>
       <r>    6.5021    0.0000 </r>
       <r>    6.6736    0.0000 </r>
       <r>    6.6996    0.0000 </r>
       <r>    7.4138    0.0000 </r>
       <r>    8.3636    0.0000 </r>
       <r>    8.6895    0.0000 </r>
       <r>    8.8099    0.0000 </r>
       <r>    9.5357    0.0000 </r>
       <r>   10.0566    0.0000 </r>
       <r>   10.1190    0.0000 </r>
       <r>   10.3990    0.0000 </r>
       <r>   11.1495    0.0000 </r>
       <r>   11.4051    0.0000 </r>
       <r>   11.9466    0.0000 </r>
       <r>   12.2048    0.0000 </r>
       <r>   12.2762    0.0000 </r>
       <r>   12.5217    0.0000 </r>
       <r>   13.2579    0.0000 </r>
       <r>   14.7137    0.0000 </r>
       <r>   14.9774    0.0000 </r>
       <r>   15.2641    0.0000 </r>
       <r>   15.3752    0.0000 </r>
       <r>   15.5737    0.0000 </r>
       <r>   16.3778    0.0000 </r>
      </set>
      <set comment="kpoint 5">
       <r>  -12.3173    1.0000 </r>
       <r>  -12.1414    1.0000 </r>
       <r>   -8.4652    1.0000 </r>
       <r>   -8.4143    1.0000 </r>
       <r>   -6.1441    1.0000 </r>
       <r>   -6.1397    1.0000 </r>
       <r>   -3.8992    1.0000 </r>
       <r>   -3.5035    1.0000 </r>
       <r>   -3.2998    1.0000 </r>
       <r>   -3.2654    1.0000 </r>
       <r>   -2.3611    1.0000 </r>
       <r>   -2.2326    1.0000 </r>
       <r>   -1.9609    1.0000 </r>
       <r>   -1.9078    1.0000 </r>
       <r>   -0.7383    1.0000 </r>
       <r>   -0.6028    1.0000 </r>
       <r>    0.2566    1.0000 </r>
       <r>    0.2902    1.0000 </r>
       <r>    0.8749    1.0000 </r>
       <r>    1.1922    1.0000 </r>
       <r>    1.5823    1.0000 </r>
       <r>    1.6097    1.0000 </r>
       <r>    5.7273    0.0000 </r>
       <r>    5.7646    0.0000 </r>
       <r>    6.4805    0.0000 </r>
       <r>    6.5445    0.0000 </r>
       <r>    7.3688    0.0000 </r>
       <r>    8.0748    0.0000 </r>
       <r>    8.0963    0.0000 </r>
       <r>    8.4813    0.0000 </r>
       <r>    8.6200    0.0000 </r>
       <r>    8.7905    0.0000 </r>
       <r>   10.5020    0.0000 </r>
       <r>   10.5183    0.0000 </r>
       <r>   10.7617    0.0000 </r>
       <r>   11.2198    0.0000 </r>
       <r>   11.4043    0.0000 </r>
       <r>   11.6005    0.0000 </r>
       <r>   11.9341    0.0000 </r>
       <r>   12.4831    0.0000 </r>
       <r>   12.7172    0.0000 </r>
       <r>   13.2533    0.0000 </r>
       <r>   14.5913    0.0000 </r>
       <r>   14.7358    0.0000 </r>
       <r>   14.8699    0.0000 </r>
       <r>   14.9287    0.0000 </r>
       <r>   16.1027    0.0000 </r>
       <r>   16.4472    0.0000 </r>
      </set>
      <set comment="kpoint 6">
       <r>  -12.7009    1.0000 </r>
       <r>  -11.5614    1.0000 </r>
       <r>   -8.6390    1.0000 </r>
       <r>   -8.3979    1.0000 </r>
       <r>   -6.0367    1.0000 </r>
       <r>   -5.0960    1.0000 </r>
       <r>   -4.6434    1.0000 </r>
       <r>   -4.5728    1.0000 </r>
       <r>   -4.1766    1.0000 </r>
       <r>   -3.5206    1.0000 </r>
       <r>   -3.2865    1.0000 </r>
       <r>   -1.7933    1.0000 </r>
       <r>   -1.0908    1.0000 </r>
       <r>   -1.0342    1.0000 </r>
       <r>   -0.3030    1.0000 </r>
       <r>   -0.2750    1.0000 </r>
       <r>    0.1703    1.0000 </r>
       <r>    0.2486    1.0000 </r>
       <r>    0.6447    1.0000 </r>
       <r>    1.7516    0.9999 </r>
       <r>    1.8316    0.9330 </r>
       <r>    2.2699    0.0000 </r>
       <r>    5.5768    0.0000 </r>
       <r>    5.7084    0.0000 </r>
       <r>    5.7422    0.0000 </r>
       <r>    6.0076    0.0000 </r>
       <r>    7.1010    0.0000 </r>
       <r>    7.8346    0.0000 </r>
       <r>    8.0774    0.0000 </r>
       <r>    8.1885    0.0000 </r>
       <r>    8.8068    0.0000 </r>
       <r>    9.0996    0.0000 </r>
       <r>    9.1507    0.0000 </r>
       <r>   10.5757    0.0000 </r>
       <r>   11.2664    0.0000 </r>
       <r>   11.3992    0.0000 </r>
       <r>   11.5991    0.0000 </r>
       <r>   11.8850    0.0000 </r>
       <r>   12.0520    0.0000 </r>
       <r>   12.6839    0.0000 </r>
       <r>   12.8689    0.0000 </r>
       <r>   13.1895    0.0000 </r>
       <r>   13.1956    0.0000 </r>
       <r>   15.3313    0.0000 </r>
       <r>   15.3810    0.0000 </r>
       <r>   15.8585    0.0000 </r>
       <r>   15.8691    0.0000 </r>
       <r>   16.2207    0.0000 </r>
      </set>
      <set comment="kpoint 7">
       <r>  -12.6572    1.0000 </r>
       <r>  -11.6350    1.0000 </r>
       <r>   -8.6178    1.0000 </r>
       <r>   -8.3868    1.0000 </r>
       <r>   -5.9667    1.0000 </r>
       <r>   -5.4407    1.0000 </r>
       <r>   -4.7679    1.0000 </r>
       <r>   -4.4900    1.0000 </r>
       <r>   -3.7523    1.0000 </r>
       <r>   -3.3673    1.0000 </r>
       <r>   -3.1678    1.0000 </r>
       <r>   -1.7716    1.0000 </r>
       <r>   -1.3969    1.0000 </r>
       <r>   -1.1534    1.0000 </r>
       <r>   -0.2640    1.0000 </r>
       <r>   -0.1943    1.0000 </r>
       <r>    0.1378    1.0000 </r>
       <r>    0.2201    1.0000 </r>
       <r>    0.5420    1.0000 </r>
       <r>    1.6711    1.0000 </r>
       <r>    1.7551    0.9999 </r>
       <r>    2.1391    0.0000 </r>
       <r>    5.6526    0.0000 </r>
       <r>    5.8070    0.0000 </r>
       <r>    5.9357    0.0000 </r>
       <r>    6.1123    0.0000 </r>
       <r>    7.0176    0.0000 </r>
       <r>    7.5094    0.0000 </r>
       <r>    8.2233    0.0000 </r>
       <r>    8.3592    0.0000 </r>
       <r>    9.1307    0.0000 </r>
       <r>    9.1611    0.0000 </r>
       <r>    9.4165    0.0000 </r>
       <r>   10.5008    0.0000 </r>
       <r>   10.8738    0.0000 </r>
       <r>   11.0835    0.0000 </r>
       <r>   11.4538    0.0000 </r>
       <r>   11.8721    0.0000 </r>
       <r>   12.2717    0.0000 </r>
       <r>   12.7390    0.0000 </r>
       <r>   12.8672    0.0000 </r>
       <r>   13.1522    0.0000 </r>
       <r>   13.7288    0.0000 </r>
       <r>   14.9550    0.0000 </r>
       <r>   15.3986    0.0000 </r>
       <r>   15.7504    0.0000 </r>
       <r>   15.7960    0.0000 </r>
       <r>   16.4008    0.0000 </r>
      </set>
      <set comment="kpoint 8">
       <r>  -12.5718    1.0000 </r>
       <r>  -11.7677    1.0000 </r>
       <r>   -8.5740    1.0000 </r>
       <r>   -8.3728    1.0000 </r>
       <r>   -5.9424    1.0000 </r>
       <r>   -5.7671    1.0000 </r>
       <r>   -4.7254    1.0000 </r>
       <r>   -4.3814    1.0000 </r>
       <r>   -3.4893    1.0000 </r>
       <r>   -3.2264    1.0000 </r>
       <r>   -2.7013    1.0000 </r>
       <r>   -1.9021    1.0000 </r>
       <r>   -1.7273    1.0000 </r>
       <r>   -1.3167    1.0000 </r>
       <r>   -0.2210    1.0000 </r>
       <r>   -0.2169    1.0000 </r>
       <r>    0.0532    1.0000 </r>
       <r>    0.2073    1.0000 </r>
       <r>    0.4656    1.0000 </r>
       <r>    1.5361    1.0000 </r>
       <r>    1.6250    1.0000 </r>
       <r>    1.8908    0.4300 </r>
       <r>    5.8563    0.0000 </r>
       <r>    5.9346    0.0000 </r>
       <r>    6.0124    0.0000 </r>
       <r>    6.5611    0.0000 </r>
       <r>    6.8968    0.0000 </r>
       <r>    7.2814    0.0000 </r>
       <r>    8.4296    0.0000 </r>
       <r>    8.4923    0.0000 </r>
       <r>    9.1011    0.0000 </r>
       <r>    9.6137    0.0000 </r>
       <r>    9.8742    0.0000 </r>
       <r>   10.1251    0.0000 </r>
       <r>   10.3536    0.0000 </r>
       <r>   10.8235    0.0000 </r>
       <r>   11.5196    0.0000 </r>
       <r>   12.1065    0.0000 </r>
       <r>   12.3087    0.0000 </r>
       <r>   12.5555    0.0000 </r>
       <r>   12.9585    0.0000 </r>
       <r>   13.0235    0.0000 </r>
       <r>   14.3058    0.0000 </r>
       <r>   15.0865    0.0000 </r>
       <r>   15.1624    0.0000 </r>
       <r>   15.6457    0.0000 </r>
       <r>   15.7092    0.0000 </r>
       <r>   16.4208    0.0000 </r>
      </set>
      <set comment="kpoint 9">
       <r>  -12.4486    1.0000 </r>
       <r>  -11.9367    1.0000 </r>
       <r>   -8.5120    1.0000 </r>
       <r>   -8.3705    1.0000 </r>
       <r>   -6.0219    1.0000 </r>
       <r>   -5.9992    1.0000 </r>
       <r>   -4.4001    1.0000 </r>
       <r>   -4.2342    1.0000 </r>
       <r>   -3.6610    1.0000 </r>
       <r>   -2.8466    1.0000 </r>
       <r>   -2.3618    1.0000 </r>
       <r>   -2.2180    1.0000 </r>
       <r>   -1.6630    1.0000 </r>
       <r>   -1.4799    1.0000 </r>
       <r>   -0.4793    1.0000 </r>
       <r>   -0.3075    1.0000 </r>
       <r>    0.0852    1.0000 </r>
       <r>    0.1151    1.0000 </r>
       <r>    0.6248    1.0000 </r>
       <r>    1.3965    1.0000 </r>
       <r>    1.4796    1.0000 </r>
       <r>    1.5667    1.0000 </r>
       <r>    5.8743    0.0000 </r>
       <r>    6.0082    0.0000 </r>
       <r>    6.5177    0.0000 </r>
       <r>    6.8072    0.0000 </r>
       <r>    6.8801    0.0000 </r>
       <r>    7.3725    0.0000 </r>
       <r>    8.4182    0.0000 </r>
       <r>    8.6001    0.0000 </r>
       <r>    8.9398    0.0000 </r>
       <r>    9.3711    0.0000 </r>
       <r>   10.0726    0.0000 </r>
       <r>   10.0990    0.0000 </r>
       <r>   10.4418    0.0000 </r>
       <r>   11.2266    0.0000 </r>
       <r>   11.3643    0.0000 </r>
       <r>   11.8419    0.0000 </r>
       <r>   12.2935    0.0000 </r>
       <r>   12.5460    0.0000 </r>
       <r>   12.7218    0.0000 </r>
       <r>   13.4603    0.0000 </r>
       <r>   14.7661    0.0000 </r>
       <r>   14.7737    0.0000 </r>
       <r>   15.1545    0.0000 </r>
       <r>   15.3078    0.0000 </r>
       <r>   15.6525    0.0000 </r>
       <r>   16.3909    0.0000 </r>
      </set>
      <set comment="kpoint 10">
       <r>  -12.2942    1.0000 </r>
       <r>  -12.1187    1.0000 </r>
       <r>   -8.4455    1.0000 </r>
       <r>   -8.3940    1.0000 </r>
       <r>   -6.1120    1.0000 </r>
       <r>   -6.1072    1.0000 </r>
       <r>   -4.0551    1.0000 </r>
       <r>   -3.8919    1.0000 </r>
       <r>   -3.8509    1.0000 </r>
       <r>   -3.2870    1.0000 </r>
       <r>   -2.1077    1.0000 </r>
       <r>   -1.9138    1.0000 </r>
       <r>   -1.5948    1.0000 </r>
       <r>   -1.5920    1.0000 </r>
       <r>   -0.7001    1.0000 </r>
       <r>   -0.5991    1.0000 </r>
       <r>    0.1182    1.0000 </r>
       <r>    0.1493    1.0000 </r>
       <r>    0.8843    1.0000 </r>
       <r>    1.1986    1.0000 </r>
       <r>    1.3429    1.0000 </r>
       <r>    1.3671    1.0000 </r>
       <r>    5.9253    0.0000 </r>
       <r>    5.9910    0.0000 </r>
       <r>    6.7961    0.0000 </r>
       <r>    6.8466    0.0000 </r>
       <r>    7.1853    0.0000 </r>
       <r>    7.8979    0.0000 </r>
       <r>    7.9431    0.0000 </r>
       <r>    8.6257    0.0000 </r>
       <r>    8.6927    0.0000 </r>
       <r>    8.8056    0.0000 </r>
       <r>   10.3206    0.0000 </r>
       <r>   10.5689    0.0000 </r>
       <r>   10.8057    0.0000 </r>
       <r>   10.9101    0.0000 </r>
       <r>   11.5515    0.0000 </r>
       <r>   11.6598    0.0000 </r>
       <r>   12.0133    0.0000 </r>
       <r>   12.6523    0.0000 </r>
       <r>   13.0258    0.0000 </r>
       <r>   13.4847    0.0000 </r>
       <r>   14.5492    0.0000 </r>
       <r>   14.7338    0.0000 </r>
       <r>   14.8309    0.0000 </r>
       <r>   15.0483    0.0000 </r>
       <r>   16.1271    0.0000 </r>
       <r>   16.4215    0.0000 </r>
      </set>
      <set comment="kpoint 11">
       <r>  -12.6565    1.0000 </r>
       <r>  -11.5216    1.0000 </r>
       <r>   -8.6046    1.0000 </r>
       <r>   -8.3552    1.0000 </r>
       <r>   -5.9872    1.0000 </r>
       <r>   -5.1298    1.0000 </r>
       <r>   -5.0051    1.0000 </r>
       <r>   -4.6015    1.0000 </r>
       <r>   -4.1605    1.0000 </r>
       <r>   -3.9087    1.0000 </r>
       <r>   -3.4673    1.0000 </r>
       <r>   -1.2041    1.0000 </r>
       <r>   -1.0815    1.0000 </r>
       <r>   -0.6471    1.0000 </r>
       <r>   -0.5412    1.0000 </r>
       <r>   -0.1756    1.0000 </r>
       <r>    0.1915    1.0000 </r>
       <r>    0.3015    1.0000 </r>
       <r>    0.7232    1.0000 </r>
       <r>    1.3688    1.0000 </r>
       <r>    1.4324    1.0000 </r>
       <r>    2.3081    0.0000 </r>
       <r>    5.2874    0.0000 </r>
       <r>    5.4530    0.0000 </r>
       <r>    6.1234    0.0000 </r>
       <r>    6.1960    0.0000 </r>
       <r>    7.5365    0.0000 </r>
       <r>    7.6251    0.0000 </r>
       <r>    8.3172    0.0000 </r>
       <r>    8.7267    0.0000 </r>
       <r>    8.8827    0.0000 </r>
       <r>    9.2415    0.0000 </r>
       <r>    9.3713    0.0000 </r>
       <r>   10.8813    0.0000 </r>
       <r>   11.3181    0.0000 </r>
       <r>   11.5720    0.0000 </r>
       <r>   11.7005    0.0000 </r>
       <r>   12.0857    0.0000 </r>
       <r>   12.2682    0.0000 </r>
       <r>   12.7458    0.0000 </r>
       <r>   12.7593    0.0000 </r>
       <r>   13.0059    0.0000 </r>
       <r>   13.2240    0.0000 </r>
       <r>   14.6754    0.0000 </r>
       <r>   15.1605    0.0000 </r>
       <r>   15.3424    0.0000 </r>
       <r>   15.4300    0.0000 </r>
       <r>   15.9613    0.0000 </r>
      </set>
      <set comment="kpoint 12">
       <r>  -12.6131    1.0000 </r>
       <r>  -11.5949    1.0000 </r>
       <r>   -8.5831    1.0000 </r>
       <r>   -8.3448    1.0000 </r>
       <r>   -5.9138    1.0000 </r>
       <r>   -5.3926    1.0000 </r>
       <r>   -5.0311    1.0000 </r>
       <r>   -4.7302    1.0000 </r>
       <r>   -3.9749    1.0000 </r>
       <r>   -3.7102    1.0000 </r>
       <r>   -3.1283    1.0000 </r>
       <r>   -1.3887    1.0000 </r>
       <r>   -1.1777    1.0000 </r>
       <r>   -0.7543    1.0000 </r>
       <r>   -0.5032    1.0000 </r>
       <r>   -0.0946    1.0000 </r>
       <r>    0.1721    1.0000 </r>
       <r>    0.2453    1.0000 </r>
       <r>    0.6108    1.0000 </r>
       <r>    1.2897    1.0000 </r>
       <r>    1.3627    1.0000 </r>
       <r>    2.1722    0.0000 </r>
       <r>    5.3677    0.0000 </r>
       <r>    5.7991    0.0000 </r>
       <r>    6.1420    0.0000 </r>
       <r>    6.2379    0.0000 </r>
       <r>    7.4558    0.0000 </r>
       <r>    7.7817    0.0000 </r>
       <r>    8.0495    0.0000 </r>
       <r>    8.8177    0.0000 </r>
       <r>    9.2533    0.0000 </r>
       <r>    9.2864    0.0000 </r>
       <r>    9.6559    0.0000 </r>
       <r>   10.5168    0.0000 </r>
       <r>   10.7791    0.0000 </r>
       <r>   11.2758    0.0000 </r>
       <r>   11.7185    0.0000 </r>
       <r>   12.1979    0.0000 </r>
       <r>   12.4307    0.0000 </r>
       <r>   12.5004    0.0000 </r>
       <r>   13.1621    0.0000 </r>
       <r>   13.2724    0.0000 </r>
       <r>   13.4371    0.0000 </r>
       <r>   14.6857    0.0000 </r>
       <r>   14.8221    0.0000 </r>
       <r>   15.2832    0.0000 </r>
       <r>   15.4938    0.0000 </r>
       <r>   15.9873    0.0000 </r>
      </set>
      <set comment="kpoint 13">
       <r>  -12.5280    1.0000 </r>
       <r>  -11.7271    1.0000 </r>
       <r>   -8.5389    1.0000 </r>
       <r>   -8.3321    1.0000 </r>
       <r>   -5.8840    1.0000 </r>
       <r>   -5.7122    1.0000 </r>
       <r>   -4.9394    1.0000 </r>
       <r>   -4.6943    1.0000 </r>
       <r>   -4.0986    1.0000 </r>
       <r>   -3.1761    1.0000 </r>
       <r>   -2.6573    1.0000 </r>
       <r>   -1.8857    1.0000 </r>
       <r>   -1.1370    1.0000 </r>
       <r>   -0.8931    1.0000 </r>
       <r>   -0.4502    1.0000 </r>
       <r>   -0.0855    1.0000 </r>
       <r>    0.0141    1.0000 </r>
       <r>    0.2572    1.0000 </r>
       <r>    0.4956    1.0000 </r>
       <r>    1.1581    1.0000 </r>
       <r>    1.2444    1.0000 </r>
       <r>    1.9156    0.1900 </r>
       <r>    5.6889    0.0000 </r>
       <r>    6.0970    0.0000 </r>
       <r>    6.2754    0.0000 </r>
       <r>    6.3677    0.0000 </r>
       <r>    7.3534    0.0000 </r>
       <r>    7.8601    0.0000 </r>
       <r>    8.0156    0.0000 </r>
       <r>    8.9462    0.0000 </r>
       <r>    9.2469    0.0000 </r>
       <r>    9.7195    0.0000 </r>
       <r>    9.8519    0.0000 </r>
       <r>   10.1380    0.0000 </r>
       <r>   10.2540    0.0000 </r>
       <r>   11.0624    0.0000 </r>
       <r>   11.5865    0.0000 </r>
       <r>   12.1048    0.0000 </r>
       <r>   12.5091    0.0000 </r>
       <r>   12.8011    0.0000 </r>
       <r>   13.0445    0.0000 </r>
       <r>   13.4463    0.0000 </r>
       <r>   13.9595    0.0000 </r>
       <r>   14.5943    0.0000 </r>
       <r>   14.8717    0.0000 </r>
       <r>   15.3033    0.0000 </r>
       <r>   15.5130    0.0000 </r>
       <r>   16.1979    0.0000 </r>
      </set>
      <set comment="kpoint 14">
       <r>  -12.4052    1.0000 </r>
       <r>  -11.8955    1.0000 </r>
       <r>   -8.4764    1.0000 </r>
       <r>   -8.3315    1.0000 </r>
       <r>   -5.9613    1.0000 </r>
       <r>   -5.9415    1.0000 </r>
       <r>   -4.8035    1.0000 </r>
       <r>   -4.3733    1.0000 </r>
       <r>   -4.2633    1.0000 </r>
       <r>   -2.8079    1.0000 </r>
       <r>   -2.3208    1.0000 </r>
       <r>   -2.1769    1.0000 </r>
       <r>   -1.0805    1.0000 </r>
       <r>   -1.0299    1.0000 </r>
       <r>   -0.4555    1.0000 </r>
       <r>   -0.3715    1.0000 </r>
       <r>    0.0580    1.0000 </r>
       <r>    0.0618    1.0000 </r>
       <r>    0.6425    1.0000 </r>
       <r>    1.0285    1.0000 </r>
       <r>    1.1116    1.0000 </r>
       <r>    1.5806    1.0000 </r>
       <r>    6.1082    0.0000 </r>
       <r>    6.2242    0.0000 </r>
       <r>    6.3993    0.0000 </r>
       <r>    6.8026    0.0000 </r>
       <r>    7.2974    0.0000 </r>
       <r>    7.7814    0.0000 </r>
       <r>    8.0707    0.0000 </r>
       <r>    9.0458    0.0000 </r>
       <r>    9.1041    0.0000 </r>
       <r>    9.1765    0.0000 </r>
       <r>    9.8881    0.0000 </r>
       <r>   10.1869    0.0000 </r>
       <r>   10.7015    0.0000 </r>
       <r>   11.0780    0.0000 </r>
       <r>   11.3257    0.0000 </r>
       <r>   11.9509    0.0000 </r>
       <r>   12.3560    0.0000 </r>
       <r>   12.9857    0.0000 </r>
       <r>   13.0365    0.0000 </r>
       <r>   13.7905    0.0000 </r>
       <r>   14.3807    0.0000 </r>
       <r>   14.3965    0.0000 </r>
       <r>   15.0303    0.0000 </r>
       <r>   15.1239    0.0000 </r>
       <r>   15.6142    0.0000 </r>
       <r>   16.3751    0.0000 </r>
      </set>
      <set comment="kpoint 15">
       <r>  -12.2515    1.0000 </r>
       <r>  -12.0767    1.0000 </r>
       <r>   -8.4093    1.0000 </r>
       <r>   -8.3566    1.0000 </r>
       <r>   -6.0524    1.0000 </r>
       <r>   -6.0465    1.0000 </r>
       <r>   -4.6356    1.0000 </r>
       <r>   -4.4497    1.0000 </r>
       <r>   -3.8607    1.0000 </r>
       <r>   -3.2644    1.0000 </r>
       <r>   -2.0389    1.0000 </r>
       <r>   -1.8732    1.0000 </r>
       <r>   -1.1016    1.0000 </r>
       <r>   -1.0400    1.0000 </r>
       <r>   -0.6290    1.0000 </r>
       <r>   -0.6224    1.0000 </r>
       <r>    0.0083    1.0000 </r>
       <r>    0.0519    1.0000 </r>
       <r>    0.9000    1.0000 </r>
       <r>    0.9662    1.0000 </r>
       <r>    1.0070    1.0000 </r>
       <r>    1.2271    1.0000 </r>
       <r>    6.1998    0.0000 </r>
       <r>    6.3180    0.0000 </r>
       <r>    6.8771    0.0000 </r>
       <r>    7.2167    0.0000 </r>
       <r>    7.2753    0.0000 </r>
       <r>    7.6216    0.0000 </r>
       <r>    7.9285    0.0000 </r>
       <r>    8.4400    0.0000 </r>
       <r>    9.1018    0.0000 </r>
       <r>    9.1339    0.0000 </r>
       <r>   10.0118    0.0000 </r>
       <r>   10.4839    0.0000 </r>
       <r>   10.7081    0.0000 </r>
       <r>   10.9784    0.0000 </r>
       <r>   11.7317    0.0000 </r>
       <r>   11.7500    0.0000 </r>
       <r>   12.1342    0.0000 </r>
       <r>   12.9098    0.0000 </r>
       <r>   13.4158    0.0000 </r>
       <r>   13.7631    0.0000 </r>
       <r>   14.2282    0.0000 </r>
       <r>   14.3827    0.0000 </r>
       <r>   14.9933    0.0000 </r>
       <r>   15.1331    0.0000 </r>
       <r>   15.9908    0.0000 </r>
       <r>   16.2947    0.0000 </r>
      </set>
      <set comment="kpoint 16">
       <r>  -12.5990    1.0000 </r>
       <r>  -11.4702    1.0000 </r>
       <r>   -8.5607    1.0000 </r>
       <r>   -8.3000    1.0000 </r>
       <r>   -5.9229    1.0000 </r>
       <r>   -5.6108    1.0000 </r>
       <r>   -4.9348    1.0000 </r>
       <r>   -4.5453    1.0000 </r>
       <r>   -4.4290    1.0000 </r>
       <r>   -4.1211    1.0000 </r>
       <r>   -3.4053    1.0000 </r>
       <r>   -1.2196    1.0000 </r>
       <r>   -1.0673    1.0000 </r>
       <r>   -1.0018    1.0000 </r>
       <r>   -0.1939    1.0000 </r>
       <r>    0.2197    1.0000 </r>
       <r>    0.3450    1.0000 </r>
       <r>    0.5952    1.0000 </r>
       <r>    0.7869    1.0000 </r>
       <r>    0.9836    1.0000 </r>
       <r>    0.9977    1.0000 </r>
       <r>    2.3423    0.0000 </r>
       <r>    4.9437    0.0000 </r>
       <r>    5.1594    0.0000 </r>
       <r>    6.3565    0.0000 </r>
       <r>    6.5858    0.0000 </r>
       <r>    7.2666    0.0000 </r>
       <r>    7.9677    0.0000 </r>
       <r>    8.7010    0.0000 </r>
       <r>    9.0584    0.0000 </r>
       <r>    9.4644    0.0000 </r>
       <r>    9.5793    0.0000 </r>
       <r>    9.6525    0.0000 </r>
       <r>   10.7428    0.0000 </r>
       <r>   11.2687    0.0000 </r>
       <r>   11.9656    0.0000 </r>
       <r>   12.0169    0.0000 </r>
       <r>   12.2945    0.0000 </r>
       <r>   12.4231    0.0000 </r>
       <r>   12.4473    0.0000 </r>
       <r>   12.5645    0.0000 </r>
       <r>   12.9912    0.0000 </r>
       <r>   13.7930    0.0000 </r>
       <r>   13.8796    0.0000 </r>
       <r>   14.4171    0.0000 </r>
       <r>   15.1021    0.0000 </r>
       <r>   15.4025    0.0000 </r>
       <r>   15.8596    0.0000 </r>
      </set>
      <set comment="kpoint 17">
       <r>  -12.5558    1.0000 </r>
       <r>  -11.5432    1.0000 </r>
       <r>   -8.5388    1.0000 </r>
       <r>   -8.2906    1.0000 </r>
       <r>   -5.8449    1.0000 </r>
       <r>   -5.5761    1.0000 </r>
       <r>   -5.2721    1.0000 </r>
       <r>   -4.6803    1.0000 </r>
       <r>   -4.4945    1.0000 </r>
       <r>   -3.6563    1.0000 </r>
       <r>   -3.0667    1.0000 </r>
       <r>   -1.3826    1.0000 </r>
       <r>   -1.1622    1.0000 </r>
       <r>   -1.0166    1.0000 </r>
       <r>   -0.1953    1.0000 </r>
       <r>    0.2049    1.0000 </r>
       <r>    0.2769    1.0000 </r>
       <r>    0.5746    1.0000 </r>
       <r>    0.6656    1.0000 </r>
       <r>    0.9183    1.0000 </r>
       <r>    0.9563    1.0000 </r>
       <r>    2.2045    0.0000 </r>
       <r>    5.0397    0.0000 </r>
       <r>    5.4911    0.0000 </r>
       <r>    6.3026    0.0000 </r>
       <r>    6.7175    0.0000 </r>
       <r>    7.4022    0.0000 </r>
       <r>    7.9251    0.0000 </r>
       <r>    8.6339    0.0000 </r>
       <r>    9.1746    0.0000 </r>
       <r>    9.4283    0.0000 </r>
       <r>    9.7895    0.0000 </r>
       <r>    9.8967    0.0000 </r>
       <r>   10.3350    0.0000 </r>
       <r>   10.7064    0.0000 </r>
       <r>   11.7050    0.0000 </r>
       <r>   11.8848    0.0000 </r>
       <r>   12.2446    0.0000 </r>
       <r>   12.4781    0.0000 </r>
       <r>   12.6416    0.0000 </r>
       <r>   12.9604    0.0000 </r>
       <r>   13.3910    0.0000 </r>
       <r>   13.7908    0.0000 </r>
       <r>   13.9235    0.0000 </r>
       <r>   14.2538    0.0000 </r>
       <r>   15.0768    0.0000 </r>
       <r>   15.4316    0.0000 </r>
       <r>   15.7305    0.0000 </r>
      </set>
      <set comment="kpoint 18">
       <r>  -12.4712    1.0000 </r>
       <r>  -11.6747    1.0000 </r>
       <r>   -8.4940    1.0000 </r>
       <r>   -8.2797    1.0000 </r>
       <r>   -5.8076    1.0000 </r>
       <r>   -5.6602    1.0000 </r>
       <r>   -5.4205    1.0000 </r>
       <r>   -4.6545    1.0000 </r>
       <r>   -4.6169    1.0000 </r>
       <r>   -3.1168    1.0000 </r>
       <r>   -2.5969    1.0000 </r>
       <r>   -1.8667    1.0000 </r>
       <r>   -1.1015    1.0000 </r>
       <r>   -1.0353    1.0000 </r>
       <r>   -0.2136    1.0000 </r>
       <r>   -0.0495    1.0000 </r>
       <r>    0.3152    1.0000 </r>
       <r>    0.5067    1.0000 </r>
       <r>    0.5230    1.0000 </r>
       <r>    0.8298    1.0000 </r>
       <r>    0.8893    1.0000 </r>
       <r>    1.9442    0.0458 </r>
       <r>    5.3654    0.0000 </r>
       <r>    5.9659    0.0000 </r>
       <r>    6.2753    0.0000 </r>
       <r>    6.8304    0.0000 </r>
       <r>    7.5699    0.0000 </r>
       <r>    7.9453    0.0000 </r>
       <r>    8.5594    0.0000 </r>
       <r>    9.3636    0.0000 </r>
       <r>    9.3943    0.0000 </r>
       <r>    9.5916    0.0000 </r>
       <r>   10.0428    0.0000 </r>
       <r>   10.1118    0.0000 </r>
       <r>   10.5594    0.0000 </r>
       <r>   11.3866    0.0000 </r>
       <r>   11.3970    0.0000 </r>
       <r>   12.2379    0.0000 </r>
       <r>   12.7402    0.0000 </r>
       <r>   12.9557    0.0000 </r>
       <r>   13.1796    0.0000 </r>
       <r>   13.5214    0.0000 </r>
       <r>   13.7645    0.0000 </r>
       <r>   14.0158    0.0000 </r>
       <r>   14.3895    0.0000 </r>
       <r>   15.1682    0.0000 </r>
       <r>   15.3579    0.0000 </r>
       <r>   15.9916    0.0000 </r>
      </set>
      <set comment="kpoint 19">
       <r>  -12.3492    1.0000 </r>
       <r>  -11.8422    1.0000 </r>
       <r>   -8.4309    1.0000 </r>
       <r>   -8.2814    1.0000 </r>
       <r>   -5.8817    1.0000 </r>
       <r>   -5.8689    1.0000 </r>
       <r>   -5.3073    1.0000 </r>
       <r>   -4.7814    1.0000 </r>
       <r>   -4.3376    1.0000 </r>
       <r>   -2.7631    1.0000 </r>
       <r>   -2.2782    1.0000 </r>
       <r>   -2.1212    1.0000 </r>
       <r>   -1.0434    1.0000 </r>
       <r>   -1.0168    1.0000 </r>
       <r>   -0.3736    1.0000 </r>
       <r>   -0.3289    1.0000 </r>
       <r>    0.1520    1.0000 </r>
       <r>    0.3760    1.0000 </r>
       <r>    0.6624    1.0000 </r>
       <r>    0.7739    1.0000 </r>
       <r>    0.8230    1.0000 </r>
       <r>    1.6053    1.0000 </r>
       <r>    5.8929    0.0000 </r>
       <r>    6.3073    0.0000 </r>
       <r>    6.5449    0.0000 </r>
       <r>    6.7825    0.0000 </r>
       <r>    7.5694    0.0000 </r>
       <r>    8.0035    0.0000 </r>
       <r>    8.5133    0.0000 </r>
       <r>    8.9149    0.0000 </r>
       <r>    9.2709    0.0000 </r>
       <r>    9.5824    0.0000 </r>
       <r>    9.9041    0.0000 </r>
       <r>   10.3445    0.0000 </r>
       <r>   10.7939    0.0000 </r>
       <r>   11.0927    0.0000 </r>
       <r>   11.4427    0.0000 </r>
       <r>   12.1673    0.0000 </r>
       <r>   12.4216    0.0000 </r>
       <r>   13.1586    0.0000 </r>
       <r>   13.2794    0.0000 </r>
       <r>   13.6595    0.0000 </r>
       <r>   13.9002    0.0000 </r>
       <r>   14.1510    0.0000 </r>
       <r>   14.7573    0.0000 </r>
       <r>   14.9917    0.0000 </r>
       <r>   15.4336    0.0000 </r>
       <r>   16.3273    0.0000 </r>
      </set>
      <set comment="kpoint 20">
       <r>  -12.1962    1.0000 </r>
       <r>  -12.0224    1.0000 </r>
       <r>   -8.3628    1.0000 </r>
       <r>   -8.3086    1.0000 </r>
       <r>   -5.9750    1.0000 </r>
       <r>   -5.9671    1.0000 </r>
       <r>   -5.1460    1.0000 </r>
       <r>   -4.9643    1.0000 </r>
       <r>   -3.8285    1.0000 </r>
       <r>   -3.2342    1.0000 </r>
       <r>   -1.9819    1.0000 </r>
       <r>   -1.8272    1.0000 </r>
       <r>   -0.9802    1.0000 </r>
       <r>   -0.9209    1.0000 </r>
       <r>   -0.6713    1.0000 </r>
       <r>   -0.6282    1.0000 </r>
       <r>    0.1277    1.0000 </r>
       <r>    0.2282    1.0000 </r>
       <r>    0.7583    1.0000 </r>
       <r>    0.7742    1.0000 </r>
       <r>    0.9257    1.0000 </r>
       <r>    1.2488    1.0000 </r>
       <r>    6.4405    0.0000 </r>
       <r>    6.5540    0.0000 </r>
       <r>    6.6197    0.0000 </r>
       <r>    7.1351    0.0000 </r>
       <r>    7.2054    0.0000 </r>
       <r>    7.6922    0.0000 </r>
       <r>    8.5021    0.0000 </r>
       <r>    8.5663    0.0000 </r>
       <r>    9.4651    0.0000 </r>
       <r>    9.6382    0.0000 </r>
       <r>    9.8441    0.0000 </r>
       <r>   10.1410    0.0000 </r>
       <r>   10.8582    0.0000 </r>
       <r>   11.2327    0.0000 </r>
       <r>   11.8690    0.0000 </r>
       <r>   11.9440    0.0000 </r>
       <r>   12.2559    0.0000 </r>
       <r>   13.1465    0.0000 </r>
       <r>   13.4373    0.0000 </r>
       <r>   13.6229    0.0000 </r>
       <r>   13.8383    0.0000 </r>
       <r>   13.9469    0.0000 </r>
       <r>   15.0996    0.0000 </r>
       <r>   15.1170    0.0000 </r>
       <r>   15.6669    0.0000 </r>
       <r>   15.9690    0.0000 </r>
      </set>
      <set comment="kpoint 21">
       <r>  -12.5389    1.0000 </r>
[...]
       <r>   -2.3156    1.0000 </r>
       <r>   -2.1469    1.0000 </r>
       <r>   -1.9830    1.0000 </r>
       <r>   -1.4909    1.0000 </r>
       <r>   -0.7380    1.0000 </r>
       <r>   -0.2020    1.0000 </r>
       <r>    0.1658    1.0000 </r>
       <r>    0.3851    1.0000 </r>
       <r>    0.5130    1.0000 </r>
       <r>    1.5887    1.0000 </r>
       <r>    1.6160    1.0000 </r>
       <r>    1.8714    0.6454 </r>
       <r>    5.5116    0.0000 </r>
       <r>    6.1463    0.0000 </r>
       <r>    6.6669    0.0000 </r>
       <r>    7.2173    0.0000 </r>
       <r>    7.7812    0.0000 </r>
       <r>    8.2243    0.0000 </r>
       <r>    8.9908    0.0000 </r>
       <r>    9.1501    0.0000 </r>
       <r>    9.7196    0.0000 </r>
       <r>    9.9551    0.0000 </r>
       <r>   10.5860    0.0000 </r>
       <r>   11.0301    0.0000 </r>
       <r>   11.2052    0.0000 </r>
       <r>   11.4769    0.0000 </r>
       <r>   11.5657    0.0000 </r>
       <r>   11.9486    0.0000 </r>
       <r>   12.8361    0.0000 </r>
       <r>   13.1432    0.0000 </r>
       <r>   13.3667    0.0000 </r>
       <r>   13.7470    0.0000 </r>
       <r>   13.8710    0.0000 </r>
       <r>   14.1542    0.0000 </r>
       <r>   14.4753    0.0000 </r>
       <r>   14.9654    0.0000 </r>
       <r>   15.0925    0.0000 </r>
       <r>   15.3929    0.0000 </r>
      </set>
      <set comment="kpoint 175">
       <r>  -12.0208    1.0000 </r>
       <r>  -11.8817    1.0000 </r>
       <r>   -8.5471    1.0000 </r>
       <r>   -8.4348    1.0000 </r>
       <r>   -5.9266    1.0000 </r>
       <r>   -5.8204    1.0000 </r>
       <r>   -4.8919    1.0000 </r>
       <r>   -4.5683    1.0000 </r>
       <r>   -4.4136    1.0000 </r>
       <r>   -3.9754    1.0000 </r>
       <r>   -2.1991    1.0000 </r>
       <r>   -2.1375    1.0000 </r>
       <r>   -2.0578    1.0000 </r>
       <r>   -1.7735    1.0000 </r>
       <r>   -0.2197    1.0000 </r>
       <r>   -0.0061    1.0000 </r>
       <r>    0.3880    1.0000 </r>
       <r>    0.4760    1.0000 </r>
       <r>    0.5480    1.0000 </r>
       <r>    0.8742    1.0000 </r>
       <r>    1.6300    1.0000 </r>
       <r>    1.7297    1.0000 </r>
       <r>    5.8587    0.0000 </r>
       <r>    6.0442    0.0000 </r>
       <r>    6.8691    0.0000 </r>
       <r>    7.4060    0.0000 </r>
       <r>    7.4730    0.0000 </r>
       <r>    7.5758    0.0000 </r>
       <r>    9.3955    0.0000 </r>
       <r>    9.5795    0.0000 </r>
       <r>    9.7882    0.0000 </r>
       <r>    9.9658    0.0000 </r>
       <r>   10.4626    0.0000 </r>
       <r>   10.8125    0.0000 </r>
       <r>   11.2344    0.0000 </r>
       <r>   11.5076    0.0000 </r>
       <r>   11.5181    0.0000 </r>
       <r>   11.6112    0.0000 </r>
       <r>   13.0806    0.0000 </r>
       <r>   13.1866    0.0000 </r>
       <r>   13.7196    0.0000 </r>
       <r>   14.0526    0.0000 </r>
       <r>   14.1868    0.0000 </r>
       <r>   14.2894    0.0000 </r>
       <r>   14.5916    0.0000 </r>
       <r>   14.7355    0.0000 </r>
       <r>   14.8839    0.0000 </r>
       <r>   15.0453    0.0000 </r>
      </set>
     </set>
    </set>
   </array>
  </eigenvalues>
  <separator name="orbital magnetization" >
   <v name="MAGDIPOLOUT">      0.00000000      0.00000000      0.00000000</v>
  </separator>
  <dos>
   <i name="efermi">      1.88456756 </i>
   <total>
    <array>
     <dimension dim="1">gridpoints</dimension>
     <dimension dim="2">spin</dimension>
     <field>energy</field>
     <field>total</field>
     <field>integrated</field>
     <set>
      <set comment="spin 1">
       <r>   -14.1868     0.0000     0.0000 </r>
       <r>   -14.0796     0.0000     0.0000 </r>
       <r>   -13.9724     0.0000     0.0000 </r>
       <r>   -13.8652     0.0000     0.0000 </r>
       <r>   -13.7580     0.0000     0.0000 </r>
       <r>   -13.6508     0.0000     0.0000 </r>
       <r>   -13.5436     0.0000     0.0000 </r>
       <r>   -13.4364     0.0000     0.0000 </r>
       <r>   -13.3292     0.0000     0.0000 </r>
       <r>   -13.2220     0.0000     0.0000 </r>
       <r>   -13.1148     0.0000     0.0000 </r>
       <r>   -13.0075     0.0000     0.0000 </r>
       <r>   -12.9003     0.0000     0.0000 </r>
       <r>   -12.7931     0.0038     0.0004 </r>
       <r>   -12.6859     0.5086     0.0549 </r>
       <r>   -12.5787     2.3903     0.3112 </r>
       <r>   -12.4715     3.5639     0.6933 </r>
       <r>   -12.3643     4.3712     1.1619 </r>
       <r>   -12.2571     3.5388     1.5413 </r>
       <r>   -12.1499     2.7350     1.8345 </r>
       <r>   -12.0427     2.7509     2.1294 </r>
       <r>   -11.9355     2.5048     2.3980 </r>
       <r>   -11.8283     2.7710     2.6950 </r>
       <r>   -11.7210     3.4269     3.0624 </r>
       <r>   -11.6138     3.5351     3.4414 </r>
       <r>   -11.5066     3.1147     3.7753 </r>
       <r>   -11.3994     1.6675     3.9541 </r>
       <r>   -11.2922     0.4210     3.9992 </r>
       <r>   -11.1850     0.0072     4.0000 </r>
       <r>   -11.0778     0.0000     4.0000 </r>
       <r>   -10.9706     0.0000     4.0000 </r>
       <r>   -10.8634     0.0000     4.0000 </r>
       <r>   -10.7562     0.0000     4.0000 </r>
       <r>   -10.6490     0.0000     4.0000 </r>
       <r>   -10.5418     0.0000     4.0000 </r>
       <r>   -10.4346     0.0000     4.0000 </r>
       <r>   -10.3273     0.0000     4.0000 </r>
       <r>   -10.2201     0.0000     4.0000 </r>
       <r>   -10.1129     0.0000     4.0000 </r>
       <r>   -10.0057     0.0000     4.0000 </r>
       <r>    -9.8985     0.0000     4.0000 </r>
       <r>    -9.7913     0.0000     4.0000 </r>
       <r>    -9.6841     0.0000     4.0000 </r>
       <r>    -9.5769     0.0000     4.0000 </r>
       <r>    -9.4697     0.0000     4.0000 </r>
       <r>    -9.3625     0.0000     4.0000 </r>
       <r>    -9.2553     0.0000     4.0000 </r>
       <r>    -9.1481     0.0000     4.0000 </r>
       <r>    -9.0408     0.0000     4.0000 </r>
       <r>    -8.9336     0.0006     4.0001 </r>
       <r>    -8.8264     0.2760     4.0297 </r>
       <r>    -8.7192     2.0902     4.2537 </r>
       <r>    -8.6120     5.3309     4.8253 </r>
       <r>    -8.5048     6.9883     5.5745 </r>
       <r>    -8.3976     6.2973     6.2496 </r>
       <r>    -8.2904     5.3252     6.8205 </r>
       <r>    -8.1832     4.8354     7.3389 </r>
       <r>    -8.0760     3.8725     7.7540 </r>
       <r>    -7.9688     1.6655     7.9326 </r>
       <r>    -7.8616     0.5769     7.9944 </r>
       <r>    -7.7543     0.0518     8.0000 </r>
       <r>    -7.6471     0.0000     8.0000 </r>
       <r>    -7.5399     0.0000     8.0000 </r>
       <r>    -7.4327     0.0000     8.0000 </r>
       <r>    -7.3255     0.0000     8.0000 </r>
       <r>    -7.2183     0.0000     8.0000 </r>
       <r>    -7.1111     0.0000     8.0000 </r>
       <r>    -7.0039     0.0004     8.0000 </r>
       <r>    -6.8967     0.1129     8.0121 </r>
       <r>    -6.7895     0.2577     8.0398 </r>
       <r>    -6.6823     0.4261     8.0855 </r>
       <r>    -6.5751     0.7661     8.1676 </r>
       <r>    -6.4678     0.8510     8.2588 </r>
       <r>    -6.3606     1.4448     8.4137 </r>
       <r>    -6.2534     1.9632     8.6242 </r>
       <r>    -6.1462     3.0564     8.9519 </r>
       <r>    -6.0390     3.7835     9.3575 </r>
       <r>    -5.9318     4.1140     9.7985 </r>
       <r>    -5.8246     4.0456    10.2323 </r>
       <r>    -5.7174     3.8616    10.6462 </r>
       <r>    -5.6102     4.0727    11.0829 </r>
       <r>    -5.5030     4.2205    11.5353 </r>
       <r>    -5.3958     4.5448    12.0226 </r>
       <r>    -5.2886     4.5986    12.5156 </r>
       <r>    -5.1814     4.4908    12.9970 </r>
       <r>    -5.0741     3.8688    13.4118 </r>
       <r>    -4.9669     3.2275    13.7578 </r>
       <r>    -4.8597     2.9529    14.0744 </r>
       <r>    -4.7525     2.3362    14.3249 </r>
       <r>    -4.6453     2.8960    14.6353 </r>
       <r>    -4.5381     3.3688    14.9965 </r>
       <r>    -4.4309     3.4710    15.3686 </r>
       <r>    -4.3237     3.3322    15.7259 </r>
       <r>    -4.2165     2.9543    16.0426 </r>
       <r>    -4.1093     2.9071    16.3542 </r>
       <r>    -4.0021     2.9451    16.6700 </r>
       <r>    -3.8949     2.8602    16.9766 </r>
       <r>    -3.7876     3.1191    17.3110 </r>
       <r>    -3.6804     2.8751    17.6193 </r>
       <r>    -3.5732     2.7049    17.9092 </r>
       <r>    -3.4660     3.0650    18.2378 </r>
       <r>    -3.3588     2.6381    18.5207 </r>
       <r>    -3.2516     2.8610    18.8274 </r>
       <r>    -3.1444     2.7449    19.1217 </r>
       <r>    -3.0372     2.7390    19.4153 </r>
       <r>    -2.9300     3.0458    19.7418 </r>
       <r>    -2.8228     2.9744    20.0607 </r>
       <r>    -2.7156     2.4303    20.3213 </r>
       <r>    -2.6084     2.6565    20.6061 </r>
       <r>    -2.5011     3.0206    20.9299 </r>
       <r>    -2.3939     2.9857    21.2500 </r>
       <r>    -2.2867     3.1932    21.5923 </r>
       <r>    -2.1795     4.0090    22.0221 </r>
       <r>    -2.0723     3.6561    22.4141 </r>
       <r>    -1.9651     3.2730    22.7650 </r>
       <r>    -1.8579     5.1256    23.3145 </r>
       <r>    -1.7507     5.5774    23.9124 </r>
       <r>    -1.6435     5.6043    24.5133 </r>
       <r>    -1.5363     6.1820    25.1760 </r>
       <r>    -1.4291     6.1099    25.8311 </r>
       <r>    -1.3219     5.5689    26.4281 </r>
       <r>    -1.2146     4.6829    26.9301 </r>
       <r>    -1.1074     6.4968    27.6266 </r>
       <r>    -1.0002     3.9796    28.0533 </r>
       <r>    -0.8930     2.2702    28.2967 </r>
       <r>    -0.7858     2.6989    28.5860 </r>
       <r>    -0.6786     2.8795    28.8947 </r>
       <r>    -0.5714     4.5211    29.3794 </r>
       <r>    -0.4642     6.8624    30.1151 </r>
       <r>    -0.3570     5.6577    30.7217 </r>
       <r>    -0.2498     6.7046    31.4405 </r>
       <r>    -0.1426     6.3592    32.1222 </r>
       <r>    -0.0354     6.7457    32.8454 </r>
       <r>     0.0719     6.7572    33.5698 </r>
       <r>     0.1791     6.2971    34.2449 </r>
       <r>     0.2863     8.8034    35.1887 </r>
       <r>     0.3935     7.9840    36.0447 </r>
       <r>     0.5007     8.6958    36.9769 </r>
       <r>     0.6079     5.2468    37.5394 </r>
       <r>     0.7151     2.9358    37.8542 </r>
       <r>     0.8223     3.2919    38.2071 </r>
       <r>     0.9295     3.5875    38.5917 </r>
       <r>     1.0367     3.5607    38.9734 </r>
       <r>     1.1439     2.7908    39.2726 </r>
       <r>     1.2511     3.3904    39.6361 </r>
       <r>     1.3583     4.4971    40.1182 </r>
       <r>     1.4656     3.7794    40.5234 </r>
       <r>     1.5728     3.7224    40.9225 </r>
       <r>     1.6800     4.5762    41.4131 </r>
       <r>     1.7872     3.2315    41.7595 </r>
       <r>     1.8944     2.4795    42.0254 </r>
       <r>     2.0016     2.6598    42.3105 </r>
       <r>     2.1088     2.0920    42.5348 </r>
       <r>     2.2160     2.6523    42.8191 </r>
       <r>     2.3232     2.5705    43.0947 </r>
       <r>     2.4304     1.9365    43.3023 </r>
       <r>     2.5376     0.8515    43.3936 </r>
       <r>     2.6448     0.3780    43.4341 </r>
       <r>     2.7521     0.5725    43.4955 </r>
       <r>     2.8593     0.4195    43.5405 </r>
       <r>     2.9665     0.3058    43.5733 </r>
       <r>     3.0737     0.7581    43.6545 </r>
       <r>     3.1809     1.0138    43.7632 </r>
       <r>     3.2881     0.5377    43.8209 </r>
       <r>     3.3953     0.0130    43.8223 </r>
       <r>     3.5025     0.1311    43.8363 </r>
       <r>     3.6097     0.3955    43.8787 </r>
       <r>     3.7169     0.3302    43.9141 </r>
       <r>     3.8241     0.3722    43.9540 </r>
       <r>     3.9313     0.4020    43.9971 </r>
       <r>     4.0386     0.0266    44.0000 </r>
       <r>     4.1458     0.0000    44.0000 </r>
       <r>     4.2530     0.0313    44.0034 </r>
       <r>     4.3602     0.1762    44.0223 </r>
       <r>     4.4674     0.4025    44.0654 </r>
       <r>     4.5746     0.4709    44.1159 </r>
       <r>     4.6818     0.6339    44.1838 </r>
       <r>     4.7890     0.8889    44.2791 </r>
       <r>     4.8962     0.8412    44.3693 </r>
       <r>     5.0034     0.8569    44.4612 </r>
       <r>     5.1106     1.2767    44.5981 </r>
       <r>     5.2178     1.1523    44.7216 </r>
       <r>     5.3251     1.6326    44.8966 </r>
       <r>     5.4323     2.1904    45.1315 </r>
       <r>     5.5395     2.4871    45.3981 </r>
       <r>     5.6467     2.7879    45.6970 </r>
       <r>     5.7539     3.3667    46.0579 </r>
       <r>     5.8611     3.2199    46.4031 </r>
       <r>     5.9683     4.3125    46.8655 </r>
       <r>     6.0755     4.7579    47.3755 </r>
       <r>     6.1827     4.0439    47.8091 </r>
       <r>     6.2899     4.6235    48.3048 </r>
       <r>     6.3971     4.1527    48.7500 </r>
       <r>     6.5043     4.0174    49.1807 </r>
       <r>     6.6115     4.4805    49.6610 </r>
       <r>     6.7188     3.2270    50.0070 </r>
       <r>     6.8260     3.9981    50.4356 </r>
       <r>     6.9332     4.6126    50.9301 </r>
       <r>     7.0404     4.5527    51.4182 </r>
       <r>     7.1476     4.3400    51.8835 </r>
       <r>     7.2548     5.5999    52.4838 </r>
       <r>     7.3620     4.9224    53.0115 </r>
       <r>     7.4692     4.4528    53.4889 </r>
       <r>     7.5764     4.1909    53.9382 </r>
       <r>     7.6836     3.5664    54.3206 </r>
       <r>     7.7908     3.1245    54.6555 </r>
       <r>     7.8980     3.0098    54.9782 </r>
       <r>     8.0053     2.9783    55.2975 </r>
       <r>     8.1125     4.1676    55.7443 </r>
       <r>     8.2197     3.8883    56.1612 </r>
       <r>     8.3269     3.6882    56.5566 </r>
       <r>     8.4341     3.9912    56.9845 </r>
       <r>     8.5413     4.2154    57.4364 </r>
       <r>     8.6485     4.4571    57.9142 </r>
       <r>     8.7557     4.2213    58.3668 </r>
       <r>     8.8629     5.2653    58.9313 </r>
       <r>     8.9701     4.9431    59.4612 </r>
       <r>     9.0773     5.2926    60.0286 </r>
       <r>     9.1845     5.2369    60.5901 </r>
       <r>     9.2918     4.9704    61.1229 </r>
       <r>     9.3990     4.6900    61.6257 </r>
       <r>     9.5062     4.3687    62.0941 </r>
       <r>     9.6134     5.1048    62.6414 </r>
       <r>     9.7206     5.0272    63.1803 </r>
       <r>     9.8278     5.2998    63.7485 </r>
       <r>     9.9350     4.4794    64.2288 </r>
       <r>    10.0422     3.6363    64.6186 </r>
       <r>    10.1494     5.1764    65.1735 </r>
       <r>    10.2566     4.7159    65.6791 </r>
       <r>    10.3638     4.1170    66.1205 </r>
       <r>    10.4710     5.4172    66.7013 </r>
       <r>    10.5783     5.8092    67.3241 </r>
       <r>    10.6855     4.0665    67.7600 </r>
       <r>    10.7927     3.8845    68.1765 </r>
       <r>    10.8999     3.2351    68.5233 </r>
       <r>    11.0071     4.6701    69.0240 </r>
       <r>    11.1143     5.4842    69.6119 </r>
       <r>    11.2215     6.1900    70.2755 </r>
       <r>    11.3287     5.9930    70.9180 </r>
       <r>    11.4359     5.2855    71.4847 </r>
       <r>    11.5431     4.3004    71.9457 </r>
       <r>    11.6503     4.4731    72.4253 </r>
       <r>    11.7575     4.9331    72.9542 </r>
       <r>    11.8647     4.8063    73.4694 </r>
       <r>    11.9720     6.0352    74.1165 </r>
       <r>    12.0792     5.9596    74.7554 </r>
       <r>    12.1864     5.9894    75.3975 </r>
       <r>    12.2936     5.6164    75.9996 </r>
       <r>    12.4008     5.0069    76.5364 </r>
       <r>    12.5080     5.6867    77.1461 </r>
       <r>    12.6152     5.9891    77.7881 </r>
       <r>    12.7224     6.0220    78.4337 </r>
       <r>    12.8296     5.8870    79.0649 </r>
       <r>    12.9368     5.8634    79.6935 </r>
       <r>    13.0440     5.5961    80.2934 </r>
       <r>    13.1512     6.3490    80.9741 </r>
       <r>    13.2585     6.2619    81.6454 </r>
       <r>    13.3657     5.3890    82.2232 </r>
       <r>    13.4729     6.1326    82.8806 </r>
       <r>    13.5801     5.3417    83.4533 </r>
       <r>    13.6873     4.8105    83.9690 </r>
       <r>    13.7945     6.1321    84.6265 </r>
       <r>    13.9017     5.5223    85.2185 </r>
       <r>    14.0089     5.3446    85.7915 </r>
       <r>    14.1161     5.4750    86.3784 </r>
       <r>    14.2233     4.6842    86.8806 </r>
       <r>    14.3305     4.9072    87.4067 </r>
       <r>    14.4377     5.0187    87.9448 </r>
       <r>    14.5450     4.9615    88.4767 </r>
       <r>    14.6522     5.2727    89.0420 </r>
       <r>    14.7594     5.1660    89.5958 </r>
       <r>    14.8666     4.0914    90.0344 </r>
       <r>    14.9738     5.0824    90.5793 </r>
       <r>    15.0810     6.1883    91.2427 </r>
       <r>    15.1882     5.6381    91.8472 </r>
       <r>    15.2954     5.6764    92.4558 </r>
       <r>    15.4026     6.0276    93.1020 </r>
       <r>    15.5098     5.7332    93.7166 </r>
       <r>    15.6170     5.9507    94.3546 </r>
       <r>    15.7242     4.5908    94.8467 </r>
       <r>    15.8315     2.4683    95.1114 </r>
       <r>    15.9387     2.7060    95.4015 </r>
       <r>    16.0459     1.8591    95.6008 </r>
       <r>    16.1531     1.1444    95.7235 </r>
       <r>    16.2603     0.8915    95.8190 </r>
       <r>    16.3675     0.6969    95.8938 </r>
       <r>    16.4747     0.8146    95.9811 </r>
       <r>    16.5819     0.1747    95.9998 </r>
       <r>    16.6891     0.0017    96.0000 </r>
       <r>    16.7963     0.0000    96.0000 </r>
       <r>    16.9035     0.0000    96.0000 </r>
       <r>    17.0107     0.0000    96.0000 </r>
       <r>    17.1179     0.0000    96.0000 </r>
       <r>    17.2252     0.0000    96.0000 </r>
       <r>    17.3324     0.0000    96.0000 </r>
       <r>    17.4396     0.0000    96.0000 </r>
       <r>    17.5468     0.0000    96.0000 </r>
       <r>    17.6540     0.0000    96.0000 </r>
       <r>    17.7612     0.0000    96.0000 </r>
       <r>    17.8684     0.0000    96.0000 </r>
       <r>    17.9756     0.0000    96.0000 </r>
      </set>
     </set>
    </array>
   </total>
  </dos>
 </calculation>
 <structure name="finalpos" >
  <crystal>
   <varray name="basis" >
    <v>       5.69700000       0.00000000       0.00000000 </v>
    <v>       0.00000000       4.04790000       0.00000000 </v>
    <v>       0.00000000       0.00000000       6.20420000 </v>
   </varray>
   <i name="volume">    143.07435078 </i>
   <varray name="rec_basis" >
    <v>       0.17553098       0.00000000       0.00000000 </v>
    <v>       0.00000000       0.24704168       0.00000000 </v>
    <v>       0.00000000       0.00000000       0.16118114 </v>
   </varray>
  </crystal>
  <varray name="positions" >
   <v>       0.52123000       0.50000000       0.63796000 </v>
   <v>       0.47877000       0.50000000       0.36204000 </v>
   <v>       0.97877000       0.50000000       0.63796000 </v>
   <v>       0.02123000       0.50000000       0.36204000 </v>
   <v>       0.60090000       0.50000000       0.89991000 </v>
   <v>       0.39910000       0.50000000       0.10009000 </v>
   <v>       0.89910000       0.50000000       0.89991000 </v>
   <v>       0.10090000       0.50000000       0.10009000 </v>
   <v>       0.75000000       0.79171000       0.72973000 </v>
   <v>       0.25000000       0.20829000       0.27027000 </v>
   <v>       0.75000000       0.20829000       0.72973000 </v>
   <v>       0.25000000       0.79171000       0.27027000 </v>
   <v>       0.25000000       0.50000000       0.52367000 </v>
   <v>       0.75000000       0.50000000       0.47633000 </v>
  </varray>
 </structure>
</modeling>
