   14   14    1    1
  0.1021318E+02  0.5700971E-09  0.4044058E-09  0.6201871E-09  0.5000000E-15
  1.000000000000000E-004
  CAR 
 PDoS                                    
     42     96     48
 
  0.6250000E-01  0.0000000E+00  0.0000000E+00  0.3246753E-02
      1        -12.691245   1.000000
      2        -11.533866   1.000000
      3         -8.655056   1.000000
      4         -8.364702   1.000000
      5         -6.036742   1.000000
      6         -5.202551   1.000000
      7         -4.721221   1.000000
      8         -4.246899   1.000000
      9         -3.922613   1.000000
     10         -3.448508   1.000000
     11         -2.401015   1.000000
     12         -2.224617   1.000000
     13         -2.134031   1.000000
     14         -1.130894   1.000000
     15         -0.011291   1.000000
     16         -0.003233   1.000000
     17          0.050066   1.000000
     18          0.099795   1.000000
     19          0.652509   1.000000
     20          2.103153   0.000834
     21          2.132959   0.000182
     22          2.218024   0.000001
     23          5.522791   0.000000
     24          5.724652   0.000000
     25          5.737148   0.000000
     26          6.048672   0.000000
     27          6.707404   0.000000
     28          7.481607   0.000000
     29          7.899582   0.000000
     30          8.651094   0.000000
     31          8.902173   0.000000
     32          8.925656   0.000000
     33          9.057652   0.000000
     34         10.043317   0.000000
     35         11.206688   0.000000
     36         11.321573   0.000000
     37         11.503228   0.000000
     38         11.631658   0.000000
     39         12.004512   0.000000
     40         12.312741   0.000000
     41         12.995330   0.000000
     42         13.448487   0.000000
     43         13.498313   0.000000
     44         15.318428   0.000000
     45         15.573284   0.000000
     46         16.104543   0.000000
     47         16.288535   0.000000
     48         16.338433   0.000000
 
  0.1875000E+00  0.0000000E+00  0.0000000E+00  0.3246753E-02
      1        -12.622389   1.000000
      2        -11.650140   1.000000
      3         -8.613812   1.000000
      4         -8.348260   1.000000
      5         -5.957634   1.000000
      6         -5.636745   1.000000
      7         -4.836218   1.000000
      8         -3.826261   1.000000
      9         -3.651885   1.000000
     10         -2.974778   1.000000
     11         -2.371247   1.000000
     12         -2.346077   1.000000
     13         -2.243943   1.000000
     14         -1.588130   1.000000
     15         -0.202611   1.000000
     16          0.113010   1.000000
     17          0.117610   1.000000
     18          0.151704   1.000000
     19          0.504978   1.000000
     20          1.983135   0.074011
     21          1.985445   0.069542
     22          2.024827   0.020867
     23          5.633316   0.000000
     24          5.664262   0.000000
     25          5.951632   0.000000
     26          6.508052   0.000000
     27          6.592740   0.000000
     28          7.044825   0.000000
     29          8.149864   0.000000
     30          8.845106   0.000000
     31          9.031621   0.000000
     32          9.303694   0.000000
     33          9.359623   0.000000
     34         10.225301   0.000000
     35         10.725844   0.000000
     36         10.902959   0.000000
     37         11.326040   0.000000
     38         11.567642   0.000000
     39         12.287857   0.000000
     40         12.494366   0.000000
     41         12.928189   0.000000
     42         13.191283   0.000000
     43         14.293212   0.000000
     44         14.730330   0.000000
     45         15.575291   0.000000
     46         15.878997   0.000000
     47         16.229512   0.000000
     48         16.544554   0.000000
 
  0.3125000E+00  0.0000000E+00  0.0000000E+00  0.3246753E-02
      1        -12.489272   1.000000
      2        -11.847647   1.000000
      3         -8.534283   1.000000
      4         -8.336733   1.000000
      5         -6.016325   1.000000
      6         -5.989782   1.000000
      7         -4.589090   1.000000
      8         -3.638209   1.000000
      9         -3.039881   1.000000
     10         -2.677426   1.000000
     11         -2.377723   1.000000
     12         -2.353122   1.000000
     13         -2.267963   1.000000
     14         -2.212847   1.000000
     15         -0.534879   1.000000
     16         -0.065277   1.000000
     17          0.233919   1.000000
     18          0.269339   1.000000
     19          0.529136   1.000000
     20          1.665070   0.998862
     21          1.771939   0.938247
     22          1.797753   0.880032
     23          5.627236   0.000000
     24          5.738959   0.000000
     25          6.463256   0.000000
     26          6.502441   0.000000
     27          6.732217   0.000000
     28          7.188222   0.000000
     29          8.311828   0.000000
     30          8.850840   0.000000
     31          8.895066   0.000000
     32          9.821644   0.000000
     33          9.922949   0.000000
     34          9.926030   0.000000
     35         10.377933   0.000000
     36         10.800264   0.000000
     37         11.468738   0.000000
     38         11.965461   0.000000
     39         12.179682   0.000000
     40         12.420519   0.000000
     41         12.596812   0.000000
     42         13.087842   0.000000
     43         14.846298   0.000000
     44         14.905346   0.000000
     45         15.207227   0.000000
     46         15.582419   0.000000
     47         15.632491   0.000000
     48         16.272618   0.000000
 
  0.4375000E+00  0.0000000E+00  0.0000000E+00  0.3246753E-02
      1        -12.302051   1.000000
      2        -12.078632   1.000000
      3         -8.437515   1.000000
      4         -8.362485   1.000000
      5         -6.164095   1.000000
      6         -6.147736   1.000000
      7         -3.986780   1.000000
      8         -3.368914   1.000000
      9         -3.243791   1.000000
     10         -3.037521   1.000000
     11         -2.469605   1.000000
     12         -2.353711   1.000000
     13         -2.024536   1.000000
     14         -1.886030   1.000000
     15         -0.813992   1.000000
     16         -0.552509   1.000000
     17          0.348157   1.000000
     18          0.371987   1.000000
     19          0.824202   1.000000
     20          1.228832   1.000000
     21          1.621517   0.999878
     22          1.640043   0.999670
     23          5.664750   0.000000
     24          5.736877   0.000000
     25          6.439184   0.000000
     26          6.537892   0.000000
     27          7.312141   0.000000
     28          7.995598   0.000000
     29          8.230933   0.000000
     30          8.445797   0.000000
     31          8.618902   0.000000
     32          8.882602   0.000000
     33         10.485001   0.000000
     34         10.495934   0.000000
     35         10.677312   0.000000
     36         11.383378   0.000000
     37         11.396499   0.000000
     38         11.710317   0.000000
     39         11.788988   0.000000
     40         12.423627   0.000000
     41         12.605801   0.000000
     42         13.298263   0.000000
     43         14.543967   0.000000
     44         14.706852   0.000000
     45         14.870390   0.000000
     46         14.949312   0.000000
     47         16.039114   0.000000
     48         16.496185   0.000000
 
  0.6250000E-01  0.9090909E-01  0.0000000E+00  0.6493506E-02
      1        -12.671333   1.000000
      2        -11.515873   1.000000
      3         -8.639456   1.000000
      4         -8.345478   1.000000
      5         -6.014781   1.000000
      6         -5.175273   1.000000
      7         -4.703478   1.000000
      8         -4.427586   1.000000
      9         -4.155857   1.000000
     10         -3.427807   1.000000
     11         -3.100702   1.000000
     12         -1.914555   1.000000
     13         -1.175009   1.000000
     14         -1.126996   1.000000
     15         -0.243264   1.000000
     16         -0.162803   1.000000
     17          0.091378   1.000000
     18          0.114765   1.000000
     19          0.732292   1.000000
     20          1.885463   0.473988
     21          1.891883   0.437998
     22          2.281061   0.000000
     23          5.576640   0.000000
     24          5.728653   0.000000
     25          5.847388   0.000000
     26          5.897450   0.000000
     27          6.944858   0.000000
     28          7.728794   0.000000
     29          8.149423   0.000000
     30          8.193708   0.000000
     31          8.930030   0.000000
     32          9.081618   0.000000
     33          9.128031   0.000000
     34         10.443620   0.000000
     35         11.255239   0.000000
     36         11.397809   0.000000
     37         11.567461   0.000000
     38         11.609441   0.000000
     39         12.086101   0.000000
     40         12.540357   0.000000
     41         12.984836   0.000000
     42         13.199066   0.000000
     43         13.293769   0.000000
     44         15.335245   0.000000
     45         15.393835   0.000000
     46         15.925758   0.000000
     47         16.004105   0.000000
     48         16.264479   0.000000
 
  0.1875000E+00  0.9090909E-01  0.0000000E+00  0.6493506E-02
      1        -12.602602   1.000000
      2        -11.631979   1.000000
      3         -8.598046   1.000000
      4         -8.329531   1.000000
      5         -5.933362   1.000000
      6         -5.611930   1.000000
      7         -4.821010   1.000000
      8         -4.296942   1.000000
      9         -3.598580   1.000000
     10         -3.213269   1.000000
     11         -2.946235   1.000000
     12         -1.880556   1.000000
     13         -1.582878   1.000000
     14         -1.338045   1.000000
     15         -0.233239   1.000000
     16         -0.110013   1.000000
     17          0.038403   1.000000
     18          0.188386   1.000000
     19          0.575640   1.000000
     20          1.748806   0.969074
     21          1.773729   0.935101
     22          2.072437   0.003370
     23          5.741645   0.000000
     24          5.850370   0.000000
     25          5.859793   0.000000
     26          6.318976   0.000000
     27          6.833305   0.000000
     28          7.333965   0.000000
     29          8.370495   0.000000
     30          8.406128   0.000000
     31          9.131042   0.000000
     32          9.382714   0.000000
     33          9.516057   0.000000
     34         10.371008   0.000000
     35         10.658478   0.000000
     36         10.864119   0.000000
     37         11.491254   0.000000
     38         11.770400   0.000000
     39         12.390372   0.000000
     40         12.643282   0.000000
     41         12.744927   0.000000
     42         13.212858   0.000000
     43         14.010827   0.000000
     44         14.861696   0.000000
     45         15.462019   0.000000
     46         15.750722   0.000000
     47         15.862017   0.000000
     48         16.525887   0.000000
 
  0.3125000E+00  0.9090909E-01  0.0000000E+00  0.6493506E-02
      1        -12.469716   1.000000
      2        -11.829171   1.000000
      3         -8.518285   1.000000
      4         -8.318880   1.000000
      5         -5.989929   1.000000
      6         -5.964422   1.000000
      7         -4.576716   1.000000
      8         -4.130836   1.000000
      9         -3.405716   1.000000
     10         -2.973310   1.000000
     11         -2.334286   1.000000
     12         -2.253794   1.000000
     13         -1.809318   1.000000
     14         -1.541508   1.000000
     15         -0.508888   1.000000
     16         -0.149211   1.000000
     17          0.157658   1.000000
     18          0.180401   1.000000
     19          0.546155   1.000000
     20          1.542708   0.999999
     21          1.591275   0.999979
     22          1.699548   0.994826
     23          5.770125   0.000000
     24          5.954226   0.000000
     25          6.352563   0.000000
     26          6.714171   0.000000
     27          6.830479   0.000000
     28          7.215224   0.000000
     29          8.515340   0.000000
     30          8.571907   0.000000
     31          8.990190   0.000000
     32          9.669387   0.000000
     33          9.953012   0.000000
     34         10.095863   0.000000
     35         10.251558   0.000000
     36         10.893736   0.000000
     37         11.521209   0.000000
     38         12.018782   0.000000
     39         12.242472   0.000000
     40         12.582072   0.000000
     41         12.627430   0.000000
     42         13.245249   0.000000
     43         14.671189   0.000000
     44         14.939847   0.000000
     45         15.327042   0.000000
     46         15.416285   0.000000
     47         15.540934   0.000000
     48         16.316802   0.000000
 
  0.4375000E+00  0.9090909E-01  0.0000000E+00  0.6493506E-02
      1        -12.282819   1.000000
      2        -12.059776   1.000000
      3         -8.421203   1.000000
      4         -8.345561   1.000000
      5         -6.137898   1.000000
      6         -6.121124   1.000000
      7         -3.976277   1.000000
      8         -3.908951   1.000000
      9         -3.652762   1.000000
     10         -3.230048   1.000000
     11         -2.194600   1.000000
     12         -1.903585   1.000000
     13         -1.703179   1.000000
     14         -1.682900   1.000000
     15         -0.783619   1.000000
     16         -0.553322   1.000000
     17          0.230355   1.000000
     18          0.253046   1.000000
     19          0.832078   1.000000
     20          1.235244   1.000000
     21          1.417284   1.000000
     22          1.434937   1.000000
     23          5.828851   0.000000
     24          5.927197   0.000000
     25          6.703120   0.000000
     26          6.788835   0.000000
     27          7.157675   0.000000
     28          7.880935   0.000000
     29          8.056747   0.000000
     30          8.626393   0.000000
     31          8.714035   0.000000
     32          8.797354   0.000000
     33         10.325361   0.000000
     34         10.539839   0.000000
     35         10.721142   0.000000
     36         11.031600   0.000000
     37         11.603962   0.000000
     38         11.755871   0.000000
     39         11.858566   0.000000
     40         12.576009   0.000000
     41         12.878612   0.000000
     42         13.490282   0.000000
     43         14.576691   0.000000
     44         14.745761   0.000000
     45         14.777383   0.000000
     46         15.045489   0.000000
     47         16.058308   0.000000
     48         16.469013   0.000000
 
  0.6250000E-01  0.1818182E+00  0.0000000E+00  0.6493506E-02
      1        -12.616446   1.000000
      2        -11.466381   1.000000
      3         -8.596886   1.000000
      4         -8.292554   1.000000
      5         -5.954238   1.000000
      6         -5.149146   1.000000
      7         -5.043966   1.000000
      8         -4.653310   1.000000
      9         -4.147155   1.000000
     10         -3.900545   1.000000
     11         -3.365671   1.000000
     12         -1.170050   1.000000
     13         -1.112344   1.000000
     14         -0.694412   1.000000
     15         -0.466129   1.000000
     16         -0.076859   1.000000
     17          0.140992   1.000000
     18          0.144053   1.000000
     19          0.841084   1.000000
     20          1.398856   1.000000
     21          1.405116   1.000000
     22          2.326807   0.000000
     23          5.253963   0.000000
     24          5.459267   0.000000
     25          6.125978   0.000000
     26          6.232566   0.000000
     27          7.476779   0.000000
     28          7.618600   0.000000
     29          8.334150   0.000000
     30          8.822313   0.000000
     31          9.000724   0.000000
     32          9.243619   0.000000
     33          9.393688   0.000000
     34         10.850973   0.000000
     35         11.250050   0.000000
     36         11.556183   0.000000
     37         11.789476   0.000000
     38         11.908879   0.000000
     39         12.330504   0.000000
     40         12.675791   0.000000
     41         12.782479   0.000000
     42         13.112981   0.000000
     43         13.181292   0.000000
     44         14.664291   0.000000
     45         15.118984   0.000000
     46         15.333399   0.000000
     47         15.428646   0.000000
     48         15.915781   0.000000
 
  0.1875000E+00  0.1818182E+00  0.0000000E+00  0.6493506E-02
      1        -12.548056   1.000000
      2        -11.581994   1.000000
      3         -8.554941   1.000000
      4         -8.277994   1.000000
      5         -5.866150   1.000000
      6         -5.547042   1.000000
      7         -5.000897   1.000000
      8         -4.778410   1.000000
      9         -4.003849   1.000000
     10         -3.543681   1.000000
     11         -2.892053   1.000000
     12         -1.569003   1.000000
     13         -1.129329   1.000000
     14         -0.820710   1.000000
     15         -0.411483   1.000000
     16         -0.061443   1.000000
     17          0.037421   1.000000
     18          0.221166   1.000000
     19          0.663742   1.000000
     20          1.272331   1.000000
     21          1.293953   1.000000
     22          2.108296   0.000649
     23          5.440299   0.000000
     24          5.935005   0.000000
     25          6.064063   0.000000
     26          6.376942   0.000000
     27          7.377016   0.000000
     28          7.851289   0.000000
     29          8.025754   0.000000
     30          8.943647   0.000000
     31          9.279168   0.000000
     32          9.508964   0.000000
     33          9.805785   0.000000
     34         10.281026   0.000000
     35         10.560373   0.000000
     36         11.072211   0.000000
     37         11.776569   0.000000
     38         12.263884   0.000000
     39         12.290104   0.000000
     40         12.644314   0.000000
     41         13.258035   0.000000
     42         13.273257   0.000000
     43         13.611490   0.000000
     44         14.660068   0.000000
     45         14.729791   0.000000
     46         15.275698   0.000000
     47         15.517079   0.000000
     48         16.022438   0.000000
 
  0.3125000E+00  0.1818182E+00  0.0000000E+00  0.6493506E-02
      1        -12.415807   1.000000
      2        -11.778307   1.000000
      3         -8.474519   1.000000
      4         -8.269834   1.000000
      5         -5.916503   1.000000
      6         -5.894838   1.000000
      7         -4.855369   1.000000
      8         -4.542411   1.000000
      9         -4.189037   1.000000
     10         -2.912099   1.000000
     11         -2.280909   1.000000
     12         -2.223365   1.000000
     13         -1.067426   1.000000
     14         -0.981651   1.000000
     15         -0.369854   1.000000
     16         -0.369752   1.000000
     17          0.121960   1.000000
     18          0.183883   1.000000
     19          0.575338   1.000000
     20          1.077571   1.000000
     21          1.131770   1.000000
     22          1.718690   0.989084
     23          5.981019   0.000000
     24          6.061311   0.000000
     25          6.445585   0.000000
     26          6.575139   0.000000
     27          7.309723   0.000000
     28          7.853423   0.000000
     29          8.092922   0.000000
     30          9.075265   0.000000
     31          9.212940   0.000000
     32          9.361959   0.000000
     33          9.954327   0.000000
     34         10.055270   0.000000
     35         10.539713   0.000000
     36         11.052867   0.000000
     37         11.275164   0.000000
     38         12.075130   0.000000
     39         12.663011   0.000000
     40         12.860657   0.000000
     41         12.956590   0.000000
     42         13.659632   0.000000
     43         14.252852   0.000000
     44         14.467425   0.000000
     45         14.951271   0.000000
     46         15.310124   0.000000
     47         15.445961   0.000000
     48         16.328757   0.000000
 
  0.4375000E+00  0.1818182E+00  0.0000000E+00  0.6493506E-02
      1        -12.229824   1.000000
      2        -12.007849   1.000000
      3         -8.376545   1.000000
      4         -8.299168   1.000000
      5         -6.065342   1.000000
      6         -6.047106   1.000000
      7         -4.653054   1.000000
      8         -4.419541   1.000000
      9         -3.944578   1.000000
     10         -3.202344   1.000000
     11         -2.102866   1.000000
     12         -1.845815   1.000000
     13         -1.073544   1.000000
     14         -0.992566   1.000000
     15         -0.670248   1.000000
     16         -0.591621   1.000000
     17          0.085429   1.000000
     18          0.141385   1.000000
     19          0.852585   1.000000
     20          0.950359   1.000000
     21          0.987173   1.000000
     22          1.264082   1.000000
     23          6.158542   0.000000
     24          6.328476   0.000000
     25          6.787073   0.000000
     26          7.172579   0.000000
     27          7.310282   0.000000
     28          7.693516   0.000000
     29          7.919250   0.000000
     30          8.498488   0.000000
     31          9.139382   0.000000
     32          9.166564   0.000000
     33          9.942643   0.000000
     34         10.524743   0.000000
     35         10.669020   0.000000
     36         10.951816   0.000000
     37         11.841820   0.000000
     38         11.862933   0.000000
     39         12.001578   0.000000
     40         12.922109   0.000000
     41         13.393219   0.000000
     42         13.820264   0.000000
     43         14.223273   0.000000
     44         14.380882   0.000000
     45         14.971730   0.000000
     46         15.139875   0.000000
     47         15.906718   0.000000
     48         16.331967   0.000000
 
  0.6250000E-01  0.2727273E+00  0.0000000E+00  0.6493506E-02
      1        -12.540943   1.000000
      2        -11.398537   1.000000
      3         -8.539362   1.000000
      4         -8.219838   1.000000
      5         -5.870770   1.000000
      6         -5.724471   1.000000
      7         -4.977595   1.000000
      8         -4.582855   1.000000
      9         -4.540749   1.000000
     10         -4.093364   1.000000
     11         -3.280816   1.000000
     12         -1.268283   1.000000
     13         -1.136331   1.000000
     14         -1.095889   1.000000
     15          0.032944   1.000000
     16          0.189076   1.000000
     17          0.189344   1.000000
     18          0.815275   1.000000
     19          0.851923   1.000000
     20          0.928270   1.000000
     21          0.996992   1.000000
     22          2.368366   0.000000
     23          4.851692   0.000000
     24          5.053632   0.000000
     25          6.325942   0.000000
     26          6.800525   0.000000
     27          7.201675   0.000000
     28          8.001375   0.000000
     29          8.816884   0.000000
     30          9.281398   0.000000
     31          9.501599   0.000000
     32          9.730769   0.000000
     33          9.877735   0.000000
     34         10.657906   0.000000
     35         11.175890   0.000000
     36         12.117962   0.000000
     37         12.172668   0.000000
     38         12.199461   0.000000
     39         12.328852   0.000000
     40         12.502616   0.000000
     41         12.547569   0.000000
     42         13.089190   0.000000
     43         13.576174   0.000000
     44         14.004908   0.000000
     45         14.283285   0.000000
     46         15.021795   0.000000
     47         15.484113   0.000000
     48         15.796557   0.000000
 
  0.1875000E+00  0.2727273E+00  0.0000000E+00  0.6493506E-02
      1        -12.473037   1.000000
      2        -11.513467   1.000000
      3         -8.496658   1.000000
      4         -8.207317   1.000000
      5         -5.772858   1.000000
      6         -5.667513   1.000000
      7         -5.405945   1.000000
      8         -4.719989   1.000000
      9         -4.643328   1.000000
     10         -3.471446   1.000000
     11         -2.808686   1.000000
     12         -1.552427   1.000000
     13         -1.192276   1.000000
     14         -1.137671   1.000000
     15         -0.012890   1.000000
     16         -0.001697   1.000000
     17          0.269487   1.000000
     18          0.689562   1.000000
     19          0.707539   1.000000
     20          0.856895   1.000000
     21          0.965229   1.000000
     22          2.146747   0.000085
     23          5.036161   0.000000
     24          5.531139   0.000000
     25          6.271648   0.000000
     26          6.958738   0.000000
     27          7.399547   0.000000
     28          7.980696   0.000000
     29          8.821820   0.000000
     30          9.412454   0.000000
     31          9.434359   0.000000
     32          9.873589   0.000000
     33         10.113819   0.000000
     34         10.159976   0.000000
     35         10.624950   0.000000
     36         11.619640   0.000000
     37         11.703043   0.000000
     38         12.348313   0.000000
     39         12.638423   0.000000
     40         12.778195   0.000000
     41         13.062525   0.000000
     42         13.453472   0.000000
     43         13.595436   0.000000
     44         14.033091   0.000000
     45         14.114713   0.000000
     46         15.048441   0.000000
     47         15.478417   0.000000
     48         15.737721   0.000000
 
  0.3125000E+00  0.2727273E+00  0.0000000E+00  0.6493506E-02
      1        -12.341728   1.000000
      2        -11.708539   1.000000
      3         -8.415222   1.000000
      4         -8.202788   1.000000
      5         -5.813727   1.000000
      6         -5.807443   1.000000
      7         -5.472104   1.000000
      8         -4.829385   1.000000
      9         -4.494511   1.000000
     10         -2.838915   1.000000
     11         -2.202452   1.000000
     12         -2.187652   1.000000
     13         -1.120519   1.000000
     14         -1.099924   1.000000
     15         -0.366653   1.000000
     16         -0.120548   1.000000
     17          0.250841   1.000000
     18          0.470835   1.000000
     19          0.597950   1.000000
     20          0.836258   1.000000
     21          0.925559   1.000000
     22          1.751818   0.965982
     23          5.578783   0.000000
     24          6.162515   0.000000
     25          6.327233   0.000000
     26          6.928976   0.000000
     27          7.564513   0.000000
     28          8.091732   0.000000
     29          8.800679   0.000000
     30          9.063401   0.000000
     31          9.289302   0.000000
     32          9.696668   0.000000
     33         10.030641   0.000000
     34         10.337423   0.000000
     35         10.988027   0.000000
     36         11.023512   0.000000
     37         11.351593   0.000000
     38         12.369790   0.000000
     39         12.736982   0.000000
     40         13.032180   0.000000
     41         13.145914   0.000000
     42         13.534581   0.000000
     43         13.693508   0.000000
     44         14.198835   0.000000
     45         14.532212   0.000000
     46         15.130662   0.000000
     47         15.262746   0.000000
     48         16.225557   0.000000
 
  0.4375000E+00  0.2727273E+00  0.0000000E+00  0.6493506E-02
      1        -12.157023   1.000000
      2        -11.936566   1.000000
      3         -8.315904   1.000000
      4         -8.235981   1.000000
      5         -5.965415   1.000000
      6         -5.943796   1.000000
      7         -5.284019   1.000000
      8         -5.056149   1.000000
      9         -3.902239   1.000000
     10         -3.162773   1.000000
     11         -2.027651   1.000000
     12         -1.785053   1.000000
     13         -1.003034   1.000000
     14         -0.989486   1.000000
     15         -0.733979   1.000000
     16         -0.508040   1.000000
     17          0.148458   1.000000
     18          0.256112   1.000000
     19          0.840618   1.000000
     20          0.881981   1.000000
     21          0.886201   1.000000
     22          1.293058   1.000000
     23          6.362611   0.000000
     24          6.451479   0.000000
     25          6.690800   0.000000
     26          6.961118   0.000000
     27          7.201923   0.000000
     28          7.716109   0.000000
     29          8.765924   0.000000
     30          8.786994   0.000000
     31          9.415056   0.000000
     32          9.823427   0.000000
     33          9.919637   0.000000
     34         10.089266   0.000000
     35         10.912943   0.000000
     36         11.323653   0.000000
     37         12.021373   0.000000
     38         12.120959   0.000000
     39         12.142079   0.000000
     40         13.206491   0.000000
     41         13.279859   0.000000
     42         13.456939   0.000000
     43         13.837233   0.000000
     44         13.909009   0.000000
     45         15.089872   0.000000
     46         15.136818   0.000000
     47         15.514291   0.000000
     48         15.885805   0.000000
 
  0.6250000E-01  0.3636364E+00  0.0000000E+00  0.6493506E-02
      1        -12.467487   1.000000
      2        -11.332807   1.000000
      3         -8.484601   1.000000
      4         -8.148977   1.000000
      5         -6.178714   1.000000
      6         -5.788725   1.000000
      7         -4.999635   1.000000
      8         -4.868830   1.000000