<?xml version="1.0" encoding="ISO-8859-1"?>
<modeling>
 <generator>
  <i name="program" type="string">vasp </i>
  <i name="version" type="string">6.4.3  </i>
  <i name="subversion" type="string">19Mar24 (build May 31 2024 16:31:43) complex                          parallel </i>
  <i name="platform" type="string">LinuxIFC </i>
  <i name="date" type="string">2024 10 29 </i>
  <i name="time" type="string">16:38:24 </i>
 </generator>
 <incar>
  <i type="string" name="SYSTEM">Kpoints</i>
  <i type="int" name="ISTART">     0</i>
  <i type="string" name="PREC">Accurate</i>
  <i type="string" name="ALGO">Normal</i>
  <i type="int" name="ISPIN">     1</i>
  <i type="int" name="ICHARG">     2</i>
  <i type="int" name="NELM">   100</i>
  <i type="int" name="IBRION">    -1</i>
  <i name="EDIFF">      0.00000100</i>
  <i name="EDIFFG">     -0.00100000</i>
  <i type="int" name="NSW">     0</i>
  <i type="int" name="ISIF">     2</i>
  <i name="ENCUT">    350.00000000</i>
  <i name="POTIM">      0.50000000</i>
  <i type="int" name="ISMEAR">     0</i>
  <i name="SIGMA">      0.05000000</i>
  <i type="logical" name="LWAVE"> F  </i>
  <i type="logical" name="LCHARG"> F  </i>
  <i type="string" name="GGA">PE</i>
 </incar>
 <primitive_cell>
  <structure name="primitive_cell" >
   <crystal>
    <varray name="basis" >
     <v>       5.69700000       0.00000000       0.00000000 </v>
     <v>       0.00000000       4.04790000       0.00000000 </v>
     <v>       0.00000000       0.00000000       6.20420000 </v>
    </varray>
    <i name="volume">    143.07435078 </i>
    <varray name="rec_basis" >
     <v>       0.17553098       0.00000000       0.00000000 </v>
     <v>       0.00000000       0.24704168       0.00000000 </v>
     <v>       0.00000000       0.00000000       0.16118114 </v>
    </varray>
   </crystal>
   <varray name="positions" >
    <v>       0.52123000       0.50000000       0.63796000 </v>
    <v>       0.47877000       0.50000000       0.36204000 </v>
    <v>       0.97877000       0.50000000       0.63796000 </v>
    <v>       0.02123000       0.50000000       0.36204000 </v>
    <v>       0.60090000       0.50000000       0.89991000 </v>
    <v>       0.39910000       0.50000000       0.10009000 </v>
    <v>       0.89910000       0.50000000       0.89991000 </v>
    <v>       0.10090000       0.50000000       0.10009000 </v>
    <v>       0.75000000       0.79171000       0.72973000 </v>
    <v>       0.25000000       0.20829000       0.27027000 </v>
    <v>       0.75000000       0.20829000       0.72973000 </v>
    <v>       0.25000000       0.79171000       0.27027000 </v>
    <v>       0.25000000       0.50000000       0.52367000 </v>
    <v>       0.75000000       0.50000000       0.47633000 </v>
   </varray>
  </structure>
  <varray name="primitive_index" >
   <v type="int" >        1 </v>
   <v type="int" >        2 </v>
   <v type="int" >        3 </v>
   <v type="int" >        4 </v>
   <v type="int" >        5 </v>
   <v type="int" >        6 </v>
   <v type="int" >        7 </v>
   <v type="int" >        8 </v>
   <v type="int" >        9 </v>
   <v type="int" >       10 </v>
   <v type="int" >       11 </v>
   <v type="int" >       12 </v>
   <v type="int" >       13 </v>
   <v type="int" >       14 </v>
  </varray>
 </primitive_cell>
 <kpoints>
  <generation param="Monkhorst-Pack">
   <v type="int" name="divisions">      10       14        9 </v>
   <v name="usershift">      0.00000000       0.00000000       0.00000000 </v>
   <v name="genvec1">      0.10000000       0.00000000       0.00000000 </v>
   <v name="genvec2">      0.00000000       0.07142857       0.00000000 </v>
   <v name="genvec3">      0.00000000       0.00000000       0.11111111 </v>
   <v name="shift">      0.50000000       0.50000000       0.00000000 </v>
  </generation>
  <varray name="kpointlist" >
   <v>       0.05000000       0.03571429       0.00000000 </v>
   <v>       0.15000000       0.03571429       0.00000000 </v>
   <v>       0.25000000       0.03571429       0.00000000 </v>
   <v>       0.35000000       0.03571429       0.00000000 </v>
   <v>       0.45000000       0.03571429       0.00000000 </v>
   <v>       0.05000000       0.10714286       0.00000000 </v>
   <v>       0.15000000       0.10714286       0.00000000 </v>
   <v>       0.25000000       0.10714286       0.00000000 </v>
   <v>       0.35000000       0.10714286       0.00000000 </v>
   <v>       0.45000000       0.10714286       0.00000000 </v>
   <v>       0.05000000       0.17857143       0.00000000 </v>
   <v>       0.15000000       0.17857143       0.00000000 </v>
   <v>       0.25000000       0.17857143       0.00000000 </v>
   <v>       0.35000000       0.17857143       0.00000000 </v>
   <v>       0.45000000       0.17857143       0.00000000 </v>
   <v>       0.05000000       0.25000000       0.00000000 </v>
   <v>       0.15000000       0.25000000       0.00000000 </v>
   <v>       0.25000000       0.25000000       0.00000000 </v>
   <v>       0.35000000       0.25000000       0.00000000 </v>
   <v>       0.45000000       0.25000000       0.00000000 </v>
   <v>       0.05000000       0.32142857       0.00000000 </v>
   <v>       0.15000000       0.32142857       0.00000000 </v>
   <v>       0.25000000       0.32142857       0.00000000 </v>
   <v>       0.35000000       0.32142857       0.00000000 </v>
   <v>       0.45000000       0.32142857       0.00000000 </v>
   <v>       0.05000000       0.39285714       0.00000000 </v>
   <v>       0.15000000       0.39285714       0.00000000 </v>
   <v>       0.25000000       0.39285714       0.00000000 </v>
   <v>       0.35000000       0.39285714       0.00000000 </v>
   <v>       0.45000000       0.39285714       0.00000000 </v>
   <v>       0.05000000       0.46428571       0.00000000 </v>
   <v>       0.15000000       0.46428571       0.00000000 </v>
   <v>       0.25000000       0.46428571       0.00000000 </v>
   <v>       0.35000000       0.46428571       0.00000000 </v>
   <v>       0.45000000       0.46428571       0.00000000 </v>
   <v>       0.05000000       0.03571429       0.11111111 </v>
   <v>       0.15000000       0.03571429       0.11111111 </v>
   <v>       0.25000000       0.03571429       0.11111111 </v>
   <v>       0.35000000       0.03571429       0.11111111 </v>
   <v>       0.45000000       0.03571429       0.11111111 </v>
   <v>       0.05000000       0.10714286       0.11111111 </v>
   <v>       0.15000000       0.10714286       0.11111111 </v>
   <v>       0.25000000       0.10714286       0.11111111 </v>
   <v>       0.35000000       0.10714286       0.11111111 </v>
   <v>       0.45000000       0.10714286       0.11111111 </v>
   <v>       0.05000000       0.17857143       0.11111111 </v>
   <v>       0.15000000       0.17857143       0.11111111 </v>
   <v>       0.25000000       0.17857143       0.11111111 </v>
   <v>       0.35000000       0.17857143       0.11111111 </v>
   <v>       0.45000000       0.17857143       0.11111111 </v>
   <v>       0.05000000       0.25000000       0.11111111 </v>
   <v>       0.15000000       0.25000000       0.11111111 </v>
   <v>       0.25000000       0.25000000       0.11111111 </v>
   <v>       0.35000000       0.25000000       0.11111111 </v>
   <v>       0.45000000       0.25000000       0.11111111 </v>
   <v>       0.05000000       0.32142857       0.11111111 </v>
   <v>       0.15000000       0.32142857       0.11111111 </v>
   <v>       0.25000000       0.32142857       0.11111111 </v>
   <v>       0.35000000       0.32142857       0.11111111 </v>
   <v>       0.45000000       0.32142857       0.11111111 </v>
   <v>       0.05000000       0.39285714       0.11111111 </v>
   <v>       0.15000000       0.39285714       0.11111111 </v>
   <v>       0.25000000       0.39285714       0.11111111 </v>
   <v>       0.35000000       0.39285714       0.11111111 </v>
   <v>       0.45000000       0.39285714       0.11111111 </v>
   <v>       0.05000000       0.46428571       0.11111111 </v>
   <v>       0.15000000       0.46428571       0.11111111 </v>
   <v>       0.25000000       0.46428571       0.11111111 </v>
   <v>       0.35000000       0.46428571       0.11111111 </v>
   <v>       0.45000000       0.46428571       0.11111111 </v>
   <v>       0.05000000       0.03571429       0.22222222 </v>
   <v>       0.15000000       0.03571429       0.22222222 </v>
   <v>       0.25000000       0.03571429       0.22222222 </v>
   <v>       0.35000000       0.03571429       0.22222222 </v>
   <v>       0.45000000       0.03571429       0.22222222 </v>
   <v>       0.05000000       0.10714286       0.22222222 </v>
   <v>       0.15000000       0.10714286       0.22222222 </v>
   <v>       0.25000000       0.10714286       0.22222222 </v>
   <v>       0.35000000       0.10714286       0.22222222 </v>
   <v>       0.45000000       0.10714286       0.22222222 </v>
   <v>       0.05000000       0.17857143       0.22222222 </v>
   <v>       0.15000000       0.17857143       0.22222222 </v>
   <v>       0.25000000       0.17857143       0.22222222 </v>
   <v>       0.35000000       0.17857143       0.22222222 </v>
   <v>       0.45000000       0.17857143       0.22222222 </v>
   <v>       0.05000000       0.25000000       0.22222222 </v>
   <v>       0.15000000       0.25000000       0.22222222 </v>
   <v>       0.25000000       0.25000000       0.22222222 </v>
   <v>       0.35000000       0.25000000       0.22222222 </v>
   <v>       0.45000000       0.25000000       0.22222222 </v>
   <v>       0.05000000       0.32142857       0.22222222 </v>
   <v>       0.15000000       0.32142857       0.22222222 </v>
   <v>       0.25000000       0.32142857       0.22222222 </v>
   <v>       0.35000000       0.32142857       0.22222222 </v>
   <v>       0.45000000       0.32142857       0.22222222 </v>
   <v>       0.05000000       0.39285714       0.22222222 </v>
   <v>       0.15000000       0.39285714       0.22222222 </v>
   <v>       0.25000000       0.39285714       0.22222222 </v>
   <v>       0.35000000       0.39285714       0.22222222 </v>
   <v>       0.45000000       0.39285714       0.22222222 </v>
   <v>       0.05000000       0.46428571       0.22222222 </v>
   <v>       0.15000000       0.46428571       0.22222222 </v>
   <v>       0.25000000       0.46428571       0.22222222 </v>
   <v>       0.35000000       0.46428571       0.22222222 </v>
   <v>       0.45000000       0.46428571       0.22222222 </v>
   <v>       0.05000000       0.03571429       0.33333333 </v>
   <v>       0.15000000       0.03571429       0.33333333 </v>
   <v>       0.25000000       0.03571429       0.33333333 </v>
   <v>       0.35000000       0.03571429       0.33333333 </v>
   <v>       0.45000000       0.03571429       0.33333333 </v>
   <v>       0.05000000       0.10714286       0.33333333 </v>
   <v>       0.15000000       0.10714286       0.33333333 </v>
   <v>       0.25000000       0.10714286       0.33333333 </v>
   <v>       0.35000000       0.10714286       0.33333333 </v>
   <v>       0.45000000       0.10714286       0.33333333 </v>
   <v>       0.05000000       0.17857143       0.33333333 </v>
   <v>       0.15000000       0.17857143       0.33333333 </v>
   <v>       0.25000000       0.17857143       0.33333333 </v>
   <v>       0.35000000       0.17857143       0.33333333 </v>
   <v>       0.45000000       0.17857143       0.33333333 </v>
   <v>       0.05000000       0.25000000       0.33333333 </v>
   <v>       0.15000000       0.25000000       0.33333333 </v>
   <v>       0.25000000       0.25000000       0.33333333 </v>
   <v>       0.35000000       0.25000000       0.33333333 </v>
   <v>       0.45000000       0.25000000       0.33333333 </v>
   <v>       0.05000000       0.32142857       0.33333333 </v>
   <v>       0.15000000       0.32142857       0.33333333 </v>
   <v>       0.25000000       0.32142857       0.33333333 </v>
   <v>       0.35000000       0.32142857       0.33333333 </v>
   <v>       0.45000000       0.32142857       0.33333333 </v>
   <v>       0.05000000       0.39285714       0.33333333 </v>
   <v>       0.15000000       0.39285714       0.33333333 </v>
   <v>       0.25000000       0.39285714       0.33333333 </v>
   <v>       0.35000000       0.39285714       0.33333333 </v>
   <v>       0.45000000       0.39285714       0.33333333 </v>
   <v>       0.05000000       0.46428571       0.33333333 </v>
   <v>       0.15000000       0.46428571       0.33333333 </v>
   <v>       0.25000000       0.46428571       0.33333333 </v>
   <v>       0.35000000       0.46428571       0.33333333 </v>
   <v>       0.45000000       0.46428571       0.33333333 </v>
   <v>       0.05000000       0.03571429       0.44444444 </v>
   <v>       0.15000000       0.03571429       0.44444444 </v>
   <v>       0.25000000       0.03571429       0.44444444 </v>
   <v>       0.35000000       0.03571429       0.44444444 </v>
   <v>       0.45000000       0.03571429       0.44444444 </v>
   <v>       0.05000000       0.10714286       0.44444444 </v>
   <v>       0.15000000       0.10714286       0.44444444 </v>
   <v>       0.25000000       0.10714286       0.44444444 </v>
   <v>       0.35000000       0.10714286       0.44444444 </v>
   <v>       0.45000000       0.10714286       0.44444444 </v>
   <v>       0.05000000       0.17857143       0.44444444 </v>
   <v>       0.15000000       0.17857143       0.44444444 </v>
   <v>       0.25000000       0.17857143       0.44444444 </v>
   <v>       0.35000000       0.17857143       0.44444444 </v>
   <v>       0.45000000       0.17857143       0.44444444 </v>
   <v>       0.05000000       0.25000000       0.44444444 </v>
   <v>       0.15000000       0.25000000       0.44444444 </v>
   <v>       0.25000000       0.25000000       0.44444444 </v>
   <v>       0.35000000       0.25000000       0.44444444 </v>
   <v>       0.45000000       0.25000000       0.44444444 </v>
   <v>       0.05000000       0.32142857       0.44444444 </v>
   <v>       0.15000000       0.32142857       0.44444444 </v>
   <v>       0.25000000       0.32142857       0.44444444 </v>
   <v>       0.35000000       0.32142857       0.44444444 </v>
   <v>       0.45000000       0.32142857       0.44444444 </v>
   <v>       0.05000000       0.39285714       0.44444444 </v>
   <v>       0.15000000       0.39285714       0.44444444 </v>
   <v>       0.25000000       0.39285714       0.44444444 </v>
   <v>       0.35000000       0.39285714       0.44444444 </v>
   <v>       0.45000000       0.39285714       0.44444444 </v>
   <v>       0.05000000       0.46428571       0.44444444 </v>
   <v>       0.15000000       0.46428571       0.44444444 </v>
   <v>       0.25000000       0.46428571       0.44444444 </v>
   <v>       0.35000000       0.46428571       0.44444444 </v>
   <v>       0.45000000       0.46428571       0.44444444 </v>
  </varray>
  <varray name="weights" >
   <v>       0.00317460 </v>
   <v>       0.00317460 </v>
   <v>       0.00317460 </v>
   <v>       0.00317460 </v>
   <v>       0.00317460 </v>
   <v>       0.00317460 </v>
   <v>       0.00317460 </v>
   <v>       0.00317460 </v>
   <v>       0.00317460 </v>
   <v>       0.00317460 </v>
   <v>       0.00317460 </v>
   <v>       0.00317460 </v>
   <v>       0.00317460 </v>
   <v>       0.00317460 </v>
   <v>       0.00317460 </v>
   <v>       0.00317460 </v>
   <v>       0.00317460 </v>
   <v>       0.00317460 </v>
   <v>       0.00317460 </v>
   <v>       0.00317460 </v>
   <v>       0.00317460 </v>
   <v>       0.00317460 </v>
   <v>       0.00317460 </v>
   <v>       0.00317460 </v>
   <v>       0.00317460 </v>
   <v>       0.00317460 </v>
   <v>       0.00317460 </v>
   <v>       0.00317460 </v>
   <v>       0.00317460 </v>
   <v>       0.00317460 </v>
   <v>       0.00317460 </v>
   <v>       0.00317460 </v>
   <v>       0.00317460 </v>
   <v>       0.00317460 </v>
   <v>       0.00317460 </v>
   <v>       0.00634921 </v>
   <v>       0.00634921 </v>
   <v>       0.00634921 </v>
   <v>       0.00634921 </v>
   <v>       0.00634921 </v>
   <v>       0.00634921 </v>
   <v>       0.00634921 </v>
   <v>       0.00634921 </v>
   <v>       0.00634921 </v>
   <v>       0.00634921 </v>
   <v>       0.00634921 </v>
   <v>       0.00634921 </v>
   <v>       0.00634921 </v>
   <v>       0.00634921 </v>
   <v>       0.00634921 </v>
   <v>       0.00634921 </v>
   <v>       0.00634921 </v>
   <v>       0.00634921 </v>
   <v>       0.00634921 </v>
   <v>       0.00634921 </v>
   <v>       0.00634921 </v>
   <v>       0.00634921 </v>
   <v>       0.00634921 </v>
   <v>       0.00634921 </v>
   <v>       0.00634921 </v>
   <v>       0.00634921 </v>
   <v>       0.00634921 </v>
   <v>       0.00634921 </v>
   <v>       0.00634921 </v>
   <v>       0.00634921 </v>
   <v>       0.00634921 </v>
   <v>       0.00634921 </v>
   <v>       0.00634921 </v>
   <v>       0.00634921 </v>
   <v>       0.00634921 </v>
   <v>       0.00634921 </v>
   <v>       0.00634921 </v>
   <v>       0.00634921 </v>
   <v>       0.00634921 </v>
   <v>       0.00634921 </v>
   <v>       0.00634921 </v>
   <v>       0.00634921 </v>
   <v>       0.00634921 </v>
   <v>       0.00634921 </v>
   <v>       0.00634921 </v>
   <v>       0.00634921 </v>
   <v>       0.00634921 </v>
   <v>       0.00634921 </v>
   <v>       0.00634921 </v>
   <v>       0.00634921 </v>
   <v>       0.00634921 </v>
   <v>       0.00634921 </v>
   <v>       0.00634921 </v>
   <v>       0.00634921 </v>
   <v>       0.00634921 </v>
   <v>       0.00634921 </v>
   <v>       0.00634921 </v>
   <v>       0.00634921 </v>
   <v>       0.00634921 </v>
   <v>       0.00634921 </v>
   <v>       0.00634921 </v>
   <v>       0.00634921 </v>
   <v>       0.00634921 </v>
   <v>       0.00634921 </v>
   <v>       0.00634921 </v>
   <v>       0.00634921 </v>
   <v>       0.00634921 </v>
   <v>       0.00634921 </v>
   <v>       0.00634921 </v>
   <v>       0.00634921 </v>
   <v>       0.00634921 </v>
   <v>       0.00634921 </v>
   <v>       0.00634921 </v>
   <v>       0.00634921 </v>
   <v>       0.00634921 </v>
   <v>       0.00634921 </v>
   <v>       0.00634921 </v>
   <v>       0.00634921 </v>
   <v>       0.00634921 </v>
   <v>       0.00634921 </v>
   <v>       0.00634921 </v>
   <v>       0.00634921 </v>
   <v>       0.00634921 </v>
   <v>       0.00634921 </v>
   <v>       0.00634921 </v>
   <v>       0.00634921 </v>
   <v>       0.00634921 </v>
   <v>       0.00634921 </v>
   <v>       0.00634921 </v>
   <v>       0.00634921 </v>
   <v>       0.00634921 </v>
   <v>       0.00634921 </v>
   <v>       0.00634921 </v>
   <v>       0.00634921 </v>
   <v>       0.00634921 </v>
   <v>       0.00634921 </v>
   <v>       0.00634921 </v>
   <v>       0.00634921 </v>
   <v>       0.00634921 </v>
   <v>       0.00634921 </v>
   <v>       0.00634921 </v>
   <v>       0.00634921 </v>
   <v>       0.00634921 </v>
   <v>       0.00634921 </v>
   <v>       0.00634921 </v>
   <v>       0.00634921 </v>
   <v>       0.00634921 </v>
   <v>       0.00634921 </v>
   <v>       0.00634921 </v>
   <v>       0.00634921 </v>
   <v>       0.00634921 </v>
   <v>       0.00634921 </v>
   <v>       0.00634921 </v>
   <v>       0.00634921 </v>
   <v>       0.00634921 </v>
   <v>       0.00634921 </v>
   <v>       0.00634921 </v>
   <v>       0.00634921 </v>
   <v>       0.00634921 </v>
   <v>       0.00634921 </v>
   <v>       0.00634921 </v>
   <v>       0.00634921 </v>
   <v>       0.00634921 </v>
   <v>       0.00634921 </v>
   <v>       0.00634921 </v>
   <v>       0.00634921 </v>
   <v>       0.00634921 </v>
   <v>       0.00634921 </v>
   <v>       0.00634921 </v>
   <v>       0.00634921 </v>
   <v>       0.00634921 </v>
   <v>       0.00634921 </v>
   <v>       0.00634921 </v>
   <v>       0.00634921 </v>
   <v>       0.00634921 </v>
   <v>       0.00634921 </v>
   <v>       0.00634921 </v>
   <v>       0.00634921 </v>
   <v>       0.00634921 </v>
   <v>       0.00634921 </v>
  </varray>
 </kpoints>
 <parameters>
  <separator name="general" >
   <i type="string" name="SYSTEM">Kpoints</i>
   <i type="logical" name="LCOMPAT"> F  </i>
  </separator>
  <separator name="electronic" >
   <i type="string" name="PREC">accura</i>
   <i name="ENMAX">    350.00000000</i>
   <i name="ENAUG">    535.51400000</i>
   <i name="EDIFF">      0.00000100</i>
   <i type="int" name="IALGO">    38</i>
   <i type="int" name="IWAVPR">    10</i>
   <i type="int" name="NBANDS">    48</i>
   <i type="int" name="NBANDSLOW">    -1</i>
   <i type="int" name="NBANDSHIGH">    -1</i>
   <i name="NELECT">     42.00000000</i>
   <i type="int" name="TURBO">     0</i>
   <i type="int" name="IRESTART">     0</i>
   <i type="int" name="NREBOOT">     0</i>
   <i type="int" name="NMIN">     0</i>
   <i name="EREF">      0.00000000</i>
   <separator name="electronic smearing" >
    <i type="int" name="ISMEAR">     0</i>
    <i name="SIGMA">      0.05000000</i>
    <i name="KSPACING">      0.50000000</i>
    <i type="logical" name="KGAMMA"> T  </i>
    <i type="logical" name="KBLOWUP"> T  </i>
   </separator>
   <separator name="electronic projectors" >
    <i type="logical" name="LREAL"> F  </i>
    <v name="ROPT">      0.00000000</v>
    <i type="int" name="LMAXPAW">  -100</i>
    <i type="int" name="LMAXMIX">     2</i>
    <i type="logical" name="NLSPLINE"> F  </i>
   </separator>
   <separator name="electronic startup" >
    <i type="int" name="ISTART">     0</i>
    <i type="int" name="ICHARG">     2</i>
    <i type="int" name="INIWAV">     1</i>
   </separator>
   <separator name="electronic spin" >
    <i type="int" name="ISPIN">     1</i>
    <i type="logical" name="LNONCOLLINEAR"> F  </i>
    <v name="MAGMOM">      1.00000000      1.00000000      1.00000000      1.00000000      1.00000000      1.00000000      1.00000000      1.00000000      1.00000000      1.00000000      1.00000000      1.00000000      1.00000000      1.00000000</v>
    <i name="NUPDOWN">     -1.00000000</i>
    <i type="logical" name="LSORBIT"> F  </i>
    <v name="SAXIS">      0.00000000      0.00000000      1.00000000</v>
    <i type="logical" name="LSPIRAL"> F  </i>
    <v name="QSPIRAL">      0.00000000      0.00000000      0.00000000</v>
    <i type="logical" name="LZEROZ"> F  </i>
   </separator>
   <separator name="electronic exchange-correlation" >
    <i type="logical" name="LASPH"> F  </i>
   </separator>
   <separator name="electronic convergence" >
    <i type="int" name="NELM">   100</i>
    <i type="int" name="NELMDL">    -5</i>
    <i type="int" name="NELMIN">     2</i>
    <i name="ENINI">    350.00000000</i>
    <separator name="electronic convergence detail" >
     <i type="logical" name="LDIAG"> T  </i>
     <i type="logical" name="LSUBROT"> F  </i>
     <i name="WEIMIN">      0.00000000</i>
     <i name="EBREAK">      0.00000001</i>
     <i name="DEPER">      0.30000000</i>
     <i type="int" name="NRMM">     4</i>
     <i name="TIME">      0.40000000</i>
    </separator>
   </separator>
   <separator name="electronic mixer" >
    <i name="AMIX">      0.40000000</i>
    <i name="BMIX">      1.00000000</i>
    <i name="AMIN">      0.10000000</i>
    <i name="AMIX_MAG">      1.60000000</i>
    <i name="BMIX_MAG">      1.00000000</i>
    <separator name="electronic mixer details" >
     <i type="int" name="IMIX">     4</i>
     <i type="logical" name="MIXFIRST"> F  </i>
     <i type="int" name="MAXMIX">   -45</i>
     <i name="WC">    100.00000000</i>
     <i type="int" name="INIMIX">     1</i>
     <i type="int" name="MIXPRE">     1</i>
     <i type="int" name="MREMOVE">     5</i>
    </separator>
   </separator>
   <separator name="electronic dipolcorrection" >
    <i type="logical" name="LDIPOL"> F  </i>
    <i type="logical" name="LMONO"> F  </i>
    <i type="int" name="IDIPOL">     0</i>
    <i name="EPSILON">      1.00000000</i>
    <v name="DIPOL">   -100.00000000   -100.00000000   -100.00000000</v>
    <i name="EFIELD">      0.00000000</i>
    <i type="logical" name="LVACPOTAV"> F  </i>
   </separator>
  </separator>
  <separator name="grids" >
   <i type="int" name="NGX">    36</i>
   <i type="int" name="NGY">    28</i>
   <i type="int" name="NGZ">    40</i>
   <i type="int" name="NGXF">    72</i>
   <i type="int" name="NGYF">    56</i>
   <i type="int" name="NGZF">    80</i>
   <i type="logical" name="ADDGRID"> F  </i>
  </separator>
  <separator name="ionic" >
   <i type="int" name="NSW">     0</i>
   <i type="int" name="IBRION">    -1</i>
   <i type="int" name="MDALGO">     0</i>
   <i type="int" name="ISIF">     2</i>
   <i name="PSTRESS">      0.00000000</i>
   <i name="EDIFFG">     -0.00100000</i>
   <i type="int" name="NFREE">     0</i>
   <i name="POTIM">      0.50000000</i>
   <i name="SMASS">     -3.00000000</i>
   <i name="SCALEE">      1.00000000</i>
  </separator>
  <separator name="ionic md" >
   <i name="TEBEG">      0.00010000</i>
   <i name="TEEND">      0.00010000</i>
   <i type="int" name="NBLOCK">     1</i>
   <i type="int" name="KBLOCK">     1</i>
   <i type="int" name="NPACO">   256</i>
   <i name="APACO">     10.00000000</i>
  </separator>
  <separator name="symmetry" >
   <i type="int" name="ISYM">     2</i>
   <i name="SYMPREC">      0.00001000</i>
  </separator>
  <separator name="dos" >
   <i type="int" name="LORBIT">     0</i>
   <v name="RWIGS">     -1.00000000</v>
   <i type="int" name="NEDOS">   301</i>
   <i name="EMIN">     10.00000000</i>
   <i name="EMAX">    -10.00000000</i>
   <i name="EFERMI">      0.00000000</i>
  </separator>
  <separator name="writing" >
   <i type="int" name="NWRITE">     2</i>
   <i type="logical" name="LWAVE"> F  </i>
   <i type="logical" name="LDOWNSAMPLE"> F  </i>
   <i type="logical" name="LCHARG"> F  </i>
   <i type="logical" name="LPARD"> F  </i>
   <i type="logical" name="LVTOT"> F  </i>
   <i type="logical" name="LVHAR"> F  </i>
   <i type="logical" name="LELF"> F  </i>
   <i type="logical" name="LOPTICS"> F  </i>
   <v name="STM">      0.00000000      0.00000000      0.00000000      0.00000000      0.00000000      0.00000000      0.00000000</v>
  </separator>
  <separator name="performance" >
   <i type="int" name="NPAR">    24</i>
   <i type="int" name="NSIM">     4</i>
   <i type="int" name="NBLK">    -1</i>
   <i type="logical" name="LPLANE"> T  </i>
   <i type="logical" name="LSCALAPACK"> T  </i>
   <i type="logical" name="LSCAAWARE"> F  </i>
   <i type="logical" name="LSCALU"> F  </i>
   <i type="logical" name="LASYNC"> F  </i>
   <i type="logical" name="LORBITALREAL"> F  </i>
  </separator>
  <separator name="miscellaneous" >
   <i type="int" name="IDIOT">     3</i>
   <i type="int" name="PHON_NSTRUCT">    -1</i>
   <i type="logical" name="LMUSIC"> F  </i>
   <v name="POMASS">     10.81100000</v>
   <v name="DARWINR">      0.00000000</v>
   <v name="DARWINV">      1.00000000</v>
   <i type="logical" name="LCORR"> T  </i>
  </separator>
  <i type="logical" name="GGA_COMPAT"> T  </i>
  <i type="logical" name="LBERRY"> F  </i>
  <i type="int" name="ICORELEVEL">     0</i>
  <i type="logical" name="LDAU"> F  </i>
  <i type="int" name="I_CONSTRAINED_M">     0</i>
  <separator name="electronic exchange-correlation" >
   <i type="string" name="GGA    ">PE</i>
   <i type="string" name="XC_C">1</i>
   <i type="int" name="VOSKOWN">     0</i>
   <i type="logical" name="LHFCALC"> F  </i>
   <i type="string" name="PRECFOCK"></i>
   <i type="logical" name="LSYMGRAD"> F  </i>
   <i type="logical" name="LHFONE"> F  </i>
   <i type="logical" name="LRHFCALC"> F  </i>
   <i type="logical" name="LTHOMAS"> F  </i>
   <i type="logical" name="LMODELHF"> F  </i>
   <i type="logical" name="LFOCKACE"> F  </i>
   <i name="ENCUT4O">     -1.00000000</i>
   <i type="int" name="EXXOEP">     0</i>
   <i type="int" name="FOURORBIT">     0</i>
   <i name="AEXX">      0.00000000</i>
   <i name="HFALPHA">      0.00000000</i>
   <i name="MCALPHA">      0.00000000</i>
   <i name="ALDAX">      1.00000000</i>
   <i name="AGGAX">      1.00000000</i>
   <i name="AMGGAX">      1.00000000</i>
   <i name="ALDAC">      1.00000000</i>
   <i name="AGGAC">      1.00000000</i>
   <i name="AMGGAC">      1.00000000</i>
   <i type="int" name="NKREDX">     1</i>
   <i type="int" name="NKREDY">     1</i>
   <i type="int" name="NKREDZ">     1</i>
   <i type="logical" name="SHIFTRED"> F  </i>
   <i type="logical" name="ODDONLY"> F  </i>
   <i type="logical" name="EVENONLY"> F  </i>
   <i type="int" name="LMAXFOCK">     0</i>
   <i type="int" name="NMAXFOCKAE">     0</i>
   <i type="logical" name="LFOCKAEDFT"> F  </i>
   <i name="HFSCREEN">      0.00000000</i>
   <i name="HFSCREENC">      0.00000000</i>
   <i type="int" name="NBANDSGWLOW">     0</i>
  </separator>
  <separator name="vdW DFT" >
   <i type="logical" name="LUSE_VDW"> F  </i>
   <i type="int" name="IVDW_NL">    -1</i>
   <i type="logical" name="LSPIN_VDW"> F  </i>
   <i name="ZAB_VDW">     -0.84910000</i>
   <i name="GAMMA_VDW">      1.39626340</i>
   <i name="ALPHA_VDW">      0.00000000</i>
   <i name="PARAM1">      0.12340000</i>
   <i name="PARAM2">      1.00000000</i>
   <i name="BPARAM">      6.30000000</i>
   <i name="CPARAM">      0.00930000</i>
  </separator>
  <separator name="model GW" >
   <i type="int" name="MODEL_GW">     0</i>
   <i name="MODEL_EPS0">      6.13175789</i>
   <i name="MODEL_ALPHA">      1.00000000</i>
  </separator>
  <separator name="linear response parameters" >
   <i type="logical" name="LEPSILON"> F  </i>
   <i type="logical" name="LRPA"> F  </i>
   <i type="logical" name="LNABLA"> F  </i>
   <i type="logical" name="LVEL"> F  </i>
   <i name="CSHIFT">      0.10000000</i>
   <i name="OMEGAMAX">     -1.00000000</i>
   <i name="DEG_THRESHOLD">      0.00200000</i>
   <i name="RTIME">     -0.10000000</i>
   <i name="WPLASMAI">      0.00000000</i>
   <v name="DFIELD">      0.00000000      0.00000000      0.00000000</v>
   <v name="WPLASMA">      0.00000000      0.00000000      0.00000000      0.00000000      0.00000000      0.00000000      0.00000000      0.00000000      0.00000000</v>
  </separator>
  <separator name="orbital magnetization" >
   <i type="logical" name="NUCIND"> F  </i>
   <v name="MAGPOS">      0.00000000      0.00000000      0.00000000</v>
   <i type="logical" name="LNICSALL"> T  </i>
   <i type="logical" name="ORBITALMAG"> F  </i>
   <i type="logical" name="LMAGBLOCH"> F  </i>
   <i type="logical" name="LCHIMAG"> F  </i>
   <i type="logical" name="LGAUGE"> T  </i>
   <i type="int" name="MAGATOM">     0</i>
   <v name="MAGDIPOL">      0.00000000      0.00000000      0.00000000</v>
   <v name="AVECCONST">      0.00000000      0.00000000      0.00000000</v>
  </separator>
  <separator name="response functions" >
   <i type="logical" name="LALL_IN_ONE"> F  </i>
   <i type="int" name="IALL_IN_ONE">    -1</i>
   <i type="int" name="NBANDS_WAVE">    -1</i>
   <i type="logical" name="LFINITE_TEMPERATURE"> F  </i>
   <i type="logical" name="LADDER"> F  </i>
   <i type="logical" name="LRPAFORCE"> F  </i>
   <i type="logical" name="LFXC"> F  </i>
   <i type="logical" name="LHARTREE"> T  </i>
   <i type="int" name="IBSE">     0</i>
   <v type="int" name="KPOINT">    -1     0     0     0</v>
   <i type="logical" name="LTCTC"> F  </i>
   <i type="logical" name="LTCTE"> F  </i>
   <i type="logical" name="LTETE"> F  </i>
   <i type="logical" name="LTRIPLET"> F  </i>
   <i type="logical" name="LFXCEPS"> F  </i>
   <i type="logical" name="LFXHEG"> F  </i>
   <i type="int" name="NATURALO">     2</i>
   <i type="logical" name="LHOLEGF"> F  </i>
   <i type="logical" name="L2ORDER"> F  </i>
   <i type="logical" name="LDMP1"> F  </i>
   <i type="logical" name="LMP2LT"> F  </i>
   <i type="logical" name="LSMP2LT"> F  </i>
   <i type="logical" name="LGWLF"> F  </i>
   <i name="ENCUTGW">     -1.60000002</i>
   <i name="ENCUTGWSOFT">     -1.60000002</i>
   <i name="ENCUTLF">     -1.00000000</i>
   <i type="logical" name="ESF_SPLINES"> F  </i>
   <i name="ESF_CONV">      0.01000000</i>
   <i type="int" name="ESF_NINTER">    15</i>
   <i type="int" name="LMAXMP2">    -1</i>
   <i name="SCISSOR">      0.00000000</i>
   <i type="int" name="NOMEGA">     0</i>
   <i type="int" name="NOMEGAR">     0</i>
   <i type="int" name="NBANDSGW">    -1</i>
   <i type="int" name="NBANDSO">    -1</i>
   <i type="int" name="NBANDSV">    -1</i>
   <i type="int" name="NELMGW">     1</i>
   <i type="int" name="NELMHF">     1</i>
   <i type="int" name="DIM">     3</i>
   <i type="int" name="IESPILON">     4</i>
   <i type="int" name="ANTIRES">     0</i>
   <i name="OMEGAMAX">    -30.00000000</i>
   <i name="OMEGAMIN">    -30.00000000</i>
   <i name="OMEGATL">   -200.00000000</i>
   <i type="int" name="OMEGAGRID">     0</i>
   <i name="CSHIFT">     -0.10000000</i>
   <i type="logical" name="LSELFENERGY"> F  </i>
   <i type="logical" name="LSPECTRAL"> F  </i>
   <i type="logical" name="LSPECTRALGW"> F  </i>
   <i type="logical" name="LSINGLES"> F  </i>
   <i type="logical" name="LFERMIGW"> F  </i>
   <i type="logical" name="ODDONLYGW"> F  </i>
   <i type="logical" name="EVENONLYGW"> F  </i>
   <i type="int" name="NKREDLFX">     1</i>
   <i type="int" name="NKREDLFY">     1</i>
   <i type="int" name="NKREDLFZ">     1</i>
   <i type="int" name="MAXMEM">  2800</i>
   <i type="int" name="TELESCOPE">     0</i>
   <i type="int" name="NTAUPAR">    -1</i>
   <i type="int" name="NOMEGAPAR">    -1</i>
   <i name="DAMP_NEWTON">      0.80000001</i>
   <i name="LAMBDA">      1.00000000</i>
  </separator>
  <separator name="External order field" >
   <i name="OFIELD_KAPPA">      0.00000000</i>
   <v name="OFIELD_K">      0.00000000      0.00000000      0.00000000</v>
   <i name="OFIELD_Q6_NEAR">      0.00000000</i>
   <i name="OFIELD_Q6_FAR">      0.00000000</i>
   <i name="OFIELD_A">      0.00000000</i>
  </separator>
  <separator name="optional k-points parameters" >
   <i type="int" name="KPOINTS_OPT_MODE">     1</i>
   <i type="logical" name="LKPOINTS_OPT"> F  </i>
  </separator>
 </parameters>
 <atominfo>
  <atoms>      14 </atoms>
  <types>       1 </types>
  <array name="atoms" >
   <dimension dim="1">ion</dimension>
   <field type="string">element</field>
   <field type="int">atomtype</field>
   <set>
    <rc><c>B </c><c>   1</c></rc>
    <rc><c>B </c><c>   1</c></rc>
    <rc><c>B </c><c>   1</c></rc>
    <rc><c>B </c><c>   1</c></rc>
    <rc><c>B </c><c>   1</c></rc>
    <rc><c>B </c><c>   1</c></rc>
    <rc><c>B </c><c>   1</c></rc>
    <rc><c>B </c><c>   1</c></rc>
    <rc><c>B </c><c>   1</c></rc>
    <rc><c>B </c><c>   1</c></rc>
    <rc><c>B </c><c>   1</c></rc>
    <rc><c>B </c><c>   1</c></rc>
    <rc><c>B </c><c>   1</c></rc>
    <rc><c>B </c><c>   1</c></rc>
   </set>
  </array>
  <array name="atomtypes" >
   <dimension dim="1">type</dimension>
   <field type="int">atomspertype</field>
   <field type="string">element</field>
   <field>mass</field>
   <field>valence</field>
   <field type="string">pseudopotential</field>
   <set>
    <rc><c>  14</c><c>B </c><c>     10.81100000</c><c>      3.00000000</c><c>  PAW_PBE B 06Sep2000                   </c></rc>
   </set>
  </array>
 </atominfo>
 <structure name="initialpos" >
  <crystal>
   <varray name="basis" >
    <v>       5.69700000       0.00000000       0.00000000 </v>
    <v>       0.00000000       4.04790000       0.00000000 </v>
    <v>       0.00000000       0.00000000       6.20420000 </v>
   </varray>
   <i name="volume">    143.07435078 </i>
   <varray name="rec_basis" >
    <v>       0.17553098       0.00000000       0.00000000 </v>
    <v>       0.00000000       0.24704168       0.00000000 </v>
    <v>       0.00000000       0.00000000       0.16118114 </v>
   </varray>
  </crystal>
  <varray name="positions" >
   <v>       0.52123000       0.50000000       0.63796000 </v>
   <v>       0.47877000       0.50000000       0.36204000 </v>
   <v>       0.97877000       0.50000000       0.63796000 </v>
   <v>       0.02123000       0.50000000       0.36204000 </v>
   <v>       0.60090000       0.50000000       0.89991000 </v>
   <v>       0.39910000       0.50000000       0.10009000 </v>
   <v>       0.89910000       0.50000000       0.89991000 </v>
   <v>       0.10090000       0.50000000       0.10009000 </v>
   <v>       0.75000000       0.79171000       0.72973000 </v>
   <v>       0.25000000       0.20829000       0.27027000 </v>
   <v>       0.75000000       0.20829000       0.72973000 </v>
   <v>       0.25000000       0.79171000       0.27027000 </v>
   <v>       0.25000000       0.50000000       0.52367000 </v>
   <v>       0.75000000       0.50000000       0.47633000 </v>
  </varray>
 </structure>
 <calculation>
  <scstep>
   <time name="dav">    3.27    3.42</time>
   <time name="total">    3.28    3.44</time>
   <energy>
    <i name="alphaZ">     94.24357992 </i>
    <i name="ewald">   -795.76658092 </i>
    <i name="hartreedc">   -271.33601302 </i>
    <i name="XCdc">     97.50108156 </i>
    <i name="pawpsdc">    608.99811708 </i>
    <i name="pawaedc">   -597.02363782 </i>
    <i name="eentropy">     -0.00141628 </i>
    <i name="bandstr">   -110.17777063 </i>
    <i name="atom">    996.33260345 </i>
    <i name="e_fr_energy">     22.76996334 </i>
    <i name="e_wo_entrp">     22.77137962 </i>
    <i name="e_0_energy">     22.77067148 </i>
   </energy>
  </scstep>
  <scstep>
   <time name="dav">    4.53    4.57</time>
   <time name="total">    4.53    4.57</time>
   <energy>
    <i name="e_fr_energy">    -94.14031532 </i>
    <i name="e_wo_entrp">    -94.13657628 </i>
    <i name="e_0_energy">    -94.13844580 </i>
   </energy>
  </scstep>
  <scstep>
   <time name="dav">    4.54    4.58</time>
   <time name="total">    4.54    4.58</time>
   <energy>
    <i name="e_fr_energy">    -97.57305756 </i>
    <i name="e_wo_entrp">    -97.56940043 </i>
    <i name="e_0_energy">    -97.57122900 </i>
   </energy>
  </scstep>
  <scstep>
   <time name="dav">    4.16    4.21</time>
   <time name="total">    4.16    4.21</time>
   <energy>
    <i name="e_fr_energy">    -97.59272134 </i>
    <i name="e_wo_entrp">    -97.58906783 </i>
    <i name="e_0_energy">    -97.59089458 </i>
   </energy>
  </scstep>
  <scstep>
   <time name="dav">    4.41    4.44</time>
   <time name="total">    4.46    4.50</time>
   <energy>
    <i name="e_fr_energy">    -97.59295485 </i>
    <i name="e_wo_entrp">    -97.58930138 </i>
    <i name="e_0_energy">    -97.59112812 </i>
   </energy>
  </scstep>
  <scstep>
   <time name="dav">    4.54    4.57</time>
   <time name="total">    4.60    4.63</time>
   <energy>
    <i name="e_fr_energy">    -92.18382799 </i>
    <i name="e_wo_entrp">    -92.18039657 </i>
    <i name="e_0_energy">    -92.18211228 </i>
   </energy>
  </scstep>
  <scstep>
   <time name="dav">    4.76    4.80</time>
   <time name="total">    4.82    4.86</time>
   <energy>
    <i name="e_fr_energy">    -90.53327728 </i>
    <i name="e_wo_entrp">    -90.53014017 </i>
    <i name="e_0_energy">    -90.53170873 </i>
   </energy>
  </scstep>
  <scstep>
   <time name="dav">    3.43    3.47</time>
   <time name="total">    3.49    3.52</time>
   <energy>
    <i name="e_fr_energy">    -90.54550426 </i>
    <i name="e_wo_entrp">    -90.54232617 </i>
    <i name="e_0_energy">    -90.54391521 </i>
   </energy>
  </scstep>
  <scstep>
   <time name="dav">    4.38    4.42</time>
   <time name="total">    4.44    4.48</time>
   <energy>
    <i name="e_fr_energy">    -90.55972964 </i>
    <i name="e_wo_entrp">    -90.55646495 </i>
    <i name="e_0_energy">    -90.55809729 </i>
   </energy>
  </scstep>
  <scstep>
   <time name="dav">    3.58    3.62</time>
   <time name="total">    3.64    3.68</time>
   <energy>
    <i name="e_fr_energy">    -90.56368414 </i>
    <i name="e_wo_entrp">    -90.56046559 </i>
    <i name="e_0_energy">    -90.56207487 </i>
   </energy>
  </scstep>
  <scstep>
   <time name="dav">    3.94    3.97</time>
   <time name="total">    3.99    4.02</time>
   <energy>
    <i name="e_fr_energy">    -90.56478300 </i>
    <i name="e_wo_entrp">    -90.56157545 </i>
    <i name="e_0_energy">    -90.56317923 </i>
   </energy>
  </scstep>
  <scstep>
   <time name="dav">    3.89    4.01</time>
   <time name="total">    3.94    4.06</time>
   <energy>
    <i name="e_fr_energy">    -90.56489825 </i>
    <i name="e_wo_entrp">    -90.56168458 </i>
    <i name="e_0_energy">    -90.56329141 </i>
   </energy>
  </scstep>
  <scstep>
   <time name="dav">    4.34    4.38</time>
   <time name="total">    4.40    4.43</time>
   <energy>
    <i name="e_fr_energy">    -90.56490301 </i>
    <i name="e_wo_entrp">    -90.56168904 </i>
    <i name="e_0_energy">    -90.56329602 </i>
   </energy>
  </scstep>
  <scstep>
   <time name="dav">    3.85    3.89</time>
   <time name="total">    3.86    3.90</time>
   <energy>
    <i name="alphaZ">     94.24357992 </i>
    <i name="ewald">   -795.76658092 </i>
    <i name="hartreedc">   -349.08067023 </i>
    <i name="XCdc">    101.60623187 </i>
    <i name="pawpsdc">   3794.83174436 </i>
    <i name="pawaedc">  -3784.01741290 </i>
    <i name="eentropy">     -0.00321408 </i>
    <i name="bandstr">   -148.71118513 </i>
    <i name="atom">    996.33260345 </i>
    <i name="e_fr_energy">    -90.56490365 </i>
    <i name="e_wo_entrp">    -90.56168958 </i>
    <i name="e_0_energy">    -90.56329661 </i>
   </energy>
  </scstep>
  <structure>
   <crystal>
    <varray name="basis" >
     <v>       5.69700000       0.00000000       0.00000000 </v>
     <v>       0.00000000       4.04790000       0.00000000 </v>
     <v>       0.00000000       0.00000000       6.20420000 </v>
    </varray>
    <i name="volume">    143.07435078 </i>
    <varray name="rec_basis" >
     <v>       0.17553098       0.00000000       0.00000000 </v>
     <v>       0.00000000       0.24704168       0.00000000 </v>
     <v>       0.00000000       0.00000000       0.16118114 </v>
    </varray>
   </crystal>
   <varray name="positions" >
    <v>       0.52123000       0.50000000       0.63796000 </v>
    <v>       0.47877000       0.50000000       0.36204000 </v>
    <v>       0.97877000       0.50000000       0.63796000 </v>
    <v>       0.02123000       0.50000000       0.36204000 </v>
    <v>       0.60090000       0.50000000       0.89991000 </v>
    <v>       0.39910000       0.50000000       0.10009000 </v>
    <v>       0.89910000       0.50000000       0.89991000 </v>
    <v>       0.10090000       0.50000000       0.10009000 </v>
    <v>       0.75000000       0.79171000       0.72973000 </v>
    <v>       0.25000000       0.20829000       0.27027000 </v>
    <v>       0.75000000       0.20829000       0.72973000 </v>
    <v>       0.25000000       0.79171000       0.27027000 </v>
    <v>       0.25000000       0.50000000       0.52367000 </v>
    <v>       0.75000000       0.50000000       0.47633000 </v>
   </varray>
  </structure>
  <varray name="forces" >
   <v>      -0.00757890      -0.00000000       0.05276168 </v>
   <v>       0.00757890      -0.00000000      -0.05276168 </v>
   <v>       0.00757890      -0.00000000       0.05276168 </v>
   <v>      -0.00757890      -0.00000000      -0.05276168 </v>
   <v>      -0.83487026      -0.00000000       0.28108250 </v>
   <v>       0.83487026      -0.00000000      -0.28108250 </v>
   <v>       0.83487026      -0.00000000       0.28108250 </v>
   <v>      -0.83487026      -0.00000000      -0.28108250 </v>
   <v>       0.00000000       0.06450004      -0.07851640 </v>
   <v>       0.00000000      -0.06450004       0.07851640 </v>
   <v>       0.00000000      -0.06450004      -0.07851640 </v>
   <v>      -0.00000000       0.06450004       0.07851640 </v>
   <v>       0.00000000      -0.00000000       0.07710492 </v>
   <v>      -0.00000000      -0.00000000      -0.07710492 </v>
  </varray>
  <varray name="stress" >
   <v>       9.70584190       0.00000000      -0.00000000 </v>
   <v>       0.00000000      -3.55184327       0.00000000 </v>
   <v>      -0.00000000       0.00000000     -11.20923550 </v>
  </varray>
  <energy>
   <i name="e_fr_energy">    -90.56490365 </i>
   <i name="e_wo_entrp">    -90.56168958 </i>
   <i name="e_0_energy">    -90.56329661 </i>
  </energy>
  <time name="totalsc">   60.27   61.05</time>
  <eigenvalues>
   <array>
    <dimension dim="1">band</dimension>
    <dimension dim="2">kpoint</dimension>
    <dimension dim="3">spin</dimension>
    <field>eigene</field>
    <field>occ</field>
    <set>
     <set comment="spin 1">
      <set comment="kpoint 1">
       <r>  -12.7250    1.0000 </r>
       <r>  -11.5828    1.0000 </r>
       <r>   -8.6576    1.0000 </r>
       <r>   -8.4209    1.0000 </r>
       <r>   -6.0632    1.0000 </r>
       <r>   -5.1293    1.0000 </r>
       <r>   -4.6647    1.0000 </r>
       <r>   -4.2740    1.0000 </r>
       <r>   -4.0323    1.0000 </r>
       <r>   -3.5426    1.0000 </r>
       <r>   -2.5927    1.0000 </r>
       <r>   -2.3233    1.0000 </r>
       <r>   -1.8322    1.0000 </r>
       <r>   -1.0940    1.0000 </r>
       <r>   -0.0685    1.0000 </r>
       <r>   -0.0383    1.0000 </r>
       <r>    0.1583    1.0000 </r>
       <r>    0.1794    1.0000 </r>
       <r>    0.5673    1.0000 </r>
       <r>    2.0206    0.0001 </r>
       <r>    2.0836    0.0000 </r>
       <r>    2.2186    0.0000 </r>
       <r>    5.4595    0.0000 </r>
       <r>    5.7507    0.0000 </r>
       <r>    5.8398    0.0000 </r>
       <r>    5.9608    0.0000 </r>
       <r>    6.8160    0.0000 </r>
       <r>    7.5503    0.0000 </r>
       <r>    7.8797    0.0000 </r>
       <r>    8.5366    0.0000 </r>
       <r>    8.8032    0.0000 </r>
       <r>    8.9508    0.0000 </r>
       <r>    9.0530    0.0000 </r>
       <r>   10.1248    0.0000 </r>
       <r>   11.1854    0.0000 </r>
       <r>   11.3369    0.0000 </r>
       <r>   11.6670    0.0000 </r>
       <r>   11.7830    0.0000 </r>
       <r>   11.9426    0.0000 </r>
       <r>   12.4050    0.0000 </r>
       <r>   12.8698    0.0000 </r>
       <r>   13.4543    0.0000 </r>
       <r>   13.4813    0.0000 </r>
       <r>   15.3835    0.0000 </r>
       <r>   15.5725    0.0000 </r>
       <r>   16.0639    0.0000 </r>
       <r>   16.3350    0.0000 </r>
       <r>   16.3583    0.0000 </r>
      </set>
      <set comment="kpoint 2">
       <r>  -12.6812    1.0000 </r>
       <r>  -11.6566    1.0000 </r>
       <r>   -8.6364    1.0000 </r>
       <r>   -8.4093    1.0000 </r>
       <r>   -5.9948    1.0000 </r>
       <r>   -5.4703    1.0000 </r>
       <r>   -4.7872    1.0000 </r>
       <r>   -4.0086    1.0000 </r>
       <r>   -3.7909    1.0000 </r>
       <r>   -3.2049    1.0000 </r>
       <r>   -2.6628    1.0000 </r>
       <r>   -2.3032    1.0000 </r>
       <r>   -1.9108    1.0000 </r>
       <r>   -1.4008    1.0000 </r>
       <r>   -0.0280    1.0000 </r>
       <r>   -0.0167    1.0000 </r>
       <r>    0.0954    1.0000 </r>
       <r>    0.2003    1.0000 </r>
       <r>    0.4723    1.0000 </r>
       <r>    1.9345    0.0840 </r>
       <r>    2.0058    0.0003 </r>
       <r>    2.0976    0.0000 </r>
       <r>    5.5484    0.0000 </r>
       <r>    5.7594    0.0000 </r>
       <r>    5.8676    0.0000 </r>
       <r>    6.3066    0.0000 </r>
       <r>    6.7305    0.0000 </r>
       <r>    7.1885    0.0000 </r>
       <r>    8.0897    0.0000 </r>
       <r>    8.6732    0.0000 </r>
       <r>    9.0603    0.0000 </r>
       <r>    9.1325    0.0000 </r>
       <r>    9.2053    0.0000 </r>
       <r>   10.2375    0.0000 </r>
       <r>   10.9446    0.0000 </r>
       <r>   11.1328    0.0000 </r>
       <r>   11.2585    0.0000 </r>
       <r>   11.7003    0.0000 </r>
       <r>   12.1600    0.0000 </r>
       <r>   12.4945    0.0000 </r>
       <r>   13.1232    0.0000 </r>
       <r>   13.1296    0.0000 </r>
       <r>   14.0134    0.0000 </r>
       <r>   14.8716    0.0000 </r>
       <r>   15.7522    0.0000 </r>
       <r>   15.8314    0.0000 </r>
       <r>   16.2290    0.0000 </r>
       <r>   16.5158    0.0000 </r>
      </set>
      <set comment="kpoint 3">
       <r>  -12.5956    1.0000 </r>
       <r>  -11.7896    1.0000 </r>
       <r>   -8.5927    1.0000 </r>
       <r>   -8.3945    1.0000 </r>
       <r>   -5.9731    1.0000 </r>
       <r>   -5.7970    1.0000 </r>
       <r>   -4.7413    1.0000 </r>
       <r>   -3.8813    1.0000 </r>
       <r>   -3.2796    1.0000 </r>
       <r>   -2.8316    1.0000 </r>
       <r>   -2.7126    1.0000 </r>
       <r>   -2.2628    1.0000 </r>
       <r>   -2.0214    1.0000 </r>
       <r>   -1.9052    1.0000 </r>
       <r>   -0.2174    1.0000 </r>
       <r>    0.0157    1.0000 </r>
       <r>    0.1455    1.0000 </r>
       <r>    0.1586    1.0000 </r>
       <r>    0.4423    1.0000 </r>
       <r>    1.7868    0.9974 </r>
       <r>    1.8680    0.6926 </r>
       <r>    1.8730    0.6416 </r>
       <r>    5.6692    0.0000 </r>
       <r>    5.7159    0.0000 </r>
       <r>    6.1768    0.0000 </r>
       <r>    6.6046    0.0000 </r>
       <r>    6.7652    0.0000 </r>
       <r>    6.9339    0.0000 </r>
       <r>    8.2406    0.0000 </r>
       <r>    8.8218    0.0000 </r>
       <r>    9.0018    0.0000 </r>
       <r>    9.5766    0.0000 </r>
       <r>    9.6494    0.0000 </r>
       <r>   10.2831    0.0000 </r>
       <r>   10.4877    0.0000 </r>
       <r>   10.6274    0.0000 </r>
       <r>   11.3790    0.0000 </r>
       <r>   11.8425    0.0000 </r>
       <r>   12.3949    0.0000 </r>
       <r>   12.5679    0.0000 </r>
       <r>   12.7950    0.0000 </r>
       <r>   12.9205    0.0000 </r>
       <r>   14.6391    0.0000 </r>
       <r>   14.9201    0.0000 </r>
       <r>   15.2281    0.0000 </r>
       <r>   15.9852    0.0000 </r>
       <r>   16.0042    0.0000 </r>
       <r>   16.2930    0.0000 </r>
      </set>
      <set comment="kpoint 4">
       <r>  -12.4721    1.0000 </r>
       <r>  -11.9590    1.0000 </r>
       <r>   -8.5310    1.0000 </r>
       <r>   -8.3914    1.0000 </r>
       <r>   -6.0541    1.0000 </r>
       <r>   -6.0302    1.0000 </r>
       <r>   -4.4138    1.0000 </r>
       <r>   -3.7122    1.0000 </r>
       <r>   -3.0257    1.0000 </r>
       <r>   -2.8950    1.0000 </r>
       <r>   -2.4423    1.0000 </r>
       <r>   -2.2513    1.0000 </r>
       <r>   -2.1443    1.0000 </r>
       <r>   -2.1224    1.0000 </r>
       <r>   -0.5165    1.0000 </r>
       <r>   -0.2432    1.0000 </r>
       <r>    0.1743    1.0000 </r>
       <r>    0.2498    1.0000 </r>
       <r>    0.6152    1.0000 </r>
       <r>    1.5321    1.0000 </r>
       <r>    1.6640    1.0000 </r>
       <r>    1.7246    1.0000 </r>
       <r>    5.7005    0.0000 </r>
       <r>    5.7544    0.0000 </r>
       <r>    6.5032    0.0000 </r>
       <r>    6.6748    0.0000 </r>
       <r>    6.7009    0.0000 </r>
       <r>    7.4151    0.0000 </r>
       <r>    8.3648    0.0000 </r>
       <r>    8.6912    0.0000 </r>
       <r>    8.8110    0.0000 </r>
       <r>    9.5375    0.0000 </r>
       <r>   10.0575    0.0000 </r>
       <r>   10.1202    0.0000 </r>
       <r>   10.4002    0.0000 </r>
       <r>   11.1503    0.0000 </r>
       <r>   11.4064    0.0000 </r>
       <r>   11.9479    0.0000 </r>
       <r>   12.2060    0.0000 </r>
       <r>   12.2776    0.0000 </r>
       <r>   12.5231    0.0000 </r>
       <r>   13.2594    0.0000 </r>
       <r>   14.7156    0.0000 </r>
       <r>   14.9792    0.0000 </r>
       <r>   15.2658    0.0000 </r>
       <r>   15.3770    0.0000 </r>
       <r>   15.5756    0.0000 </r>
       <r>   16.3795    0.0000 </r>
      </set>
      <set comment="kpoint 5">
       <r>  -12.3173    1.0000 </r>
       <r>  -12.1415    1.0000 </r>
       <r>   -8.4649    1.0000 </r>
       <r>   -8.4140    1.0000 </r>
       <r>   -6.1438    1.0000 </r>
       <r>   -6.1394    1.0000 </r>
       <r>   -3.8982    1.0000 </r>
       <r>   -3.5029    1.0000 </r>
       <r>   -3.2988    1.0000 </r>
       <r>   -3.2648    1.0000 </r>
       <r>   -2.3600    1.0000 </r>
       <r>   -2.2315    1.0000 </r>
       <r>   -1.9600    1.0000 </r>
       <r>   -1.9068    1.0000 </r>
       <r>   -0.7372    1.0000 </r>
       <r>   -0.6016    1.0000 </r>
       <r>    0.2576    1.0000 </r>
       <r>    0.2912    1.0000 </r>
       <r>    0.8760    1.0000 </r>
       <r>    1.1933    1.0000 </r>
       <r>    1.5832    1.0000 </r>
       <r>    1.6107    1.0000 </r>
       <r>    5.7283    0.0000 </r>
       <r>    5.7657    0.0000 </r>
       <r>    6.4818    0.0000 </r>
       <r>    6.5458    0.0000 </r>
       <r>    7.3704    0.0000 </r>
       <r>    8.0762    0.0000 </r>
       <r>    8.0981    0.0000 </r>
       <r>    8.4824    0.0000 </r>
       <r>    8.6210    0.0000 </r>
       <r>    8.7920    0.0000 </r>
       <r>   10.5033    0.0000 </r>
       <r>   10.5196    0.0000 </r>
       <r>   10.7628    0.0000 </r>
       <r>   11.2209    0.0000 </r>
       <r>   11.4055    0.0000 </r>
       <r>   11.6017    0.0000 </r>
       <r>   11.9351    0.0000 </r>
       <r>   12.4843    0.0000 </r>
       <r>   12.7186    0.0000 </r>
       <r>   13.2548    0.0000 </r>
       <r>   14.5930    0.0000 </r>
       <r>   14.7374    0.0000 </r>
       <r>   14.8715    0.0000 </r>
       <r>   14.9305    0.0000 </r>
       <r>   16.1051    0.0000 </r>
       <r>   16.4494    0.0000 </r>
      </set>
      <set comment="kpoint 6">
       <r>  -12.7010    1.0000 </r>
       <r>  -11.5613    1.0000 </r>
       <r>   -8.6388    1.0000 </r>
       <r>   -8.3977    1.0000 </r>
       <r>   -6.0363    1.0000 </r>
       <r>   -5.0955    1.0000 </r>
       <r>   -4.6426    1.0000 </r>
       <r>   -4.5721    1.0000 </r>
       <r>   -4.1762    1.0000 </r>
       <r>   -3.5198    1.0000 </r>
       <r>   -3.2860    1.0000 </r>
       <r>   -1.7922    1.0000 </r>
       <r>   -1.0894    1.0000 </r>
       <r>   -1.0332    1.0000 </r>
       <r>   -0.3022    1.0000 </r>
       <r>   -0.2742    1.0000 </r>
       <r>    0.1717    1.0000 </r>
       <r>    0.2499    1.0000 </r>
       <r>    0.6457    1.0000 </r>
       <r>    1.7529    0.9999 </r>
       <r>    1.8328    0.9329 </r>
       <r>    2.2710    0.0000 </r>
       <r>    5.5781    0.0000 </r>
       <r>    5.7095    0.0000 </r>
       <r>    5.7435    0.0000 </r>
       <r>    6.0087    0.0000 </r>
       <r>    7.1020    0.0000 </r>
       <r>    7.8359    0.0000 </r>
       <r>    8.0784    0.0000 </r>
       <r>    8.1901    0.0000 </r>
       <r>    8.8074    0.0000 </r>
       <r>    9.1003    0.0000 </r>
       <r>    9.1514    0.0000 </r>
       <r>   10.5773    0.0000 </r>
       <r>   11.2680    0.0000 </r>
       <r>   11.4006    0.0000 </r>
       <r>   11.6010    0.0000 </r>
       <r>   11.8860    0.0000 </r>
       <r>   12.0533    0.0000 </r>
       <r>   12.6855    0.0000 </r>
       <r>   12.8702    0.0000 </r>
       <r>   13.1908    0.0000 </r>
       <r>   13.1972    0.0000 </r>
       <r>   15.3326    0.0000 </r>
       <r>   15.3827    0.0000 </r>
       <r>   15.8600    0.0000 </r>
       <r>   15.8709    0.0000 </r>
       <r>   16.2228    0.0000 </r>
      </set>
      <set comment="kpoint 7">
       <r>  -12.6573    1.0000 </r>
       <r>  -11.6349    1.0000 </r>
       <r>   -8.6175    1.0000 </r>
       <r>   -8.3866    1.0000 </r>
       <r>   -5.9663    1.0000 </r>
       <r>   -5.4402    1.0000 </r>
       <r>   -4.7671    1.0000 </r>
       <r>   -4.4894    1.0000 </r>
       <r>   -3.7516    1.0000 </r>
       <r>   -3.3668    1.0000 </r>
       <r>   -3.1669    1.0000 </r>
       <r>   -1.7706    1.0000 </r>
       <r>   -1.3955    1.0000 </r>
       <r>   -1.1526    1.0000 </r>
       <r>   -0.2632    1.0000 </r>
       <r>   -0.1934    1.0000 </r>
       <r>    0.1390    1.0000 </r>
       <r>    0.2215    1.0000 </r>
       <r>    0.5430    1.0000 </r>
       <r>    1.6722    1.0000 </r>
       <r>    1.7563    0.9999 </r>
       <r>    2.1401    0.0000 </r>
       <r>    5.6538    0.0000 </r>
       <r>    5.8082    0.0000 </r>
       <r>    5.9369    0.0000 </r>
       <r>    6.1134    0.0000 </r>
       <r>    7.0186    0.0000 </r>
       <r>    7.5107    0.0000 </r>
       <r>    8.2243    0.0000 </r>
       <r>    8.3606    0.0000 </r>
       <r>    9.1314    0.0000 </r>
       <r>    9.1617    0.0000 </r>
       <r>    9.4172    0.0000 </r>
       <r>   10.5023    0.0000 </r>
       <r>   10.8752    0.0000 </r>
       <r>   11.0851    0.0000 </r>
       <r>   11.4552    0.0000 </r>
       <r>   11.8732    0.0000 </r>
       <r>   12.2730    0.0000 </r>
       <r>   12.7405    0.0000 </r>
       <r>   12.8687    0.0000 </r>
       <r>   13.1535    0.0000 </r>
       <r>   13.7305    0.0000 </r>
       <r>   14.9564    0.0000 </r>
       <r>   15.3999    0.0000 </r>
       <r>   15.7520    0.0000 </r>
       <r>   15.7977    0.0000 </r>
       <r>   16.4027    0.0000 </r>
      </set>
      <set comment="kpoint 8">
       <r>  -12.5719    1.0000 </r>
       <r>  -11.7676    1.0000 </r>
       <r>   -8.5736    1.0000 </r>
       <r>   -8.3725    1.0000 </r>
       <r>   -5.9418    1.0000 </r>
       <r>   -5.7666    1.0000 </r>
       <r>   -4.7246    1.0000 </r>
       <r>   -4.3808    1.0000 </r>
       <r>   -3.4887    1.0000 </r>
       <r>   -3.2254    1.0000 </r>
       <r>   -2.7004    1.0000 </r>
       <r>   -1.9006    1.0000 </r>
       <r>   -1.7263    1.0000 </r>
       <r>   -1.3157    1.0000 </r>
       <r>   -0.2196    1.0000 </r>
       <r>   -0.2159    1.0000 </r>
       <r>    0.0544    1.0000 </r>
       <r>    0.2085    1.0000 </r>
       <r>    0.4667    1.0000 </r>
       <r>    1.5373    1.0000 </r>
       <r>    1.6263    1.0000 </r>
       <r>    1.8920    0.4303 </r>
       <r>    5.8575    0.0000 </r>
       <r>    5.9359    0.0000 </r>
       <r>    6.0137    0.0000 </r>
       <r>    6.5623    0.0000 </r>
       <r>    6.8979    0.0000 </r>
       <r>    7.2827    0.0000 </r>
       <r>    8.4308    0.0000 </r>
       <r>    8.4938    0.0000 </r>
       <r>    9.1020    0.0000 </r>
       <r>    9.6145    0.0000 </r>
       <r>    9.8752    0.0000 </r>
       <r>   10.1266    0.0000 </r>
       <r>   10.3552    0.0000 </r>
       <r>   10.8244    0.0000 </r>
       <r>   11.5213    0.0000 </r>
       <r>   12.1079    0.0000 </r>
       <r>   12.3101    0.0000 </r>
       <r>   12.5569    0.0000 </r>
       <r>   12.9600    0.0000 </r>
       <r>   13.0251    0.0000 </r>
       <r>   14.3077    0.0000 </r>
       <r>   15.0879    0.0000 </r>
       <r>   15.1641    0.0000 </r>
       <r>   15.6475    0.0000 </r>
       <r>   15.7110    0.0000 </r>
       <r>   16.4227    0.0000 </r>
      </set>
      <set comment="kpoint 9">
       <r>  -12.4486    1.0000 </r>
       <r>  -11.9367    1.0000 </r>
       <r>   -8.5116    1.0000 </r>
       <r>   -8.3702    1.0000 </r>
       <r>   -6.0215    1.0000 </r>
       <r>   -5.9989    1.0000 </r>
       <r>   -4.3992    1.0000 </r>
       <r>   -4.2336    1.0000 </r>
       <r>   -3.6605    1.0000 </r>
       <r>   -2.8457    1.0000 </r>
       <r>   -2.3605    1.0000 </r>
       <r>   -2.2171    1.0000 </r>
       <r>   -1.6621    1.0000 </r>
       <r>   -1.4788    1.0000 </r>
       <r>   -0.4780    1.0000 </r>
       <r>   -0.3063    1.0000 </r>
       <r>    0.0862    1.0000 </r>
       <r>    0.1161    1.0000 </r>
       <r>    0.6259    1.0000 </r>
       <r>    1.3976    1.0000 </r>
       <r>    1.4808    1.0000 </r>
       <r>    1.5679    1.0000 </r>
       <r>    5.8755    0.0000 </r>
       <r>    6.0093    0.0000 </r>
       <r>    6.5191    0.0000 </r>
       <r>    6.8084    0.0000 </r>
       <r>    6.8813    0.0000 </r>
       <r>    7.3739    0.0000 </r>
       <r>    8.4196    0.0000 </r>
       <r>    8.6015    0.0000 </r>
       <r>    8.9409    0.0000 </r>
       <r>    9.3725    0.0000 </r>
       <r>   10.0739    0.0000 </r>
       <r>   10.1000    0.0000 </r>
       <r>   10.4429    0.0000 </r>
       <r>   11.2274    0.0000 </r>
       <r>   11.3656    0.0000 </r>
       <r>   11.8434    0.0000 </r>
       <r>   12.2948    0.0000 </r>
       <r>   12.5475    0.0000 </r>
       <r>   12.7232    0.0000 </r>
       <r>   13.4620    0.0000 </r>
       <r>   14.7679    0.0000 </r>
       <r>   14.7753    0.0000 </r>
       <r>   15.1563    0.0000 </r>
       <r>   15.3095    0.0000 </r>
       <r>   15.6541    0.0000 </r>
       <r>   16.3928    0.0000 </r>
      </set>
      <set comment="kpoint 10">
       <r>  -12.2942    1.0000 </r>
       <r>  -12.1187    1.0000 </r>
       <r>   -8.4452    1.0000 </r>
       <r>   -8.3937    1.0000 </r>
       <r>   -6.1117    1.0000 </r>
       <r>   -6.1068    1.0000 </r>
       <r>   -4.0545    1.0000 </r>
       <r>   -3.8910    1.0000 </r>
       <r>   -3.8503    1.0000 </r>
       <r>   -3.2858    1.0000 </r>
       <r>   -2.1066    1.0000 </r>
       <r>   -1.9127    1.0000 </r>
       <r>   -1.5939    1.0000 </r>
       <r>   -1.5910    1.0000 </r>
       <r>   -0.6989    1.0000 </r>
       <r>   -0.5979    1.0000 </r>
       <r>    0.1191    1.0000 </r>
       <r>    0.1503    1.0000 </r>
       <r>    0.8854    1.0000 </r>
       <r>    1.1997    1.0000 </r>
       <r>    1.3440    1.0000 </r>
       <r>    1.3683    1.0000 </r>
       <r>    5.9265    0.0000 </r>
       <r>    5.9921    0.0000 </r>
       <r>    6.7973    0.0000 </r>
       <r>    6.8478    0.0000 </r>
       <r>    7.1869    0.0000 </r>
       <r>    7.8995    0.0000 </r>
       <r>    7.9444    0.0000 </r>
       <r>    8.6271    0.0000 </r>
       <r>    8.6939    0.0000 </r>
       <r>    8.8067    0.0000 </r>
       <r>   10.3219    0.0000 </r>
       <r>   10.5703    0.0000 </r>
       <r>   10.8070    0.0000 </r>
       <r>   10.9113    0.0000 </r>
       <r>   11.5527    0.0000 </r>
       <r>   11.6610    0.0000 </r>
       <r>   12.0144    0.0000 </r>
       <r>   12.6536    0.0000 </r>
       <r>   13.0273    0.0000 </r>
       <r>   13.4862    0.0000 </r>
       <r>   14.5507    0.0000 </r>
       <r>   14.7353    0.0000 </r>
       <r>   14.8328    0.0000 </r>
       <r>   15.0502    0.0000 </r>
       <r>   16.1291    0.0000 </r>
       <r>   16.4238    0.0000 </r>
      </set>
      <set comment="kpoint 11">
       <r>  -12.6566    1.0000 </r>
       <r>  -11.5215    1.0000 </r>
       <r>   -8.6043    1.0000 </r>
       <r>   -8.3550    1.0000 </r>
       <r>   -5.9868    1.0000 </r>
       <r>   -5.1291    1.0000 </r>
       <r>   -5.0047    1.0000 </r>
       <r>   -4.6007    1.0000 </r>
       <r>   -4.1599    1.0000 </r>
       <r>   -3.9082    1.0000 </r>
       <r>   -3.4666    1.0000 </r>
       <r>   -1.2031    1.0000 </r>
       <r>   -1.0800    1.0000 </r>
       <r>   -0.6462    1.0000 </r>
       <r>   -0.5402    1.0000 </r>
       <r>   -0.1744    1.0000 </r>
       <r>    0.1930    1.0000 </r>
       <r>    0.3030    1.0000 </r>
       <r>    0.7242    1.0000 </r>
       <r>    1.3699    1.0000 </r>
       <r>    1.4336    1.0000 </r>
       <r>    2.3091    0.0000 </r>
       <r>    5.2886    0.0000 </r>
       <r>    5.4542    0.0000 </r>
       <r>    6.1246    0.0000 </r>
       <r>    6.1972    0.0000 </r>
       <r>    7.5376    0.0000 </r>
       <r>    7.6261    0.0000 </r>
       <r>    8.3186    0.0000 </r>
       <r>    8.7280    0.0000 </r>
       <r>    8.8839    0.0000 </r>
       <r>    9.2422    0.0000 </r>
       <r>    9.3720    0.0000 </r>
       <r>   10.8827    0.0000 </r>
       <r>   11.3196    0.0000 </r>
       <r>   11.5736    0.0000 </r>
       <r>   11.7017    0.0000 </r>
       <r>   12.0868    0.0000 </r>
       <r>   12.2697    0.0000 </r>
       <r>   12.7474    0.0000 </r>
       <r>   12.7607    0.0000 </r>
       <r>   13.0070    0.0000 </r>
       <r>   13.2255    0.0000 </r>
       <r>   14.6766    0.0000 </r>
       <r>   15.1619    0.0000 </r>
       <r>   15.3438    0.0000 </r>
       <r>   15.4315    0.0000 </r>
       <r>   15.9629    0.0000 </r>
      </set>
      <set comment="kpoint 12">
       <r>  -12.6132    1.0000 </r>
       <r>  -11.5949    1.0000 </r>
       <r>   -8.5828    1.0000 </r>
       <r>   -8.3446    1.0000 </r>
       <r>   -5.9133    1.0000 </r>
       <r>   -5.3920    1.0000 </r>
       <r>   -5.0306    1.0000 </r>
       <r>   -4.7295    1.0000 </r>
       <r>   -3.9744    1.0000 </r>
       <r>   -3.7095    1.0000 </r>
       <r>   -3.1276    1.0000 </r>
       <r>   -1.3873    1.0000 </r>
       <r>   -1.1767    1.0000 </r>
       <r>   -0.7533    1.0000 </r>
       <r>   -0.5022    1.0000 </r>
       <r>   -0.0934    1.0000 </r>
       <r>    0.1734    1.0000 </r>
       <r>    0.2466    1.0000 </r>
       <r>    0.6118    1.0000 </r>
       <r>    1.2907    1.0000 </r>
       <r>    1.3639    1.0000 </r>
       <r>    2.1732    0.0000 </r>
       <r>    5.3688    0.0000 </r>
       <r>    5.8002    0.0000 </r>
       <r>    6.1432    0.0000 </r>
       <r>    6.2391    0.0000 </r>
       <r>    7.4568    0.0000 </r>
       <r>    7.7827    0.0000 </r>
       <r>    8.0507    0.0000 </r>
       <r>    8.8190    0.0000 </r>
       <r>    9.2540    0.0000 </r>
       <r>    9.2875    0.0000 </r>
       <r>    9.6567    0.0000 </r>
       <r>   10.5181    0.0000 </r>
       <r>   10.7807    0.0000 </r>
       <r>   11.2769    0.0000 </r>
       <r>   11.7199    0.0000 </r>
       <r>   12.1993    0.0000 </r>
       <r>   12.4321    0.0000 </r>
       <r>   12.5019    0.0000 </r>
       <r>   13.1634    0.0000 </r>
       <r>   13.2739    0.0000 </r>
       <r>   13.4386    0.0000 </r>
       <r>   14.6870    0.0000 </r>
       <r>   14.8235    0.0000 </r>
       <r>   15.2844    0.0000 </r>
       <r>   15.4954    0.0000 </r>
       <r>   15.9892    0.0000 </r>
      </set>
      <set comment="kpoint 13">
       <r>  -12.5280    1.0000 </r>
       <r>  -11.7271    1.0000 </r>
       <r>   -8.5385    1.0000 </r>
       <r>   -8.3319    1.0000 </r>
       <r>   -5.8836    1.0000 </r>
       <r>   -5.7118    1.0000 </r>
       <r>   -4.9388    1.0000 </r>
       <r>   -4.6936    1.0000 </r>
       <r>   -4.0981    1.0000 </r>
       <r>   -3.1752    1.0000 </r>
       <r>   -2.6564    1.0000 </r>
       <r>   -1.8843    1.0000 </r>
       <r>   -1.1361    1.0000 </r>
       <r>   -0.8921    1.0000 </r>
       <r>   -0.4491    1.0000 </r>
       <r>   -0.0842    1.0000 </r>
       <r>    0.0153    1.0000 </r>
       <r>    0.2585    1.0000 </r>
       <r>    0.4966    1.0000 </r>
       <r>    1.1592    1.0000 </r>
       <r>    1.2456    1.0000 </r>
       <r>    1.9166    0.1917 </r>
       <r>    5.6901    0.0000 </r>
       <r>    6.0982    0.0000 </r>
       <r>    6.2768    0.0000 </r>
       <r>    6.3689    0.0000 </r>
       <r>    7.3546    0.0000 </r>
       <r>    7.8615    0.0000 </r>
       <r>    8.0168    0.0000 </r>
       <r>    8.9478    0.0000 </r>
       <r>    9.2479    0.0000 </r>
       <r>    9.7204    0.0000 </r>
       <r>    9.8530    0.0000 </r>
       <r>   10.1390    0.0000 </r>
       <r>   10.2554    0.0000 </r>
       <r>   11.0633    0.0000 </r>
       <r>   11.5880    0.0000 </r>
       <r>   12.1064    0.0000 </r>
       <r>   12.5107    0.0000 </r>
       <r>   12.8026    0.0000 </r>
       <r>   13.0459    0.0000 </r>
       <r>   13.4481    0.0000 </r>
       <r>   13.9612    0.0000 </r>
       <r>   14.5957    0.0000 </r>
       <r>   14.8732    0.0000 </r>
       <r>   15.3046    0.0000 </r>
       <r>   15.5148    0.0000 </r>
       <r>   16.1997    0.0000 </r>
      </set>
      <set comment="kpoint 14">
       <r>  -12.4053    1.0000 </r>
       <r>  -11.8955    1.0000 </r>
       <r>   -8.4760    1.0000 </r>
       <r>   -8.3312    1.0000 </r>
       <r>   -5.9609    1.0000 </r>
       <r>   -5.9412    1.0000 </r>
       <r>   -4.8029    1.0000 </r>
       <r>   -4.3726    1.0000 </r>
       <r>   -4.2627    1.0000 </r>
       <r>   -2.8070    1.0000 </r>
       <r>   -2.3194    1.0000 </r>
       <r>   -2.1759    1.0000 </r>
       <r>   -1.0796    1.0000 </r>
       <r>   -1.0288    1.0000 </r>
       <r>   -0.4543    1.0000 </r>
       <r>   -0.3703    1.0000 </r>
       <r>    0.0591    1.0000 </r>
       <r>    0.0630    1.0000 </r>
       <r>    0.6436    1.0000 </r>
       <r>    1.0296    1.0000 </r>
       <r>    1.1128    1.0000 </r>
       <r>    1.5816    1.0000 </r>
       <r>    6.1095    0.0000 </r>
       <r>    6.2253    0.0000 </r>
       <r>    6.4004    0.0000 </r>
       <r>    6.8039    0.0000 </r>
       <r>    7.2987    0.0000 </r>
       <r>    7.7827    0.0000 </r>
       <r>    8.0721    0.0000 </r>
       <r>    9.0473    0.0000 </r>
       <r>    9.1053    0.0000 </r>
       <r>    9.1777    0.0000 </r>
       <r>    9.8892    0.0000 </r>
       <r>   10.1880    0.0000 </r>
       <r>   10.7027    0.0000 </r>
       <r>   11.0792    0.0000 </r>
       <r>   11.3266    0.0000 </r>
       <r>   11.9525    0.0000 </r>
       <r>   12.3573    0.0000 </r>
       <r>   12.9873    0.0000 </r>
       <r>   13.0378    0.0000 </r>
       <r>   13.7923    0.0000 </r>
       <r>   14.3821    0.0000 </r>
       <r>   14.3982    0.0000 </r>
       <r>   15.0320    0.0000 </r>
       <r>   15.1258    0.0000 </r>
       <r>   15.6156    0.0000 </r>
       <r>   16.3770    0.0000 </r>
      </set>
      <set comment="kpoint 15">
       <r>  -12.2515    1.0000 </r>
       <r>  -12.0767    1.0000 </r>
       <r>   -8.4089    1.0000 </r>
       <r>   -8.3562    1.0000 </r>
       <r>   -6.0521    1.0000 </r>
       <r>   -6.0461    1.0000 </r>
       <r>   -4.6350    1.0000 </r>
       <r>   -4.4492    1.0000 </r>
       <r>   -3.8597    1.0000 </r>
       <r>   -3.2633    1.0000 </r>
       <r>   -2.0378    1.0000 </r>
       <r>   -1.8722    1.0000 </r>
       <r>   -1.1004    1.0000 </r>
       <r>   -1.0389    1.0000 </r>
       <r>   -0.6278    1.0000 </r>
       <r>   -0.6213    1.0000 </r>
       <r>    0.0094    1.0000 </r>
       <r>    0.0530    1.0000 </r>
       <r>    0.9011    1.0000 </r>
       <r>    0.9674    1.0000 </r>
       <r>    1.0083    1.0000 </r>
       <r>    1.2282    1.0000 </r>
       <r>    6.2010    0.0000 </r>
       <r>    6.3191    0.0000 </r>
       <r>    6.8784    0.0000 </r>
       <r>    7.2182    0.0000 </r>
       <r>    7.2767    0.0000 </r>
       <r>    7.6230    0.0000 </r>
       <r>    7.9299    0.0000 </r>
       <r>    8.4415    0.0000 </r>
       <r>    9.1032    0.0000 </r>
       <r>    9.1352    0.0000 </r>
       <r>   10.0130    0.0000 </r>
       <r>   10.4851    0.0000 </r>
       <r>   10.7093    0.0000 </r>
       <r>   10.9797    0.0000 </r>
       <r>   11.7330    0.0000 </r>
       <r>   11.7512    0.0000 </r>
       <r>   12.1353    0.0000 </r>
       <r>   12.9111    0.0000 </r>
       <r>   13.4175    0.0000 </r>
       <r>   13.7649    0.0000 </r>
       <r>   14.2297    0.0000 </r>
       <r>   14.3841    0.0000 </r>
       <r>   14.9954    0.0000 </r>
       <r>   15.1352    0.0000 </r>
       <r>   15.9924    0.0000 </r>
       <r>   16.2967    0.0000 </r>
      </set>
      <set comment="kpoint 16">
       <r>  -12.5992    1.0000 </r>
       <r>  -11.4700    1.0000 </r>
       <r>   -8.5603    1.0000 </r>
       <r>   -8.2996    1.0000 </r>
       <r>   -5.9225    1.0000 </r>
       <r>   -5.6104    1.0000 </r>
       <r>   -4.9342    1.0000 </r>
       <r>   -4.5446    1.0000 </r>
       <r>   -4.4286    1.0000 </r>
       <r>   -4.1206    1.0000 </r>
       <r>   -3.4046    1.0000 </r>
       <r>   -1.2188    1.0000 </r>
       <r>   -1.0659    1.0000 </r>
       <r>   -1.0008    1.0000 </r>
       <r>   -0.1928    1.0000 </r>
       <r>    0.2212    1.0000 </r>
       <r>    0.3463    1.0000 </r>
       <r>    0.5966    1.0000 </r>
       <r>    0.7880    1.0000 </r>
       <r>    0.9845    1.0000 </r>
       <r>    0.9988    1.0000 </r>
       <r>    2.3432    0.0000 </r>
       <r>    4.9448    0.0000 </r>
       <r>    5.1604    0.0000 </r>
       <r>    6.3577    0.0000 </r>
       <r>    6.5870    0.0000 </r>
       <r>    7.2676    0.0000 </r>
       <r>    7.9688    0.0000 </r>
       <r>    8.7019    0.0000 </r>
       <r>    9.0598    0.0000 </r>
       <r>    9.4652    0.0000 </r>
       <r>    9.5812    0.0000 </r>
       <r>    9.6534    0.0000 </r>
       <r>   10.7439    0.0000 </r>
       <r>   11.2703    0.0000 </r>
       <r>   11.9672    0.0000 </r>
       <r>   12.0181    0.0000 </r>
       <r>   12.2958    0.0000 </r>
       <r>   12.4245    0.0000 </r>
       <r>   12.4487    0.0000 </r>
       <r>   12.5658    0.0000 </r>
       <r>   12.9922    0.0000 </r>
       <r>   13.7941    0.0000 </r>
       <r>   13.8812    0.0000 </r>
       <r>   14.4184    0.0000 </r>
       <r>   15.1034    0.0000 </r>
       <r>   15.4041    0.0000 </r>
       <r>   15.8610    0.0000 </r>
      </set>
      <set comment="kpoint 17">
       <r>  -12.5559    1.0000 </r>
       <r>  -11.5431    1.0000 </r>
       <r>   -8.5384    1.0000 </r>
       <r>   -8.2903    1.0000 </r>
       <r>   -5.8445    1.0000 </r>
       <r>   -5.5756    1.0000 </r>
       <r>   -5.2717    1.0000 </r>
       <r>   -4.6796    1.0000 </r>
       <r>   -4.4941    1.0000 </r>
       <r>   -3.6556    1.0000 </r>
       <r>   -3.0659    1.0000 </r>
       <r>   -1.3814    1.0000 </r>
       <r>   -1.1613    1.0000 </r>
       <r>   -1.0157    1.0000 </r>
       <r>   -0.1942    1.0000 </r>
       <r>    0.2062    1.0000 </r>
       <r>    0.2783    1.0000 </r>
       <r>    0.5759    1.0000 </r>
       <r>    0.6665    1.0000 </r>
       <r>    0.9192    1.0000 </r>
       <r>    0.9573    1.0000 </r>
       <r>    2.2054    0.0000 </r>
       <r>    5.0407    0.0000 </r>
       <r>    5.4923    0.0000 </r>
       <r>    6.3036    0.0000 </r>
       <r>    6.7187    0.0000 </r>
       <r>    7.4032    0.0000 </r>
       <r>    7.9261    0.0000 </r>
       <r>    8.6350    0.0000 </r>
       <r>    9.1759    0.0000 </r>
       <r>    9.4291    0.0000 </r>
       <r>    9.7912    0.0000 </r>
       <r>    9.8976    0.0000 </r>
       <r>   10.3361    0.0000 </r>
       <r>   10.7079    0.0000 </r>
       <r>   11.7060    0.0000 </r>
       <r>   11.8861    0.0000 </r>
       <r>   12.2459    0.0000 </r>
       <r>   12.4797    0.0000 </r>
       <r>   12.6430    0.0000 </r>
       <r>   12.9619    0.0000 </r>
       <r>   13.3923    0.0000 </r>
       <r>   13.7921    0.0000 </r>
       <r>   13.9249    0.0000 </r>
       <r>   14.2552    0.0000 </r>
       <r>   15.0781    0.0000 </r>
       <r>   15.4331    0.0000 </r>
       <r>   15.7319    0.0000 </r>
      </set>
      <set comment="kpoint 18">
       <r>  -12.4713    1.0000 </r>
       <r>  -11.6747    1.0000 </r>
       <r>   -8.4936    1.0000 </r>
       <r>   -8.2794    1.0000 </r>
       <r>   -5.8072    1.0000 </r>
       <r>   -5.6597    1.0000 </r>
       <r>   -5.4201    1.0000 </r>
       <r>   -4.6538    1.0000 </r>
       <r>   -4.6164    1.0000 </r>
       <r>   -3.1159    1.0000 </r>
       <r>   -2.5960    1.0000 </r>
       <r>   -1.8653    1.0000 </r>
       <r>   -1.1006    1.0000 </r>
       <r>   -1.0342    1.0000 </r>
       <r>   -0.2125    1.0000 </r>
       <r>   -0.0481    1.0000 </r>
       <r>    0.3164    1.0000 </r>
       <r>    0.5080    1.0000 </r>
       <r>    0.5239    1.0000 </r>
       <r>    0.8309    1.0000 </r>
       <r>    0.8904    1.0000 </r>
       <r>    1.9451    0.0466 </r>
       <r>    5.3665    0.0000 </r>
       <r>    5.9672    0.0000 </r>
       <r>    6.2764    0.0000 </r>
       <r>    6.8316    0.0000 </r>
       <r>    7.5710    0.0000 </r>
       <r>    7.9463    0.0000 </r>
       <r>    8.5608    0.0000 </r>
       <r>    9.3647    0.0000 </r>
       <r>    9.3957    0.0000 </r>
       <r>    9.5928    0.0000 </r>
       <r>   10.0441    0.0000 </r>
       <r>   10.1129    0.0000 </r>
       <r>   10.5605    0.0000 </r>
       <r>   11.3875    0.0000 </r>
       <r>   11.3984    0.0000 </r>
       <r>   12.2394    0.0000 </r>
       <r>   12.7416    0.0000 </r>
       <r>   12.9571    0.0000 </r>
       <r>   13.1812    0.0000 </r>
       <r>   13.5230    0.0000 </r>
       <r>   13.7658    0.0000 </r>
       <r>   14.0173    0.0000 </r>
       <r>   14.3910    0.0000 </r>
       <r>   15.1694    0.0000 </r>
       <r>   15.3596    0.0000 </r>
       <r>   15.9932    0.0000 </r>
      </set>
      <set comment="kpoint 19">
       <r>  -12.3493    1.0000 </r>
       <r>  -11.8421    1.0000 </r>
       <r>   -8.4304    1.0000 </r>
       <r>   -8.2810    1.0000 </r>
       <r>   -5.8812    1.0000 </r>
       <r>   -5.8684    1.0000 </r>
       <r>   -5.3070    1.0000 </r>
       <r>   -4.7809    1.0000 </r>
       <r>   -4.3368    1.0000 </r>
       <r>   -2.7621    1.0000 </r>
       <r>   -2.2768    1.0000 </r>
       <r>   -2.1202    1.0000 </r>
       <r>   -1.0424    1.0000 </r>
       <r>   -1.0159    1.0000 </r>
       <r>   -0.3723    1.0000 </r>
       <r>   -0.3276    1.0000 </r>
       <r>    0.1532    1.0000 </r>
       <r>    0.3771    1.0000 </r>
       <r>    0.6636    1.0000 </r>
       <r>    0.7750    1.0000 </r>
       <r>    0.8241    1.0000 </r>
       <r>    1.6064    1.0000 </r>
       <r>    5.8940    0.0000 </r>
       <r>    6.3085    0.0000 </r>
       <r>    6.5462    0.0000 </r>
       <r>    6.7837    0.0000 </r>
       <r>    7.5707    0.0000 </r>
       <r>    8.0047    0.0000 </r>
       <r>    8.5146    0.0000 </r>
       <r>    8.9161    0.0000 </r>
       <r>    9.2722    0.0000 </r>
       <r>    9.5841    0.0000 </r>
       <r>    9.9053    0.0000 </r>
       <r>   10.3456    0.0000 </r>
       <r>   10.7951    0.0000 </r>
       <r>   11.0939    0.0000 </r>
       <r>   11.4435    0.0000 </r>
       <r>   12.1688    0.0000 </r>
       <r>   12.4229    0.0000 </r>
       <r>   13.1601    0.0000 </r>
       <r>   13.2808    0.0000 </r>
       <r>   13.6607    0.0000 </r>
       <r>   13.9018    0.0000 </r>
       <r>   14.1527    0.0000 </r>
       <r>   14.7588    0.0000 </r>
       <r>   14.9934    0.0000 </r>
       <r>   15.4351    0.0000 </r>
       <r>   16.3287    0.0000 </r>
      </set>
      <set comment="kpoint 20">
       <r>  -12.1963    1.0000 </r>
       <r>  -12.0225    1.0000 </r>
       <r>   -8.3624    1.0000 </r>
       <r>   -8.3083    1.0000 </r>
       <r>   -5.9746    1.0000 </r>
       <r>   -5.9667    1.0000 </r>
       <r>   -5.1457    1.0000 </r>
       <r>   -4.9639    1.0000 </r>
       <r>   -3.8277    1.0000 </r>
       <r>   -3.2332    1.0000 </r>
       <r>   -1.9809    1.0000 </r>
       <r>   -1.8263    1.0000 </r>
       <r>   -0.9792    1.0000 </r>
       <r>   -0.9200    1.0000 </r>
       <r>   -0.6702    1.0000 </r>
       <r>   -0.6270    1.0000 </r>
       <r>    0.1287    1.0000 </r>
       <r>    0.2292    1.0000 </r>
       <r>    0.7592    1.0000 </r>
       <r>    0.7752    1.0000 </r>
       <r>    0.9268    1.0000 </r>
       <r>    1.2498    1.0000 </r>
       <r>    6.4415    0.0000 </r>
       <r>    6.5551    0.0000 </r>
       <r>    6.6206    0.0000 </r>
       <r>    7.1363    0.0000 </r>
       <r>    7.2066    0.0000 </r>
       <r>    7.6934    0.0000 </r>
       <r>    8.5033    0.0000 </r>
       <r>    8.5675    0.0000 </r>
       <r>    9.4665    0.0000 </r>
       <r>    9.6397    0.0000 </r>
       <r>    9.8452    0.0000 </r>
       <r>   10.1421    0.0000 </r>
       <r>   10.8594    0.0000 </r>
       <r>   11.2339    0.0000 </r>
       <r>   11.8701    0.0000 </r>
       <r>   11.9452    0.0000 </r>
       <r>   12.2570    0.0000 </r>
       <r>   13.1476    0.0000 </r>
       <r>   13.4387    0.0000 </r>
       <r>   13.6240    0.0000 </r>
       <r>   13.8401    0.0000 </r>
       <r>   13.9484    0.0000 </r>
       <r>   15.1013    0.0000 </r>
       <r>   15.1186    0.0000 </r>
       <r>   15.6684    0.0000 </r>
       <r>   15.9705    0.0000 </r>
      </set>
      <set comment="kpoint 21">
       <r>  -12.5390    1.0000 </r>
[...]
       <r>   -2.3149    1.0000 </r>
       <r>   -2.1460    1.0000 </r>
       <r>   -1.9821    1.0000 </r>
       <r>   -1.4900    1.0000 </r>
       <r>   -0.7364    1.0000 </r>
       <r>   -0.2005    1.0000 </r>
       <r>    0.1669    1.0000 </r>
       <r>    0.3862    1.0000 </r>
       <r>    0.5147    1.0000 </r>
       <r>    1.5901    1.0000 </r>
       <r>    1.6173    1.0000 </r>
       <r>    1.8726    0.6454 </r>
       <r>    5.5126    0.0000 </r>
       <r>    6.1471    0.0000 </r>
       <r>    6.6679    0.0000 </r>
       <r>    7.2188    0.0000 </r>
       <r>    7.7825    0.0000 </r>
       <r>    8.2256    0.0000 </r>
       <r>    8.9921    0.0000 </r>
       <r>    9.1515    0.0000 </r>
       <r>    9.7209    0.0000 </r>
       <r>    9.9564    0.0000 </r>
       <r>   10.5877    0.0000 </r>
       <r>   11.0313    0.0000 </r>
       <r>   11.2063    0.0000 </r>
       <r>   11.4775    0.0000 </r>
       <r>   11.5669    0.0000 </r>
       <r>   11.9501    0.0000 </r>
       <r>   12.8376    0.0000 </r>
       <r>   13.1443    0.0000 </r>
       <r>   13.3681    0.0000 </r>
       <r>   13.7484    0.0000 </r>
       <r>   13.8724    0.0000 </r>
       <r>   14.1555    0.0000 </r>
       <r>   14.4769    0.0000 </r>
       <r>   14.9670    0.0000 </r>
       <r>   15.0938    0.0000 </r>
       <r>   15.3942    0.0000 </r>
      </set>
      <set comment="kpoint 175">
       <r>  -12.0210    1.0000 </r>
       <r>  -11.8819    1.0000 </r>
       <r>   -8.5468    1.0000 </r>
       <r>   -8.4345    1.0000 </r>
       <r>   -5.9263    1.0000 </r>
       <r>   -5.8201    1.0000 </r>
       <r>   -4.8911    1.0000 </r>
       <r>   -4.5675    1.0000 </r>
       <r>   -4.4128    1.0000 </r>
       <r>   -3.9747    1.0000 </r>
       <r>   -2.1982    1.0000 </r>
       <r>   -2.1367    1.0000 </r>
       <r>   -2.0571    1.0000 </r>
       <r>   -1.7727    1.0000 </r>
       <r>   -0.2183    1.0000 </r>
       <r>   -0.0046    1.0000 </r>
       <r>    0.3890    1.0000 </r>
       <r>    0.4769    1.0000 </r>
       <r>    0.5497    1.0000 </r>
       <r>    0.8758    1.0000 </r>
       <r>    1.6315    1.0000 </r>
       <r>    1.7310    1.0000 </r>
       <r>    5.8595    0.0000 </r>
       <r>    6.0450    0.0000 </r>
       <r>    6.8701    0.0000 </r>
       <r>    7.4072    0.0000 </r>
       <r>    7.4741    0.0000 </r>
       <r>    7.5770    0.0000 </r>
       <r>    9.3968    0.0000 </r>
       <r>    9.5808    0.0000 </r>
       <r>    9.7896    0.0000 </r>
       <r>    9.9673    0.0000 </r>
       <r>   10.4642    0.0000 </r>
       <r>   10.8139    0.0000 </r>
       <r>   11.2357    0.0000 </r>
       <r>   11.5086    0.0000 </r>
       <r>   11.5187    0.0000 </r>
       <r>   11.6124    0.0000 </r>
       <r>   13.0820    0.0000 </r>
       <r>   13.1881    0.0000 </r>
       <r>   13.7206    0.0000 </r>
       <r>   14.0538    0.0000 </r>
       <r>   14.1880    0.0000 </r>
       <r>   14.2905    0.0000 </r>
       <r>   14.5931    0.0000 </r>
       <r>   14.7369    0.0000 </r>
       <r>   14.8853    0.0000 </r>
       <r>   15.0468    0.0000 </r>
      </set>
     </set>
    </set>
   </array>
  </eigenvalues>
  <separator name="orbital magnetization" >
   <v name="MAGDIPOLOUT">      0.00000000      0.00000000      0.00000000</v>
  </separator>
  <dos>
   <i name="efermi">      1.88578293 </i>
   <total>
    <array>
     <dimension dim="1">gridpoints</dimension>
     <dimension dim="2">spin</dimension>
     <field>energy</field>
     <field>total</field>
     <field>integrated</field>
     <set>
      <set comment="spin 1">
       <r>   -14.1870     0.0000     0.0000 </r>
       <r>   -14.0798     0.0000     0.0000 </r>
       <r>   -13.9726     0.0000     0.0000 </r>
       <r>   -13.8654     0.0000     0.0000 </r>
       <r>   -13.7582     0.0000     0.0000 </r>
       <r>   -13.6509     0.0000     0.0000 </r>
       <r>   -13.5437     0.0000     0.0000 </r>
       <r>   -13.4365     0.0000     0.0000 </r>
       <r>   -13.3293     0.0000     0.0000 </r>
       <r>   -13.2221     0.0000     0.0000 </r>
       <r>   -13.1149     0.0000     0.0000 </r>
       <r>   -13.0076     0.0000     0.0000 </r>
       <r>   -12.9004     0.0000     0.0000 </r>
       <r>   -12.7932     0.0038     0.0004 </r>
       <r>   -12.6860     0.5082     0.0549 </r>
       <r>   -12.5788     2.3903     0.3112 </r>
       <r>   -12.4716     3.5650     0.6934 </r>
       <r>   -12.3643     4.3713     1.1621 </r>
       <r>   -12.2571     3.5379     1.5414 </r>
       <r>   -12.1499     2.7345     1.8346 </r>
       <r>   -12.0427     2.7511     2.1295 </r>
       <r>   -11.9355     2.5042     2.3980 </r>
       <r>   -11.8283     2.7701     2.6950 </r>
       <r>   -11.7211     3.4269     3.0624 </r>
       <r>   -11.6138     3.5345     3.4414 </r>
       <r>   -11.5066     3.1140     3.7753 </r>
       <r>   -11.3994     1.6670     3.9540 </r>
       <r>   -11.2922     0.4219     3.9992 </r>
       <r>   -11.1850     0.0073     4.0000 </r>
       <r>   -11.0778     0.0000     4.0000 </r>
       <r>   -10.9705     0.0000     4.0000 </r>
       <r>   -10.8633     0.0000     4.0000 </r>
       <r>   -10.7561     0.0000     4.0000 </r>
       <r>   -10.6489     0.0000     4.0000 </r>
       <r>   -10.5417     0.0000     4.0000 </r>
       <r>   -10.4345     0.0000     4.0000 </r>
       <r>   -10.3272     0.0000     4.0000 </r>
       <r>   -10.2200     0.0000     4.0000 </r>
       <r>   -10.1128     0.0000     4.0000 </r>
       <r>   -10.0056     0.0000     4.0000 </r>
       <r>    -9.8984     0.0000     4.0000 </r>
       <r>    -9.7912     0.0000     4.0000 </r>
       <r>    -9.6839     0.0000     4.0000 </r>
       <r>    -9.5767     0.0000     4.0000 </r>
       <r>    -9.4695     0.0000     4.0000 </r>
       <r>    -9.3623     0.0000     4.0000 </r>
       <r>    -9.2551     0.0000     4.0000 </r>
       <r>    -9.1479     0.0000     4.0000 </r>
       <r>    -9.0407     0.0000     4.0000 </r>
       <r>    -8.9334     0.0006     4.0001 </r>
       <r>    -8.8262     0.2755     4.0296 </r>
       <r>    -8.7190     2.0889     4.2536 </r>
       <r>    -8.6118     5.3283     4.8249 </r>
       <r>    -8.5046     6.9869     5.5740 </r>
       <r>    -8.3974     6.2980     6.2492 </r>
       <r>    -8.2901     5.3238     6.8200 </r>
       <r>    -8.1829     4.8355     7.3384 </r>
       <r>    -8.0757     3.8739     7.7538 </r>
       <r>    -7.9685     1.6666     7.9325 </r>
       <r>    -7.8613     0.5777     7.9944 </r>
       <r>    -7.7541     0.0521     8.0000 </r>
       <r>    -7.6468     0.0000     8.0000 </r>
       <r>    -7.5396     0.0000     8.0000 </r>
       <r>    -7.4324     0.0000     8.0000 </r>
       <r>    -7.3252     0.0000     8.0000 </r>
       <r>    -7.2180     0.0000     8.0000 </r>
       <r>    -7.1108     0.0000     8.0000 </r>
       <r>    -7.0035     0.0004     8.0000 </r>
       <r>    -6.8963     0.1128     8.0121 </r>
       <r>    -6.7891     0.2577     8.0398 </r>
       <r>    -6.6819     0.4259     8.0854 </r>
       <r>    -6.5747     0.7659     8.1675 </r>
       <r>    -6.4675     0.8511     8.2588 </r>
       <r>    -6.3603     1.4451     8.4137 </r>
       <r>    -6.2530     1.9636     8.6243 </r>
       <r>    -6.1458     3.0566     8.9520 </r>
       <r>    -6.0386     3.7832     9.3576 </r>
       <r>    -5.9314     4.1128     9.7986 </r>
       <r>    -5.8242     4.0471    10.2325 </r>
       <r>    -5.7170     3.8601    10.6463 </r>
       <r>    -5.6097     4.0723    11.0830 </r>
       <r>    -5.5025     4.2208    11.5355 </r>
       <r>    -5.3953     4.5440    12.0227 </r>
       <r>    -5.2881     4.5970    12.5155 </r>
       <r>    -5.1809     4.4898    12.9969 </r>
       <r>    -5.0737     3.8680    13.4116 </r>
       <r>    -4.9664     3.2268    13.7576 </r>
       <r>    -4.8592     2.9528    14.0742 </r>
       <r>    -4.7520     2.3340    14.3244 </r>
       <r>    -4.6448     2.8952    14.6349 </r>
       <r>    -4.5376     3.3688    14.9961 </r>
       <r>    -4.4304     3.4681    15.3679 </r>
       <r>    -4.3231     3.3351    15.7255 </r>
       <r>    -4.2159     2.9541    16.0422 </r>
       <r>    -4.1087     2.9059    16.3537 </r>
       <r>    -4.0015     2.9463    16.6696 </r>
       <r>    -3.8943     2.8597    16.9762 </r>
       <r>    -3.7871     3.1176    17.3105 </r>
       <r>    -3.6798     2.8771    17.6190 </r>
       <r>    -3.5726     2.7028    17.9088 </r>
       <r>    -3.4654     3.0654    18.2374 </r>
       <r>    -3.3582     2.6377    18.5202 </r>
       <r>    -3.2510     2.8592    18.8268 </r>
       <r>    -3.1438     2.7475    19.1214 </r>
       <r>    -3.0366     2.7374    19.4148 </r>
       <r>    -2.9293     3.0467    19.7415 </r>
       <r>    -2.8221     2.9749    20.0605 </r>
       <r>    -2.7149     2.4302    20.3210 </r>
       <r>    -2.6077     2.6550    20.6057 </r>
       <r>    -2.5005     3.0188    20.9293 </r>
       <r>    -2.3933     2.9846    21.2493 </r>
       <r>    -2.2860     3.1904    21.5914 </r>
       <r>    -2.1788     4.0097    22.0213 </r>
       <r>    -2.0716     3.6567    22.4133 </r>
       <r>    -1.9644     3.2710    22.7641 </r>
       <r>    -1.8572     5.1156    23.3125 </r>
       <r>    -1.7500     5.5801    23.9108 </r>
       <r>    -1.6427     5.6024    24.5115 </r>
       <r>    -1.5355     6.1771    25.1738 </r>
       <r>    -1.4283     6.1073    25.8286 </r>
       <r>    -1.3211     5.5749    26.4263 </r>
       <r>    -1.2139     4.6838    26.9285 </r>
       <r>    -1.1067     6.4948    27.6248 </r>
       <r>    -0.9994     3.9898    28.0526 </r>
       <r>    -0.8922     2.2688    28.2958 </r>
       <r>    -0.7850     2.6969    28.5850 </r>
       <r>    -0.6778     2.8796    28.8937 </r>
       <r>    -0.5706     4.5143    29.3777 </r>
       <r>    -0.4634     6.8612    30.1134 </r>
       <r>    -0.3562     5.6589    30.7201 </r>
       <r>    -0.2489     6.7041    31.4389 </r>
       <r>    -0.1417     6.3570    32.1204 </r>
       <r>    -0.0345     6.7453    32.8436 </r>
       <r>     0.0727     6.7621    33.5686 </r>
       <r>     0.1799     6.2884    34.2429 </r>
       <r>     0.2871     8.7983    35.1862 </r>
       <r>     0.3944     7.9810    36.0419 </r>
       <r>     0.5016     8.6959    36.9742 </r>
       <r>     0.6088     5.2630    37.5385 </r>
       <r>     0.7160     2.9395    37.8536 </r>
       <r>     0.8232     3.2893    38.2063 </r>
       <r>     0.9304     3.5891    38.5911 </r>
       <r>     1.0377     3.5614    38.9730 </r>
       <r>     1.1449     2.7901    39.2721 </r>
       <r>     1.2521     3.3877    39.6353 </r>
       <r>     1.3593     4.4930    40.1170 </r>
       <r>     1.4665     3.7797    40.5223 </r>
       <r>     1.5737     3.7217    40.9213 </r>
       <r>     1.6810     4.5775    41.4121 </r>
       <r>     1.7882     3.2351    41.7589 </r>
       <r>     1.8954     2.4796    42.0248 </r>
       <r>     2.0026     2.6609    42.3101 </r>
       <r>     2.1098     2.0914    42.5343 </r>
       <r>     2.2170     2.6514    42.8186 </r>
       <r>     2.3242     2.5727    43.0944 </r>
       <r>     2.4315     1.9375    43.3021 </r>
       <r>     2.5387     0.8533    43.3936 </r>
       <r>     2.6459     0.3782    43.4342 </r>
       <r>     2.7531     0.5722    43.4955 </r>
       <r>     2.8603     0.4191    43.5405 </r>
       <r>     2.9675     0.3055    43.5732 </r>
       <r>     3.0748     0.7580    43.6545 </r>
       <r>     3.1820     1.0131    43.7631 </r>
       <r>     3.2892     0.5387    43.8209 </r>
       <r>     3.3964     0.0133    43.8223 </r>
       <r>     3.5036     0.1310    43.8363 </r>
       <r>     3.6108     0.3953    43.8787 </r>
       <r>     3.7181     0.3303    43.9141 </r>
       <r>     3.8253     0.3714    43.9539 </r>
       <r>     3.9325     0.4024    43.9971 </r>
       <r>     4.0397     0.0271    44.0000 </r>
       <r>     4.1469     0.0000    44.0000 </r>
       <r>     4.2541     0.0315    44.0034 </r>
       <r>     4.3614     0.1763    44.0223 </r>
       <r>     4.4686     0.4027    44.0655 </r>
       <r>     4.5758     0.4713    44.1160 </r>
       <r>     4.6830     0.6342    44.1840 </r>
       <r>     4.7902     0.8894    44.2793 </r>
       <r>     4.8974     0.8415    44.3696 </r>
       <r>     5.0047     0.8570    44.4614 </r>
       <r>     5.1119     1.2775    44.5984 </r>
       <r>     5.2191     1.1517    44.7219 </r>
       <r>     5.3263     1.6331    44.8970 </r>
       <r>     5.4335     2.1914    45.1319 </r>
       <r>     5.5407     2.4863    45.3985 </r>
       <r>     5.6479     2.7875    45.6974 </r>
       <r>     5.7552     3.3689    46.0586 </r>
       <r>     5.8624     3.2189    46.4037 </r>
       <r>     5.9696     4.3158    46.8664 </r>
       <r>     6.0768     4.7561    47.3763 </r>
       <r>     6.1840     4.0437    47.8099 </r>
       <r>     6.2912     4.6225    48.3055 </r>
       <r>     6.3985     4.1516    48.7506 </r>
       <r>     6.5057     4.0185    49.1815 </r>
       <r>     6.6129     4.4782    49.6616 </r>
       <r>     6.7201     3.2260    50.0075 </r>
       <r>     6.8273     3.9995    50.4363 </r>
       <r>     6.9345     4.6138    50.9310 </r>
       <r>     7.0418     4.5523    51.4190 </r>
       <r>     7.1490     4.3406    51.8844 </r>
       <r>     7.2562     5.6013    52.4850 </r>
       <r>     7.3634     4.9210    53.0126 </r>
       <r>     7.4706     4.4534    53.4901 </r>
       <r>     7.5778     4.1884    53.9391 </r>
       <r>     7.6851     3.5645    54.3213 </r>
       <r>     7.7923     3.1240    54.6563 </r>
       <r>     7.8995     3.0083    54.9788 </r>
       <r>     8.0067     2.9803    55.2983 </r>
       <r>     8.1139     4.1679    55.7452 </r>
       <r>     8.2211     3.8891    56.1622 </r>
       <r>     8.3283     3.6861    56.5574 </r>
       <r>     8.4356     3.9940    56.9856 </r>
       <r>     8.5428     4.2138    57.4374 </r>
       <r>     8.6500     4.4585    57.9154 </r>
       <r>     8.7572     4.2232    58.3682 </r>
       <r>     8.8644     5.2706    58.9333 </r>
       <r>     8.9716     4.9397    59.4629 </r>
       <r>     9.0789     5.2939    60.0305 </r>
       <r>     9.1861     5.2365    60.5919 </r>
       <r>     9.2933     4.9704    61.1248 </r>
       <r>     9.4005     4.6881    61.6275 </r>
       <r>     9.5077     4.3666    62.0957 </r>
       <r>     9.6149     5.1082    62.6433 </r>
       <r>     9.7222     5.0250    63.1821 </r>
       <r>     9.8294     5.3016    63.7505 </r>
       <r>     9.9366     4.4748    64.2303 </r>
       <r>    10.0438     3.6333    64.6198 </r>
       <r>    10.1510     5.1833    65.1756 </r>
       <r>    10.2582     4.7114    65.6807 </r>
       <r>    10.3655     4.1183    66.1222 </r>
       <r>    10.4727     5.4235    66.7037 </r>
       <r>    10.5799     5.7990    67.3255 </r>
       <r>    10.6871     4.0660    67.7614 </r>
       <r>    10.7943     3.8820    68.1776 </r>
       <r>    10.9015     3.2376    68.5247 </r>
       <r>    11.0087     4.6797    69.0265 </r>
       <r>    11.1160     5.4816    69.6142 </r>
       <r>    11.2232     6.1997    70.2789 </r>
       <r>    11.3304     5.9843    70.9205 </r>
       <r>    11.4376     5.2830    71.4869 </r>
       <r>    11.5448     4.2997    71.9479 </r>
       <r>    11.6520     4.4752    72.4278 </r>
       <r>    11.7593     4.9341    72.9568 </r>
       <r>    11.8665     4.8098    73.4725 </r>
       <r>    11.9737     6.0330    74.1193 </r>
       <r>    12.0809     5.9651    74.7588 </r>
       <r>    12.1881     5.9810    75.4001 </r>
       <r>    12.2953     5.6200    76.0026 </r>
       <r>    12.4026     5.0000    76.5387 </r>
       <r>    12.5098     5.6878    77.1486 </r>
       <r>    12.6170     5.9920    77.7910 </r>
       <r>    12.7242     6.0202    78.4364 </r>
       <r>    12.8314     5.8815    79.0670 </r>
       <r>    12.9386     5.8654    79.6959 </r>
       <r>    13.0459     5.5962    80.2959 </r>
       <r>    13.1531     6.3537    80.9771 </r>
       <r>    13.2603     6.2505    81.6473 </r>
       <r>    13.3675     5.3935    82.2256 </r>
       <r>    13.4747     6.1300    82.8828 </r>
       <r>    13.5819     5.3444    83.4558 </r>
       <r>    13.6891     4.8085    83.9713 </r>
       <r>    13.7964     6.1430    84.6300 </r>
       <r>    13.9036     5.5120    85.2209 </r>
       <r>    14.0108     5.3485    85.7944 </r>
       <r>    14.1180     5.4720    86.3811 </r>
       <r>    14.2252     4.6771    86.8825 </r>
       <r>    14.3324     4.9122    87.4092 </r>
       <r>    14.4397     5.0171    87.9471 </r>
       <r>    14.5469     4.9612    88.4790 </r>
       <r>    14.6541     5.2724    89.0443 </r>
       <r>    14.7613     5.1621    89.5978 </r>
       <r>    14.8685     4.0882    90.0361 </r>
       <r>    14.9757     5.0905    90.5819 </r>
       <r>    15.0830     6.1882    91.2454 </r>
       <r>    15.1902     5.6316    91.8492 </r>
       <r>    15.2974     5.6868    92.4589 </r>
       <r>    15.4046     6.0245    93.1048 </r>
       <r>    15.5118     5.7297    93.7191 </r>
       <r>    15.6190     5.9489    94.3569 </r>
       <r>    15.7263     4.5814    94.8481 </r>
       <r>    15.8335     2.4627    95.1122 </r>
       <r>    15.9407     2.7081    95.4025 </r>
       <r>    16.0479     1.8529    95.6012 </r>
       <r>    16.1551     1.1424    95.7237 </r>
       <r>    16.2623     0.8928    95.8194 </r>
       <r>    16.3696     0.6957    95.8940 </r>
       <r>    16.4768     0.8121    95.9810 </r>
       <r>    16.5840     0.1752    95.9998 </r>
       <r>    16.6912     0.0017    96.0000 </r>
       <r>    16.7984     0.0000    96.0000 </r>
       <r>    16.9056     0.0000    96.0000 </r>
       <r>    17.0128     0.0000    96.0000 </r>
       <r>    17.1201     0.0000    96.0000 </r>
       <r>    17.2273     0.0000    96.0000 </r>
       <r>    17.3345     0.0000    96.0000 </r>
       <r>    17.4417     0.0000    96.0000 </r>
       <r>    17.5489     0.0000    96.0000 </r>
       <r>    17.6561     0.0000    96.0000 </r>
       <r>    17.7634     0.0000    96.0000 </r>
       <r>    17.8706     0.0000    96.0000 </r>
       <r>    17.9778     0.0000    96.0000 </r>
      </set>
     </set>
    </array>
   </total>
  </dos>
 </calculation>
 <structure name="finalpos" >
  <crystal>
   <varray name="basis" >
    <v>       5.69700000       0.00000000       0.00000000 </v>
    <v>       0.00000000       4.04790000       0.00000000 </v>
    <v>       0.00000000       0.00000000       6.20420000 </v>
   </varray>
   <i name="volume">    143.07435078 </i>
   <varray name="rec_basis" >
    <v>       0.17553098       0.00000000       0.00000000 </v>
    <v>       0.00000000       0.24704168       0.00000000 </v>
    <v>       0.00000000       0.00000000       0.16118114 </v>
   </varray>
  </crystal>
  <varray name="positions" >
   <v>       0.52123000       0.50000000       0.63796000 </v>
   <v>       0.47877000       0.50000000       0.36204000 </v>
   <v>       0.97877000       0.50000000       0.63796000 </v>
   <v>       0.02123000       0.50000000       0.36204000 </v>
   <v>       0.60090000       0.50000000       0.89991000 </v>
   <v>       0.39910000       0.50000000       0.10009000 </v>
   <v>       0.89910000       0.50000000       0.89991000 </v>
   <v>       0.10090000       0.50000000       0.10009000 </v>
   <v>       0.75000000       0.79171000       0.72973000 </v>
   <v>       0.25000000       0.20829000       0.27027000 </v>
   <v>       0.75000000       0.20829000       0.72973000 </v>
   <v>       0.25000000       0.79171000       0.27027000 </v>
   <v>       0.25000000       0.50000000       0.52367000 </v>
   <v>       0.75000000       0.50000000       0.47633000 </v>
  </varray>
 </structure>
</modeling>
