  14  14   0   0
  0.1021318E+02  0.5700971E-09  0.4044058E-09  0.6201871E-09  0.5000000E-15
  1.000000000000000E-004
  CAR 
 Dielectric                              
     81.92735120    -17.19771300 4000      1.91648024      1.00000000
    -17.198  0.0000E+00  0.0000E+00
    -17.173  0.0000E+00  0.0000E+00
    -17.148  0.0000E+00  0.0000E+00
    -17.123  0.0000E+00  0.0000E+00
    -17.099  0.0000E+00  0.0000E+00
    -17.074  0.0000E+00  0.0000E+00
    -17.049  0.0000E+00  0.0000E+00
    -17.024  0.0000E+00  0.0000E+00
    -16.999  0.0000E+00  0.0000E+00
    -16.975  0.0000E+00  0.0000E+00
    -16.950  0.0000E+00  0.0000E+00
    -16.925  0.0000E+00  0.0000E+00
    -16.900  0.0000E+00  0.0000E+00
    -16.875  0.0000E+00  0.0000E+00
    -16.851  0.0000E+00  0.0000E+00
    -16.826  0.0000E+00  0.0000E+00
    -16.801  0.0000E+00  0.0000E+00
    -16.776  0.0000E+00  0.0000E+00
    -16.752  0.0000E+00  0.0000E+00
    -16.727  0.0000E+00  0.0000E+00
    -16.702  0.0000E+00  0.0000E+00
    -16.677  0.0000E+00  0.0000E+00
    -16.652  0.0000E+00  0.0000E+00
    -16.628  0.0000E+00  0.0000E+00
    -16.603  0.0000E+00  0.0000E+00
    -16.578  0.0000E+00  0.0000E+00
    -16.553  0.0000E+00  0.0000E+00
    -16.528  0.0000E+00  0.0000E+00
    -16.504  0.0000E+00  0.0000E+00
    -16.479  0.0000E+00  0.0000E+00
    -16.454  0.0000E+00  0.0000E+00
    -16.429  0.0000E+00  0.0000E+00
    -16.405  0.0000E+00  0.0000E+00
    -16.380  0.0000E+00  0.0000E+00
    -16.355  0.0000E+00  0.0000E+00
    -16.330  0.0000E+00  0.0000E+00
    -16.305  0.0000E+00  0.0000E+00
    -16.281  0.0000E+00  0.0000E+00
    -16.256  0.0000E+00  0.0000E+00
    -16.231  0.0000E+00  0.0000E+00
    -16.206  0.0000E+00  0.0000E+00
    -16.181  0.0000E+00  0.0000E+00
    -16.157  0.0000E+00  0.0000E+00
    -16.132  0.0000E+00  0.0000E+00
    -16.107  0.0000E+00  0.0000E+00
    -16.082  0.0000E+00  0.0000E+00
    -16.057  0.0000E+00  0.0000E+00
    -16.033  0.0000E+00  0.0000E+00
    -16.008  0.0000E+00  0.0000E+00
    -15.983  0.0000E+00  0.0000E+00
    -15.958  0.0000E+00  0.0000E+00
    -15.934  0.0000E+00  0.0000E+00
    -15.909  0.0000E+00  0.0000E+00
    -15.884  0.0000E+00  0.0000E+00
    -15.859  0.0000E+00  0.0000E+00
    -15.834  0.0000E+00  0.0000E+00
    -15.810  0.0000E+00  0.0000E+00
    -15.785  0.0000E+00  0.0000E+00
    -15.760  0.0000E+00  0.0000E+00
    -15.735  0.0000E+00  0.0000E+00
    -15.710  0.0000E+00  0.0000E+00
    -15.686  0.0000E+00  0.0000E+00
    -15.661  0.0000E+00  0.0000E+00
    -15.636  0.0000E+00  0.0000E+00
    -15.611  0.0000E+00  0.0000E+00
    -15.587  0.0000E+00  0.0000E+00
    -15.562  0.0000E+00  0.0000E+00
    -15.537  0.0000E+00  0.0000E+00
    -15.512  0.0000E+00  0.0000E+00
    -15.487  0.0000E+00  0.0000E+00
    -15.463  0.0000E+00  0.0000E+00
    -15.438  0.0000E+00  0.0000E+00
    -15.413  0.0000E+00  0.0000E+00
    -15.388  0.0000E+00  0.0000E+00
    -15.363  0.0000E+00  0.0000E+00
    -15.339  0.0000E+00  0.0000E+00
    -15.314  0.0000E+00  0.0000E+00
    -15.289  0.0000E+00  0.0000E+00
    -15.264  0.0000E+00  0.0000E+00
    -15.240  0.0000E+00  0.0000E+00
    -15.215  0.0000E+00  0.0000E+00
    -15.190  0.0000E+00  0.0000E+00
    -15.165  0.0000E+00  0.0000E+00
    -15.140  0.0000E+00  0.0000E+00
    -15.116  0.0000E+00  0.0000E+00
    -15.091  0.0000E+00  0.0000E+00
    -15.066  0.0000E+00  0.0000E+00
    -15.041  0.0000E+00  0.0000E+00
    -15.016  0.0000E+00  0.0000E+00
    -14.992  0.0000E+00  0.0000E+00
    -14.967  0.0000E+00  0.0000E+00
    -14.942  0.0000E+00  0.0000E+00
    -14.917  0.0000E+00  0.0000E+00
    -14.892  0.0000E+00  0.0000E+00
    -14.868  0.0000E+00  0.0000E+00
    -14.843  0.0000E+00  0.0000E+00
    -14.818  0.0000E+00  0.0000E+00
    -14.793  0.0000E+00  0.0000E+00
    -14.769  0.0000E+00  0.0000E+00
    -14.744  0.0000E+00  0.0000E+00
    -14.719  0.0000E+00  0.0000E+00
    -14.694  0.0000E+00  0.0000E+00
    -14.669  0.0000E+00  0.0000E+00
    -14.645  0.0000E+00  0.0000E+00
    -14.620  0.0000E+00  0.0000E+00
    -14.595  0.0000E+00  0.0000E+00
    -14.570  0.0000E+00  0.0000E+00
    -14.545  0.0000E+00  0.0000E+00
    -14.521  0.0000E+00  0.0000E+00
    -14.496  0.0000E+00  0.0000E+00
    -14.471  0.0000E+00  0.0000E+00
    -14.446  0.0000E+00  0.0000E+00
    -14.422  0.0000E+00  0.0000E+00
    -14.397  0.0000E+00  0.0000E+00
    -14.372  0.0000E+00  0.0000E+00
    -14.347  0.0000E+00  0.0000E+00
    -14.322  0.0000E+00  0.0000E+00
    -14.298  0.0000E+00  0.0000E+00
    -14.273  0.0000E+00  0.0000E+00
    -14.248  0.0000E+00  0.0000E+00
    -14.223  0.0000E+00  0.0000E+00
    -14.198  0.0000E+00  0.0000E+00
    -14.174  0.0000E+00  0.0000E+00
    -14.149  0.0000E+00  0.0000E+00
    -14.124  0.0000E+00  0.0000E+00
    -14.099  0.0000E+00  0.0000E+00
    -14.074  0.0000E+00  0.0000E+00
    -14.050  0.0000E+00  0.0000E+00
    -14.025  0.0000E+00  0.0000E+00
    -14.000  0.0000E+00  0.0000E+00
    -13.975  0.0000E+00  0.0000E+00
    -13.951  0.0000E+00  0.0000E+00
    -13.926  0.0000E+00  0.0000E+00
    -13.901  0.0000E+00  0.0000E+00
    -13.876  0.0000E+00  0.0000E+00
    -13.851  0.0000E+00  0.0000E+00
    -13.827  0.0000E+00  0.0000E+00
    -13.802  0.0000E+00  0.0000E+00
    -13.777  0.0000E+00  0.0000E+00
    -13.752  0.0000E+00  0.0000E+00
    -13.727  0.0000E+00  0.0000E+00
    -13.703  0.0000E+00  0.0000E+00
    -13.678  0.0000E+00  0.0000E+00
    -13.653  0.0000E+00  0.0000E+00
    -13.628  0.0000E+00  0.0000E+00
    -13.604  0.0000E+00  0.0000E+00
    -13.579  0.0000E+00  0.0000E+00
    -13.554  0.0000E+00  0.0000E+00
    -13.529  0.0000E+00  0.0000E+00
    -13.504  0.0000E+00  0.0000E+00
    -13.480  0.0000E+00  0.0000E+00
    -13.455  0.0000E+00  0.0000E+00
    -13.430  0.0000E+00  0.0000E+00
    -13.405  0.0000E+00  0.0000E+00
    -13.380  0.0000E+00  0.0000E+00
    -13.356  0.0000E+00  0.0000E+00
    -13.331  0.0000E+00  0.0000E+00
    -13.306  0.0000E+00  0.0000E+00
    -13.281  0.0000E+00  0.0000E+00
    -13.257  0.0000E+00  0.0000E+00
    -13.232  0.0000E+00  0.0000E+00
    -13.207  0.0000E+00  0.0000E+00
    -13.182  0.0000E+00  0.0000E+00
    -13.157  0.0000E+00  0.0000E+00
    -13.133  0.0000E+00  0.0000E+00
    -13.108  0.0000E+00  0.0000E+00
    -13.083  0.0000E+00  0.0000E+00
    -13.058  0.0000E+00  0.0000E+00
    -13.033  0.0000E+00  0.0000E+00
    -13.009  0.0000E+00  0.0000E+00
    -12.984  0.0000E+00  0.0000E+00
    -12.959  0.0000E+00  0.0000E+00
    -12.934  0.0000E+00  0.0000E+00
    -12.909  0.0000E+00  0.0000E+00
    -12.885  0.0000E+00  0.0000E+00
    -12.860  0.0000E+00  0.0000E+00
    -12.835  0.0000E+00  0.0000E+00
    -12.810  0.0000E+00  0.0000E+00
    -12.786  0.0000E+00  0.0000E+00
    -12.761  0.0000E+00  0.0000E+00
    -12.736  0.6605E-10  0.1637E-11
    -12.711  0.8708E-03  0.2159E-04
    -12.686  0.3215E+00  0.7990E-02
    -12.662  0.8397E+00  0.2880E-01
    -12.637  0.1468E+01  0.6519E-01
    -12.612  0.2300E+01  0.1222E+00
    -12.587  0.2139E+01  0.1752E+00
    -12.562  0.2841E+01  0.2456E+00
    -12.538  0.3453E+01  0.3312E+00
    -12.513  0.3311E+01  0.4133E+00
    -12.488  0.3330E+01  0.4958E+00
    -12.463  0.3446E+01  0.5812E+00
    -12.439  0.3397E+01  0.6654E+00
    -12.414  0.4664E+01  0.7811E+00
    -12.389  0.4445E+01  0.8912E+00
    -12.364  0.5149E+01  0.1019E+01
    -12.339  0.4700E+01  0.1135E+01
    -12.315  0.3156E+01  0.1214E+01
    -12.290  0.3734E+01  0.1306E+01
    -12.265  0.2808E+01  0.1376E+01
    -12.240  0.4099E+01  0.1477E+01
    -12.215  0.3245E+01  0.1558E+01
    -12.191  0.3003E+01  0.1632E+01
    -12.166  0.2516E+01  0.1695E+01
    -12.141  0.2480E+01  0.1756E+01
    -12.116  0.1934E+01  0.1804E+01
    -12.091  0.2855E+01  0.1875E+01
    -12.067  0.3439E+01  0.1960E+01
    -12.042  0.2230E+01  0.2015E+01
    -12.017  0.3379E+01  0.2099E+01
    -11.992  0.2018E+01  0.2149E+01
    -11.968  0.2575E+01  0.2213E+01
    -11.943  0.1218E+01  0.2243E+01
    -11.918  0.2707E+01  0.2310E+01
    -11.893  0.3223E+01  0.2390E+01
    -11.868  0.2443E+01  0.2451E+01
    -11.844  0.3229E+01  0.2531E+01
    -11.819  0.2957E+01  0.2604E+01
    -11.794  0.2262E+01  0.2660E+01
    -11.769  0.1733E+01  0.2703E+01
    -11.744  0.3137E+01  0.2781E+01
    -11.720  0.3088E+01  0.2857E+01
    -11.695  0.4096E+01  0.2959E+01
    -11.670  0.4439E+01  0.3069E+01
    -11.645  0.3151E+01  0.3147E+01
    -11.621  0.3311E+01  0.3229E+01
    -11.596  0.2980E+01  0.3303E+01
    -11.571  0.4096E+01  0.3404E+01
    -11.546  0.2948E+01  0.3478E+01
    -11.521  0.4271E+01  0.3583E+01
    -11.497  0.2521E+01  0.3646E+01
    -11.472  0.3745E+01  0.3739E+01
    -11.447  0.1595E+01  0.3778E+01
    -11.422  0.2572E+01  0.3842E+01
    -11.397  0.1810E+01  0.3887E+01
    -11.373  0.1505E+01  0.3924E+01
    -11.348  0.1312E+01  0.3957E+01
    -11.323  0.6440E+00  0.3973E+01
    -11.298  0.7246E+00  0.3991E+01
    -11.274  0.3643E+00  0.4000E+01
    -11.249  0.1305E-01  0.4000E+01
    -11.224  0.3489E-07  0.4000E+01
    -11.199  0.0000E+00  0.4000E+01
    -11.174  0.0000E+00  0.4000E+01
    -11.150  0.0000E+00  0.4000E+01
    -11.125  0.0000E+00  0.4000E+01
    -11.100  0.0000E+00  0.4000E+01
    -11.075  0.0000E+00  0.4000E+01
    -11.050  0.0000E+00  0.4000E+01
    -11.026  0.0000E+00  0.4000E+01
    -11.001  0.0000E+00  0.4000E+01
    -10.976  0.0000E+00  0.4000E+01
    -10.951  0.0000E+00  0.4000E+01
    -10.926  0.0000E+00  0.4000E+01
    -10.902  0.0000E+00  0.4000E+01
    -10.877  0.0000E+00  0.4000E+01
    -10.852  0.0000E+00  0.4000E+01
    -10.827  0.0000E+00  0.4000E+01
    -10.803  0.0000E+00  0.4000E+01
    -10.778  0.0000E+00  0.4000E+01
    -10.753  0.0000E+00  0.4000E+01
    -10.728  0.0000E+00  0.4000E+01
    -10.703  0.0000E+00  0.4000E+01
    -10.679  0.0000E+00  0.4000E+01
    -10.654  0.0000E+00  0.4000E+01
    -10.629  0.0000E+00  0.4000E+01
    -10.604  0.0000E+00  0.4000E+01
    -10.579  0.0000E+00  0.4000E+01
    -10.555  0.0000E+00  0.4000E+01
    -10.530  0.0000E+00  0.4000E+01
    -10.505  0.0000E+00  0.4000E+01
    -10.480  0.0000E+00  0.4000E+01
    -10.456  0.0000E+00  0.4000E+01
    -10.431  0.0000E+00  0.4000E+01
    -10.406  0.0000E+00  0.4000E+01
    -10.381  0.0000E+00  0.4000E+01
    -10.356  0.0000E+00  0.4000E+01
    -10.332  0.0000E+00  0.4000E+01
    -10.307  0.0000E+00  0.4000E+01
    -10.282  0.0000E+00  0.4000E+01
    -10.257  0.0000E+00  0.4000E+01
    -10.232  0.0000E+00  0.4000E+01
    -10.208  0.0000E+00  0.4000E+01
    -10.183  0.0000E+00  0.4000E+01
    -10.158  0.0000E+00  0.4000E+01
    -10.133  0.0000E+00  0.4000E+01
    -10.108  0.0000E+00  0.4000E+01
    -10.084  0.0000E+00  0.4000E+01
    -10.059  0.0000E+00  0.4000E+01
    -10.034  0.0000E+00  0.4000E+01
    -10.009  0.0000E+00  0.4000E+01
     -9.985  0.0000E+00  0.4000E+01
     -9.960  0.0000E+00  0.4000E+01
     -9.935  0.0000E+00  0.4000E+01
     -9.910  0.0000E+00  0.4000E+01
     -9.885  0.0000E+00  0.4000E+01
     -9.861  0.0000E+00  0.4000E+01
     -9.836  0.0000E+00  0.4000E+01
     -9.811  0.0000E+00  0.4000E+01
     -9.786  0.0000E+00  0.4000E+01
     -9.761  0.0000E+00  0.4000E+01
     -9.737  0.0000E+00  0.4000E+01
     -9.712  0.0000E+00  0.4000E+01
     -9.687  0.0000E+00  0.4000E+01
     -9.662  0.0000E+00  0.4000E+01
     -9.638  0.0000E+00  0.4000E+01
     -9.613  0.0000E+00  0.4000E+01
     -9.588  0.0000E+00  0.4000E+01
     -9.563  0.0000E+00  0.4000E+01
     -9.538  0.0000E+00  0.4000E+01
     -9.514  0.0000E+00  0.4000E+01
     -9.489  0.0000E+00  0.4000E+01
     -9.464  0.0000E+00  0.4000E+01
     -9.439  0.0000E+00  0.4000E+01
     -9.414  0.0000E+00  0.4000E+01
     -9.390  0.0000E+00  0.4000E+01
     -9.365  0.0000E+00  0.4000E+01
     -9.340  0.0000E+00  0.4000E+01
     -9.315  0.0000E+00  0.4000E+01
     -9.291  0.0000E+00  0.4000E+01
     -9.266  0.0000E+00  0.4000E+01
     -9.241  0.0000E+00  0.4000E+01
     -9.216  0.0000E+00  0.4000E+01
     -9.191  0.0000E+00  0.4000E+01
     -9.167  0.0000E+00  0.4000E+01
     -9.142  0.0000E+00  0.4000E+01
     -9.117  0.0000E+00  0.4000E+01
     -9.092  0.0000E+00  0.4000E+01
     -9.067  0.0000E+00  0.4000E+01
     -9.043  0.0000E+00  0.4000E+01
     -9.018  0.0000E+00  0.4000E+01
     -8.993  0.0000E+00  0.4000E+01
     -8.968  0.0000E+00  0.4000E+01
     -8.943  0.0000E+00  0.4000E+01
     -8.919  0.0000E+00  0.4000E+01
     -8.894  0.0000E+00  0.4000E+01
     -8.869  0.6270E-11  0.4000E+01
     -8.844  0.3892E-03  0.4000E+01
     -8.820  0.3242E+00  0.4008E+01
     -8.795  0.8715E+00  0.4030E+01
     -8.770  0.1725E+01  0.4072E+01
     -8.745  0.2339E+01  0.4130E+01
     -8.720  0.1174E+01  0.4159E+01
     -8.696  0.4192E+01  0.4263E+01
     -8.671  0.3556E+01  0.4352E+01
     -8.646  0.5613E+01  0.4491E+01
     -8.621  0.6364E+01  0.4648E+01
     -8.596  0.6867E+01  0.4819E+01
     -8.572  0.6929E+01  0.4990E+01
     -8.547  0.7058E+01  0.5165E+01
     -8.522  0.6145E+01  0.5318E+01
     -8.497  0.6095E+01  0.5469E+01
     -8.473  0.7467E+01  0.5654E+01
     -8.448  0.7277E+01  0.5834E+01
     -8.423  0.5390E+01  0.5968E+01
     -8.398  0.4463E+01  0.6078E+01
     -8.373  0.3110E+01  0.6156E+01
     -8.349  0.4891E+01  0.6277E+01
     -8.324  0.4400E+01  0.6386E+01
     -8.299  0.4728E+01  0.6503E+01
     -8.274  0.4823E+01  0.6623E+01
     -8.249  0.5298E+01  0.6754E+01
     -8.225  0.5615E+01  0.6893E+01
     -8.200  0.4540E+01  0.7006E+01
     -8.175  0.4118E+01  0.7108E+01
     -8.150  0.4227E+01  0.7212E+01
     -8.126  0.4077E+01  0.7314E+01
     -8.101  0.5177E+01  0.7442E+01
     -8.076  0.4447E+01  0.7552E+01
     -8.051  0.4288E+01  0.7658E+01
     -8.026  0.2374E+01  0.7717E+01
     -8.002  0.2654E+01  0.7783E+01
     -7.977  0.2057E+01  0.7834E+01
     -7.952  0.1332E+01  0.7867E+01
     -7.927  0.9837E+00  0.7891E+01
     -7.902  0.1701E+01  0.7934E+01
     -7.878  0.1038E+01  0.7959E+01
     -7.853  0.5949E+00  0.7974E+01
     -7.828  0.1636E+00  0.7978E+01
     -7.803  0.5497E+00  0.7992E+01
     -7.778  0.3352E+00  0.8000E+01
     -7.754  0.4776E-03  0.8000E+01
     -7.729  0.9423E-11  0.8000E+01
     -7.704  0.0000E+00  0.8000E+01
     -7.679  0.0000E+00  0.8000E+01
     -7.655  0.0000E+00  0.8000E+01
     -7.630  0.0000E+00  0.8000E+01
     -7.605  0.0000E+00  0.8000E+01
     -7.580  0.0000E+00  0.8000E+01
     -7.555  0.0000E+00  0.8000E+01
     -7.531  0.0000E+00  0.8000E+01
     -7.506  0.0000E+00  0.8000E+01
     -7.481  0.0000E+00  0.8000E+01
     -7.456  0.0000E+00  0.8000E+01
     -7.431  0.0000E+00  0.8000E+01
     -7.407  0.0000E+00  0.8000E+01
     -7.382  0.0000E+00  0.8000E+01
     -7.357  0.0000E+00  0.8000E+01
     -7.332  0.0000E+00  0.8000E+01
     -7.308  0.0000E+00  0.8000E+01
     -7.283  0.0000E+00  0.8000E+01
     -7.258  0.0000E+00  0.8000E+01
     -7.233  0.0000E+00  0.8000E+01
     -7.208  0.0000E+00  0.8000E+01
     -7.184  0.0000E+00  0.8000E+01
     -7.159  0.0000E+00  0.8000E+01
     -7.134  0.0000E+00  0.8000E+01
     -7.109  0.0000E+00  0.8000E+01
     -7.084  0.0000E+00  0.8000E+01
     -7.060  0.0000E+00  0.8000E+01
     -7.035  0.0000E+00  0.8000E+01
     -7.010  0.0000E+00  0.8000E+01
     -6.985  0.0000E+00  0.8000E+01
     -6.960  0.1314E-13  0.8000E+01
     -6.936  0.1472E-04  0.8000E+01
     -6.911  0.1549E+00  0.8004E+01
     -6.886  0.4469E+00  0.8015E+01
     -6.861  0.4202E+00  0.8025E+01
     -6.837  0.6075E-01  0.8027E+01
     -6.812  0.4486E+00  0.8038E+01
     -6.787  0.5570E-02  0.8038E+01
     -6.762  0.2050E+00  0.8043E+01
     -6.737  0.3469E+00  0.8052E+01
     -6.713  0.4850E+00  0.8064E+01
     -6.688  0.7450E+00  0.8082E+01
     -6.663  0.2928E+00  0.8090E+01
     -6.638  0.9481E+00  0.8113E+01
     -6.613  0.9761E+00  0.8137E+01
     -6.589  0.4896E+00  0.8149E+01
     -6.564  0.1441E+01  0.8185E+01
     -6.539  0.5128E+00  0.8198E+01
     -6.514  0.5694E+00  0.8212E+01
     -6.490  0.9205E+00  0.8235E+01
     -6.465  0.3166E+00  0.8243E+01
     -6.440  0.1173E+01  0.8272E+01
     -6.415  0.2012E+01  0.8322E+01
     -6.390  0.1047E+01  0.8347E+01
     -6.366  0.1928E+01  0.8395E+01
     -6.341  0.1697E+01  0.8437E+01
     -6.316  0.8272E+00  0.8458E+01
     -6.291  0.1725E+01  0.8501E+01
     -6.266  0.2555E+01  0.8564E+01
     -6.242  0.2738E+01  0.8632E+01
     -6.217  0.2632E+01  0.8697E+01
     -6.192  0.2189E+01  0.8751E+01
     -6.167  0.3302E+01  0.8833E+01
     -6.143  0.4327E+01  0.8940E+01
     -6.118  0.5058E+01  0.9066E+01
     -6.093  0.3625E+01  0.9156E+01
     -6.068  0.3527E+01  0.9243E+01
     -6.043  0.3669E+01  0.9334E+01
     -6.019  0.3042E+01  0.9409E+01
     -5.994  0.3480E+01  0.9496E+01
     -5.969  0.4321E+01  0.9603E+01
     -5.944  0.5665E+01  0.9743E+01
     -5.919  0.3960E+01  0.9841E+01
     -5.895  0.4555E+01  0.9954E+01
     -5.870  0.3363E+01  0.1004E+02
     -5.845  0.3458E+01  0.1012E+02
     -5.820  0.3256E+01  0.1020E+02
     -5.795  0.5569E+01  0.1034E+02
     -5.771  0.5565E+01  0.1048E+02
     -5.746  0.3295E+01  0.1056E+02
     -5.721  0.2595E+01  0.1063E+02
     -5.696  0.3647E+01  0.1072E+02
     -5.672  0.4524E+01  0.1083E+02
     -5.647  0.3756E+01  0.1092E+02
     -5.622  0.3702E+01  0.1101E+02
     -5.597  0.4966E+01  0.1114E+02
     -5.572  0.4309E+01  0.1124E+02
     -5.548  0.3192E+01  0.1132E+02
     -5.523  0.3281E+01  0.1140E+02
     -5.498  0.6935E+01  0.1158E+02
     -5.473  0.3704E+01  0.1167E+02
     -5.448  0.4352E+01  0.1178E+02
     -5.424  0.4779E+01  0.1189E+02
     -5.399  0.5715E+01  0.1204E+02
     -5.374  0.2941E+01  0.1211E+02
     -5.349  0.5036E+01  0.1223E+02
     -5.325  0.5258E+01  0.1236E+02
     -5.300  0.4698E+01  0.1248E+02
     -5.275  0.4646E+01  0.1260E+02
     -5.250  0.5054E+01  0.1272E+02
     -5.225  0.3536E+01  0.1281E+02
     -5.201  0.4709E+01  0.1292E+02
     -5.176  0.3879E+01  0.1302E+02
     -5.151  0.4307E+01  0.1313E+02
     -5.126  0.4141E+01  0.1323E+02
     -5.101  0.4308E+01  0.1334E+02
     -5.077  0.2662E+01  0.1340E+02
     -5.052  0.3235E+01  0.1348E+02
     -5.027  0.2482E+01  0.1354E+02
     -5.002  0.3908E+01  0.1364E+02
     -4.977  0.2516E+01  0.1370E+02
     -4.953  0.2171E+01  0.1376E+02
     -4.928  0.3755E+01  0.1385E+02
     -4.903  0.4376E+01  0.1396E+02
     -4.878  0.2710E+01  0.1403E+02
     -4.854  0.1747E+01  0.1407E+02
     -4.829  0.1341E+01  0.1410E+02
     -4.804  0.1866E+01  0.1415E+02
     -4.779  0.2181E+01  0.1420E+02
     -4.754  0.5071E+01  0.1433E+02
     -4.730  0.2950E+01  0.1440E+02
     -4.705  0.4071E+01  0.1450E+02
     -4.680  0.2507E+01  0.1457E+02
     -4.655  0.2102E+01  0.1462E+02
     -4.630  0.3210E+01  0.1470E+02
     -4.606  0.4410E+01  0.1481E+02
     -4.581  0.3497E+01  0.1489E+02
     -4.556  0.3335E+01  0.1498E+02
     -4.531  0.3293E+01  0.1506E+02
     -4.507  0.3164E+01  0.1514E+02
     -4.482  0.2929E+01  0.1521E+02
     -4.457  0.2926E+01  0.1528E+02
     -4.432  0.4344E+01  0.1539E+02
     -4.407  0.4537E+01  0.1550E+02
     -4.383  0.3153E+01  0.1558E+02
     -4.358  0.2436E+01  0.1564E+02
     -4.333  0.2176E+01  0.1569E+02
     -4.308  0.3384E+01  0.1578E+02
     -4.283  0.2975E+01  0.1585E+02
     -4.259  0.2280E+01  0.1591E+02
     -4.234  0.2768E+01  0.1598E+02
     -4.209  0.3241E+01  0.1606E+02
     -4.184  0.3898E+01  0.1615E+02
     -4.160  0.2830E+01  0.1622E+02
     -4.135  0.2753E+01  0.1629E+02
     -4.110  0.2522E+01  0.1635E+02
     -4.085  0.3419E+01  0.1644E+02
     -4.060  0.3268E+01  0.1652E+02
     -4.036  0.2004E+01  0.1657E+02
     -4.011  0.2973E+01  0.1664E+02
     -3.986  0.1979E+01  0.1669E+02
     -3.961  0.5010E+01  0.1682E+02
     -3.936  0.2777E+01  0.1689E+02
     -3.912  0.1986E+01  0.1693E+02
     -3.887  0.3199E+01  0.1701E+02
     -3.862  0.2263E+01  0.1707E+02
     -3.837  0.1876E+01  0.1712E+02
     -3.812  0.4471E+01  0.1723E+02
     -3.788  0.5509E+01  0.1736E+02
     -3.763  0.3039E+01  0.1744E+02
     -3.738  0.2080E+01  0.1749E+02
     -3.713  0.1653E+01  0.1753E+02
     -3.689  0.2266E+01  0.1759E+02
     -3.664  0.2381E+01  0.1765E+02
     -3.639  0.3077E+01  0.1772E+02
     -3.614  0.3081E+01  0.1780E+02
     -3.589  0.2972E+01  0.1787E+02
     -3.565  0.3432E+01  0.1796E+02
     -3.540  0.2538E+01  0.1802E+02
     -3.515  0.3251E+01  0.1810E+02
     -3.490  0.2936E+01  0.1817E+02
     -3.465  0.2632E+01  0.1824E+02
     -3.441  0.2220E+01  0.1829E+02
     -3.416  0.1863E+01  0.1834E+02
     -3.391  0.2347E+01  0.1840E+02
     -3.366  0.3329E+01  0.1848E+02
     -3.342  0.3028E+01  0.1856E+02
     -3.317  0.2919E+01  0.1863E+02
     -3.292  0.2585E+01  0.1869E+02
     -3.267  0.3192E+01  0.1877E+02
     -3.242  0.3030E+01  0.1885E+02
     -3.218  0.2983E+01  0.1892E+02
     -3.193  0.4361E+01  0.1903E+02
     -3.168  0.1605E+01  0.1907E+02
     -3.143  0.2165E+01  0.1912E+02
     -3.118  0.9981E+00  0.1915E+02
     -3.094  0.2224E+01  0.1920E+02
     -3.069  0.2431E+01  0.1926E+02
     -3.044  0.3647E+01  0.1935E+02
     -3.019  0.3446E+01  0.1944E+02
     -2.994  0.3431E+01  0.1952E+02
     -2.970  0.3639E+01  0.1961E+02
     -2.945  0.2861E+01  0.1968E+02
     -2.920  0.1765E+01  0.1973E+02
     -2.895  0.2927E+01  0.1980E+02
     -2.871  0.3039E+01  0.1988E+02
     -2.846  0.2967E+01  0.1995E+02
     -2.821  0.3536E+01  0.2004E+02
     -2.796  0.2746E+01  0.2011E+02
     -2.771  0.2411E+01  0.2017E+02
     -2.747  0.1158E+01  0.2019E+02
     -2.722  0.2024E+01  0.2024E+02
     -2.697  0.3187E+01  0.2032E+02
     -2.672  0.2020E+01  0.2037E+02
     -2.647  0.2684E+01  0.2044E+02
     -2.623  0.2698E+01  0.2051E+02
     -2.598  0.1683E+01  0.2055E+02
     -2.573  0.3142E+01  0.2063E+02
     -2.548  0.2331E+01  0.2068E+02
     -2.524  0.3672E+01  0.2078E+02
     -2.499  0.3582E+01  0.2086E+02
     -2.474  0.3103E+01  0.2094E+02
     -2.449  0.3183E+01  0.2102E+02
     -2.424  0.3408E+01  0.2110E+02
     -2.400  0.2133E+01  0.2116E+02
     -2.375  0.3786E+01  0.2125E+02
     -2.350  0.2851E+01  0.2132E+02
     -2.325  0.2324E+01  0.2138E+02
     -2.300  0.3187E+01  0.2146E+02
     -2.276  0.2985E+01  0.2153E+02
     -2.251  0.4015E+01  0.2163E+02
     -2.226  0.5514E+01  0.2177E+02
     -2.201  0.5469E+01  0.2190E+02
     -2.177  0.3941E+01  0.2200E+02
     -2.152  0.1436E+01  0.2204E+02
     -2.127  0.2515E+01  0.2210E+02
     -2.102  0.6742E+01  0.2227E+02
     -2.077  0.2860E+01  0.2234E+02
     -2.053  0.3168E+01  0.2242E+02
     -2.028  0.2474E+01  0.2248E+02
     -2.003  0.4570E+01  0.2259E+02
     -1.978  0.3218E+01  0.2267E+02
     -1.953  0.2736E+01  0.2274E+02
     -1.929  0.3218E+01  0.2282E+02
     -1.904  0.4594E+01  0.2293E+02
     -1.879  0.6668E+01  0.2310E+02
     -1.854  0.6045E+01  0.2325E+02
     -1.829  0.6862E+01  0.2342E+02
     -1.805  0.4493E+01  0.2353E+02
     -1.780  0.2691E+01  0.2360E+02
     -1.755  0.5012E+01  0.2372E+02
     -1.730  0.8970E+01  0.2394E+02
     -1.706  0.6995E+01  0.2412E+02
     -1.681  0.4810E+01  0.2423E+02
     -1.656  0.4306E+01  0.2434E+02
     -1.631  0.4936E+01  0.2446E+02
     -1.606  0.7813E+01  0.2466E+02
     -1.582  0.6756E+01  0.2482E+02
     -1.557  0.7312E+01  0.2501E+02
     -1.532  0.5006E+01  0.2513E+02
     -1.507  0.5327E+01  0.2526E+02
     -1.482  0.7253E+01  0.2544E+02
     -1.458  0.7241E+01  0.2562E+02
     -1.433  0.6778E+01  0.2579E+02
     -1.408  0.4843E+01  0.2591E+02
     -1.383  0.4465E+01  0.2602E+02
     -1.359  0.7390E+01  0.2620E+02
     -1.334  0.5814E+01  0.2635E+02
     -1.309  0.3797E+01  0.2644E+02
     -1.284  0.5791E+01  0.2659E+02
     -1.259  0.4194E+01  0.2669E+02
     -1.235  0.3615E+01  0.2678E+02
     -1.210  0.3700E+01  0.2687E+02
     -1.185  0.4437E+01  0.2698E+02
     -1.160  0.6601E+01  0.2714E+02
     -1.135  0.9007E+01  0.2737E+02
     -1.111  0.8179E+01  0.2757E+02
     -1.086  0.6550E+01  0.2773E+02
     -1.061  0.4033E+01  0.2783E+02
     -1.036  0.2985E+01  0.2791E+02
     -1.011  0.3711E+01  0.2800E+02
     -0.987  0.2413E+01  0.2806E+02
     -0.962  0.2365E+01  0.2812E+02
     -0.937  0.1518E+01  0.2815E+02
     -0.912  0.3343E+01  0.2824E+02
     -0.888  0.2365E+01  0.2830E+02
     -0.863  0.1799E+01  0.2834E+02
     -0.838  0.3733E+01  0.2843E+02
     -0.813  0.3314E+01  0.2852E+02
     -0.788  0.1332E+01  0.2855E+02
     -0.764  0.2228E+01  0.2860E+02
     -0.739  0.4395E+01  0.2871E+02
     -0.714  0.4736E+01  0.2883E+02
     -0.689  0.2486E+01  0.2889E+02
     -0.664  0.4589E+01  0.2901E+02
     -0.640  0.4149E+01  0.2911E+02
     -0.615  0.3858E+01  0.2920E+02
     -0.590  0.6070E+01  0.2935E+02
     -0.565  0.5984E+01  0.2950E+02
     -0.541  0.4854E+01  0.2962E+02
     -0.516  0.5828E+01  0.2977E+02
     -0.491  0.7995E+01  0.2997E+02
     -0.466  0.8261E+01  0.3017E+02
     -0.441  0.4509E+01  0.3028E+02
     -0.417  0.6129E+01  0.3043E+02
     -0.392  0.4574E+01  0.3055E+02
     -0.367  0.4849E+01  0.3067E+02
     -0.342  0.5142E+01  0.3079E+02
     -0.317  0.4924E+01  0.3092E+02
     -0.293  0.8507E+01  0.3113E+02
     -0.268  0.5929E+01  0.3127E+02
     -0.243  0.5144E+01  0.3140E+02
     -0.218  0.8555E+01  0.3161E+02
     -0.194  0.7259E+01  0.3179E+02
     -0.169  0.4306E+01  0.3190E+02
     -0.144  0.5598E+01  0.3204E+02
     -0.119  0.7672E+01  0.3223E+02
     -0.094  0.8381E+01  0.3244E+02
     -0.070  0.7770E+01  0.3263E+02
     -0.045  0.4541E+01  0.3274E+02
     -0.020  0.6362E+01  0.3290E+02
      0.005  0.9209E+01  0.3313E+02
      0.030  0.4238E+01  0.3323E+02
      0.054  0.6471E+01  0.3339E+02
      0.079  0.5408E+01  0.3353E+02
      0.104  0.6833E+01  0.3370E+02
      0.129  0.8216E+01  0.3390E+02
      0.154  0.1001E+02  0.3415E+02
      0.178  0.1155E+02  0.3444E+02
      0.203  0.1209E+02  0.3474E+02
      0.228  0.9217E+01  0.3496E+02
      0.253  0.6518E+01  0.3513E+02
      0.277  0.7197E+01  0.3530E+02
      0.302  0.1164E+02  0.3559E+02
      0.327  0.6735E+01  0.3576E+02
      0.352  0.8935E+01  0.3598E+02
      0.377  0.6367E+01  0.3614E+02
      0.401  0.7578E+01  0.3633E+02
      0.426  0.9899E+01  0.3657E+02
      0.451  0.7875E+01  0.3677E+02
      0.476  0.5004E+01  0.3689E+02
      0.501  0.3739E+01  0.3698E+02
      0.525  0.4021E+01  0.3708E+02
      0.550  0.4663E+01  0.3720E+02
      0.575  0.3633E+01  0.3729E+02
      0.600  0.2648E+01  0.3735E+02
      0.624  0.3346E+01  0.3744E+02
      0.649  0.3455E+01  0.3752E+02
      0.674  0.3401E+01  0.3761E+02
      0.699  0.3503E+01  0.3769E+02
      0.724  0.2844E+01  0.3777E+02
      0.748  0.4124E+01  0.3787E+02
      0.773  0.3893E+01  0.3796E+02
      0.798  0.3729E+01  0.3806E+02
      0.823  0.3377E+01  0.3814E+02
      0.848  0.3824E+01  0.3823E+02
      0.872  0.3287E+01  0.3832E+02
      0.897  0.3728E+01  0.3841E+02
      0.922  0.4167E+01  0.3851E+02
      0.947  0.3094E+01  0.3859E+02
      0.971  0.2956E+01  0.3866E+02
      0.996  0.4141E+01  0.3876E+02
      1.021  0.2418E+01  0.3882E+02
      1.046  0.3378E+01  0.3891E+02
      1.071  0.2800E+01  0.3898E+02
      1.095  0.3543E+01  0.3907E+02
      1.120  0.3342E+01  0.3915E+02
      1.145  0.3736E+01  0.3924E+02
      1.170  0.1891E+01  0.3929E+02
      1.195  0.2916E+01  0.3936E+02
      1.219  0.3405E+01  0.3944E+02
      1.244  0.3843E+01  0.3954E+02
      1.269  0.3479E+01  0.3963E+02
      1.294  0.2611E+01  0.3969E+02
      1.319  0.4190E+01  0.3979E+02
      1.343  0.4020E+01  0.3989E+02
      1.368  0.5313E+01  0.4003E+02
      1.393  0.4049E+01  0.4013E+02
      1.418  0.4572E+01  0.4024E+02
      1.442  0.3753E+01  0.4033E+02
      1.467  0.4826E+01  0.4045E+02
      1.492  0.3338E+01  0.4053E+02
      1.517  0.3318E+01  0.4062E+02
      1.542  0.2893E+01  0.4069E+02
      1.566  0.4845E+01  0.4081E+02
      1.591  0.4965E+01  0.4093E+02
      1.616  0.3830E+01  0.4103E+02
      1.641  0.4621E+01  0.4114E+02
      1.666  0.4277E+01  0.4125E+02
      1.690  0.5311E+01  0.4138E+02
      1.715  0.2883E+01  0.4145E+02
      1.740  0.3776E+01  0.4154E+02
      1.765  0.3142E+01  0.4162E+02
      1.789  0.1941E+01  0.4167E+02
      1.814  0.1962E+01  0.4172E+02
      1.839  0.2551E+01  0.4178E+02
      1.864  0.2607E+01  0.4185E+02
      1.889  0.3077E+01  0.4192E+02
      1.913  0.2724E+01  0.4199E+02
      1.938  0.1722E+01  0.4203E+02
      1.963  0.2859E+01  0.4210E+02
      1.988  0.2614E+01  0.4217E+02
      2.013  0.3326E+01  0.4225E+02
      2.037  0.2634E+01  0.4232E+02
      2.062  0.2445E+01  0.4238E+02
      2.087  0.1449E+01  0.4241E+02
      2.112  0.1647E+01  0.4245E+02
      2.137  0.2607E+01  0.4252E+02
      2.161  0.2280E+01  0.4258E+02
      2.186  0.2579E+01  0.4264E+02
      2.211  0.2859E+01  0.4271E+02
      2.236  0.3296E+01  0.4279E+02
      2.260  0.2361E+01  0.4285E+02
      2.285  0.2979E+01  0.4292E+02
      2.310  0.2740E+01  0.4299E+02
      2.335  0.2043E+01  0.4304E+02
      2.360  0.2777E+01  0.4311E+02
      2.384  0.1867E+01  0.4316E+02
      2.409  0.2460E+01  0.4322E+02
      2.434  0.2190E+01  0.4327E+02
      2.459  0.1602E+01  0.4331E+02
      2.484  0.7433E+00  0.4333E+02
      2.508  0.5380E+00  0.4334E+02
      2.533  0.1328E+01  0.4338E+02
      2.558  0.5354E+00  0.4339E+02
      2.583  0.3411E+00  0.4340E+02
      2.607  0.1754E+00  0.4340E+02
      2.632  0.4412E+00  0.4341E+02
      2.657  0.1633E+00  0.4342E+02
      2.682  0.4240E+00  0.4343E+02
      2.707  0.4791E+00  0.4344E+02
      2.731  0.8980E+00  0.4346E+02
      2.756  0.7638E+00  0.4348E+02
      2.781  0.4119E+00  0.4349E+02
      2.806  0.4037E+00  0.4350E+02
      2.831  0.1915E+00  0.4351E+02
      2.855  0.4354E+00  0.4352E+02
      2.880  0.4734E+00  0.4353E+02
      2.905  0.6756E+00  0.4355E+02
      2.930  0.3816E+00  0.4356E+02
      2.954  0.5450E-03  0.4356E+02
      2.979  0.8519E-01  0.4356E+02
      3.004  0.4806E+00  0.4357E+02
      3.029  0.4533E+00  0.4358E+02
      3.054  0.3192E+00  0.4359E+02
      3.078  0.6544E+00  0.4360E+02
      3.103  0.1291E+01  0.4364E+02
      3.128  0.1018E+01  0.4366E+02
      3.153  0.9650E+00  0.4369E+02
      3.178  0.1332E+01  0.4372E+02
      3.202  0.7591E+00  0.4374E+02
      3.227  0.5628E+00  0.4375E+02
      3.252  0.9175E+00  0.4377E+02