   14   14    1    1
  0.1021318E+02  0.5700971E-09  0.4044058E-09  0.6201871E-09  0.5000000E-15
  1.000000000000000E-004
  CAR 
 Dielectric                              
     42    175    264
 
  0.5000000E-01  0.3571429E-01  0.0000000E+00  0.3174603E-02
      1        -12.692028   1.000000
      2        -11.525787   1.000000
      3         -8.656100   1.000000
      4         -8.363651   1.000000
      5         -6.041073   1.000000
      6         -5.163339   1.000000
      7         -4.706344   1.000000
      8         -4.299001   1.000000
      9         -4.000749   1.000000
     10         -3.474293   1.000000
     11         -2.547184   1.000000
     12         -2.302718   1.000000
     13         -1.778736   1.000000
     14         -1.109798   1.000000
     15         -0.081207   1.000000
     16          0.006544   1.000000
     17          0.045362   1.000000
     18          0.098590   1.000000
     19          0.675208   1.000000
     20          2.074640   0.000000
     21          2.086938   0.000000
     22          2.248083   0.000000
     23          5.550578   0.000000
     24          5.685625   0.000000
     25          5.774028   0.000000
     26          5.990180   0.000000
     27          6.753905   0.000000
     28          7.570430   0.000000
     29          7.904751   0.000000
     30          8.526962   0.000000
     31          8.899977   0.000000
     32          8.943546   0.000000
     33          9.062843   0.000000
     34         10.114927   0.000000
     35         11.233061   0.000000
     36         11.339467   0.000000
     37         11.520438   0.000000
     38         11.673449   0.000000
     39         11.999081   0.000000
     40         12.343260   0.000000
     41         12.968828   0.000000
     42         13.408278   0.000000
     43         13.434526   0.000000
     44         15.394832   0.000000
     45         15.528667   0.000000
     46         16.043814   0.000000
     47         16.313288   0.000000
     48         16.335714   0.000000
     49         16.691284   0.000000
     50         16.721840   0.000000
     51         16.933513   0.000000
     52         17.483466   0.000000
     53         17.668775   0.000000
     54         18.104537   0.000000
     55         18.350955   0.000000
     56         18.527223   0.000000
     57         18.762248   0.000000
     58         18.856326   0.000000
     59         19.597832   0.000000
     60         19.917681   0.000000
     61         19.994391   0.000000
     62         20.250694   0.000000
     63         20.482054   0.000000
     64         20.707571   0.000000
     65         21.126555   0.000000
     66         21.818032   0.000000
     67         22.355114   0.000000
     68         22.516176   0.000000
     69         22.968010   0.000000
     70         23.019273   0.000000
     71         23.438308   0.000000
     72         23.722385   0.000000
     73         23.887086   0.000000
     74         24.422074   0.000000
     75         25.371401   0.000000
     76         25.387227   0.000000
     77         25.424867   0.000000
     78         25.533850   0.000000
     79         25.659005   0.000000
     80         26.272996   0.000000
     81         26.364415   0.000000
     82         26.881535   0.000000
     83         27.143762   0.000000
     84         28.664666   0.000000
     85         29.197746   0.000000
     86         29.262624   0.000000
     87         29.414804   0.000000
     88         29.718797   0.000000
     89         30.317247   0.000000
     90         30.696904   0.000000
     91         30.794226   0.000000
     92         32.164048   0.000000
     93         32.340754   0.000000
     94         32.495206   0.000000
     95         32.542046   0.000000
     96         33.081866   0.000000
     97         33.737775   0.000000
     98         34.076448   0.000000
     99         34.199522   0.000000
    100         34.474069   0.000000
    101         34.641780   0.000000
    102         34.655269   0.000000
    103         35.498108   0.000000
    104         35.932759   0.000000
    105         35.994319   0.000000
    106         36.116629   0.000000
    107         36.266179   0.000000
    108         36.758230   0.000000
    109         37.755489   0.000000
    110         37.963958   0.000000
    111         38.007180   0.000000
    112         38.356830   0.000000
    113         38.389250   0.000000
    114         38.752336   0.000000
    115         39.063352   0.000000
    116         39.181932   0.000000
    117         39.567556   0.000000
    118         39.628844   0.000000
    119         39.764174   0.000000
    120         40.189057   0.000000
    121         40.346473   0.000000
    122         40.539359   0.000000
    123         40.859776   0.000000
    124         40.992603   0.000000
    125         41.436185   0.000000
    126         41.514931   0.000000
    127         41.780641   0.000000
    128         42.146793   0.000000
    129         42.229611   0.000000
    130         42.976853   0.000000
    131         43.165752   0.000000
    132         43.449437   0.000000
    133         43.803873   0.000000
    134         44.149520   0.000000
    135         44.207775   0.000000
    136         44.258103   0.000000
    137         44.730289   0.000000
    138         44.750929   0.000000
    139         45.002334   0.000000
    140         45.326967   0.000000
    141         45.566839   0.000000
    142         45.721106   0.000000
    143         45.839469   0.000000
    144         45.949274   0.000000
    145         46.447464   0.000000
    146         46.686370   0.000000
    147         46.791780   0.000000
    148         47.435604   0.000000
    149         47.670254   0.000000
    150         48.020234   0.000000
    151         48.123312   0.000000
    152         48.383057   0.000000
    153         48.597774   0.000000
    154         49.036738   0.000000
    155         49.376988   0.000000
    156         49.565516   0.000000
    157         49.732644   0.000000
    158         49.882336   0.000000
    159         50.076122   0.000000
    160         50.242963   0.000000
    161         50.407589   0.000000
    162         50.837941   0.000000
    163         51.229886   0.000000
    164         51.369477   0.000000
    165         51.470769   0.000000
    166         51.597415   0.000000
    167         51.601176   0.000000
    168         52.053633   0.000000
    169         52.528348   0.000000
    170         52.538191   0.000000
    171         53.162129   0.000000
    172         53.212252   0.000000
    173         53.866777   0.000000
    174         53.997583   0.000000
    175         54.541121   0.000000
    176         54.741504   0.000000
    177         55.062869   0.000000
    178         55.064663   0.000000
    179         55.441735   0.000000
    180         56.002048   0.000000
    181         56.053978   0.000000
    182         56.194027   0.000000
    183         56.813553   0.000000
    184         57.072114   0.000000
    185         57.805931   0.000000
    186         57.867343   0.000000
    187         58.379259   0.000000
    188         58.611425   0.000000
    189         58.901262   0.000000
    190         59.266300   0.000000
    191         59.389898   0.000000
    192         59.472066   0.000000
    193         59.546275   0.000000
    194         59.979833   0.000000
    195         60.035920   0.000000
    196         60.293331   0.000000
    197         60.749668   0.000000
    198         60.865467   0.000000
    199         60.951090   0.000000
    200         61.348753   0.000000
    201         61.670074   0.000000
    202         61.825603   0.000000
    203         62.159842   0.000000
    204         62.399996   0.000000
    205         62.660632   0.000000
    206         62.928817   0.000000
    207         63.363047   0.000000
    208         63.741878   0.000000
    209         64.010228   0.000000
    210         64.098473   0.000000
    211         64.385153   0.000000
    212         64.688060   0.000000
    213         65.164018   0.000000
    214         65.507332   0.000000
    215         65.652323   0.000000
    216         65.671920   0.000000
    217         65.999597   0.000000
    218         66.242918   0.000000
    219         66.398407   0.000000
    220         66.493557   0.000000
    221         66.988367   0.000000
    222         67.037590   0.000000
    223         67.188629   0.000000
    224         67.427526   0.000000
    225         67.761743   0.000000
    226         67.971857   0.000000
    227         68.219011   0.000000
    228         68.268426   0.000000
    229         68.820955   0.000000
    230         68.998553   0.000000
    231         69.142205   0.000000
    232         69.219936   0.000000
    233         69.563700   0.000000
    234         69.638412   0.000000
    235         69.716329   0.000000
    236         69.955660   0.000000
    237         70.173496   0.000000
    238         70.218669   0.000000
    239         70.570518   0.000000
    240         70.608211   0.000000
    241         70.877042   0.000000
    242         70.905054   0.000000
    243         71.235433   0.000000
    244         71.464569   0.000000
    245         71.727495   0.000000
    246         72.166771   0.000000
    247         72.356619   0.000000
    248         72.456711   0.000000
    249         72.508729   0.000000
    250         72.813741   0.000000
    251         73.023652   0.000000
    252         73.257925   0.000000
    253         73.710806   0.000000
    254         74.228976   0.000000
    255         74.556764   0.000000
    256         74.655610   0.000000
    257         74.805503   0.000000
    258         75.079064   0.000000
    259         75.263193   0.000000
    260         75.396830   0.000000
    261         75.405351   0.000000
    262         75.544999   0.000000
    263         75.859821   0.000000
    264         75.885267   0.000000
 
  0.1500000E+00  0.3571429E-01  0.0000000E+00  0.3174603E-02
      1        -12.647754   1.000000
      2        -11.602173   1.000000
      3         -8.629722   1.000000
      4         -8.352129   1.000000
      5         -5.973999   1.000000
      6         -5.503497   1.000000
      7         -4.822636   1.000000
      8         -3.978227   1.000000
      9         -3.816141   1.000000
     10         -3.141632   1.000000
     11         -2.616743   1.000000
     12         -2.283018   1.000000
     13         -1.866143   1.000000
     14         -1.415999   1.000000
     15         -0.139795   1.000000
     16          0.045691   1.000000
     17          0.061168   1.000000
     18          0.146391   1.000000
     19          0.572681   1.000000
     20          1.990112   0.000000
     21          1.995068   0.000000
     22          2.121478   0.000000
     23          5.629948   0.000000
     24          5.698571   0.000000
     25          5.834306   0.000000
     26          6.308102   0.000000
     27          6.675197   0.000000
     28          7.212415   0.000000
     29          8.124532   0.000000
     30          8.665988   0.000000
     31          9.076749   0.000000
     32          9.200159   0.000000
     33          9.207424   0.000000
     34         10.189651   0.000000
     35         10.938504   0.000000
     36         11.124908   0.000000
     37         11.307604   0.000000
     38         11.542093   0.000000
     39         12.212968   0.000000
     40         12.437588   0.000000
     41         13.079337   0.000000
     42         13.189920   0.000000
     43         13.980949   0.000000
     44         14.856211   0.000000
     45         15.723127   0.000000
     46         15.820378   0.000000
     47         16.196109   0.000000
     48         16.478262   0.000000
     49         16.622393   0.000000
     50         16.667276   0.000000
     51         17.100376   0.000000
     52         17.167547   0.000000
     53         17.795219   0.000000
     54         18.120813   0.000000
     55         18.408553   0.000000
     56         18.689309   0.000000
     57         18.737302   0.000000
     58         18.998558   0.000000
     59         19.428367   0.000000
     60         19.523570   0.000000
     61         19.989425   0.000000
     62         20.056756   0.000000
     63         20.469665   0.000000
     64         20.901873   0.000000
     65         20.924035   0.000000
     66         21.727272   0.000000
     67         21.752293   0.000000
     68         21.983468   0.000000
     69         23.067892   0.000000
     70         23.389321   0.000000
     71         23.659033   0.000000
     72         23.726970   0.000000
     73         24.448179   0.000000
     74         24.690067   0.000000
     75         24.794555   0.000000
     76         25.353906   0.000000
     77         25.491468   0.000000
     78         25.847193   0.000000
     79         26.038131   0.000000
     80         26.349863   0.000000
     81         26.586679   0.000000
     82         26.777406   0.000000
     83         27.537023   0.000000
     84         29.099097   0.000000
     85         29.125680   0.000000
     86         29.293648   0.000000
     87         29.409277   0.000000
     88         29.624786   0.000000
     89         30.448071   0.000000
     90         30.767425   0.000000
     91         30.954878   0.000000
     92         31.594732   0.000000
     93         32.214253   0.000000
     94         32.490579   0.000000
     95         32.561010   0.000000
     96         33.249184   0.000000
     97         33.605322   0.000000
     98         34.026891   0.000000
     99         34.275771   0.000000
    100         34.341859   0.000000
    101         34.719358   0.000000
    102         34.800425   0.000000
    103         35.398124   0.000000
    104         36.231252   0.000000
    105         36.262123   0.000000
    106         36.420429   0.000000
    107         36.600771   0.000000
    108         36.661313   0.000000
    109         37.322378   0.000000
    110         37.403842   0.000000
    111         37.767866   0.000000
    112         37.901056   0.000000
    113         38.299386   0.000000
    114         38.371838   0.000000
    115         38.840958   0.000000
    116         39.346560   0.000000
    117         39.382589   0.000000
    118         39.721102   0.000000
    119         40.036748   0.000000
    120         40.444043   0.000000
    121         40.495552   0.000000
    122         40.714219   0.000000
    123         41.188097   0.000000
    124         41.220600   0.000000
    125         41.241604   0.000000
    126         41.392850   0.000000
    127         41.448357   0.000000
    128         42.048215   0.000000
    129         42.199108   0.000000
    130         42.610241   0.000000
    131         42.855696   0.000000
    132         42.983988   0.000000
    133         43.427855   0.000000
    134         43.744940   0.000000
    135         43.913014   0.000000
    136         44.243561   0.000000
    137         44.523746   0.000000
    138         44.809539   0.000000
    139         45.004904   0.000000
    140         45.441999   0.000000
    141         45.643126   0.000000
    142         45.793411   0.000000
    143         45.998870   0.000000
    144         46.162340   0.000000
    145         46.542707   0.000000
    146         46.711036   0.000000
    147         47.066094   0.000000
    148         47.196868   0.000000
    149         47.712257   0.000000
    150         47.932707   0.000000
    151         47.938777   0.000000
    152         48.571228   0.000000
    153         48.778614   0.000000
    154         48.917575   0.000000
    155         49.030798   0.000000
    156         49.120101   0.000000
    157         49.415390   0.000000
    158         50.004407   0.000000
    159         50.227016   0.000000
    160         50.710623   0.000000
    161         50.741292   0.000000
    162         51.286013   0.000000
    163         51.286171   0.000000
    164         51.364054   0.000000
    165         51.891712   0.000000
    166         52.055880   0.000000
    167         52.369727   0.000000
    168         52.534532   0.000000
    169         53.053498   0.000000
    170         53.385139   0.000000
    171         53.480535   0.000000
    172         53.613215   0.000000
    173         53.652767   0.000000
    174         54.166796   0.000000
    175         54.317054   0.000000
    176         54.699124   0.000000
    177         54.875191   0.000000
    178         55.032427   0.000000
    179         55.470877   0.000000
    180         55.544478   0.000000
    181         56.082161   0.000000
    182         56.165522   0.000000
    183         56.386101   0.000000
    184         56.844849   0.000000
    185         57.192923   0.000000
    186         57.940181   0.000000
    187         58.014311   0.000000
    188         58.268988   0.000000
    189         58.706239   0.000000
    190         58.771407   0.000000
    191         59.160746   0.000000
    192         59.196801   0.000000
    193         59.399722   0.000000
    194         60.147175   0.000000
    195         60.370389   0.000000
    196         60.564706   0.000000
    197         60.867589   0.000000
    198         60.930812   0.000000
    199         61.588151   0.000000
    200         61.957450   0.000000
    201         62.032601   0.000000
    202         62.055414   0.000000
    203         62.557191   0.000000
    204         62.724153   0.000000
    205         62.916844   0.000000
    206         63.335441   0.000000
    207         63.461878   0.000000
    208         63.536996   0.000000
    209         64.082653   0.000000
    210         64.272865   0.000000
    211         64.718023   0.000000
    212         64.868802   0.000000
    213         65.036261   0.000000
    214         65.049735   0.000000
    215         65.363887   0.000000
    216         65.610251   0.000000
    217         65.789976   0.000000
    218         65.977985   0.000000
    219         66.391430   0.000000
    220         66.566340   0.000000
    221         66.944053   0.000000
    222         66.955055   0.000000
    223         67.165893   0.000000
    224         67.225072   0.000000
    225         67.730343   0.000000
    226         67.797251   0.000000
    227         68.061262   0.000000
    228         68.429577   0.000000
    229         68.505479   0.000000
    230         68.655242   0.000000
    231         68.893992   0.000000
    232         69.030549   0.000000
    233         69.187527   0.000000
    234         69.277215   0.000000
    235         69.636459   0.000000
    236         69.711514   0.000000
    237         69.767896   0.000000
    238         70.128634   0.000000
    239         70.132377   0.000000
    240         70.523936   0.000000
    241         70.553054   0.000000
    242         70.602692   0.000000
    243         71.024126   0.000000
    244         71.072211   0.000000
    245         71.632152   0.000000
    246         72.053757   0.000000
    247         72.067200   0.000000
    248         72.226378   0.000000
    249         72.416797   0.000000
    250         72.797055   0.000000
    251         72.984592   0.000000
    252         73.418325   0.000000
    253         73.623379   0.000000
    254         73.830332   0.000000
    255         74.051944   0.000000
    256         74.387419   0.000000
    257         74.515997   0.000000
    258         74.836723   0.000000
    259         75.041226   0.000000
    260         75.126791   0.000000
    261         75.607711   0.000000
    262         75.696393   0.000000
    263         76.074297   0.000000
    264         76.345293   0.000000
 
  0.2500000E+00  0.3571429E-01  0.0000000E+00  0.3174603E-02
      1        -12.561034   1.000000
      2        -11.739282   1.000000
      3         -8.577128   1.000000
      4         -8.338082   1.000000
      5         -5.960751   1.000000
      6         -5.829353   1.000000
      7         -4.770454   1.000000
      8         -3.844033   1.000000
      9         -3.310598   1.000000
     10         -2.776742   1.000000
     11         -2.655621   1.000000
     12         -2.243358   1.000000
     13         -1.987246   1.000000
     14         -1.920294   1.000000
     15         -0.357035   1.000000
     16          0.063833   1.000000
     17          0.173422   1.000000
     18          0.182762   1.000000
     19          0.470817   1.000000
     20          1.820530   1.000000
     21          1.859493   1.000000
     22          1.886888   0.999986
     23          5.659902   0.000000
     24          5.731953   0.000000
     25          6.162832   0.000000
     26          6.562763   0.000000
     27          6.764627   0.000000
     28          6.953418   0.000000
     29          8.271599   0.000000
     30          8.823268   0.000000
     31          9.013674   0.000000
     32          9.636709   0.000000
     33          9.649719   0.000000
     34         10.261611   0.000000
     35         10.442142   0.000000
     36         10.582540   0.000000
     37         11.435391   0.000000
     38         11.768520   0.000000
     39         12.390297   0.000000
     40         12.528344   0.000000
     41         12.790593   0.000000
     42         12.984852   0.000000
     43         14.612305   0.000000
     44         14.880653   0.000000
     45         15.221078   0.000000
     46         15.950162   0.000000
     47         15.956837   0.000000
     48         16.244434   0.000000
     49         16.561212   0.000000
     50         16.724826   0.000000
     51         16.780566   0.000000
     52         17.377847   0.000000
     53         17.885208   0.000000
     54         18.013085   0.000000
     55         18.293111   0.000000
     56         18.800701   0.000000
     57         18.846996   0.000000
     58         18.929623   0.000000
     59         19.245127   0.000000
     60         19.445768   0.000000
     61         19.681206   0.000000
     62         19.953160   0.000000
     63         20.682409   0.000000
     64         20.862460   0.000000
     65         20.936641   0.000000
     66         21.084856   0.000000
     67         21.114447   0.000000
     68         22.064543   0.000000
     69         23.348686   0.000000
     70         23.445569   0.000000
     71         23.849386   0.000000
     72         23.913614   0.000000
     73         24.587467   0.000000
     74         24.619092   0.000000
     75         24.781119   0.000000
     76         25.215466   0.000000
     77         25.592482   0.000000
     78         25.911716   0.000000
     79         26.442578   0.000000
     80         26.495388   0.000000
     81         26.731641   0.000000
     82         27.682588   0.000000
     83         28.010893   0.000000
     84         28.933820   0.000000
     85         29.277544   0.000000
     86         29.598041   0.000000
     87         29.704921   0.000000
     88         29.736765   0.000000
     89         29.992879   0.000000
     90         30.951429   0.000000
     91         31.034509   0.000000
     92         31.110418   0.000000
     93         32.433675   0.000000
     94         32.527138   0.000000
     95         32.635996   0.000000
     96         33.210982   0.000000
     97         33.799353   0.000000
     98         33.829751   0.000000
     99         34.096085   0.000000
    100         34.413524   0.000000
    101         34.762462   0.000000
    102         35.004811   0.000000
    103         35.274184   0.000000
    104         35.522951   0.000000
    105         36.448009   0.000000
    106         36.722222   0.000000
    107         36.731686   0.000000
    108         36.893240   0.000000
    109         37.068346   0.000000
    110         37.137797   0.000000
    111         37.398341   0.000000
    112         37.806957   0.000000
    113         37.860791   0.000000
    114         38.530206   0.000000
    115         38.754626   0.000000
    116         39.232806   0.000000
    117         39.367715   0.000000
    118         39.770341   0.000000
    119         39.999728   0.000000
    120         40.144555   0.000000
    121         40.257596   0.000000
    122         40.363944   0.000000
    123         40.846505   0.000000
    124         41.117072   0.000000
    125         41.330418   0.000000
    126         41.489016   0.000000
    127         41.736821   0.000000
    128         42.011577   0.000000
    129         42.130545   0.000000
    130         42.468124   0.000000
    131         42.656757   0.000000
    132         42.852588   0.000000
    133         43.199006   0.000000
    134         43.292154   0.000000
    135         43.416844   0.000000
    136         44.060027   0.000000
    137         44.447586   0.000000
    138         44.824025   0.000000
    139         44.841756   0.000000
    140         45.276649   0.000000
    141         45.458546   0.000000
    142         45.638681   0.000000
    143         46.213941   0.000000
    144         46.537481   0.000000
    145         46.736103   0.000000
    146         46.991442   0.000000
    147         47.243973   0.000000
    148         47.291973   0.000000
    149         47.889294   0.000000
    150         47.986442   0.000000
    151         48.318122   0.000000
    152         48.343908   0.000000
    153         48.701036   0.000000
    154         48.810161   0.000000
    155         48.942254   0.000000
    156         49.423547   0.000000
    157         49.633376   0.000000
    158         49.782130   0.000000
    159         50.213555   0.000000
    160         50.389704   0.000000
    161         50.758448   0.000000
    162         51.076502   0.000000
    163         51.594052   0.000000
    164         51.730117   0.000000
    165         51.788510   0.000000
    166         52.597660   0.000000
    167         52.799660   0.000000
    168         52.987632   0.000000
    169         53.042748   0.000000
    170         53.614710   0.000000
    171         53.921072   0.000000
    172         53.934858   0.000000
    173         54.218484   0.000000
    174         54.269338   0.000000
    175         54.584411   0.000000
    176         54.965905   0.000000
    177         55.209239   0.000000
    178         55.344372   0.000000
    179         55.380949   0.000000
    180         55.927595   0.000000
    181         56.374454   0.000000
    182         56.439235   0.000000
    183         56.515609   0.000000
    184         57.057994   0.000000
    185         57.257171   0.000000
    186         57.388023   0.000000
    187         57.703180   0.000000
    188         57.808556   0.000000
    189         58.310865   0.000000
    190         58.885539   0.000000
    191         59.043772   0.000000
    192         59.549208   0.000000
    193         59.860885   0.000000
    194         60.372431   0.000000
    195         60.372643   0.000000
    196         60.546541   0.000000
    197         60.694761   0.000000
    198         60.917655   0.000000
    199         61.312851   0.000000
    200         62.030583   0.000000
    201         62.285045   0.000000
    202         62.513043   0.000000
    203         62.646209   0.000000
    204         62.822515   0.000000
    205         63.227348   0.000000
    206         63.385736   0.000000
    207         63.718009   0.000000
    208         63.770731   0.000000
    209         63.989840   0.000000
    210         64.032945   0.000000
    211         64.150332   0.000000
    212         64.818348   0.000000
    213         64.949889   0.000000
    214         65.202575   0.000000
    215         65.243548   0.000000
    216         65.621990   0.000000
    217         65.623134   0.000000
    218         65.934457   0.000000
    219         66.135629   0.000000
    220         66.446328   0.000000
    221         66.512218   0.000000
    222         66.788670   0.000000
    223         66.801359   0.000000
    224         66.993465   0.000000
    225         67.202747   0.000000
    226         67.408303   0.000000
    227         67.601296   0.000000
    228         68.003989   0.000000
    229         68.020323   0.000000
    230         68.088934   0.000000
    231         68.229293   0.000000
    232         68.942746   0.000000
    233         68.958393   0.000000
    234         69.150183   0.000000
    235         69.223531   0.000000
    236         69.301463   0.000000
    237         69.612566   0.000000
    238         69.733590   0.000000
    239         70.031126   0.000000
    240         70.175808   0.000000
    241         70.613553   0.000000
    242         70.716650   0.000000
    243         71.059661   0.000000
    244         71.103073   0.000000
    245         71.391275   0.000000
    246         71.734848   0.000000
    247         72.145766   0.000000
    248         72.293970   0.000000
    249         72.474398   0.000000
    250         72.500061   0.000000
    251         72.842168   0.000000
    252         73.159298   0.000000
    253         73.597048   0.000000
    254         73.626154   0.000000
    255         74.136806   0.000000
    256         74.211792   0.000000
    257         74.819796   0.000000
    258         75.028232   0.000000
    259         75.059261   0.000000
    260         75.258825   0.000000
    261         75.659154   0.000000
    262         75.825336   0.000000
    263         76.040706   0.000000
    264         76.410703   0.000000
 
  0.3500000E+00  0.3571429E-01  0.0000000E+00  0.3174603E-02
      1        -12.435799   1.000000
      2        -11.913127   1.000000
      3         -8.504422   1.000000
      4         -8.337670   1.000000
      5         -6.059874   1.000000
      6         -6.055592   1.000000