       N       E                     dE             d eps       ncg     rms          rms(c)
DAV:   1    -0.972072992110E+02   -0.97207E+02   -0.24545E+00 92400   0.216E+00    0.119E+01
DAV:   2    -0.923972381265E+02    0.48101E+01   -0.26873E+00109248   0.220E+00    0.698E+00
DAV:   3    -0.906161200472E+02    0.17811E+01   -0.69773E-01107712   0.133E+00    0.149E+00
DAV:   4    -0.906198985838E+02   -0.37785E-02   -0.95162E-02105336   0.330E-01    0.771E-01
DAV:   5    -0.906334642039E+02   -0.13566E-01   -0.31033E-03106224   0.791E-02    0.196E-01
DAV:   6    -0.906382405521E+02   -0.47763E-02   -0.61854E-04106440   0.326E-02    0.494E-02
DAV:   7    -0.906389363085E+02   -0.69576E-03   -0.99293E-05106152   0.132E-02    0.291E-02
DAV:   8    -0.906390344012E+02   -0.98093E-04   -0.22312E-05104496   0.555E-03    0.462E-03
DAV:   9    -0.906390388819E+02   -0.44808E-05   -0.13974E-06107520   0.146E-03    0.157E-03
DAV:  10    -0.906390396212E+02   -0.73925E-06   -0.17694E-07103776   0.519E-04
   1 F= -.90639040E+02 E0= -.90638971E+02  d E =-.136747E-03
 imaginary and real dielectric function
