<?xml version="1.0" encoding="ISO-8859-1"?>
<modeling>
 <generator>
  <i name="program" type="string">vasp </i>
  <i name="version" type="string">6.4.3  </i>
  <i name="subversion" type="string">19Mar24 (build May 31 2024 16:31:43) complex                          parallel </i>
  <i name="platform" type="string">LinuxIFC </i>
  <i name="date" type="string">2024 10 30 </i>
  <i name="time" type="string">20:53:37 </i>
 </generator>
 <incar>
  <i type="string" name="SYSTEM">Kpoints</i>
  <i type="int" name="ISTART">     0</i>
  <i type="string" name="PREC">Accurate</i>
  <i type="string" name="ALGO">Normal</i>
  <i type="int" name="ISPIN">     1</i>
  <i type="int" name="ICHARG">     2</i>
  <i type="int" name="NELM">   100</i>
  <i type="int" name="IBRION">    -1</i>
  <i name="EDIFF">      0.00000100</i>
  <i name="EDIFFG">     -0.00100000</i>
  <i type="int" name="NSW">     0</i>
  <i type="int" name="ISIF">     2</i>
  <i name="ENCUT">    900.00000000</i>
  <i name="POTIM">      0.50000000</i>
  <i type="int" name="ISMEAR">     0</i>
  <i name="SIGMA">      0.05000000</i>
  <i type="logical" name="LWAVE"> F  </i>
  <i type="logical" name="LCHARG"> F  </i>
  <i type="string" name="GGA">PE</i>
 </incar>
 <primitive_cell>
  <structure name="primitive_cell" >
   <crystal>
    <varray name="basis" >
     <v>       5.69700000       0.00000000       0.00000000 </v>
     <v>       0.00000000       4.04790000       0.00000000 </v>
     <v>       0.00000000       0.00000000       6.20420000 </v>
    </varray>
    <i name="volume">    143.07435078 </i>
    <varray name="rec_basis" >
     <v>       0.17553098       0.00000000       0.00000000 </v>
     <v>       0.00000000       0.24704168       0.00000000 </v>
     <v>       0.00000000       0.00000000       0.16118114 </v>
    </varray>
   </crystal>
   <varray name="positions" >
    <v>       0.52123000       0.50000000       0.63796000 </v>
    <v>       0.47877000       0.50000000       0.36204000 </v>
    <v>       0.97877000       0.50000000       0.63796000 </v>
    <v>       0.02123000       0.50000000       0.36204000 </v>
    <v>       0.60090000       0.50000000       0.89991000 </v>
    <v>       0.39910000       0.50000000       0.10009000 </v>
    <v>       0.89910000       0.50000000       0.89991000 </v>
    <v>       0.10090000       0.50000000       0.10009000 </v>
    <v>       0.75000000       0.79171000       0.72973000 </v>
    <v>       0.25000000       0.20829000       0.27027000 </v>
    <v>       0.75000000       0.20829000       0.72973000 </v>
    <v>       0.25000000       0.79171000       0.27027000 </v>
    <v>       0.25000000       0.50000000       0.52367000 </v>
    <v>       0.75000000       0.50000000       0.47633000 </v>
   </varray>
  </structure>
  <varray name="primitive_index" >
   <v type="int" >        1 </v>
   <v type="int" >        2 </v>
   <v type="int" >        3 </v>
   <v type="int" >        4 </v>
   <v type="int" >        5 </v>
   <v type="int" >        6 </v>
   <v type="int" >        7 </v>
   <v type="int" >        8 </v>
   <v type="int" >        9 </v>
   <v type="int" >       10 </v>
   <v type="int" >       11 </v>
   <v type="int" >       12 </v>
   <v type="int" >       13 </v>
   <v type="int" >       14 </v>
  </varray>
 </primitive_cell>
 <kpoints>
  <generation param="Monkhorst-Pack">
   <v type="int" name="divisions">      10       14        9 </v>
   <v name="usershift">      0.00000000       0.00000000       0.00000000 </v>
   <v name="genvec1">      0.10000000       0.00000000       0.00000000 </v>
   <v name="genvec2">      0.00000000       0.07142857       0.00000000 </v>
   <v name="genvec3">      0.00000000       0.00000000       0.11111111 </v>
   <v name="shift">      0.50000000       0.50000000       0.00000000 </v>
  </generation>
  <varray name="kpointlist" >
   <v>       0.05000000       0.03571429       0.00000000 </v>
   <v>       0.15000000       0.03571429       0.00000000 </v>
   <v>       0.25000000       0.03571429       0.00000000 </v>
   <v>       0.35000000       0.03571429       0.00000000 </v>
   <v>       0.45000000       0.03571429       0.00000000 </v>
   <v>       0.05000000       0.10714286       0.00000000 </v>
   <v>       0.15000000       0.10714286       0.00000000 </v>
   <v>       0.25000000       0.10714286       0.00000000 </v>
   <v>       0.35000000       0.10714286       0.00000000 </v>
   <v>       0.45000000       0.10714286       0.00000000 </v>
   <v>       0.05000000       0.17857143       0.00000000 </v>
   <v>       0.15000000       0.17857143       0.00000000 </v>
   <v>       0.25000000       0.17857143       0.00000000 </v>
   <v>       0.35000000       0.17857143       0.00000000 </v>
   <v>       0.45000000       0.17857143       0.00000000 </v>
   <v>       0.05000000       0.25000000       0.00000000 </v>
   <v>       0.15000000       0.25000000       0.00000000 </v>
   <v>       0.25000000       0.25000000       0.00000000 </v>
   <v>       0.35000000       0.25000000       0.00000000 </v>
   <v>       0.45000000       0.25000000       0.00000000 </v>
   <v>       0.05000000       0.32142857       0.00000000 </v>
   <v>       0.15000000       0.32142857       0.00000000 </v>
   <v>       0.25000000       0.32142857       0.00000000 </v>
   <v>       0.35000000       0.32142857       0.00000000 </v>
   <v>       0.45000000       0.32142857       0.00000000 </v>
   <v>       0.05000000       0.39285714       0.00000000 </v>
   <v>       0.15000000       0.39285714       0.00000000 </v>
   <v>       0.25000000       0.39285714       0.00000000 </v>
   <v>       0.35000000       0.39285714       0.00000000 </v>
   <v>       0.45000000       0.39285714       0.00000000 </v>
   <v>       0.05000000       0.46428571       0.00000000 </v>
   <v>       0.15000000       0.46428571       0.00000000 </v>
   <v>       0.25000000       0.46428571       0.00000000 </v>
   <v>       0.35000000       0.46428571       0.00000000 </v>
   <v>       0.45000000       0.46428571       0.00000000 </v>
   <v>       0.05000000       0.03571429       0.11111111 </v>
   <v>       0.15000000       0.03571429       0.11111111 </v>
   <v>       0.25000000       0.03571429       0.11111111 </v>
   <v>       0.35000000       0.03571429       0.11111111 </v>
   <v>       0.45000000       0.03571429       0.11111111 </v>
   <v>       0.05000000       0.10714286       0.11111111 </v>
   <v>       0.15000000       0.10714286       0.11111111 </v>
   <v>       0.25000000       0.10714286       0.11111111 </v>
   <v>       0.35000000       0.10714286       0.11111111 </v>
   <v>       0.45000000       0.10714286       0.11111111 </v>
   <v>       0.05000000       0.17857143       0.11111111 </v>
   <v>       0.15000000       0.17857143       0.11111111 </v>
   <v>       0.25000000       0.17857143       0.11111111 </v>
   <v>       0.35000000       0.17857143       0.11111111 </v>
   <v>       0.45000000       0.17857143       0.11111111 </v>
   <v>       0.05000000       0.25000000       0.11111111 </v>
   <v>       0.15000000       0.25000000       0.11111111 </v>
   <v>       0.25000000       0.25000000       0.11111111 </v>
   <v>       0.35000000       0.25000000       0.11111111 </v>
   <v>       0.45000000       0.25000000       0.11111111 </v>
   <v>       0.05000000       0.32142857       0.11111111 </v>
   <v>       0.15000000       0.32142857       0.11111111 </v>
   <v>       0.25000000       0.32142857       0.11111111 </v>
   <v>       0.35000000       0.32142857       0.11111111 </v>
   <v>       0.45000000       0.32142857       0.11111111 </v>
   <v>       0.05000000       0.39285714       0.11111111 </v>
   <v>       0.15000000       0.39285714       0.11111111 </v>
   <v>       0.25000000       0.39285714       0.11111111 </v>
   <v>       0.35000000       0.39285714       0.11111111 </v>
   <v>       0.45000000       0.39285714       0.11111111 </v>
   <v>       0.05000000       0.46428571       0.11111111 </v>
   <v>       0.15000000       0.46428571       0.11111111 </v>
   <v>       0.25000000       0.46428571       0.11111111 </v>
   <v>       0.35000000       0.46428571       0.11111111 </v>
   <v>       0.45000000       0.46428571       0.11111111 </v>
   <v>       0.05000000       0.03571429       0.22222222 </v>
   <v>       0.15000000       0.03571429       0.22222222 </v>
   <v>       0.25000000       0.03571429       0.22222222 </v>
   <v>       0.35000000       0.03571429       0.22222222 </v>
   <v>       0.45000000       0.03571429       0.22222222 </v>
   <v>       0.05000000       0.10714286       0.22222222 </v>
   <v>       0.15000000       0.10714286       0.22222222 </v>
   <v>       0.25000000       0.10714286       0.22222222 </v>
   <v>       0.35000000       0.10714286       0.22222222 </v>
   <v>       0.45000000       0.10714286       0.22222222 </v>
   <v>       0.05000000       0.17857143       0.22222222 </v>
   <v>       0.15000000       0.17857143       0.22222222 </v>
   <v>       0.25000000       0.17857143       0.22222222 </v>
   <v>       0.35000000       0.17857143       0.22222222 </v>
   <v>       0.45000000       0.17857143       0.22222222 </v>
   <v>       0.05000000       0.25000000       0.22222222 </v>
   <v>       0.15000000       0.25000000       0.22222222 </v>
   <v>       0.25000000       0.25000000       0.22222222 </v>
   <v>       0.35000000       0.25000000       0.22222222 </v>
   <v>       0.45000000       0.25000000       0.22222222 </v>
   <v>       0.05000000       0.32142857       0.22222222 </v>
   <v>       0.15000000       0.32142857       0.22222222 </v>
   <v>       0.25000000       0.32142857       0.22222222 </v>
   <v>       0.35000000       0.32142857       0.22222222 </v>
   <v>       0.45000000       0.32142857       0.22222222 </v>
   <v>       0.05000000       0.39285714       0.22222222 </v>
   <v>       0.15000000       0.39285714       0.22222222 </v>
   <v>       0.25000000       0.39285714       0.22222222 </v>
   <v>       0.35000000       0.39285714       0.22222222 </v>
   <v>       0.45000000       0.39285714       0.22222222 </v>
   <v>       0.05000000       0.46428571       0.22222222 </v>
   <v>       0.15000000       0.46428571       0.22222222 </v>
   <v>       0.25000000       0.46428571       0.22222222 </v>
   <v>       0.35000000       0.46428571       0.22222222 </v>
   <v>       0.45000000       0.46428571       0.22222222 </v>
   <v>       0.05000000       0.03571429       0.33333333 </v>
   <v>       0.15000000       0.03571429       0.33333333 </v>
   <v>       0.25000000       0.03571429       0.33333333 </v>
   <v>       0.35000000       0.03571429       0.33333333 </v>
   <v>       0.45000000       0.03571429       0.33333333 </v>
   <v>       0.05000000       0.10714286       0.33333333 </v>
   <v>       0.15000000       0.10714286       0.33333333 </v>
   <v>       0.25000000       0.10714286       0.33333333 </v>
   <v>       0.35000000       0.10714286       0.33333333 </v>
   <v>       0.45000000       0.10714286       0.33333333 </v>
   <v>       0.05000000       0.17857143       0.33333333 </v>
   <v>       0.15000000       0.17857143       0.33333333 </v>
   <v>       0.25000000       0.17857143       0.33333333 </v>
   <v>       0.35000000       0.17857143       0.33333333 </v>
   <v>       0.45000000       0.17857143       0.33333333 </v>
   <v>       0.05000000       0.25000000       0.33333333 </v>
   <v>       0.15000000       0.25000000       0.33333333 </v>
   <v>       0.25000000       0.25000000       0.33333333 </v>
   <v>       0.35000000       0.25000000       0.33333333 </v>
   <v>       0.45000000       0.25000000       0.33333333 </v>
   <v>       0.05000000       0.32142857       0.33333333 </v>
   <v>       0.15000000       0.32142857       0.33333333 </v>
   <v>       0.25000000       0.32142857       0.33333333 </v>
   <v>       0.35000000       0.32142857       0.33333333 </v>
   <v>       0.45000000       0.32142857       0.33333333 </v>
   <v>       0.05000000       0.39285714       0.33333333 </v>
   <v>       0.15000000       0.39285714       0.33333333 </v>
   <v>       0.25000000       0.39285714       0.33333333 </v>
   <v>       0.35000000       0.39285714       0.33333333 </v>
   <v>       0.45000000       0.39285714       0.33333333 </v>
   <v>       0.05000000       0.46428571       0.33333333 </v>
   <v>       0.15000000       0.46428571       0.33333333 </v>
   <v>       0.25000000       0.46428571       0.33333333 </v>
   <v>       0.35000000       0.46428571       0.33333333 </v>
   <v>       0.45000000       0.46428571       0.33333333 </v>
   <v>       0.05000000       0.03571429       0.44444444 </v>
   <v>       0.15000000       0.03571429       0.44444444 </v>
   <v>       0.25000000       0.03571429       0.44444444 </v>
   <v>       0.35000000       0.03571429       0.44444444 </v>
   <v>       0.45000000       0.03571429       0.44444444 </v>
   <v>       0.05000000       0.10714286       0.44444444 </v>
   <v>       0.15000000       0.10714286       0.44444444 </v>
   <v>       0.25000000       0.10714286       0.44444444 </v>
   <v>       0.35000000       0.10714286       0.44444444 </v>
   <v>       0.45000000       0.10714286       0.44444444 </v>
   <v>       0.05000000       0.17857143       0.44444444 </v>
   <v>       0.15000000       0.17857143       0.44444444 </v>
   <v>       0.25000000       0.17857143       0.44444444 </v>
   <v>       0.35000000       0.17857143       0.44444444 </v>
   <v>       0.45000000       0.17857143       0.44444444 </v>
   <v>       0.05000000       0.25000000       0.44444444 </v>
   <v>       0.15000000       0.25000000       0.44444444 </v>
   <v>       0.25000000       0.25000000       0.44444444 </v>
   <v>       0.35000000       0.25000000       0.44444444 </v>
   <v>       0.45000000       0.25000000       0.44444444 </v>
   <v>       0.05000000       0.32142857       0.44444444 </v>
   <v>       0.15000000       0.32142857       0.44444444 </v>
   <v>       0.25000000       0.32142857       0.44444444 </v>
   <v>       0.35000000       0.32142857       0.44444444 </v>
   <v>       0.45000000       0.32142857       0.44444444 </v>
   <v>       0.05000000       0.39285714       0.44444444 </v>
   <v>       0.15000000       0.39285714       0.44444444 </v>
   <v>       0.25000000       0.39285714       0.44444444 </v>
   <v>       0.35000000       0.39285714       0.44444444 </v>
   <v>       0.45000000       0.39285714       0.44444444 </v>
   <v>       0.05000000       0.46428571       0.44444444 </v>
   <v>       0.15000000       0.46428571       0.44444444 </v>
   <v>       0.25000000       0.46428571       0.44444444 </v>
   <v>       0.35000000       0.46428571       0.44444444 </v>
   <v>       0.45000000       0.46428571       0.44444444 </v>
  </varray>
  <varray name="weights" >
   <v>       0.00317460 </v>
   <v>       0.00317460 </v>
   <v>       0.00317460 </v>
   <v>       0.00317460 </v>
   <v>       0.00317460 </v>
   <v>       0.00317460 </v>
   <v>       0.00317460 </v>
   <v>       0.00317460 </v>
   <v>       0.00317460 </v>
   <v>       0.00317460 </v>
   <v>       0.00317460 </v>
   <v>       0.00317460 </v>
   <v>       0.00317460 </v>
   <v>       0.00317460 </v>
   <v>       0.00317460 </v>
   <v>       0.00317460 </v>
   <v>       0.00317460 </v>
   <v>       0.00317460 </v>
   <v>       0.00317460 </v>
   <v>       0.00317460 </v>
   <v>       0.00317460 </v>
   <v>       0.00317460 </v>
   <v>       0.00317460 </v>
   <v>       0.00317460 </v>
   <v>       0.00317460 </v>
   <v>       0.00317460 </v>
   <v>       0.00317460 </v>
   <v>       0.00317460 </v>
   <v>       0.00317460 </v>
   <v>       0.00317460 </v>
   <v>       0.00317460 </v>
   <v>       0.00317460 </v>
   <v>       0.00317460 </v>
   <v>       0.00317460 </v>
   <v>       0.00317460 </v>
   <v>       0.00634921 </v>
   <v>       0.00634921 </v>
   <v>       0.00634921 </v>
   <v>       0.00634921 </v>
   <v>       0.00634921 </v>
   <v>       0.00634921 </v>
   <v>       0.00634921 </v>
   <v>       0.00634921 </v>
   <v>       0.00634921 </v>
   <v>       0.00634921 </v>
   <v>       0.00634921 </v>
   <v>       0.00634921 </v>
   <v>       0.00634921 </v>
   <v>       0.00634921 </v>
   <v>       0.00634921 </v>
   <v>       0.00634921 </v>
   <v>       0.00634921 </v>
   <v>       0.00634921 </v>
   <v>       0.00634921 </v>
   <v>       0.00634921 </v>
   <v>       0.00634921 </v>
   <v>       0.00634921 </v>
   <v>       0.00634921 </v>
   <v>       0.00634921 </v>
   <v>       0.00634921 </v>
   <v>       0.00634921 </v>
   <v>       0.00634921 </v>
   <v>       0.00634921 </v>
   <v>       0.00634921 </v>
   <v>       0.00634921 </v>
   <v>       0.00634921 </v>
   <v>       0.00634921 </v>
   <v>       0.00634921 </v>
   <v>       0.00634921 </v>
   <v>       0.00634921 </v>
   <v>       0.00634921 </v>
   <v>       0.00634921 </v>
   <v>       0.00634921 </v>
   <v>       0.00634921 </v>
   <v>       0.00634921 </v>
   <v>       0.00634921 </v>
   <v>       0.00634921 </v>
   <v>       0.00634921 </v>
   <v>       0.00634921 </v>
   <v>       0.00634921 </v>
   <v>       0.00634921 </v>
   <v>       0.00634921 </v>
   <v>       0.00634921 </v>
   <v>       0.00634921 </v>
   <v>       0.00634921 </v>
   <v>       0.00634921 </v>
   <v>       0.00634921 </v>
   <v>       0.00634921 </v>
   <v>       0.00634921 </v>
   <v>       0.00634921 </v>
   <v>       0.00634921 </v>
   <v>       0.00634921 </v>
   <v>       0.00634921 </v>
   <v>       0.00634921 </v>
   <v>       0.00634921 </v>
   <v>       0.00634921 </v>
   <v>       0.00634921 </v>
   <v>       0.00634921 </v>
   <v>       0.00634921 </v>
   <v>       0.00634921 </v>
   <v>       0.00634921 </v>
   <v>       0.00634921 </v>
   <v>       0.00634921 </v>
   <v>       0.00634921 </v>
   <v>       0.00634921 </v>
   <v>       0.00634921 </v>
   <v>       0.00634921 </v>
   <v>       0.00634921 </v>
   <v>       0.00634921 </v>
   <v>       0.00634921 </v>
   <v>       0.00634921 </v>
   <v>       0.00634921 </v>
   <v>       0.00634921 </v>
   <v>       0.00634921 </v>
   <v>       0.00634921 </v>
   <v>       0.00634921 </v>
   <v>       0.00634921 </v>
   <v>       0.00634921 </v>
   <v>       0.00634921 </v>
   <v>       0.00634921 </v>
   <v>       0.00634921 </v>
   <v>       0.00634921 </v>
   <v>       0.00634921 </v>
   <v>       0.00634921 </v>
   <v>       0.00634921 </v>
   <v>       0.00634921 </v>
   <v>       0.00634921 </v>
   <v>       0.00634921 </v>
   <v>       0.00634921 </v>
   <v>       0.00634921 </v>
   <v>       0.00634921 </v>
   <v>       0.00634921 </v>
   <v>       0.00634921 </v>
   <v>       0.00634921 </v>
   <v>       0.00634921 </v>
   <v>       0.00634921 </v>
   <v>       0.00634921 </v>
   <v>       0.00634921 </v>
   <v>       0.00634921 </v>
   <v>       0.00634921 </v>
   <v>       0.00634921 </v>
   <v>       0.00634921 </v>
   <v>       0.00634921 </v>
   <v>       0.00634921 </v>
   <v>       0.00634921 </v>
   <v>       0.00634921 </v>
   <v>       0.00634921 </v>
   <v>       0.00634921 </v>
   <v>       0.00634921 </v>
   <v>       0.00634921 </v>
   <v>       0.00634921 </v>
   <v>       0.00634921 </v>
   <v>       0.00634921 </v>
   <v>       0.00634921 </v>
   <v>       0.00634921 </v>
   <v>       0.00634921 </v>
   <v>       0.00634921 </v>
   <v>       0.00634921 </v>
   <v>       0.00634921 </v>
   <v>       0.00634921 </v>
   <v>       0.00634921 </v>
   <v>       0.00634921 </v>
   <v>       0.00634921 </v>
   <v>       0.00634921 </v>
   <v>       0.00634921 </v>
   <v>       0.00634921 </v>
   <v>       0.00634921 </v>
   <v>       0.00634921 </v>
   <v>       0.00634921 </v>
   <v>       0.00634921 </v>
   <v>       0.00634921 </v>
   <v>       0.00634921 </v>
   <v>       0.00634921 </v>
   <v>       0.00634921 </v>
   <v>       0.00634921 </v>
  </varray>
 </kpoints>
 <parameters>
  <separator name="general" >
   <i type="string" name="SYSTEM">Kpoints</i>
   <i type="logical" name="LCOMPAT"> F  </i>
  </separator>
  <separator name="electronic" >
   <i type="string" name="PREC">accura</i>
   <i name="ENMAX">    900.00000000</i>
   <i name="ENAUG">    535.51400000</i>
   <i name="EDIFF">      0.00000100</i>
   <i type="int" name="IALGO">    38</i>
   <i type="int" name="IWAVPR">    10</i>
   <i type="int" name="NBANDS">    48</i>
   <i type="int" name="NBANDSLOW">    -1</i>
   <i type="int" name="NBANDSHIGH">    -1</i>
   <i name="NELECT">     42.00000000</i>
   <i type="int" name="TURBO">     0</i>
   <i type="int" name="IRESTART">     0</i>
   <i type="int" name="NREBOOT">     0</i>
   <i type="int" name="NMIN">     0</i>
   <i name="EREF">      0.00000000</i>
   <separator name="electronic smearing" >
    <i type="int" name="ISMEAR">     0</i>
    <i name="SIGMA">      0.05000000</i>
    <i name="KSPACING">      0.50000000</i>
    <i type="logical" name="KGAMMA"> T  </i>
    <i type="logical" name="KBLOWUP"> T  </i>
   </separator>
   <separator name="electronic projectors" >
    <i type="logical" name="LREAL"> F  </i>
    <v name="ROPT">      0.00000000</v>
    <i type="int" name="LMAXPAW">  -100</i>
    <i type="int" name="LMAXMIX">     2</i>
    <i type="logical" name="NLSPLINE"> F  </i>
   </separator>
   <separator name="electronic startup" >
    <i type="int" name="ISTART">     0</i>
    <i type="int" name="ICHARG">     2</i>
    <i type="int" name="INIWAV">     1</i>
   </separator>
   <separator name="electronic spin" >
    <i type="int" name="ISPIN">     1</i>
    <i type="logical" name="LNONCOLLINEAR"> F  </i>
    <v name="MAGMOM">      1.00000000      1.00000000      1.00000000      1.00000000      1.00000000      1.00000000      1.00000000      1.00000000      1.00000000      1.00000000      1.00000000      1.00000000      1.00000000      1.00000000</v>
    <i name="NUPDOWN">     -1.00000000</i>
    <i type="logical" name="LSORBIT"> F  </i>
    <v name="SAXIS">      0.00000000      0.00000000      1.00000000</v>
    <i type="logical" name="LSPIRAL"> F  </i>
    <v name="QSPIRAL">      0.00000000      0.00000000      0.00000000</v>
    <i type="logical" name="LZEROZ"> F  </i>
   </separator>
   <separator name="electronic exchange-correlation" >
    <i type="logical" name="LASPH"> F  </i>
   </separator>
   <separator name="electronic convergence" >
    <i type="int" name="NELM">   100</i>
    <i type="int" name="NELMDL">    -5</i>
    <i type="int" name="NELMIN">     2</i>
    <i name="ENINI">    900.00000000</i>
    <separator name="electronic convergence detail" >
     <i type="logical" name="LDIAG"> T  </i>
     <i type="logical" name="LSUBROT"> F  </i>
     <i name="WEIMIN">      0.00000000</i>
     <i name="EBREAK">      0.00000001</i>
     <i name="DEPER">      0.30000000</i>
     <i type="int" name="NRMM">     4</i>
     <i name="TIME">      0.40000000</i>
    </separator>
   </separator>
   <separator name="electronic mixer" >
    <i name="AMIX">      0.40000000</i>
    <i name="BMIX">      1.00000000</i>
    <i name="AMIN">      0.10000000</i>
    <i name="AMIX_MAG">      1.60000000</i>
    <i name="BMIX_MAG">      1.00000000</i>
    <separator name="electronic mixer details" >
     <i type="int" name="IMIX">     4</i>
     <i type="logical" name="MIXFIRST"> F  </i>
     <i type="int" name="MAXMIX">   -45</i>
     <i name="WC">    100.00000000</i>
     <i type="int" name="INIMIX">     1</i>
     <i type="int" name="MIXPRE">     1</i>
     <i type="int" name="MREMOVE">     5</i>
    </separator>
   </separator>
   <separator name="electronic dipolcorrection" >
    <i type="logical" name="LDIPOL"> F  </i>
    <i type="logical" name="LMONO"> F  </i>
    <i type="int" name="IDIPOL">     0</i>
    <i name="EPSILON">      1.00000000</i>
    <v name="DIPOL">   -100.00000000   -100.00000000   -100.00000000</v>
    <i name="EFIELD">      0.00000000</i>
    <i type="logical" name="LVACPOTAV"> F  </i>
   </separator>
  </separator>
  <separator name="grids" >
   <i type="int" name="NGX">    56</i>
   <i type="int" name="NGY">    40</i>
   <i type="int" name="NGZ">    64</i>
   <i type="int" name="NGXF">   112</i>
   <i type="int" name="NGYF">    80</i>
   <i type="int" name="NGZF">   128</i>
   <i type="logical" name="ADDGRID"> F  </i>
  </separator>
  <separator name="ionic" >
   <i type="int" name="NSW">     0</i>
   <i type="int" name="IBRION">    -1</i>
   <i type="int" name="MDALGO">     0</i>
   <i type="int" name="ISIF">     2</i>
   <i name="PSTRESS">      0.00000000</i>
   <i name="EDIFFG">     -0.00100000</i>
   <i type="int" name="NFREE">     0</i>
   <i name="POTIM">      0.50000000</i>
   <i name="SMASS">     -3.00000000</i>
   <i name="SCALEE">      1.00000000</i>
  </separator>
  <separator name="ionic md" >
   <i name="TEBEG">      0.00010000</i>
   <i name="TEEND">      0.00010000</i>
   <i type="int" name="NBLOCK">     1</i>
   <i type="int" name="KBLOCK">     1</i>
   <i type="int" name="NPACO">   256</i>
   <i name="APACO">     10.00000000</i>
  </separator>
  <separator name="symmetry" >
   <i type="int" name="ISYM">     2</i>
   <i name="SYMPREC">      0.00001000</i>
  </separator>
  <separator name="dos" >
   <i type="int" name="LORBIT">     0</i>
   <v name="RWIGS">     -1.00000000</v>
   <i type="int" name="NEDOS">   301</i>
   <i name="EMIN">     10.00000000</i>
   <i name="EMAX">    -10.00000000</i>
   <i name="EFERMI">      0.00000000</i>
  </separator>
  <separator name="writing" >
   <i type="int" name="NWRITE">     2</i>
   <i type="logical" name="LWAVE"> F  </i>
   <i type="logical" name="LDOWNSAMPLE"> F  </i>
   <i type="logical" name="LCHARG"> F  </i>
   <i type="logical" name="LPARD"> F  </i>
   <i type="logical" name="LVTOT"> F  </i>
   <i type="logical" name="LVHAR"> F  </i>
   <i type="logical" name="LELF"> F  </i>
   <i type="logical" name="LOPTICS"> F  </i>
   <v name="STM">      0.00000000      0.00000000      0.00000000      0.00000000      0.00000000      0.00000000      0.00000000</v>
  </separator>
  <separator name="performance" >
   <i type="int" name="NPAR">    24</i>
   <i type="int" name="NSIM">     4</i>
   <i type="int" name="NBLK">    -1</i>
   <i type="logical" name="LPLANE"> T  </i>
   <i type="logical" name="LSCALAPACK"> T  </i>
   <i type="logical" name="LSCAAWARE"> F  </i>
   <i type="logical" name="LSCALU"> F  </i>
   <i type="logical" name="LASYNC"> F  </i>
   <i type="logical" name="LORBITALREAL"> F  </i>
  </separator>
  <separator name="miscellaneous" >
   <i type="int" name="IDIOT">     3</i>
   <i type="int" name="PHON_NSTRUCT">    -1</i>
   <i type="logical" name="LMUSIC"> F  </i>
   <v name="POMASS">     10.81100000</v>
   <v name="DARWINR">      0.00000000</v>
   <v name="DARWINV">      1.00000000</v>
   <i type="logical" name="LCORR"> T  </i>
  </separator>
  <i type="logical" name="GGA_COMPAT"> T  </i>
  <i type="logical" name="LBERRY"> F  </i>
  <i type="int" name="ICORELEVEL">     0</i>
  <i type="logical" name="LDAU"> F  </i>
  <i type="int" name="I_CONSTRAINED_M">     0</i>
  <separator name="electronic exchange-correlation" >
   <i type="string" name="GGA    ">PE</i>
   <i type="string" name="XC_C">1</i>
   <i type="int" name="VOSKOWN">     0</i>
   <i type="logical" name="LHFCALC"> F  </i>
   <i type="string" name="PRECFOCK"></i>
   <i type="logical" name="LSYMGRAD"> F  </i>
   <i type="logical" name="LHFONE"> F  </i>
   <i type="logical" name="LRHFCALC"> F  </i>
   <i type="logical" name="LTHOMAS"> F  </i>
   <i type="logical" name="LMODELHF"> F  </i>
   <i type="logical" name="LFOCKACE"> F  </i>
   <i name="ENCUT4O">     -1.00000000</i>
   <i type="int" name="EXXOEP">     0</i>
   <i type="int" name="FOURORBIT">     0</i>
   <i name="AEXX">      0.00000000</i>
   <i name="HFALPHA">      0.00000000</i>
   <i name="MCALPHA">      0.00000000</i>
   <i name="ALDAX">      1.00000000</i>
   <i name="AGGAX">      1.00000000</i>
   <i name="AMGGAX">      1.00000000</i>
   <i name="ALDAC">      1.00000000</i>
   <i name="AGGAC">      1.00000000</i>
   <i name="AMGGAC">      1.00000000</i>
   <i type="int" name="NKREDX">     1</i>
   <i type="int" name="NKREDY">     1</i>
   <i type="int" name="NKREDZ">     1</i>
   <i type="logical" name="SHIFTRED"> F  </i>
   <i type="logical" name="ODDONLY"> F  </i>
   <i type="logical" name="EVENONLY"> F  </i>
   <i type="int" name="LMAXFOCK">     0</i>
   <i type="int" name="NMAXFOCKAE">     0</i>
   <i type="logical" name="LFOCKAEDFT"> F  </i>
   <i name="HFSCREEN">      0.00000000</i>
   <i name="HFSCREENC">      0.00000000</i>
   <i type="int" name="NBANDSGWLOW">     0</i>
  </separator>
  <separator name="vdW DFT" >
   <i type="logical" name="LUSE_VDW"> F  </i>
   <i type="int" name="IVDW_NL">    -1</i>
   <i type="logical" name="LSPIN_VDW"> F  </i>
   <i name="ZAB_VDW">     -0.84910000</i>
   <i name="GAMMA_VDW">      1.39626340</i>
   <i name="ALPHA_VDW">      0.00000000</i>
   <i name="PARAM1">      0.12340000</i>
   <i name="PARAM2">      1.00000000</i>
   <i name="BPARAM">      6.30000000</i>
   <i name="CPARAM">      0.00930000</i>
  </separator>
  <separator name="model GW" >
   <i type="int" name="MODEL_GW">     0</i>
   <i name="MODEL_EPS0">      6.13175789</i>
   <i name="MODEL_ALPHA">      1.00000000</i>
  </separator>
  <separator name="linear response parameters" >
   <i type="logical" name="LEPSILON"> F  </i>
   <i type="logical" name="LRPA"> F  </i>
   <i type="logical" name="LNABLA"> F  </i>
   <i type="logical" name="LVEL"> F  </i>
   <i name="CSHIFT">      0.10000000</i>
   <i name="OMEGAMAX">     -1.00000000</i>
   <i name="DEG_THRESHOLD">      0.00200000</i>
   <i name="RTIME">     -0.10000000</i>
   <i name="WPLASMAI">      0.00000000</i>
   <v name="DFIELD">      0.00000000      0.00000000      0.00000000</v>
   <v name="WPLASMA">      0.00000000      0.00000000      0.00000000      0.00000000      0.00000000      0.00000000      0.00000000      0.00000000      0.00000000</v>
  </separator>
  <separator name="orbital magnetization" >
   <i type="logical" name="NUCIND"> F  </i>
   <v name="MAGPOS">      0.00000000      0.00000000      0.00000000</v>
   <i type="logical" name="LNICSALL"> T  </i>
   <i type="logical" name="ORBITALMAG"> F  </i>
   <i type="logical" name="LMAGBLOCH"> F  </i>
   <i type="logical" name="LCHIMAG"> F  </i>
   <i type="logical" name="LGAUGE"> T  </i>
   <i type="int" name="MAGATOM">     0</i>
   <v name="MAGDIPOL">      0.00000000      0.00000000      0.00000000</v>
   <v name="AVECCONST">      0.00000000      0.00000000      0.00000000</v>
  </separator>
  <separator name="response functions" >
   <i type="logical" name="LALL_IN_ONE"> F  </i>
   <i type="int" name="IALL_IN_ONE">    -1</i>
   <i type="int" name="NBANDS_WAVE">    -1</i>
   <i type="logical" name="LFINITE_TEMPERATURE"> F  </i>
   <i type="logical" name="LADDER"> F  </i>
   <i type="logical" name="LRPAFORCE"> F  </i>
   <i type="logical" name="LFXC"> F  </i>
   <i type="logical" name="LHARTREE"> T  </i>
   <i type="int" name="IBSE">     0</i>
   <v type="int" name="KPOINT">    -1     0     0     0</v>
   <i type="logical" name="LTCTC"> F  </i>
   <i type="logical" name="LTCTE"> F  </i>
   <i type="logical" name="LTETE"> F  </i>
   <i type="logical" name="LTRIPLET"> F  </i>
   <i type="logical" name="LFXCEPS"> F  </i>
   <i type="logical" name="LFXHEG"> F  </i>
   <i type="int" name="NATURALO">     2</i>
   <i type="logical" name="LHOLEGF"> F  </i>
   <i type="logical" name="L2ORDER"> F  </i>
   <i type="logical" name="LDMP1"> F  </i>
   <i type="logical" name="LMP2LT"> F  </i>
   <i type="logical" name="LSMP2LT"> F  </i>
   <i type="logical" name="LGWLF"> F  </i>
   <i name="ENCUTGW">     -1.60000002</i>
   <i name="ENCUTGWSOFT">     -1.60000002</i>
   <i name="ENCUTLF">     -1.00000000</i>
   <i type="logical" name="ESF_SPLINES"> F  </i>
   <i name="ESF_CONV">      0.01000000</i>
   <i type="int" name="ESF_NINTER">    15</i>
   <i type="int" name="LMAXMP2">    -1</i>
   <i name="SCISSOR">      0.00000000</i>
   <i type="int" name="NOMEGA">     0</i>
   <i type="int" name="NOMEGAR">     0</i>
   <i type="int" name="NBANDSGW">    -1</i>
   <i type="int" name="NBANDSO">    -1</i>
   <i type="int" name="NBANDSV">    -1</i>
   <i type="int" name="NELMGW">     1</i>
   <i type="int" name="NELMHF">     1</i>
   <i type="int" name="DIM">     3</i>
   <i type="int" name="IESPILON">     4</i>
   <i type="int" name="ANTIRES">     0</i>
   <i name="OMEGAMAX">    -30.00000000</i>
   <i name="OMEGAMIN">    -30.00000000</i>
   <i name="OMEGATL">   -200.00000000</i>
   <i type="int" name="OMEGAGRID">     0</i>
   <i name="CSHIFT">     -0.10000000</i>
   <i type="logical" name="LSELFENERGY"> F  </i>
   <i type="logical" name="LSPECTRAL"> F  </i>
   <i type="logical" name="LSPECTRALGW"> F  </i>
   <i type="logical" name="LSINGLES"> F  </i>
   <i type="logical" name="LFERMIGW"> F  </i>
   <i type="logical" name="ODDONLYGW"> F  </i>
   <i type="logical" name="EVENONLYGW"> F  </i>
   <i type="int" name="NKREDLFX">     1</i>
   <i type="int" name="NKREDLFY">     1</i>
   <i type="int" name="NKREDLFZ">     1</i>
   <i type="int" name="MAXMEM">  2800</i>
   <i type="int" name="TELESCOPE">     0</i>
   <i type="int" name="NTAUPAR">    -1</i>
   <i type="int" name="NOMEGAPAR">    -1</i>
   <i name="DAMP_NEWTON">      0.80000001</i>
   <i name="LAMBDA">      1.00000000</i>
  </separator>
  <separator name="External order field" >
   <i name="OFIELD_KAPPA">      0.00000000</i>
   <v name="OFIELD_K">      0.00000000      0.00000000      0.00000000</v>
   <i name="OFIELD_Q6_NEAR">      0.00000000</i>
   <i name="OFIELD_Q6_FAR">      0.00000000</i>
   <i name="OFIELD_A">      0.00000000</i>
  </separator>
  <separator name="optional k-points parameters" >
   <i type="int" name="KPOINTS_OPT_MODE">     1</i>
   <i type="logical" name="LKPOINTS_OPT"> F  </i>
  </separator>
 </parameters>
 <atominfo>
  <atoms>      14 </atoms>
  <types>       1 </types>
  <array name="atoms" >
   <dimension dim="1">ion</dimension>
   <field type="string">element</field>
   <field type="int">atomtype</field>
   <set>
    <rc><c>B </c><c>   1</c></rc>
    <rc><c>B </c><c>   1</c></rc>
    <rc><c>B </c><c>   1</c></rc>
    <rc><c>B </c><c>   1</c></rc>
    <rc><c>B </c><c>   1</c></rc>
    <rc><c>B </c><c>   1</c></rc>
    <rc><c>B </c><c>   1</c></rc>
    <rc><c>B </c><c>   1</c></rc>
    <rc><c>B </c><c>   1</c></rc>
    <rc><c>B </c><c>   1</c></rc>
    <rc><c>B </c><c>   1</c></rc>
    <rc><c>B </c><c>   1</c></rc>
    <rc><c>B </c><c>   1</c></rc>
    <rc><c>B </c><c>   1</c></rc>
   </set>
  </array>
  <array name="atomtypes" >
   <dimension dim="1">type</dimension>
   <field type="int">atomspertype</field>
   <field type="string">element</field>
   <field>mass</field>
   <field>valence</field>
   <field type="string">pseudopotential</field>
   <set>
    <rc><c>  14</c><c>B </c><c>     10.81100000</c><c>      3.00000000</c><c>  PAW_PBE B 06Sep2000                   </c></rc>
   </set>
  </array>
 </atominfo>
 <structure name="initialpos" >
  <crystal>
   <varray name="basis" >
    <v>       5.69700000       0.00000000       0.00000000 </v>
    <v>       0.00000000       4.04790000       0.00000000 </v>
    <v>       0.00000000       0.00000000       6.20420000 </v>
   </varray>
   <i name="volume">    143.07435078 </i>
   <varray name="rec_basis" >
    <v>       0.17553098       0.00000000       0.00000000 </v>
    <v>       0.00000000       0.24704168       0.00000000 </v>
    <v>       0.00000000       0.00000000       0.16118114 </v>
   </varray>
  </crystal>
  <varray name="positions" >
   <v>       0.52123000       0.50000000       0.63796000 </v>
   <v>       0.47877000       0.50000000       0.36204000 </v>
   <v>       0.97877000       0.50000000       0.63796000 </v>
   <v>       0.02123000       0.50000000       0.36204000 </v>
   <v>       0.60090000       0.50000000       0.89991000 </v>
   <v>       0.39910000       0.50000000       0.10009000 </v>
   <v>       0.89910000       0.50000000       0.89991000 </v>
   <v>       0.10090000       0.50000000       0.10009000 </v>
   <v>       0.75000000       0.79171000       0.72973000 </v>
   <v>       0.25000000       0.20829000       0.27027000 </v>
   <v>       0.75000000       0.20829000       0.72973000 </v>
   <v>       0.25000000       0.79171000       0.27027000 </v>
   <v>       0.25000000       0.50000000       0.52367000 </v>
   <v>       0.75000000       0.50000000       0.47633000 </v>
  </varray>
 </structure>
 <calculation>
  <scstep>
   <time name="dav">   11.20   11.32</time>
   <time name="total">   11.23   11.35</time>
   <energy>
    <i name="alphaZ">     94.24357992 </i>
    <i name="ewald">   -795.76658092 </i>
    <i name="hartreedc">   -271.33601302 </i>
    <i name="XCdc">     97.50108139 </i>
    <i name="pawpsdc">    608.99811708 </i>
    <i name="pawaedc">   -597.02363782 </i>
    <i name="eentropy">     -0.00241996 </i>
    <i name="bandstr">      0.15014958 </i>
    <i name="atom">    996.38167149 </i>
    <i name="e_fr_energy">    133.14594774 </i>
    <i name="e_wo_entrp">    133.14836770 </i>
    <i name="e_0_energy">    133.14715772 </i>
   </energy>
  </scstep>
  <scstep>
   <time name="dav">   13.89   14.02</time>
   <time name="total">   13.89   14.02</time>
   <energy>
    <i name="e_fr_energy">    -89.12028815 </i>
    <i name="e_wo_entrp">    -89.11665113 </i>
    <i name="e_0_energy">    -89.11846964 </i>
   </energy>
  </scstep>
  <scstep>
   <time name="dav">   15.32   15.46</time>
   <time name="total">   15.32   15.46</time>
   <energy>
    <i name="e_fr_energy">    -97.60399452 </i>
    <i name="e_wo_entrp">    -97.60035271 </i>
    <i name="e_0_energy">    -97.60217361 </i>
   </energy>
  </scstep>
  <scstep>
   <time name="dav">   12.09   12.20</time>
   <time name="total">   12.09   12.20</time>
   <energy>
    <i name="e_fr_energy">    -97.65613622 </i>
    <i name="e_wo_entrp">    -97.65248049 </i>
    <i name="e_0_energy">    -97.65430836 </i>
   </energy>
  </scstep>
  <scstep>
   <time name="dav">   15.31   15.48</time>
   <time name="total">   15.64   15.81</time>
   <energy>
    <i name="e_fr_energy">    -97.65667537 </i>
    <i name="e_wo_entrp">    -97.65301950 </i>
    <i name="e_0_energy">    -97.65484743 </i>
   </energy>
  </scstep>
  <scstep>
   <time name="dav">   14.71   14.85</time>
   <time name="total">   15.06   15.20</time>
   <energy>
    <i name="e_fr_energy">    -92.24046840 </i>
    <i name="e_wo_entrp">    -92.23703654 </i>
    <i name="e_0_energy">    -92.23875247 </i>
   </energy>
  </scstep>
  <scstep>
   <time name="dav">   15.14   15.28</time>
   <time name="total">   15.49   15.62</time>
   <energy>
    <i name="e_fr_energy">    -90.58890520 </i>
    <i name="e_wo_entrp">    -90.58576993 </i>
    <i name="e_0_energy">    -90.58733756 </i>
   </energy>
  </scstep>
  <scstep>
   <time name="dav">   11.82   11.93</time>
   <time name="total">   12.17   12.28</time>
   <energy>
    <i name="e_fr_energy">    -90.60134237 </i>
    <i name="e_wo_entrp">    -90.59816469 </i>
    <i name="e_0_energy">    -90.59975353 </i>
   </energy>
  </scstep>
  <scstep>
   <time name="dav">   14.27   14.39</time>
   <time name="total">   14.61   14.74</time>
   <energy>
    <i name="e_fr_energy">    -90.61551201 </i>
    <i name="e_wo_entrp">    -90.61224812 </i>
    <i name="e_0_energy">    -90.61388006 </i>
   </energy>
  </scstep>
  <scstep>
   <time name="dav">   12.16   12.28</time>
   <time name="total">   12.50   12.63</time>
   <energy>
    <i name="e_fr_energy">    -90.61956725 </i>
    <i name="e_wo_entrp">    -90.61634939 </i>
    <i name="e_0_energy">    -90.61795832 </i>
   </energy>
  </scstep>
  <scstep>
   <time name="dav">   13.40   13.52</time>
   <time name="total">   13.75   13.87</time>
   <energy>
    <i name="e_fr_energy">    -90.62063899 </i>
    <i name="e_wo_entrp">    -90.61743195 </i>
    <i name="e_0_energy">    -90.61903547 </i>
   </energy>
  </scstep>
  <scstep>
   <time name="dav">   12.83   12.95</time>
   <time name="total">   13.18   13.30</time>
   <energy>
    <i name="e_fr_energy">    -90.62075464 </i>
    <i name="e_wo_entrp">    -90.61754141 </i>
    <i name="e_0_energy">    -90.61914802 </i>
   </energy>
  </scstep>
  <scstep>
   <time name="dav">   14.30   14.43</time>
   <time name="total">   14.65   14.77</time>
   <energy>
    <i name="e_fr_energy">    -90.62075952 </i>
    <i name="e_wo_entrp">    -90.61754599 </i>
    <i name="e_0_energy">    -90.61915275 </i>
   </energy>
  </scstep>
  <scstep>
   <time name="dav">   12.82   12.94</time>
   <time name="total">   12.85   12.97</time>
   <energy>
    <i name="alphaZ">     94.24357992 </i>
    <i name="ewald">   -795.76658092 </i>
    <i name="hartreedc">   -349.12284424 </i>
    <i name="XCdc">    101.59758883 </i>
    <i name="pawpsdc">   3724.96040628 </i>
    <i name="pawaedc">  -3714.14592339 </i>
    <i name="eentropy">     -0.00321364 </i>
    <i name="bandstr">   -148.76544454 </i>
    <i name="atom">    996.38167149 </i>
    <i name="e_fr_energy">    -90.62076021 </i>
    <i name="e_wo_entrp">    -90.61754657 </i>
    <i name="e_0_energy">    -90.61915339 </i>
   </energy>
  </scstep>
  <structure>
   <crystal>
    <varray name="basis" >
     <v>       5.69700000       0.00000000       0.00000000 </v>
     <v>       0.00000000       4.04790000       0.00000000 </v>
     <v>       0.00000000       0.00000000       6.20420000 </v>
    </varray>
    <i name="volume">    143.07435078 </i>
    <varray name="rec_basis" >
     <v>       0.17553098       0.00000000       0.00000000 </v>
     <v>       0.00000000       0.24704168       0.00000000 </v>
     <v>       0.00000000       0.00000000       0.16118114 </v>
    </varray>
   </crystal>
   <varray name="positions" >
    <v>       0.52123000       0.50000000       0.63796000 </v>
    <v>       0.47877000       0.50000000       0.36204000 </v>
    <v>       0.97877000       0.50000000       0.63796000 </v>
    <v>       0.02123000       0.50000000       0.36204000 </v>
    <v>       0.60090000       0.50000000       0.89991000 </v>
    <v>       0.39910000       0.50000000       0.10009000 </v>
    <v>       0.89910000       0.50000000       0.89991000 </v>
    <v>       0.10090000       0.50000000       0.10009000 </v>
    <v>       0.75000000       0.79171000       0.72973000 </v>
    <v>       0.25000000       0.20829000       0.27027000 </v>
    <v>       0.75000000       0.20829000       0.72973000 </v>
    <v>       0.25000000       0.79171000       0.27027000 </v>
    <v>       0.25000000       0.50000000       0.52367000 </v>
    <v>       0.75000000       0.50000000       0.47633000 </v>
   </varray>
  </structure>
  <varray name="forces" >
   <v>      -0.00232119      -0.00000000       0.05113859 </v>
   <v>       0.00232119      -0.00000000      -0.05113859 </v>
   <v>       0.00232119      -0.00000000       0.05113859 </v>
   <v>      -0.00232119      -0.00000000      -0.05113859 </v>
   <v>      -0.83172646       0.00000000       0.27617581 </v>
   <v>       0.83172646       0.00000000      -0.27617581 </v>
   <v>       0.83172646      -0.00000000       0.27617581 </v>
   <v>      -0.83172646       0.00000000      -0.27617581 </v>
   <v>       0.00000000       0.05941562      -0.07890768 </v>
   <v>       0.00000000      -0.05941562       0.07890768 </v>
   <v>       0.00000000      -0.05941562      -0.07890768 </v>
   <v>       0.00000000       0.05941562       0.07890768 </v>
   <v>       0.00000000      -0.00000000       0.06929642 </v>
   <v>       0.00000000       0.00000000      -0.06929642 </v>
  </varray>
  <varray name="stress" >
   <v>      14.68198685       0.00000000       0.00000000 </v>
   <v>       0.00000000       1.36805906       0.00000000 </v>
   <v>      -0.00000000       0.00000000      -6.47002032 </v>
  </varray>
  <energy>
   <i name="e_fr_energy">    -90.62076021 </i>
   <i name="e_wo_entrp">    -90.61754657 </i>
   <i name="e_0_energy">    -90.61915339 </i>
  </energy>
  <time name="totalsc">  201.75  203.64</time>
  <eigenvalues>
   <array>
    <dimension dim="1">band</dimension>
    <dimension dim="2">kpoint</dimension>
    <dimension dim="3">spin</dimension>
    <field>eigene</field>
    <field>occ</field>
    <set>
     <set comment="spin 1">
      <set comment="kpoint 1">
       <r>  -12.7248    1.0000 </r>
       <r>  -11.5829    1.0000 </r>
       <r>   -8.6580    1.0000 </r>
       <r>   -8.4213    1.0000 </r>
       <r>   -6.0638    1.0000 </r>
       <r>   -5.1301    1.0000 </r>
       <r>   -4.6659    1.0000 </r>
       <r>   -4.2751    1.0000 </r>
       <r>   -4.0330    1.0000 </r>
       <r>   -3.5440    1.0000 </r>
       <r>   -2.5937    1.0000 </r>
       <r>   -2.3247    1.0000 </r>
       <r>   -1.8337    1.0000 </r>
       <r>   -1.0961    1.0000 </r>
       <r>   -0.0700    1.0000 </r>
       <r>   -0.0398    1.0000 </r>
       <r>    0.1561    1.0000 </r>
       <r>    0.1776    1.0000 </r>
       <r>    0.5654    1.0000 </r>
       <r>    2.0185    0.0001 </r>
       <r>    2.0815    0.0000 </r>
       <r>    2.2167    0.0000 </r>
       <r>    5.4573    0.0000 </r>
       <r>    5.7485    0.0000 </r>
       <r>    5.8376    0.0000 </r>
       <r>    5.9586    0.0000 </r>
       <r>    6.8138    0.0000 </r>
       <r>    7.5478    0.0000 </r>
       <r>    7.8771    0.0000 </r>
       <r>    8.5348    0.0000 </r>
       <r>    8.8013    0.0000 </r>
       <r>    8.9489    0.0000 </r>
       <r>    9.0511    0.0000 </r>
       <r>   10.1227    0.0000 </r>
       <r>   11.1835    0.0000 </r>
       <r>   11.3336    0.0000 </r>
       <r>   11.6638    0.0000 </r>
       <r>   11.7807    0.0000 </r>
       <r>   11.9400    0.0000 </r>
       <r>   12.4025    0.0000 </r>
       <r>   12.8675    0.0000 </r>
       <r>   13.4512    0.0000 </r>
       <r>   13.4783    0.0000 </r>
       <r>   15.3803    0.0000 </r>
       <r>   15.5699    0.0000 </r>
       <r>   16.0604    0.0000 </r>
       <r>   16.3318    0.0000 </r>
       <r>   16.3547    0.0000 </r>
      </set>
      <set comment="kpoint 2">
       <r>  -12.6811    1.0000 </r>
       <r>  -11.6566    1.0000 </r>
       <r>   -8.6369    1.0000 </r>
       <r>   -8.4098    1.0000 </r>
       <r>   -5.9956    1.0000 </r>
       <r>   -5.4712    1.0000 </r>
       <r>   -4.7884    1.0000 </r>
       <r>   -4.0097    1.0000 </r>
       <r>   -3.7921    1.0000 </r>
       <r>   -3.2064    1.0000 </r>
       <r>   -2.6640    1.0000 </r>
       <r>   -2.3046    1.0000 </r>
       <r>   -1.9123    1.0000 </r>
       <r>   -1.4031    1.0000 </r>
       <r>   -0.0297    1.0000 </r>
       <r>   -0.0185    1.0000 </r>
       <r>    0.0936    1.0000 </r>
       <r>    0.1979    1.0000 </r>
       <r>    0.4704    1.0000 </r>
       <r>    1.9322    0.0842 </r>
       <r>    2.0036    0.0003 </r>
       <r>    2.0955    0.0000 </r>
       <r>    5.5461    0.0000 </r>
       <r>    5.7570    0.0000 </r>
       <r>    5.8654    0.0000 </r>
       <r>    6.3042    0.0000 </r>
       <r>    6.7283    0.0000 </r>
       <r>    7.1861    0.0000 </r>
       <r>    8.0870    0.0000 </r>
       <r>    8.6711    0.0000 </r>
       <r>    9.0583    0.0000 </r>
       <r>    9.1305    0.0000 </r>
       <r>    9.2033    0.0000 </r>
       <r>   10.2354    0.0000 </r>
       <r>   10.9412    0.0000 </r>
       <r>   11.1296    0.0000 </r>
       <r>   11.2565    0.0000 </r>
       <r>   11.6979    0.0000 </r>
       <r>   12.1572    0.0000 </r>
       <r>   12.4919    0.0000 </r>
       <r>   13.1200    0.0000 </r>
       <r>   13.1266    0.0000 </r>
       <r>   14.0100    0.0000 </r>
       <r>   14.8686    0.0000 </r>
       <r>   15.7493    0.0000 </r>
       <r>   15.8282    0.0000 </r>
       <r>   16.2254    0.0000 </r>
       <r>   16.5120    0.0000 </r>
      </set>
      <set comment="kpoint 3">
       <r>  -12.5954    1.0000 </r>
       <r>  -11.7896    1.0000 </r>
       <r>   -8.5934    1.0000 </r>
       <r>   -8.3951    1.0000 </r>
       <r>   -5.9740    1.0000 </r>
       <r>   -5.7978    1.0000 </r>
       <r>   -4.7425    1.0000 </r>
       <r>   -3.8822    1.0000 </r>
       <r>   -3.2812    1.0000 </r>
       <r>   -2.8328    1.0000 </r>
       <r>   -2.7141    1.0000 </r>
       <r>   -2.2641    1.0000 </r>
       <r>   -2.0230    1.0000 </r>
       <r>   -1.9074    1.0000 </r>
       <r>   -0.2194    1.0000 </r>
       <r>    0.0139    1.0000 </r>
       <r>    0.1435    1.0000 </r>
       <r>    0.1569    1.0000 </r>
       <r>    0.4402    1.0000 </r>
       <r>    1.7846    0.9974 </r>
       <r>    1.8659    0.6917 </r>
       <r>    1.8708    0.6406 </r>
       <r>    5.6669    0.0000 </r>
       <r>    5.7135    0.0000 </r>
       <r>    6.1745    0.0000 </r>
       <r>    6.6023    0.0000 </r>
       <r>    6.7627    0.0000 </r>
       <r>    6.9315    0.0000 </r>
       <r>    8.2379    0.0000 </r>
       <r>    8.8195    0.0000 </r>
       <r>    8.9996    0.0000 </r>
       <r>    9.5746    0.0000 </r>
       <r>    9.6472    0.0000 </r>
       <r>   10.2800    0.0000 </r>
       <r>   10.4852    0.0000 </r>
       <r>   10.6250    0.0000 </r>
       <r>   11.3767    0.0000 </r>
       <r>   11.8401    0.0000 </r>
       <r>   12.3921    0.0000 </r>
       <r>   12.5649    0.0000 </r>
       <r>   12.7923    0.0000 </r>
       <r>   12.9172    0.0000 </r>
       <r>   14.6358    0.0000 </r>
       <r>   14.9173    0.0000 </r>
       <r>   15.2249    0.0000 </r>
       <r>   15.9822    0.0000 </r>
       <r>   16.0011    0.0000 </r>
       <r>   16.2898    0.0000 </r>
      </set>
      <set comment="kpoint 4">
       <r>  -12.4719    1.0000 </r>
       <r>  -11.9590    1.0000 </r>
       <r>   -8.5316    1.0000 </r>
       <r>   -8.3919    1.0000 </r>
       <r>   -6.0548    1.0000 </r>
       <r>   -6.0309    1.0000 </r>
       <r>   -4.4151    1.0000 </r>
       <r>   -3.7132    1.0000 </r>
       <r>   -3.0268    1.0000 </r>
       <r>   -2.8967    1.0000 </r>
       <r>   -2.4441    1.0000 </r>
       <r>   -2.2528    1.0000 </r>
       <r>   -2.1457    1.0000 </r>
       <r>   -2.1241    1.0000 </r>
       <r>   -0.5185    1.0000 </r>
       <r>   -0.2453    1.0000 </r>
       <r>    0.1726    1.0000 </r>
       <r>    0.2480    1.0000 </r>
       <r>    0.6133    1.0000 </r>
       <r>    1.5301    1.0000 </r>
       <r>    1.6619    1.0000 </r>
       <r>    1.7225    1.0000 </r>
       <r>    5.6982    0.0000 </r>
       <r>    5.7522    0.0000 </r>
       <r>    6.5010    0.0000 </r>
       <r>    6.6726    0.0000 </r>
       <r>    6.6985    0.0000 </r>
       <r>    7.4125    0.0000 </r>
       <r>    8.3623    0.0000 </r>
       <r>    8.6884    0.0000 </r>
       <r>    8.8088    0.0000 </r>
       <r>    9.5343    0.0000 </r>
       <r>   10.0553    0.0000 </r>
       <r>   10.1177    0.0000 </r>
       <r>   10.3978    0.0000 </r>
       <r>   11.1483    0.0000 </r>
       <r>   11.4040    0.0000 </r>
       <r>   11.9452    0.0000 </r>
       <r>   12.2036    0.0000 </r>
       <r>   12.2746    0.0000 </r>
       <r>   12.5206    0.0000 </r>
       <r>   13.2567    0.0000 </r>
       <r>   14.7125    0.0000 </r>
       <r>   14.9763    0.0000 </r>
       <r>   15.2624    0.0000 </r>
       <r>   15.3740    0.0000 </r>
       <r>   15.5722    0.0000 </r>
       <r>   16.3766    0.0000 </r>
      </set>
      <set comment="kpoint 5">
       <r>  -12.3172    1.0000 </r>
       <r>  -12.1413    1.0000 </r>
       <r>   -8.4655    1.0000 </r>
       <r>   -8.4145    1.0000 </r>
       <r>   -6.1445    1.0000 </r>
       <r>   -6.1401    1.0000 </r>
       <r>   -3.8997    1.0000 </r>
       <r>   -3.5040    1.0000 </r>
       <r>   -3.3004    1.0000 </r>
       <r>   -3.2659    1.0000 </r>
       <r>   -2.3617    1.0000 </r>
       <r>   -2.2332    1.0000 </r>
       <r>   -1.9615    1.0000 </r>
       <r>   -1.9085    1.0000 </r>
       <r>   -0.7390    1.0000 </r>
       <r>   -0.6035    1.0000 </r>
       <r>    0.2558    1.0000 </r>
       <r>    0.2894    1.0000 </r>
       <r>    0.8740    1.0000 </r>
       <r>    1.1914    1.0000 </r>
       <r>    1.5813    1.0000 </r>
       <r>    1.6087    1.0000 </r>
       <r>    5.7262    0.0000 </r>
       <r>    5.7636    0.0000 </r>
       <r>    6.4795    0.0000 </r>
       <r>    6.5435    0.0000 </r>
       <r>    7.3676    0.0000 </r>
       <r>    8.0734    0.0000 </r>
       <r>    8.0951    0.0000 </r>
       <r>    8.4801    0.0000 </r>
       <r>    8.6188    0.0000 </r>
       <r>    8.7891    0.0000 </r>
       <r>   10.5008    0.0000 </r>
       <r>   10.5171    0.0000 </r>
       <r>   10.7605    0.0000 </r>
       <r>   11.2185    0.0000 </r>
       <r>   11.4030    0.0000 </r>
       <r>   11.5991    0.0000 </r>
       <r>   11.9329    0.0000 </r>
       <r>   12.4820    0.0000 </r>
       <r>   12.7160    0.0000 </r>
       <r>   13.2521    0.0000 </r>
       <r>   14.5901    0.0000 </r>
       <r>   14.7343    0.0000 </r>
       <r>   14.8687    0.0000 </r>
       <r>   14.9276    0.0000 </r>
       <r>   16.1013    0.0000 </r>
       <r>   16.4459    0.0000 </r>
      </set>
      <set comment="kpoint 6">
       <r>  -12.7008    1.0000 </r>
       <r>  -11.5613    1.0000 </r>
       <r>   -8.6393    1.0000 </r>
       <r>   -8.3982    1.0000 </r>
       <r>   -6.0371    1.0000 </r>
       <r>   -5.0964    1.0000 </r>
       <r>   -4.6438    1.0000 </r>
       <r>   -4.5732    1.0000 </r>
       <r>   -4.1771    1.0000 </r>
       <r>   -3.5211    1.0000 </r>
       <r>   -3.2870    1.0000 </r>
       <r>   -1.7939    1.0000 </r>
       <r>   -1.0916    1.0000 </r>
       <r>   -1.0349    1.0000 </r>
       <r>   -0.3038    1.0000 </r>
       <r>   -0.2758    1.0000 </r>
       <r>    0.1695    1.0000 </r>
       <r>    0.2478    1.0000 </r>
       <r>    0.6438    1.0000 </r>
       <r>    1.7507    0.9999 </r>
       <r>    1.8306    0.9329 </r>
       <r>    2.2689    0.0000 </r>
       <r>    5.5757    0.0000 </r>
       <r>    5.7073    0.0000 </r>
       <r>    5.7411    0.0000 </r>
       <r>    6.0064    0.0000 </r>
       <r>    7.0998    0.0000 </r>
       <r>    7.8334    0.0000 </r>
       <r>    8.0765    0.0000 </r>
       <r>    8.1872    0.0000 </r>
       <r>    8.8055    0.0000 </r>
       <r>    9.0984    0.0000 </r>
       <r>    9.1495    0.0000 </r>
       <r>   10.5748    0.0000 </r>
       <r>   11.2651    0.0000 </r>
       <r>   11.3986    0.0000 </r>
       <r>   11.5977    0.0000 </r>
       <r>   11.8835    0.0000 </r>
       <r>   12.0507    0.0000 </r>
       <r>   12.6827    0.0000 </r>
       <r>   12.8677    0.0000 </r>
       <r>   13.1878    0.0000 </r>
       <r>   13.1941    0.0000 </r>
       <r>   15.3301    0.0000 </r>
       <r>   15.3796    0.0000 </r>
       <r>   15.8569    0.0000 </r>
       <r>   15.8678    0.0000 </r>
       <r>   16.2190    0.0000 </r>
      </set>
      <set comment="kpoint 7">
       <r>  -12.6571    1.0000 </r>
       <r>  -11.6349    1.0000 </r>
       <r>   -8.6180    1.0000 </r>
       <r>   -8.3870    1.0000 </r>
       <r>   -5.9671    1.0000 </r>
       <r>   -5.4411    1.0000 </r>
       <r>   -4.7684    1.0000 </r>
       <r>   -4.4904    1.0000 </r>
       <r>   -3.7528    1.0000 </r>
       <r>   -3.3678    1.0000 </r>
       <r>   -3.1683    1.0000 </r>
       <r>   -1.7721    1.0000 </r>
       <r>   -1.3976    1.0000 </r>
       <r>   -1.1541    1.0000 </r>
       <r>   -0.2648    1.0000 </r>
       <r>   -0.1951    1.0000 </r>
       <r>    0.1370    1.0000 </r>
       <r>    0.2194    1.0000 </r>
       <r>    0.5411    1.0000 </r>
       <r>    1.6702    1.0000 </r>
       <r>    1.7542    0.9999 </r>
       <r>    2.1381    0.0000 </r>
       <r>    5.6516    0.0000 </r>
       <r>    5.8059    0.0000 </r>
       <r>    5.9346    0.0000 </r>
       <r>    6.1111    0.0000 </r>
       <r>    7.0164    0.0000 </r>
       <r>    7.5083    0.0000 </r>
       <r>    8.2224    0.0000 </r>
       <r>    8.3578    0.0000 </r>
       <r>    9.1293    0.0000 </r>
       <r>    9.1597    0.0000 </r>
       <r>    9.4153    0.0000 </r>
       <r>   10.4998    0.0000 </r>
       <r>   10.8725    0.0000 </r>
       <r>   11.0822    0.0000 </r>
       <r>   11.4531    0.0000 </r>
       <r>   11.8708    0.0000 </r>
       <r>   12.2704    0.0000 </r>
       <r>   12.7377    0.0000 </r>
       <r>   12.8658    0.0000 </r>
       <r>   13.1507    0.0000 </r>
       <r>   13.7273    0.0000 </r>
       <r>   14.9537    0.0000 </r>
       <r>   15.3972    0.0000 </r>
       <r>   15.7491    0.0000 </r>
       <r>   15.7948    0.0000 </r>
       <r>   16.3992    0.0000 </r>
      </set>
      <set comment="kpoint 8">
       <r>  -12.5717    1.0000 </r>
       <r>  -11.7676    1.0000 </r>
       <r>   -8.5742    1.0000 </r>
       <r>   -8.3730    1.0000 </r>
       <r>   -5.9427    1.0000 </r>
       <r>   -5.7674    1.0000 </r>
       <r>   -4.7259    1.0000 </r>
       <r>   -4.3818    1.0000 </r>
       <r>   -3.4898    1.0000 </r>
       <r>   -3.2269    1.0000 </r>
       <r>   -2.7018    1.0000 </r>
       <r>   -1.9028    1.0000 </r>
       <r>   -1.7278    1.0000 </r>
       <r>   -1.3173    1.0000 </r>
       <r>   -0.2217    1.0000 </r>
       <r>   -0.2177    1.0000 </r>
       <r>    0.0524    1.0000 </r>
       <r>    0.2065    1.0000 </r>
       <r>    0.4648    1.0000 </r>
       <r>    1.5352    1.0000 </r>
       <r>    1.6241    1.0000 </r>
       <r>    1.8898    0.4297 </r>
       <r>    5.8551    0.0000 </r>
       <r>    5.9335    0.0000 </r>
       <r>    6.0113    0.0000 </r>
       <r>    6.5599    0.0000 </r>
       <r>    6.8957    0.0000 </r>
       <r>    7.2804    0.0000 </r>
       <r>    8.4286    0.0000 </r>
       <r>    8.4909    0.0000 </r>
       <r>    9.0998    0.0000 </r>
       <r>    9.6123    0.0000 </r>
       <r>    9.8730    0.0000 </r>
       <r>   10.1238    0.0000 </r>
       <r>   10.3524    0.0000 </r>
       <r>   10.8224    0.0000 </r>
       <r>   11.5188    0.0000 </r>
       <r>   12.1054    0.0000 </r>
       <r>   12.3073    0.0000 </r>
       <r>   12.5542    0.0000 </r>
       <r>   12.9569    0.0000 </r>
       <r>   13.0224    0.0000 </r>
       <r>   14.3044    0.0000 </r>
       <r>   15.0852    0.0000 </r>
       <r>   15.1609    0.0000 </r>
       <r>   15.6446    0.0000 </r>
       <r>   15.7079    0.0000 </r>
       <r>   16.4196    0.0000 </r>
      </set>
      <set comment="kpoint 9">
       <r>  -12.4485    1.0000 </r>
       <r>  -11.9366    1.0000 </r>
       <r>   -8.5122    1.0000 </r>
       <r>   -8.3707    1.0000 </r>
       <r>   -6.0223    1.0000 </r>
       <r>   -5.9996    1.0000 </r>
       <r>   -4.4006    1.0000 </r>
       <r>   -4.2346    1.0000 </r>
       <r>   -3.6614    1.0000 </r>
       <r>   -2.8472    1.0000 </r>
       <r>   -2.3625    1.0000 </r>
       <r>   -2.2186    1.0000 </r>
       <r>   -1.6635    1.0000 </r>
       <r>   -1.4806    1.0000 </r>
       <r>   -0.4799    1.0000 </r>
       <r>   -0.3083    1.0000 </r>
       <r>    0.0844    1.0000 </r>
       <r>    0.1143    1.0000 </r>
       <r>    0.6240    1.0000 </r>
       <r>    1.3956    1.0000 </r>
       <r>    1.4786    1.0000 </r>
       <r>    1.5658    1.0000 </r>
       <r>    5.8732    0.0000 </r>
       <r>    6.0071    0.0000 </r>
       <r>    6.5166    0.0000 </r>
       <r>    6.8061    0.0000 </r>
       <r>    6.8790    0.0000 </r>
       <r>    7.3713    0.0000 </r>
       <r>    8.4171    0.0000 </r>
       <r>    8.5988    0.0000 </r>
       <r>    8.9386    0.0000 </r>
       <r>    9.3697    0.0000 </r>
       <r>   10.0714    0.0000 </r>
       <r>   10.0977    0.0000 </r>
       <r>   10.4405    0.0000 </r>
       <r>   11.2254    0.0000 </r>
       <r>   11.3631    0.0000 </r>
       <r>   11.8406    0.0000 </r>
       <r>   12.2920    0.0000 </r>
       <r>   12.5447    0.0000 </r>
       <r>   12.7207    0.0000 </r>
       <r>   13.4591    0.0000 </r>
       <r>   14.7648    0.0000 </r>
       <r>   14.7723    0.0000 </r>
       <r>   15.1529    0.0000 </r>
       <r>   15.3068    0.0000 </r>
       <r>   15.6510    0.0000 </r>
       <r>   16.3896    0.0000 </r>
      </set>
      <set comment="kpoint 10">
       <r>  -12.2941    1.0000 </r>
       <r>  -12.1186    1.0000 </r>
       <r>   -8.4457    1.0000 </r>
       <r>   -8.3942    1.0000 </r>
       <r>   -6.1124    1.0000 </r>
       <r>   -6.1075    1.0000 </r>
       <r>   -4.0555    1.0000 </r>
       <r>   -3.8924    1.0000 </r>
       <r>   -3.8513    1.0000 </r>
       <r>   -3.2875    1.0000 </r>
       <r>   -2.1084    1.0000 </r>
       <r>   -1.9145    1.0000 </r>
       <r>   -1.5954    1.0000 </r>
       <r>   -1.5927    1.0000 </r>
       <r>   -0.7007    1.0000 </r>
       <r>   -0.5998    1.0000 </r>
       <r>    0.1174    1.0000 </r>
       <r>    0.1486    1.0000 </r>
       <r>    0.8834    1.0000 </r>
       <r>    1.1978    1.0000 </r>
       <r>    1.3420    1.0000 </r>
       <r>    1.3662    1.0000 </r>
       <r>    5.9242    0.0000 </r>
       <r>    5.9900    0.0000 </r>
       <r>    6.7950    0.0000 </r>
       <r>    6.8455    0.0000 </r>
       <r>    7.1842    0.0000 </r>
       <r>    7.8967    0.0000 </r>
       <r>    7.9418    0.0000 </r>
       <r>    8.6243    0.0000 </r>
       <r>    8.6915    0.0000 </r>
       <r>    8.8044    0.0000 </r>
       <r>   10.3195    0.0000 </r>
       <r>   10.5677    0.0000 </r>
       <r>   10.8044    0.0000 </r>
       <r>   10.9089    0.0000 </r>
       <r>   11.5502    0.0000 </r>
       <r>   11.6584    0.0000 </r>
       <r>   12.0120    0.0000 </r>
       <r>   12.6512    0.0000 </r>
       <r>   13.0246    0.0000 </r>
       <r>   13.4835    0.0000 </r>
       <r>   14.5479    0.0000 </r>
       <r>   14.7326    0.0000 </r>
       <r>   14.8295    0.0000 </r>
       <r>   15.0472    0.0000 </r>
       <r>   16.1255    0.0000 </r>
       <r>   16.4200    0.0000 </r>
      </set>
      <set comment="kpoint 11">
       <r>  -12.6564    1.0000 </r>
       <r>  -11.5215    1.0000 </r>
       <r>   -8.6049    1.0000 </r>
       <r>   -8.3555    1.0000 </r>
       <r>   -5.9876    1.0000 </r>
       <r>   -5.1301    1.0000 </r>
       <r>   -5.0055    1.0000 </r>
       <r>   -4.6020    1.0000 </r>
       <r>   -4.1609    1.0000 </r>
       <r>   -3.9091    1.0000 </r>
       <r>   -3.4678    1.0000 </r>
       <r>   -1.2048    1.0000 </r>
       <r>   -1.0822    1.0000 </r>
       <r>   -0.6478    1.0000 </r>
       <r>   -0.5419    1.0000 </r>
       <r>   -0.1764    1.0000 </r>
       <r>    0.1907    1.0000 </r>
       <r>    0.3007    1.0000 </r>
       <r>    0.7222    1.0000 </r>
       <r>    1.3679    1.0000 </r>
       <r>    1.4315    1.0000 </r>
       <r>    2.3070    0.0000 </r>
       <r>    5.2864    0.0000 </r>
       <r>    5.4520    0.0000 </r>
       <r>    6.1222    0.0000 </r>
       <r>    6.1948    0.0000 </r>
       <r>    7.5353    0.0000 </r>
       <r>    7.6243    0.0000 </r>
       <r>    8.3160    0.0000 </r>
       <r>    8.7253    0.0000 </r>
       <r>    8.8814    0.0000 </r>
       <r>    9.2402    0.0000 </r>
       <r>    9.3701    0.0000 </r>
       <r>   10.8801    0.0000 </r>
       <r>   11.3168    0.0000 </r>
       <r>   11.5708    0.0000 </r>
       <r>   11.6997    0.0000 </r>
       <r>   12.0842    0.0000 </r>
       <r>   12.2670    0.0000 </r>
       <r>   12.7445    0.0000 </r>
       <r>   12.7578    0.0000 </r>
       <r>   13.0046    0.0000 </r>
       <r>   13.2228    0.0000 </r>
       <r>   14.6740    0.0000 </r>
       <r>   15.1592    0.0000 </r>
       <r>   15.3412    0.0000 </r>
       <r>   15.4288    0.0000 </r>
       <r>   15.9597    0.0000 </r>
      </set>
      <set comment="kpoint 12">
       <r>  -12.6130    1.0000 </r>
       <r>  -11.5949    1.0000 </r>
       <r>   -8.5833    1.0000 </r>
       <r>   -8.3450    1.0000 </r>
       <r>   -5.9142    1.0000 </r>
       <r>   -5.3930    1.0000 </r>
       <r>   -5.0314    1.0000 </r>
       <r>   -4.7306    1.0000 </r>
       <r>   -3.9753    1.0000 </r>
       <r>   -3.7107    1.0000 </r>
       <r>   -3.1289    1.0000 </r>
       <r>   -1.3894    1.0000 </r>
       <r>   -1.1784    1.0000 </r>
       <r>   -0.7550    1.0000 </r>
       <r>   -0.5039    1.0000 </r>
       <r>   -0.0954    1.0000 </r>
       <r>    0.1713    1.0000 </r>
       <r>    0.2445    1.0000 </r>
       <r>    0.6098    1.0000 </r>
       <r>    1.2887    1.0000 </r>
       <r>    1.3618    1.0000 </r>
       <r>    2.1712    0.0000 </r>
       <r>    5.3667    0.0000 </r>
       <r>    5.7980    0.0000 </r>
       <r>    6.1408    0.0000 </r>
       <r>    6.2367    0.0000 </r>
       <r>    7.4546    0.0000 </r>
       <r>    7.7808    0.0000 </r>
       <r>    8.0483    0.0000 </r>
       <r>    8.8162    0.0000 </r>
       <r>    9.2519    0.0000 </r>
       <r>    9.2851    0.0000 </r>
       <r>    9.6547    0.0000 </r>
       <r>   10.5155    0.0000 </r>
       <r>   10.7778    0.0000 </r>
       <r>   11.2746    0.0000 </r>
       <r>   11.7177    0.0000 </r>
       <r>   12.1965    0.0000 </r>
       <r>   12.4293    0.0000 </r>
       <r>   12.4991    0.0000 </r>
       <r>   13.1607    0.0000 </r>
       <r>   13.2712    0.0000 </r>
       <r>   13.4356    0.0000 </r>
       <r>   14.6841    0.0000 </r>
       <r>   14.8207    0.0000 </r>
       <r>   15.2822    0.0000 </r>
       <r>   15.4926    0.0000 </r>
       <r>   15.9858    0.0000 </r>
      </set>
      <set comment="kpoint 13">
       <r>  -12.5279    1.0000 </r>
       <r>  -11.7271    1.0000 </r>
       <r>   -8.5391    1.0000 </r>
       <r>   -8.3324    1.0000 </r>
       <r>   -5.8844    1.0000 </r>
       <r>   -5.7126    1.0000 </r>
       <r>   -4.9397    1.0000 </r>
       <r>   -4.6948    1.0000 </r>
       <r>   -4.0990    1.0000 </r>
       <r>   -3.1766    1.0000 </r>
       <r>   -2.6579    1.0000 </r>
       <r>   -1.8864    1.0000 </r>
       <r>   -1.1377    1.0000 </r>
       <r>   -0.8938    1.0000 </r>
       <r>   -0.4509    1.0000 </r>
       <r>   -0.0862    1.0000 </r>
       <r>    0.0133    1.0000 </r>
       <r>    0.2564    1.0000 </r>
       <r>    0.4947    1.0000 </r>
       <r>    1.1572    1.0000 </r>
       <r>    1.2435    1.0000 </r>
       <r>    1.9146    0.1898 </r>
       <r>    5.6879    0.0000 </r>
       <r>    6.0958    0.0000 </r>
       <r>    6.2743    0.0000 </r>
       <r>    6.3666    0.0000 </r>
       <r>    7.3522    0.0000 </r>
       <r>    7.8590    0.0000 </r>
       <r>    8.0147    0.0000 </r>
       <r>    8.9448    0.0000 </r>
       <r>    9.2456    0.0000 </r>
       <r>    9.7181    0.0000 </r>
       <r>    9.8505    0.0000 </r>
       <r>   10.1368    0.0000 </r>
       <r>   10.2528    0.0000 </r>
       <r>   11.0613    0.0000 </r>
       <r>   11.5855    0.0000 </r>
       <r>   12.1036    0.0000 </r>
       <r>   12.5078    0.0000 </r>
       <r>   12.7999    0.0000 </r>
       <r>   13.0428    0.0000 </r>
       <r>   13.4452    0.0000 </r>
       <r>   13.9582    0.0000 </r>
       <r>   14.5927    0.0000 </r>
       <r>   14.8704    0.0000 </r>
       <r>   15.3023    0.0000 </r>
       <r>   15.5117    0.0000 </r>
       <r>   16.1966    0.0000 </r>
      </set>
      <set comment="kpoint 14">
       <r>  -12.4051    1.0000 </r>
       <r>  -11.8954    1.0000 </r>
       <r>   -8.4766    1.0000 </r>
       <r>   -8.3318    1.0000 </r>
       <r>   -5.9616    1.0000 </r>
       <r>   -5.9419    1.0000 </r>
       <r>   -4.8038    1.0000 </r>
       <r>   -4.3738    1.0000 </r>
       <r>   -4.2636    1.0000 </r>
       <r>   -2.8085    1.0000 </r>
       <r>   -2.3214    1.0000 </r>
       <r>   -2.1775    1.0000 </r>
       <r>   -1.0811    1.0000 </r>
       <r>   -1.0306    1.0000 </r>
       <r>   -0.4562    1.0000 </r>
       <r>   -0.3722    1.0000 </r>
       <r>    0.0572    1.0000 </r>
       <r>    0.0610    1.0000 </r>
       <r>    0.6417    1.0000 </r>
       <r>    1.0276    1.0000 </r>
       <r>    1.1107    1.0000 </r>
       <r>    1.5797    1.0000 </r>
       <r>    6.1071    0.0000 </r>
       <r>    6.2232    0.0000 </r>
       <r>    6.3981    0.0000 </r>
       <r>    6.8014    0.0000 </r>
       <r>    7.2963    0.0000 </r>
       <r>    7.7803    0.0000 </r>
       <r>    8.0697    0.0000 </r>
       <r>    9.0444    0.0000 </r>
       <r>    9.1028    0.0000 </r>
       <r>    9.1752    0.0000 </r>
       <r>    9.8869    0.0000 </r>
       <r>   10.1856    0.0000 </r>
       <r>   10.7002    0.0000 </r>
       <r>   11.0768    0.0000 </r>
       <r>   11.3245    0.0000 </r>
       <r>   11.9497    0.0000 </r>
       <r>   12.3545    0.0000 </r>
       <r>   12.9843    0.0000 </r>
       <r>   13.0354    0.0000 </r>
       <r>   13.7893    0.0000 </r>
       <r>   14.3792    0.0000 </r>
       <r>   14.3953    0.0000 </r>
       <r>   15.0291    0.0000 </r>
       <r>   15.1223    0.0000 </r>
       <r>   15.6129    0.0000 </r>
       <r>   16.3738    0.0000 </r>
      </set>
      <set comment="kpoint 15">
       <r>  -12.2514    1.0000 </r>
       <r>  -12.0766    1.0000 </r>
       <r>   -8.4095    1.0000 </r>
       <r>   -8.3568    1.0000 </r>
       <r>   -6.0528    1.0000 </r>
       <r>   -6.0469    1.0000 </r>
       <r>   -4.6359    1.0000 </r>
       <r>   -4.4501    1.0000 </r>
       <r>   -3.8612    1.0000 </r>
       <r>   -3.2649    1.0000 </r>
       <r>   -2.0395    1.0000 </r>
       <r>   -1.8739    1.0000 </r>
       <r>   -1.1023    1.0000 </r>
       <r>   -1.0407    1.0000 </r>
       <r>   -0.6297    1.0000 </r>
       <r>   -0.6230    1.0000 </r>
       <r>    0.0075    1.0000 </r>
       <r>    0.0511    1.0000 </r>
       <r>    0.8991    1.0000 </r>
       <r>    0.9654    1.0000 </r>
       <r>    1.0062    1.0000 </r>
       <r>    1.2262    1.0000 </r>
       <r>    6.1987    0.0000 </r>
       <r>    6.3169    0.0000 </r>
       <r>    6.8760    0.0000 </r>
       <r>    7.2156    0.0000 </r>
       <r>    7.2742    0.0000 </r>
       <r>    7.6205    0.0000 </r>
       <r>    7.9274    0.0000 </r>
       <r>    8.4388    0.0000 </r>
       <r>    9.1005    0.0000 </r>
       <r>    9.1327    0.0000 </r>
       <r>   10.0107    0.0000 </r>
       <r>   10.4828    0.0000 </r>
       <r>   10.7067    0.0000 </r>
       <r>   10.9770    0.0000 </r>
       <r>   11.7304    0.0000 </r>
       <r>   11.7486    0.0000 </r>
       <r>   12.1330    0.0000 </r>
       <r>   12.9086    0.0000 </r>
       <r>   13.4144    0.0000 </r>
       <r>   13.7619    0.0000 </r>
       <r>   14.2268    0.0000 </r>
       <r>   14.3815    0.0000 </r>
       <r>   14.9919    0.0000 </r>
       <r>   15.1320    0.0000 </r>
       <r>   15.9892    0.0000 </r>
       <r>   16.2931    0.0000 </r>
      </set>
      <set comment="kpoint 16">
       <r>  -12.5990    1.0000 </r>
       <r>  -11.4702    1.0000 </r>
       <r>   -8.5609    1.0000 </r>
       <r>   -8.3002    1.0000 </r>
       <r>   -5.9233    1.0000 </r>
       <r>   -5.6111    1.0000 </r>
       <r>   -4.9352    1.0000 </r>
       <r>   -4.5457    1.0000 </r>
       <r>   -4.4293    1.0000 </r>
       <r>   -4.1216    1.0000 </r>
       <r>   -3.4058    1.0000 </r>
       <r>   -1.2203    1.0000 </r>
       <r>   -1.0680    1.0000 </r>
       <r>   -1.0025    1.0000 </r>
       <r>   -0.1947    1.0000 </r>
       <r>    0.2190    1.0000 </r>
       <r>    0.3442    1.0000 </r>
       <r>    0.5944    1.0000 </r>
       <r>    0.7860    1.0000 </r>
       <r>    0.9827    1.0000 </r>
       <r>    0.9969    1.0000 </r>
       <r>    2.3413    0.0000 </r>
       <r>    4.9428    0.0000 </r>
       <r>    5.1584    0.0000 </r>
       <r>    6.3552    0.0000 </r>
       <r>    6.5846    0.0000 </r>
       <r>    7.2658    0.0000 </r>
       <r>    7.9664    0.0000 </r>
       <r>    8.6996    0.0000 </r>
       <r>    9.0571    0.0000 </r>
       <r>    9.4631    0.0000 </r>
       <r>    9.5780    0.0000 </r>
       <r>    9.6513    0.0000 </r>
       <r>   10.7415    0.0000 </r>
       <r>   11.2674    0.0000 </r>
       <r>   11.9645    0.0000 </r>
       <r>   12.0160    0.0000 </r>
       <r>   12.2931    0.0000 </r>
       <r>   12.4217    0.0000 </r>
       <r>   12.4462    0.0000 </r>
       <r>   12.5631    0.0000 </r>
       <r>   12.9899    0.0000 </r>
       <r>   13.7916    0.0000 </r>
       <r>   13.8783    0.0000 </r>
       <r>   14.4160    0.0000 </r>
       <r>   15.1007    0.0000 </r>
       <r>   15.4014    0.0000 </r>
       <r>   15.8581    0.0000 </r>
      </set>
      <set comment="kpoint 17">
       <r>  -12.5557    1.0000 </r>
       <r>  -11.5432    1.0000 </r>
       <r>   -8.5390    1.0000 </r>
       <r>   -8.2908    1.0000 </r>
       <r>   -5.8453    1.0000 </r>
       <r>   -5.5764    1.0000 </r>
       <r>   -5.2725    1.0000 </r>
       <r>   -4.6807    1.0000 </r>
       <r>   -4.4948    1.0000 </r>
       <r>   -3.6568    1.0000 </r>
       <r>   -3.0672    1.0000 </r>
       <r>   -1.3833    1.0000 </r>
       <r>   -1.1629    1.0000 </r>
       <r>   -1.0173    1.0000 </r>
       <r>   -0.1960    1.0000 </r>
       <r>    0.2041    1.0000 </r>
       <r>    0.2762    1.0000 </r>
       <r>    0.5738    1.0000 </r>
       <r>    0.6646    1.0000 </r>
       <r>    0.9174    1.0000 </r>
       <r>    0.9554    1.0000 </r>
       <r>    2.2035    0.0000 </r>
       <r>    5.0388    0.0000 </r>
       <r>    5.4900    0.0000 </r>
       <r>    6.3013    0.0000 </r>
       <r>    6.7163    0.0000 </r>
       <r>    7.4013    0.0000 </r>
       <r>    7.9239    0.0000 </r>
       <r>    8.6327    0.0000 </r>
       <r>    9.1732    0.0000 </r>
       <r>    9.4269    0.0000 </r>
       <r>    9.7881    0.0000 </r>
       <r>    9.8954    0.0000 </r>
       <r>   10.3337    0.0000 </r>
       <r>   10.7052    0.0000 </r>
       <r>   11.7038    0.0000 </r>
       <r>   11.8838    0.0000 </r>
       <r>   12.2434    0.0000 </r>
       <r>   12.4767    0.0000 </r>
       <r>   12.6404    0.0000 </r>
       <r>   12.9591    0.0000 </r>
       <r>   13.3894    0.0000 </r>
       <r>   13.7894    0.0000 </r>
       <r>   13.9222    0.0000 </r>
       <r>   14.2527    0.0000 </r>
       <r>   15.0757    0.0000 </r>
       <r>   15.4304    0.0000 </r>
       <r>   15.7292    0.0000 </r>
      </set>
      <set comment="kpoint 18">
       <r>  -12.4711    1.0000 </r>
       <r>  -11.6747    1.0000 </r>
       <r>   -8.4942    1.0000 </r>
       <r>   -8.2799    1.0000 </r>
       <r>   -5.8080    1.0000 </r>
       <r>   -5.6606    1.0000 </r>
       <r>   -5.4208    1.0000 </r>
       <r>   -4.6549    1.0000 </r>
       <r>   -4.6172    1.0000 </r>
       <r>   -3.1173    1.0000 </r>
       <r>   -2.5975    1.0000 </r>
       <r>   -1.8674    1.0000 </r>
       <r>   -1.1022    1.0000 </r>
       <r>   -1.0360    1.0000 </r>
       <r>   -0.2144    1.0000 </r>
       <r>   -0.0503    1.0000 </r>
       <r>    0.3144    1.0000 </r>
       <r>    0.5058    1.0000 </r>
       <r>    0.5221    1.0000 </r>
       <r>    0.8289    1.0000 </r>
       <r>    0.8884    1.0000 </r>
       <r>    1.9432    0.0458 </r>
       <r>    5.3645    0.0000 </r>
       <r>    5.9648    0.0000 </r>
       <r>    6.2740    0.0000 </r>
       <r>    6.8292    0.0000 </r>
       <r>    7.5689    0.0000 </r>
       <r>    7.9441    0.0000 </r>
       <r>    8.5582    0.0000 </r>
       <r>    9.3623    0.0000 </r>
       <r>    9.3928    0.0000 </r>
       <r>    9.5903    0.0000 </r>
       <r>   10.0415    0.0000 </r>
       <r>   10.1104    0.0000 </r>
       <r>   10.5582    0.0000 </r>
       <r>   11.3855    0.0000 </r>
       <r>   11.3959    0.0000 </r>
       <r>   12.2368    0.0000 </r>
       <r>   12.7389    0.0000 </r>
       <r>   12.9545    0.0000 </r>
       <r>   13.1778    0.0000 </r>
       <r>   13.5201    0.0000 </r>
       <r>   13.7630    0.0000 </r>
       <r>   14.0145    0.0000 </r>
       <r>   14.3883    0.0000 </r>
       <r>   15.1672    0.0000 </r>
       <r>   15.3565    0.0000 </r>
       <r>   15.9904    0.0000 </r>
      </set>
      <set comment="kpoint 19">
       <r>  -12.3491    1.0000 </r>
       <r>  -11.8421    1.0000 </r>
       <r>   -8.4311    1.0000 </r>
       <r>   -8.2816    1.0000 </r>
       <r>   -5.8820    1.0000 </r>
       <r>   -5.8692    1.0000 </r>
       <r>   -5.3076    1.0000 </r>
       <r>   -4.7817    1.0000 </r>
       <r>   -4.3381    1.0000 </r>
       <r>   -2.7637    1.0000 </r>
       <r>   -2.2789    1.0000 </r>
       <r>   -2.1218    1.0000 </r>
       <r>   -1.0441    1.0000 </r>
       <r>   -1.0175    1.0000 </r>
       <r>   -0.3744    1.0000 </r>
       <r>   -0.3296    1.0000 </r>
       <r>    0.1512    1.0000 </r>
       <r>    0.3752    1.0000 </r>
       <r>    0.6616    1.0000 </r>
       <r>    0.7730    1.0000 </r>
       <r>    0.8221    1.0000 </r>
       <r>    1.6044    1.0000 </r>
       <r>    5.8919    0.0000 </r>
       <r>    6.3062    0.0000 </r>
       <r>    6.5438    0.0000 </r>
       <r>    6.7813    0.0000 </r>
       <r>    7.5683    0.0000 </r>
       <r>    8.0023    0.0000 </r>
       <r>    8.5122    0.0000 </r>
       <r>    8.9136    0.0000 </r>
       <r>    9.2699    0.0000 </r>
       <r>    9.5809    0.0000 </r>
       <r>    9.9028    0.0000 </r>
       <r>   10.3432    0.0000 </r>
       <r>   10.7928    0.0000 </r>
       <r>   11.0914    0.0000 </r>
       <r>   11.4415    0.0000 </r>
       <r>   12.1661    0.0000 </r>
       <r>   12.4201    0.0000 </r>
       <r>   13.1570    0.0000 </r>
       <r>   13.2784    0.0000 </r>
       <r>   13.6580    0.0000 </r>
       <r>   13.8991    0.0000 </r>
       <r>   14.1498    0.0000 </r>
       <r>   14.7561    0.0000 </r>
       <r>   14.9901    0.0000 </r>
       <r>   15.4324    0.0000 </r>
       <r>   16.3260    0.0000 </r>
      </set>
      <set comment="kpoint 20">
       <r>  -12.1961    1.0000 </r>
       <r>  -12.0224    1.0000 </r>
       <r>   -8.3631    1.0000 </r>
       <r>   -8.3088    1.0000 </r>
       <r>   -5.9753    1.0000 </r>
       <r>   -5.9675    1.0000 </r>
       <r>   -5.1463    1.0000 </r>
       <r>   -4.9646    1.0000 </r>
       <r>   -3.8290    1.0000 </r>
       <r>   -3.2347    1.0000 </r>
       <r>   -1.9826    1.0000 </r>
       <r>   -1.8279    1.0000 </r>
       <r>   -0.9809    1.0000 </r>
       <r>   -0.9216    1.0000 </r>
       <r>   -0.6720    1.0000 </r>
       <r>   -0.6290    1.0000 </r>
       <r>    0.1269    1.0000 </r>
       <r>    0.2274    1.0000 </r>
       <r>    0.7575    1.0000 </r>
       <r>    0.7734    1.0000 </r>
       <r>    0.9249    1.0000 </r>
       <r>    1.2479    1.0000 </r>
       <r>    6.4393    0.0000 </r>
       <r>    6.5530    0.0000 </r>
       <r>    6.6185    0.0000 </r>
       <r>    7.1339    0.0000 </r>
       <r>    7.2043    0.0000 </r>
       <r>    7.6910    0.0000 </r>
       <r>    8.5009    0.0000 </r>
       <r>    8.5651    0.0000 </r>
       <r>    9.4641    0.0000 </r>
       <r>    9.6368    0.0000 </r>
       <r>    9.8428    0.0000 </r>
       <r>   10.1399    0.0000 </r>
       <r>   10.8569    0.0000 </r>
       <r>   11.2314    0.0000 </r>
       <r>   11.8676    0.0000 </r>
       <r>   11.9427    0.0000 </r>
       <r>   12.2546    0.0000 </r>
       <r>   13.1452    0.0000 </r>
       <r>   13.4358    0.0000 </r>
       <r>   13.6216    0.0000 </r>
       <r>   13.8370    0.0000 </r>
       <r>   13.9459    0.0000 </r>
       <r>   15.0983    0.0000 </r>
       <r>   15.1159    0.0000 </r>
       <r>   15.6656    0.0000 </r>
       <r>   15.9676    0.0000 </r>
      </set>
      <set comment="kpoint 21">
       <r>  -12.5388    1.0000 </r>
[...]
       <r>   -2.3161    1.0000 </r>
       <r>   -2.1475    1.0000 </r>
       <r>   -1.9836    1.0000 </r>
       <r>   -1.4916    1.0000 </r>
       <r>   -0.7386    1.0000 </r>
       <r>   -0.2028    1.0000 </r>
       <r>    0.1650    1.0000 </r>
       <r>    0.3843    1.0000 </r>
       <r>    0.5121    1.0000 </r>
       <r>    1.5877    1.0000 </r>
       <r>    1.6150    1.0000 </r>
       <r>    1.8704    0.6455 </r>
       <r>    5.5107    0.0000 </r>
       <r>    6.1453    0.0000 </r>
       <r>    6.6658    0.0000 </r>
       <r>    7.2159    0.0000 </r>
       <r>    7.7799    0.0000 </r>
       <r>    8.2232    0.0000 </r>
       <r>    8.9896    0.0000 </r>
       <r>    9.1487    0.0000 </r>
       <r>    9.7183    0.0000 </r>
       <r>    9.9538    0.0000 </r>
       <r>   10.5844    0.0000 </r>
       <r>   11.0291    0.0000 </r>
       <r>   11.2039    0.0000 </r>
       <r>   11.4756    0.0000 </r>
       <r>   11.5644    0.0000 </r>
       <r>   11.9474    0.0000 </r>
       <r>   12.8350    0.0000 </r>
       <r>   13.1421    0.0000 </r>
       <r>   13.3655    0.0000 </r>
       <r>   13.7455    0.0000 </r>
       <r>   13.8696    0.0000 </r>
       <r>   14.1527    0.0000 </r>
       <r>   14.4738    0.0000 </r>
       <r>   14.9642    0.0000 </r>
       <r>   15.0910    0.0000 </r>
       <r>   15.3916    0.0000 </r>
      </set>
      <set comment="kpoint 175">
       <r>  -12.0208    1.0000 </r>
       <r>  -11.8816    1.0000 </r>
       <r>   -8.5473    1.0000 </r>
       <r>   -8.4350    1.0000 </r>
       <r>   -5.9268    1.0000 </r>
       <r>   -5.8206    1.0000 </r>
       <r>   -4.8923    1.0000 </r>
       <r>   -4.5688    1.0000 </r>
       <r>   -4.4141    1.0000 </r>
       <r>   -3.9760    1.0000 </r>
       <r>   -2.1997    1.0000 </r>
       <r>   -2.1381    1.0000 </r>
       <r>   -2.0584    1.0000 </r>
       <r>   -1.7741    1.0000 </r>
       <r>   -0.2204    1.0000 </r>
       <r>   -0.0069    1.0000 </r>
       <r>    0.3873    1.0000 </r>
       <r>    0.4752    1.0000 </r>
       <r>    0.5470    1.0000 </r>
       <r>    0.8732    1.0000 </r>
       <r>    1.6291    1.0000 </r>
       <r>    1.7287    1.0000 </r>
       <r>    5.8577    0.0000 </r>
       <r>    6.0432    0.0000 </r>
       <r>    6.8680    0.0000 </r>
       <r>    7.4047    0.0000 </r>
       <r>    7.4719    0.0000 </r>
       <r>    7.5745    0.0000 </r>
       <r>    9.3943    0.0000 </r>
       <r>    9.5781    0.0000 </r>
       <r>    9.7868    0.0000 </r>
       <r>    9.9644    0.0000 </r>
       <r>   10.4610    0.0000 </r>
       <r>   10.8109    0.0000 </r>
       <r>   11.2335    0.0000 </r>
       <r>   11.5065    0.0000 </r>
       <r>   11.5168    0.0000 </r>
       <r>   11.6100    0.0000 </r>
       <r>   13.0795    0.0000 </r>
       <r>   13.1855    0.0000 </r>
       <r>   13.7185    0.0000 </r>
       <r>   14.0511    0.0000 </r>
       <r>   14.1853    0.0000 </r>
       <r>   14.2881    0.0000 </r>
       <r>   14.5901    0.0000 </r>
       <r>   14.7342    0.0000 </r>
       <r>   14.8826    0.0000 </r>
       <r>   15.0437    0.0000 </r>
      </set>
     </set>
    </set>
   </array>
  </eigenvalues>
  <separator name="orbital magnetization" >
   <v name="MAGDIPOLOUT">      0.00000000      0.00000000      0.00000000</v>
  </separator>
  <dos>
   <i name="efermi">      1.88355854 </i>
   <total>
    <array>
     <dimension dim="1">gridpoints</dimension>
     <dimension dim="2">spin</dimension>
     <field>energy</field>
     <field>total</field>
     <field>integrated</field>
     <set>
      <set comment="spin 1">
       <r>   -14.1866     0.0000     0.0000 </r>
       <r>   -14.0794     0.0000     0.0000 </r>
       <r>   -13.9722     0.0000     0.0000 </r>
       <r>   -13.8650     0.0000     0.0000 </r>
       <r>   -13.7578     0.0000     0.0000 </r>
       <r>   -13.6506     0.0000     0.0000 </r>
       <r>   -13.5434     0.0000     0.0000 </r>
       <r>   -13.4362     0.0000     0.0000 </r>
       <r>   -13.3290     0.0000     0.0000 </r>
       <r>   -13.2218     0.0000     0.0000 </r>
       <r>   -13.1146     0.0000     0.0000 </r>
       <r>   -13.0074     0.0000     0.0000 </r>
       <r>   -12.9002     0.0000     0.0000 </r>
       <r>   -12.7930     0.0038     0.0004 </r>
       <r>   -12.6858     0.5086     0.0549 </r>
       <r>   -12.5786     2.3905     0.3112 </r>
       <r>   -12.4714     3.5641     0.6933 </r>
       <r>   -12.3642     4.3713     1.1619 </r>
       <r>   -12.2570     3.5390     1.5413 </r>
       <r>   -12.1498     2.7351     1.8345 </r>
       <r>   -12.0426     2.7511     2.1294 </r>
       <r>   -11.9354     2.5049     2.3979 </r>
       <r>   -11.8282     2.7711     2.6950 </r>
       <r>   -11.7210     3.4269     3.0624 </r>
       <r>   -11.6138     3.5354     3.4414 </r>
       <r>   -11.5066     3.1150     3.7753 </r>
       <r>   -11.3994     1.6677     3.9541 </r>
       <r>   -11.2922     0.4211     3.9992 </r>
       <r>   -11.1850     0.0072     4.0000 </r>
       <r>   -11.0778     0.0000     4.0000 </r>
       <r>   -10.9706     0.0000     4.0000 </r>
       <r>   -10.8634     0.0000     4.0000 </r>
       <r>   -10.7562     0.0000     4.0000 </r>
       <r>   -10.6490     0.0000     4.0000 </r>
       <r>   -10.5418     0.0000     4.0000 </r>
       <r>   -10.4346     0.0000     4.0000 </r>
       <r>   -10.3274     0.0000     4.0000 </r>
       <r>   -10.2202     0.0000     4.0000 </r>
       <r>   -10.1130     0.0000     4.0000 </r>
       <r>   -10.0058     0.0000     4.0000 </r>
       <r>    -9.8986     0.0000     4.0000 </r>
       <r>    -9.7914     0.0000     4.0000 </r>
       <r>    -9.6842     0.0000     4.0000 </r>
       <r>    -9.5770     0.0000     4.0000 </r>
       <r>    -9.4698     0.0000     4.0000 </r>
       <r>    -9.3626     0.0000     4.0000 </r>
       <r>    -9.2554     0.0000     4.0000 </r>
       <r>    -9.1482     0.0000     4.0000 </r>
       <r>    -9.0410     0.0000     4.0000 </r>
       <r>    -8.9338     0.0006     4.0001 </r>
       <r>    -8.8266     0.2765     4.0297 </r>
       <r>    -8.7194     2.0916     4.2539 </r>
       <r>    -8.6122     5.3333     4.8257 </r>
       <r>    -8.5050     6.9887     5.5749 </r>
       <r>    -8.3978     6.2967     6.2499 </r>
       <r>    -8.2906     5.3254     6.8208 </r>
       <r>    -8.1833     4.8354     7.3391 </r>
       <r>    -8.0761     3.8717     7.7542 </r>
       <r>    -7.9689     1.6649     7.9327 </r>
       <r>    -7.8617     0.5764     7.9945 </r>
       <r>    -7.7545     0.0517     8.0000 </r>
       <r>    -7.6473     0.0000     8.0000 </r>
       <r>    -7.5401     0.0000     8.0000 </r>
       <r>    -7.4329     0.0000     8.0000 </r>
       <r>    -7.3257     0.0000     8.0000 </r>
       <r>    -7.2185     0.0000     8.0000 </r>
       <r>    -7.1113     0.0000     8.0000 </r>
       <r>    -7.0041     0.0004     8.0000 </r>
       <r>    -6.8969     0.1130     8.0122 </r>
       <r>    -6.7897     0.2577     8.0398 </r>
       <r>    -6.6825     0.4263     8.0855 </r>
       <r>    -6.5753     0.7662     8.1676 </r>
       <r>    -6.4681     0.8510     8.2589 </r>
       <r>    -6.3609     1.4447     8.4137 </r>
       <r>    -6.2537     1.9631     8.6242 </r>
       <r>    -6.1465     3.0571     8.9519 </r>
       <r>    -6.0393     3.7837     9.3575 </r>
       <r>    -5.9321     4.1146     9.7986 </r>
       <r>    -5.8249     4.0450    10.2322 </r>
       <r>    -5.7177     3.8621    10.6463 </r>
       <r>    -5.6105     4.0726    11.0829 </r>
       <r>    -5.5033     4.2203    11.5353 </r>
       <r>    -5.3961     4.5455    12.0226 </r>
       <r>    -5.2889     4.5995    12.5156 </r>
       <r>    -5.1817     4.4910    12.9971 </r>
       <r>    -5.0745     3.8693    13.4119 </r>
       <r>    -4.9673     3.2275    13.7579 </r>
       <r>    -4.8601     2.9527    14.0744 </r>
       <r>    -4.7529     2.3369    14.3249 </r>
       <r>    -4.6457     2.8965    14.6354 </r>
       <r>    -4.5385     3.3692    14.9966 </r>
       <r>    -4.4313     3.4715    15.3688 </r>
       <r>    -4.3241     3.3320    15.7260 </r>
       <r>    -4.2169     2.9544    16.0427 </r>
       <r>    -4.1097     2.9076    16.3544 </r>
       <r>    -4.0025     2.9453    16.6701 </r>
       <r>    -3.8953     2.8605    16.9768 </r>
       <r>    -3.7881     3.1200    17.3112 </r>
       <r>    -3.6809     2.8744    17.6194 </r>
       <r>    -3.5737     2.7054    17.9094 </r>
       <r>    -3.4665     3.0653    18.2380 </r>
       <r>    -3.3593     2.6382    18.5208 </r>
       <r>    -3.2521     2.8617    18.8276 </r>
       <r>    -3.1449     2.7443    19.1218 </r>
       <r>    -3.0377     2.7398    19.4155 </r>
       <r>    -2.9305     3.0456    19.7420 </r>
       <r>    -2.8233     2.9748    20.0609 </r>
       <r>    -2.7161     2.4302    20.3214 </r>
       <r>    -2.6089     2.6572    20.6063 </r>
       <r>    -2.5017     3.0215    20.9302 </r>
       <r>    -2.3945     2.9853    21.2502 </r>
       <r>    -2.2873     3.1926    21.5925 </r>
       <r>    -2.1801     4.0095    22.0223 </r>
       <r>    -2.0729     3.6563    22.4143 </r>
       <r>    -1.9657     3.2741    22.7652 </r>
       <r>    -1.8585     5.1283    23.3150 </r>
       <r>    -1.7513     5.5770    23.9129 </r>
       <r>    -1.6440     5.6046    24.5137 </r>
       <r>    -1.5368     6.1839    25.1766 </r>
       <r>    -1.4296     6.1107    25.8317 </r>
       <r>    -1.3224     5.5678    26.4286 </r>
       <r>    -1.2152     4.6829    26.9306 </r>
       <r>    -1.1080     6.4980    27.6272 </r>
       <r>    -1.0008     3.9770    28.0535 </r>
       <r>    -0.8936     2.2704    28.2969 </r>
       <r>    -0.7864     2.6993    28.5863 </r>
       <r>    -0.6792     2.8799    28.8950 </r>
       <r>    -0.5720     4.5233    29.3799 </r>
       <r>    -0.4648     6.8634    30.1157 </r>
       <r>    -0.3576     5.6584    30.7223 </r>
       <r>    -0.2504     6.7055    31.4411 </r>
       <r>    -0.1432     6.3605    32.1230 </r>
       <r>    -0.0360     6.7464    32.8462 </r>
       <r>     0.0712     6.7561    33.5705 </r>
       <r>     0.1784     6.2998    34.2458 </r>
       <r>     0.2856     8.8054    35.1898 </r>
       <r>     0.3928     7.9846    36.0457 </r>
       <r>     0.5000     8.6975    36.9781 </r>
       <r>     0.6072     5.2419    37.5400 </r>
       <r>     0.7144     2.9340    37.8546 </r>
       <r>     0.8216     3.2938    38.2077 </r>
       <r>     0.9288     3.5872    38.5922 </r>
       <r>     1.0360     3.5605    38.9739 </r>
       <r>     1.1432     2.7911    39.2731 </r>
       <r>     1.2504     3.3924    39.6368 </r>
       <r>     1.3576     4.4985    40.1191 </r>
       <r>     1.4648     3.7779    40.5240 </r>
       <r>     1.5720     3.7245    40.9233 </r>
       <r>     1.6792     4.5767    41.4139 </r>
       <r>     1.7864     3.2284    41.7600 </r>
       <r>     1.8936     2.4805    42.0259 </r>
       <r>     2.0008     2.6596    42.3111 </r>
       <r>     2.1080     2.0925    42.5354 </r>
       <r>     2.2152     2.6528    42.8198 </r>
       <r>     2.3224     2.5700    43.0953 </r>
       <r>     2.4296     1.9346    43.3027 </r>
       <r>     2.5368     0.8494    43.3937 </r>
       <r>     2.6440     0.3783    43.4343 </r>
       <r>     2.7512     0.5723    43.4956 </r>
       <r>     2.8584     0.4196    43.5406 </r>
       <r>     2.9656     0.3056    43.5734 </r>
       <r>     3.0728     0.7599    43.6548 </r>
       <r>     3.1800     1.0137    43.7635 </r>
       <r>     3.2872     0.5355    43.8209 </r>
       <r>     3.3944     0.0128    43.8223 </r>
       <r>     3.5016     0.1321    43.8364 </r>
       <r>     3.6088     0.3960    43.8789 </r>
       <r>     3.7160     0.3294    43.9142 </r>
       <r>     3.8232     0.3730    43.9542 </r>
       <r>     3.9304     0.4011    43.9972 </r>
       <r>     4.0376     0.0262    44.0000 </r>
       <r>     4.1448     0.0000    44.0000 </r>
       <r>     4.2520     0.0312    44.0033 </r>
       <r>     4.3592     0.1761    44.0222 </r>
       <r>     4.4664     0.4024    44.0654 </r>
       <r>     4.5736     0.4708    44.1158 </r>
       <r>     4.6808     0.6338    44.1838 </r>
       <r>     4.7880     0.8889    44.2791 </r>
       <r>     4.8953     0.8413    44.3693 </r>
       <r>     5.0025     0.8574    44.4612 </r>
       <r>     5.1097     1.2770    44.5981 </r>
       <r>     5.2169     1.1526    44.7216 </r>
       <r>     5.3241     1.6330    44.8967 </r>
       <r>     5.4313     2.1912    45.1316 </r>
       <r>     5.5385     2.4872    45.3982 </r>
       <r>     5.6457     2.7890    45.6972 </r>
       <r>     5.7529     3.3681    46.0583 </r>
       <r>     5.8601     3.2187    46.4033 </r>
       <r>     5.9673     4.3137    46.8657 </r>
       <r>     6.0745     4.7583    47.3758 </r>
       <r>     6.1817     4.0456    47.8095 </r>
       <r>     6.2889     4.6235    48.3052 </r>
       <r>     6.3961     4.1526    48.7503 </r>
       <r>     6.5033     4.0183    49.1811 </r>
       <r>     6.6105     4.4794    49.6613 </r>
       <r>     6.7177     3.2272    50.0073 </r>
       <r>     6.8249     3.9981    50.4359 </r>
       <r>     6.9321     4.6135    50.9305 </r>
       <r>     7.0393     4.5506    51.4183 </r>
       <r>     7.1465     4.3413    51.8837 </r>
       <r>     7.2537     5.6006    52.4841 </r>
       <r>     7.3609     4.9220    53.0117 </r>
       <r>     7.4681     4.4539    53.4892 </r>
       <r>     7.5753     4.1904    53.9384 </r>
       <r>     7.6825     3.5666    54.3207 </r>
       <r>     7.7897     3.1246    54.6557 </r>
       <r>     7.8969     3.0095    54.9783 </r>
       <r>     8.0041     2.9786    55.2977 </r>
       <r>     8.1113     4.1688    55.7446 </r>
       <r>     8.2185     3.8871    56.1613 </r>
       <r>     8.3257     3.6905    56.5569 </r>
       <r>     8.4329     3.9913    56.9848 </r>
       <r>     8.5401     4.2155    57.4367 </r>
       <r>     8.6473     4.4593    57.9147 </r>
       <r>     8.7545     4.2216    58.3673 </r>
       <r>     8.8617     5.2669    58.9319 </r>
       <r>     8.9689     4.9404    59.4615 </r>
       <r>     9.0761     5.2919    60.0288 </r>
       <r>     9.1833     5.2368    60.5902 </r>
       <r>     9.2905     4.9709    61.1231 </r>
       <r>     9.3977     4.6888    61.6257 </r>
       <r>     9.5049     4.3706    62.0943 </r>
       <r>     9.6121     5.1054    62.6416 </r>
       <r>     9.7193     5.0265    63.1804 </r>
       <r>     9.8265     5.2995    63.7486 </r>
       <r>     9.9337     4.4795    64.2288 </r>
       <r>    10.0409     3.6365    64.6186 </r>
       <r>    10.1481     5.1776    65.1737 </r>
       <r>    10.2553     4.7133    65.6789 </r>
       <r>    10.3625     4.1186    66.1204 </r>
       <r>    10.4697     5.4172    66.7012 </r>
       <r>    10.5769     5.8084    67.3238 </r>
       <r>    10.6841     4.0659    67.7597 </r>
       <r>    10.7913     3.8844    68.1761 </r>
       <r>    10.8985     3.2364    68.5231 </r>
       <r>    11.0057     4.6676    69.0234 </r>
       <r>    11.1129     5.4824    69.6112 </r>
       <r>    11.2201     6.1894    70.2747 </r>
       <r>    11.3274     5.9938    70.9172 </r>
       <r>    11.4346     5.2844    71.4837 </r>
       <r>    11.5418     4.3025    71.9449 </r>
       <r>    11.6490     4.4733    72.4245 </r>
       <r>    11.7562     4.9330    72.9533 </r>
       <r>    11.8634     4.8048    73.4684 </r>
       <r>    11.9706     6.0347    74.1153 </r>
       <r>    12.0778     5.9603    74.7543 </r>
       <r>    12.1850     5.9923    75.3967 </r>
       <r>    12.2922     5.6163    75.9987 </r>
       <r>    12.3994     5.0077    76.5356 </r>
       <r>    12.5066     5.6877    77.1453 </r>
       <r>    12.6138     5.9883    77.7873 </r>
       <r>    12.7210     6.0204    78.4327 </r>
       <r>    12.8282     5.8897    79.0641 </r>
       <r>    12.9354     5.8645    79.6927 </r>
       <r>    13.0426     5.5949    80.2925 </r>
       <r>    13.1498     6.3473    80.9730 </r>
       <r>    13.2570     6.2668    81.6448 </r>
       <r>    13.3642     5.3849    82.2221 </r>
       <r>    13.4714     6.1338    82.8796 </r>
       <r>    13.5786     5.3432    83.4524 </r>
       <r>    13.6858     4.8113    83.9682 </r>
       <r>    13.7930     6.1256    84.6249 </r>
       <r>    13.9002     5.5281    85.2175 </r>
       <r>    14.0074     5.3441    85.7904 </r>
       <r>    14.1146     5.4755    86.3774 </r>
       <r>    14.2218     4.6867    86.8798 </r>
       <r>    14.3290     4.9045    87.4056 </r>
       <r>    14.4362     5.0192    87.9436 </r>
       <r>    14.5434     4.9608    88.4754 </r>
       <r>    14.6506     5.2714    89.0405 </r>
       <r>    14.7578     5.1689    89.5946 </r>
       <r>    14.8650     4.0933    90.0334 </r>
       <r>    14.9722     5.0767    90.5777 </r>
       <r>    15.0794     6.1849    91.2407 </r>
       <r>    15.1866     5.6419    91.8455 </r>
       <r>    15.2938     5.6715    92.4535 </r>
       <r>    15.4010     6.0287    93.0998 </r>
       <r>    15.5082     5.7374    93.7149 </r>
       <r>    15.6154     5.9509    94.3528 </r>
       <r>    15.7226     4.5969    94.8456 </r>
       <r>    15.8298     2.4726    95.1107 </r>
       <r>    15.9370     2.7050    95.4007 </r>
       <r>    16.0442     1.8632    95.6004 </r>
       <r>    16.1514     1.1462    95.7233 </r>
       <r>    16.2586     0.8885    95.8185 </r>
       <r>    16.3658     0.6993    95.8935 </r>
       <r>    16.4730     0.8136    95.9807 </r>
       <r>    16.5802     0.1784    95.9998 </r>
       <r>    16.6874     0.0017    96.0000 </r>
       <r>    16.7946     0.0000    96.0000 </r>
       <r>    16.9018     0.0000    96.0000 </r>
       <r>    17.0090     0.0000    96.0000 </r>
       <r>    17.1162     0.0000    96.0000 </r>
       <r>    17.2234     0.0000    96.0000 </r>
       <r>    17.3306     0.0000    96.0000 </r>
       <r>    17.4378     0.0000    96.0000 </r>
       <r>    17.5450     0.0000    96.0000 </r>
       <r>    17.6522     0.0000    96.0000 </r>
       <r>    17.7594     0.0000    96.0000 </r>
       <r>    17.8667     0.0000    96.0000 </r>
       <r>    17.9739     0.0000    96.0000 </r>
      </set>
     </set>
    </array>
   </total>
  </dos>
 </calculation>
 <structure name="finalpos" >
  <crystal>
   <varray name="basis" >
    <v>       5.69700000       0.00000000       0.00000000 </v>
    <v>       0.00000000       4.04790000       0.00000000 </v>
    <v>       0.00000000       0.00000000       6.20420000 </v>
   </varray>
   <i name="volume">    143.07435078 </i>
   <varray name="rec_basis" >
    <v>       0.17553098       0.00000000       0.00000000 </v>
    <v>       0.00000000       0.24704168       0.00000000 </v>
    <v>       0.00000000       0.00000000       0.16118114 </v>
   </varray>
  </crystal>
  <varray name="positions" >
   <v>       0.52123000       0.50000000       0.63796000 </v>
   <v>       0.47877000       0.50000000       0.36204000 </v>
   <v>       0.97877000       0.50000000       0.63796000 </v>
   <v>       0.02123000       0.50000000       0.36204000 </v>
   <v>       0.60090000       0.50000000       0.89991000 </v>
   <v>       0.39910000       0.50000000       0.10009000 </v>
   <v>       0.89910000       0.50000000       0.89991000 </v>
   <v>       0.10090000       0.50000000       0.10009000 </v>
   <v>       0.75000000       0.79171000       0.72973000 </v>
   <v>       0.25000000       0.20829000       0.27027000 </v>
   <v>       0.75000000       0.20829000       0.72973000 </v>
   <v>       0.25000000       0.79171000       0.27027000 </v>
   <v>       0.25000000       0.50000000       0.52367000 </v>
   <v>       0.75000000       0.50000000       0.47633000 </v>
  </varray>
 </structure>
</modeling>
