  14  14   0   0
  0.1021960E+02  0.5697000E-09  0.4047900E-09  0.6204200E-09  0.5000000E-15
  1.000000000000000E-004
  CAR 
 Kpoints                                 
     18.02610237    -14.19329391  301      1.86347880      1.00000000
    -14.193  0.0000E+00  0.0000E+00
    -14.086  0.0000E+00  0.0000E+00
    -13.978  0.0000E+00  0.0000E+00
    -13.871  0.0000E+00  0.0000E+00
    -13.764  0.0000E+00  0.0000E+00
    -13.656  0.0000E+00  0.0000E+00
    -13.549  0.0000E+00  0.0000E+00
    -13.442  0.0000E+00  0.0000E+00
    -13.334  0.0000E+00  0.0000E+00
    -13.227  0.0000E+00  0.0000E+00
    -13.119  0.0000E+00  0.0000E+00
    -13.012  0.1931E-16  0.2074E-17
    -12.905  0.1644E-07  0.1766E-08
    -12.797  0.2739E-02  0.2942E-03
    -12.690  0.4559E+00  0.4925E-01
    -12.582  0.2321E+01  0.2986E+00
    -12.475  0.3545E+01  0.6793E+00
    -12.368  0.4347E+01  0.1146E+01
    -12.260  0.3539E+01  0.1526E+01
    -12.153  0.2850E+01  0.1832E+01
    -12.045  0.2617E+01  0.2113E+01
    -11.938  0.2587E+01  0.2391E+01
    -11.831  0.2754E+01  0.2687E+01
    -11.723  0.3353E+01  0.3047E+01
    -11.616  0.3629E+01  0.3437E+01
    -11.508  0.3102E+01  0.3770E+01
    -11.401  0.1693E+01  0.3952E+01
    -11.294  0.4404E+00  0.3999E+01
    -11.186  0.8008E-02  0.4000E+01
    -11.079  0.2680E-06  0.4000E+01
    -10.971  0.2097E-14  0.4000E+01
    -10.864  0.0000E+00  0.4000E+01
    -10.757  0.0000E+00  0.4000E+01
    -10.649  0.0000E+00  0.4000E+01
    -10.542  0.0000E+00  0.4000E+01
    -10.434  0.0000E+00  0.4000E+01
    -10.327  0.0000E+00  0.4000E+01
    -10.220  0.0000E+00  0.4000E+01
    -10.112  0.0000E+00  0.4000E+01
    -10.005  0.0000E+00  0.4000E+01
     -9.897  0.0000E+00  0.4000E+01
     -9.790  0.0000E+00  0.4000E+01
     -9.683  0.0000E+00  0.4000E+01
     -9.575  0.0000E+00  0.4000E+01
     -9.468  0.0000E+00  0.4000E+01
     -9.360  0.0000E+00  0.4000E+01
     -9.253  0.0000E+00  0.4000E+01
     -9.146  0.0000E+00  0.4000E+01
     -9.038  0.7722E-09  0.4000E+01
     -8.931  0.6021E-03  0.4000E+01
     -8.823  0.2839E+00  0.4031E+01
     -8.716  0.2121E+01  0.4258E+01
     -8.609  0.5345E+01  0.4832E+01
     -8.501  0.7008E+01  0.5585E+01
     -8.394  0.6266E+01  0.6258E+01
     -8.286  0.5315E+01  0.6829E+01
     -8.179  0.4876E+01  0.7352E+01
     -8.072  0.3779E+01  0.7758E+01
     -7.964  0.1650E+01  0.7935E+01
     -7.857  0.5579E+00  0.7995E+01
     -7.749  0.4445E-01  0.8000E+01
     -7.642  0.2991E-04  0.8000E+01
     -7.535  0.6639E-11  0.8000E+01
     -7.427  0.0000E+00  0.8000E+01
     -7.320  0.0000E+00  0.8000E+01
     -7.212  0.1340E-15  0.8000E+01
     -7.105  0.4495E-07  0.8000E+01
     -6.998  0.2529E-02  0.8000E+01
     -6.890  0.1057E+00  0.8012E+01
     -6.783  0.2779E+00  0.8041E+01
     -6.675  0.4847E+00  0.8094E+01
     -6.568  0.6431E+00  0.8163E+01
     -6.461  0.9866E+00  0.8269E+01
     -6.353  0.1454E+01  0.8425E+01
     -6.246  0.2049E+01  0.8645E+01
     -6.138  0.3119E+01  0.8980E+01
     -6.031  0.3801E+01  0.9388E+01
     -5.924  0.4123E+01  0.9831E+01
     -5.816  0.3910E+01  0.1025E+02
     -5.709  0.4167E+01  0.1070E+02
     -5.601  0.4100E+01  0.1114E+02
     -5.494  0.4053E+01  0.1157E+02
     -5.387  0.4410E+01  0.1205E+02
     -5.279  0.4872E+01  0.1257E+02
     -5.172  0.4282E+01  0.1303E+02
     -5.064  0.3974E+01  0.1346E+02
     -4.957  0.3253E+01  0.1381E+02
     -4.850  0.2613E+01  0.1409E+02
     -4.742  0.2334E+01  0.1434E+02
     -4.635  0.2914E+01  0.1465E+02
     -4.527  0.3667E+01  0.1504E+02
     -4.420  0.3632E+01  0.1543E+02
     -4.313  0.2716E+01  0.1573E+02
     -4.205  0.3266E+01  0.1608E+02
     -4.098  0.2842E+01  0.1638E+02
     -3.990  0.2959E+01  0.1670E+02
     -3.883  0.2827E+01  0.1700E+02
     -3.776  0.3169E+01  0.1734E+02
     -3.668  0.3014E+01  0.1767E+02
     -3.561  0.2632E+01  0.1795E+02
     -3.453  0.2700E+01  0.1824E+02
     -3.346  0.2863E+01  0.1855E+02
     -3.239  0.2969E+01  0.1887E+02
     -3.131  0.2495E+01  0.1913E+02
     -3.024  0.2896E+01  0.1945E+02
     -2.917  0.3194E+01  0.1979E+02
     -2.809  0.2855E+01  0.2010E+02
     -2.702  0.2310E+01  0.2034E+02
     -2.594  0.2633E+01  0.2063E+02
     -2.487  0.3011E+01  0.2095E+02
     -2.380  0.3137E+01  0.2129E+02
     -2.272  0.3843E+01  0.2170E+02
     -2.165  0.3473E+01  0.2207E+02
     -2.057  0.3187E+01  0.2241E+02
     -1.950  0.4231E+01  0.2287E+02
     -1.843  0.4825E+01  0.2339E+02
     -1.735  0.5783E+01  0.2401E+02
     -1.628  0.5268E+01  0.2457E+02
     -1.520  0.6431E+01  0.2526E+02
     -1.413  0.6444E+01  0.2596E+02
     -1.306  0.5177E+01  0.2651E+02
     -1.198  0.5104E+01  0.2706E+02
     -1.091  0.5470E+01  0.2765E+02
     -0.983  0.4033E+01  0.2808E+02
     -0.876  0.2708E+01  0.2837E+02
     -0.769  0.2181E+01  0.2861E+02
     -0.661  0.3222E+01  0.2895E+02
     -0.554  0.5363E+01  0.2953E+02
     -0.446  0.6069E+01  0.3018E+02
     -0.339  0.6296E+01  0.3086E+02
     -0.232  0.5875E+01  0.3149E+02
     -0.124  0.7115E+01  0.3225E+02
     -0.017  0.7132E+01  0.3302E+02
      0.091  0.5962E+01  0.3366E+02
      0.198  0.6966E+01  0.3441E+02
      0.305  0.8251E+01  0.3529E+02
      0.413  0.8595E+01  0.3622E+02
      0.520  0.8528E+01  0.3713E+02
      0.628  0.4488E+01  0.3761E+02
      0.735  0.2839E+01  0.3792E+02
      0.842  0.3176E+01  0.3826E+02
      0.950  0.3394E+01  0.3862E+02
      1.057  0.3638E+01  0.3901E+02
      1.165  0.3378E+01  0.3938E+02
      1.272  0.3764E+01  0.3978E+02
      1.379  0.3929E+01  0.4020E+02
      1.487  0.4139E+01  0.4065E+02
      1.594  0.3344E+01  0.4101E+02
      1.702  0.3578E+01  0.4139E+02
      1.809  0.3937E+01  0.4181E+02
      1.916  0.2978E+01  0.4213E+02
      2.024  0.2264E+01  0.4238E+02
      2.131  0.2373E+01  0.4263E+02
      2.239  0.2424E+01  0.4289E+02
      2.346  0.2198E+01  0.4313E+02
      2.453  0.1572E+01  0.4330E+02
      2.561  0.7356E+00  0.4338E+02
      2.668  0.4292E+00  0.4342E+02
      2.776  0.6737E+00  0.4349E+02
      2.883  0.7707E+00  0.4358E+02
      2.990  0.6945E+00  0.4365E+02
      3.098  0.3874E+00  0.4369E+02
      3.205  0.3094E+00  0.4373E+02
      3.313  0.4254E+00  0.4377E+02
      3.420  0.3981E+00  0.4382E+02
      3.527  0.5254E+00  0.4387E+02
      3.635  0.3571E+00  0.4391E+02
      3.742  0.1458E+00  0.4393E+02
      3.850  0.3031E+00  0.4396E+02
      3.957  0.2973E+00  0.4399E+02
      4.064  0.9237E-01  0.4400E+02
      4.172  0.6744E-03  0.4400E+02
      4.279  0.5749E-01  0.4401E+02
      4.387  0.2477E+00  0.4403E+02
      4.494  0.3729E+00  0.4407E+02
      4.601  0.5236E+00  0.4413E+02
      4.709  0.7451E+00  0.4421E+02
      4.816  0.7926E+00  0.4429E+02
      4.924  0.9473E+00  0.4440E+02
      5.031  0.9024E+00  0.4449E+02
      5.138  0.1217E+01  0.4462E+02
      5.246  0.1330E+01  0.4477E+02
      5.353  0.1748E+01  0.4495E+02
      5.461  0.2190E+01  0.4519E+02
      5.568  0.2530E+01  0.4546E+02
      5.675  0.2956E+01  0.4578E+02
      5.783  0.3504E+01  0.4615E+02
      5.890  0.3530E+01  0.4653E+02
      5.998  0.3968E+01  0.4696E+02
      6.105  0.4962E+01  0.4749E+02
      6.212  0.4379E+01  0.4796E+02
      6.320  0.4107E+01  0.4840E+02
      6.427  0.4197E+01  0.4886E+02
      6.535  0.4413E+01  0.4933E+02
      6.642  0.3894E+01  0.4975E+02
      6.749  0.3683E+01  0.5014E+02
      6.857  0.3671E+01  0.5054E+02
      6.964  0.4808E+01  0.5105E+02
      7.072  0.4724E+01  0.5156E+02
      7.179  0.4900E+01  0.5209E+02
      7.286  0.5200E+01  0.5265E+02
      7.394  0.4684E+01  0.5315E+02
      7.501  0.4250E+01  0.5361E+02
      7.608  0.4129E+01  0.5405E+02
      7.716  0.3448E+01  0.5442E+02
      7.823  0.3200E+01  0.5476E+02
      7.931  0.3104E+01  0.5510E+02
      8.038  0.3112E+01  0.5543E+02
      8.145  0.4029E+01  0.5586E+02
      8.253  0.3728E+01  0.5626E+02
      8.360  0.4036E+01  0.5670E+02
      8.468  0.4154E+01  0.5714E+02
      8.575  0.3930E+01  0.5756E+02
      8.682  0.4233E+01  0.5802E+02
      8.790  0.5263E+01  0.5858E+02
      8.897  0.4704E+01  0.5909E+02
      9.005  0.5220E+01  0.5965E+02
      9.112  0.5213E+01  0.6021E+02
      9.219  0.4813E+01  0.6073E+02
      9.327  0.5213E+01  0.6129E+02
      9.434  0.4860E+01  0.6181E+02
      9.542  0.4379E+01  0.6228E+02
      9.649  0.4774E+01  0.6279E+02
      9.756  0.4997E+01  0.6333E+02
      9.864  0.5405E+01  0.6391E+02
      9.971  0.4886E+01  0.6443E+02
     10.079  0.3620E+01  0.6482E+02
     10.186  0.4578E+01  0.6531E+02
     10.293  0.4284E+01  0.6577E+02
     10.401  0.4996E+01  0.6631E+02
     10.508  0.5709E+01  0.6692E+02
     10.616  0.4908E+01  0.6745E+02
     10.723  0.4150E+01  0.6790E+02
     10.830  0.4112E+01  0.6834E+02
     10.938  0.3605E+01  0.6873E+02
     11.045  0.4616E+01  0.6922E+02
     11.153  0.5508E+01  0.6981E+02
     11.260  0.6175E+01  0.7048E+02
     11.367  0.5691E+01  0.7109E+02
     11.475  0.5142E+01  0.7164E+02
     11.582  0.4722E+01  0.7215E+02
     11.690  0.4610E+01  0.7264E+02
     11.797  0.4626E+01  0.7314E+02
     11.904  0.5360E+01  0.7371E+02
     12.012  0.6147E+01  0.7437E+02
     12.119  0.5820E+01  0.7500E+02
     12.227  0.5463E+01  0.7559E+02
     12.334  0.5482E+01  0.7617E+02
     12.441  0.5444E+01  0.7676E+02
     12.549  0.6023E+01  0.7741E+02
     12.656  0.5933E+01  0.7804E+02
     12.764  0.5791E+01  0.7867E+02
     12.871  0.5691E+01  0.7928E+02
     12.978  0.6285E+01  0.7995E+02
     13.086  0.5876E+01  0.8058E+02
     13.193  0.5972E+01  0.8122E+02
     13.301  0.6412E+01  0.8191E+02
     13.408  0.5421E+01  0.8250E+02
     13.515  0.5368E+01  0.8307E+02
     13.623  0.5236E+01  0.8363E+02
     13.730  0.5671E+01  0.8424E+02
     13.838  0.5657E+01  0.8485E+02
     13.945  0.5255E+01  0.8541E+02
     14.052  0.5667E+01  0.8602E+02
     14.160  0.5526E+01  0.8662E+02
     14.267  0.4698E+01  0.8712E+02
     14.375  0.4633E+01  0.8762E+02
     14.482  0.4782E+01  0.8813E+02
     14.589  0.5742E+01  0.8875E+02
     14.697  0.5036E+01  0.8929E+02
     14.804  0.4325E+01  0.8975E+02
     14.912  0.4441E+01  0.9023E+02
     15.019  0.5453E+01  0.9082E+02
     15.126  0.6450E+01  0.9151E+02
     15.234  0.5522E+01  0.9210E+02
     15.341  0.5899E+01  0.9274E+02
     15.449  0.5892E+01  0.9337E+02
     15.556  0.6065E+01  0.9402E+02
     15.663  0.5038E+01  0.9456E+02
     15.771  0.3649E+01  0.9495E+02
     15.878  0.2942E+01  0.9527E+02
     15.986  0.2056E+01  0.9549E+02
     16.093  0.1336E+01  0.9563E+02
     16.200  0.1078E+01  0.9575E+02
     16.308  0.1051E+01  0.9586E+02
     16.415  0.7710E+00  0.9595E+02
     16.523  0.4388E+00  0.9599E+02
     16.630  0.6747E-01  0.9600E+02
     16.737  0.9773E-03  0.9600E+02
     16.845  0.1017E-07  0.9600E+02
     16.952  0.1590E-16  0.9600E+02
     17.060  0.0000E+00  0.9600E+02
     17.167  0.0000E+00  0.9600E+02
     17.274  0.0000E+00  0.9600E+02
     17.382  0.0000E+00  0.9600E+02
     17.489  0.0000E+00  0.9600E+02
     17.597  0.0000E+00  0.9600E+02
     17.704  0.0000E+00  0.9600E+02
     17.811  0.0000E+00  0.9600E+02
     17.919  0.0000E+00  0.9600E+02
     18.026  0.0000E+00  0.9600E+02
