   14   14    1    1
  0.1021960E+02  0.5697000E-09  0.4047900E-09  0.6204200E-09  0.5000000E-15
  1.000000000000000E-004
  CAR 
 Kpoints                                 
     42    490     48
 
  0.3571429E-01  0.2500000E-01  0.0000000E+00  0.1098901E-02
      1        -12.728776   1.000000
      2        -11.579813   1.000000
      3         -8.658429   1.000000
      4         -8.421556   1.000000
      5         -6.068007   1.000000
      6         -5.096183   1.000000
      7         -4.650227   1.000000
      8         -4.304427   1.000000
      9         -4.005727   1.000000
     10         -3.566415   1.000000
     11         -2.484398   1.000000
     12         -2.378234   1.000000
     13         -1.949370   1.000000
     14         -1.070584   1.000000
     15         -0.053121   1.000000
     16         -0.021811   1.000000
     17          0.157446   1.000000
     18          0.178474   1.000000
     19          0.568328   1.000000
     20          2.048269   0.000000
     21          2.103512   0.000000
     22          2.221468   0.000000
     23          5.434781   0.000000
     24          5.770937   0.000000
     25          5.832730   0.000000
     26          5.941453   0.000000
     27          6.799614   0.000000
     28          7.579860   0.000000
     29          7.818481   0.000000
     30          8.579852   0.000000
     31          8.781434   0.000000
     32          8.908961   0.000000
     33          9.047819   0.000000
     34         10.077147   0.000000
     35         11.165487   0.000000
     36         11.368104   0.000000
     37         11.716396   0.000000
     38         11.793386   0.000000
     39         11.923116   0.000000
     40         12.378071   0.000000
     41         12.841504   0.000000
     42         13.425561   0.000000
     43         13.524701   0.000000
     44         15.454945   0.000000
     45         15.571702   0.000000
     46         16.020407   0.000000
     47         16.355904   0.000000
     48         16.414982   0.000000
 
  0.1071429E+00  0.2500000E-01  0.0000000E+00  0.1098901E-02
      1        -12.706364   1.000000
      2        -11.618265   1.000000
      3         -8.647818   1.000000
      4         -8.415232   1.000000
      5         -6.026478   1.000000
      6         -5.316847   1.000000
      7         -4.737870   1.000000
      8         -4.050782   1.000000
      9         -3.953532   1.000000
     10         -3.373808   1.000000
     11         -2.519953   1.000000
     12         -2.368209   1.000000
     13         -1.991921   1.000000
     14         -1.234188   1.000000
     15         -0.031389   1.000000
     16          0.006421   1.000000
     17          0.118559   1.000000
     18          0.181960   1.000000
     19          0.517428   1.000000
     20          2.002371   0.000043
     21          2.062478   0.000000
     22          2.160114   0.000000
     23          5.483191   0.000000
     24          5.767071   0.000000
     25          5.822864   0.000000
     26          6.150788   0.000000
     27          6.753207   0.000000
     28          7.313801   0.000000
     29          7.990825   0.000000
     30          8.653737   0.000000
     31          8.967714   0.000000
     32          9.039996   0.000000
     33          9.056572   0.000000
     34         10.139739   0.000000
     35         11.157309   0.000000
     36         11.203366   0.000000
     37         11.395663   0.000000
     38         11.711675   0.000000
     39         12.040439   0.000000
     40         12.422274   0.000000
     41         13.033829   0.000000
     42         13.328241   0.000000
     43         13.761214   0.000000
     44         15.057601   0.000000
     45         15.685125   0.000000
     46         16.051077   0.000000
     47         16.221821   0.000000
     48         16.430873   0.000000
 
  0.1785714E+00  0.2500000E-01  0.0000000E+00  0.1098901E-02
      1        -12.662013   1.000000
      2        -11.691085   1.000000
      3         -8.625875   1.000000
      4         -8.404786   1.000000
      5         -5.977950   1.000000
      6         -5.570935   1.000000
      7         -4.799687   1.000000
      8         -3.928633   1.000000
      9         -3.655111   1.000000
     10         -3.076689   1.000000
     11         -2.595328   1.000000
     12         -2.347583   1.000000
     13         -2.059333   1.000000
     14         -1.528470   1.000000
     15         -0.041028   1.000000
     16          0.008886   1.000000
     17          0.098454   1.000000
     18          0.204950   1.000000
     19          0.437341   1.000000
     20          1.918086   0.061231
     21          1.986746   0.000245
     22          2.038451   0.000000
     23          5.562969   0.000000
     24          5.740523   0.000000
     25          5.940022   0.000000
     26          6.449902   0.000000
     27          6.673469   0.000000
     28          7.070107   0.000000
     29          8.117097   0.000000
     30          8.774578   0.000000
     31          9.041450   0.000000
     32          9.255057   0.000000
     33          9.293873   0.000000
     34         10.277444   0.000000
     35         10.784602   0.000000
     36         10.960709   0.000000
     37         11.278107   0.000000
     38         11.700467   0.000000
     39         12.235124   0.000000
     40         12.526834   0.000000
     41         12.995994   0.000000
     42         13.141800   0.000000
     43         14.228812   0.000000
     44         14.787559   0.000000
     45         15.636240   0.000000
     46         15.868336   0.000000
     47         16.257361   0.000000
     48         16.561584   0.000000
 
  0.2500000E+00  0.2500000E-01  0.0000000E+00  0.1098901E-02
      1        -12.596729   1.000000
      2        -11.791141   1.000000
      3         -8.592476   1.000000
      4         -8.394476   1.000000
      5         -5.973842   1.000000
      6         -5.797221   1.000000
      7         -4.738661   1.000000
      8         -3.834999   1.000000
      9         -3.286833   1.000000
     10         -2.763394   1.000000
     11         -2.686759   1.000000
     12         -2.316247   1.000000
     13         -2.129694   1.000000
     14         -1.902845   1.000000
     15         -0.215348   1.000000
     16          0.041815   1.000000
     17          0.132802   1.000000
     18          0.165536   1.000000
     19          0.444352   1.000000
     20          1.807410   0.943616
     21          1.865615   0.475906
     22          1.887778   0.245950
     23          5.648968   0.000000
     24          5.705192   0.000000
     25          6.189849   0.000000
     26          6.581687   0.000000
     27          6.786548   0.000000
     28          6.899358   0.000000
     29          8.222442   0.000000
     30          8.864553   0.000000
     31          8.987723   0.000000
     32          9.576858   0.000000
     33          9.627392   0.000000
     34         10.295816   0.000000
     35         10.503010   0.000000
     36         10.604957   0.000000
     37         11.368030   0.000000
     38         11.823418   0.000000
     39         12.383914   0.000000
     40         12.585604   0.000000
     41         12.778265   0.000000
     42         12.919692   0.000000
     43         14.683480   0.000000
     44         14.883204   0.000000
     45         15.215185   0.000000
     46         16.021711   0.000000
     47         16.030937   0.000000
     48         16.263409   0.000000
 
  0.3214286E+00  0.2500000E-01  0.0000000E+00  0.1098901E-02
      1        -12.512061   1.000000
      2        -11.909765   1.000000
      3         -8.549562   1.000000
      4         -8.390014   1.000000
      5         -6.026033   1.000000
      6         -5.975207   1.000000
      7         -4.529070   1.000000
      8         -3.716825   1.000000
      9         -2.968694   1.000000
     10         -2.877936   1.000000
     11         -2.385070   1.000000
     12         -2.360375   1.000000
     13         -2.195188   1.000000
     14         -2.188364   1.000000
     15         -0.429093   1.000000
     16         -0.135113   1.000000
     17          0.154699   1.000000
     18          0.234997   1.000000
     19          0.558202   1.000000
     20          1.630630   1.000000
     21          1.716615   0.999984
     22          1.780676   0.990410
     23          5.687983   0.000000
     24          5.717069   0.000000
     25          6.502307   0.000000
     26          6.546449   0.000000
     27          6.702597   0.000000
     28          7.245300   0.000000
     29          8.314331   0.000000
     30          8.799558   0.000000
     31          8.872170   0.000000
     32          9.763440   0.000000
     33          9.916494   0.000000
     34          9.983683   0.000000
     35         10.383482   0.000000
     36         10.946997   0.000000
     37         11.412922   0.000000
     38         12.066011   0.000000
     39         12.141448   0.000000
     40         12.469517   0.000000
     41         12.476638   0.000000
     42         13.123437   0.000000
     43         14.825513   0.000000
     44         14.941628   0.000000
     45         15.292188   0.000000
     46         15.534846   0.000000
     47         15.632707   0.000000
     48         16.310798   0.000000
 
  0.3928571E+00  0.2500000E-01  0.0000000E+00  0.1098901E-02
      1        -12.410258   1.000000
      2        -12.038220   1.000000
      3         -8.501790   1.000000
      4         -8.397162   1.000000
      5         -6.096864   1.000000
      6         -6.094259   1.000000
      7         -4.206405   1.000000
      8         -3.574945   1.000000
      9         -3.053757   1.000000
     10         -2.986074   1.000000
     11         -2.494807   1.000000
     12         -2.264425   1.000000
     13         -2.105767   1.000000
     14         -2.060500   1.000000
     15         -0.637097   1.000000
     16         -0.399523   1.000000
     17          0.221159   1.000000
     18          0.284891   1.000000
     19          0.722466   1.000000
     20          1.392101   1.000000
     21          1.631702   1.000000
     22          1.683289   1.000000
     23          5.694941   0.000000
     24          5.750000   0.000000
     25          6.458160   0.000000
     26          6.588511   0.000000
     27          6.987626   0.000000
     28          7.699287   0.000000
     29          8.398706   0.000000
     30          8.495494   0.000000
     31          8.711267   0.000000
     32          9.224452   0.000000
     33         10.268850   0.000000
     34         10.298655   0.000000
     35         10.523857   0.000000
     36         11.360781   0.000000
     37         11.473638   0.000000
     38         11.691643   0.000000
     39         11.967828   0.000000
     40         12.393593   0.000000
     41         12.535564   0.000000
     42         13.345877   0.000000
     43         14.572650   0.000000
     44         14.956206   0.000000
     45         15.003736   0.000000
     46         15.179156   0.000000
     47         15.774366   0.000000
     48         16.449756   0.000000
 
  0.4642857E+00  0.2500000E-01  0.0000000E+00  0.1098901E-02
      1        -12.294423   1.000000
      2        -12.168643   1.000000
      3         -8.455983   1.000000
      4         -8.419415   1.000000
      5         -6.150176   1.000000
      6         -6.146637   1.000000
      7         -3.813014   1.000000
      8         -3.416643   1.000000
      9         -3.379981   1.000000
     10         -3.236020   1.000000
     11         -2.396492   1.000000
     12         -2.320729   1.000000
     13         -1.943216   1.000000
     14         -1.890914   1.000000
     15         -0.743509   1.000000
     16         -0.641550   1.000000
     17          0.275719   1.000000
     18          0.300078   1.000000
     19          0.922441   1.000000
     20          1.149626   1.000000
     21          1.595654   1.000000
     22          1.615528   1.000000
     23          5.719566   0.000000
     24          5.745408   0.000000
     25          6.461069   0.000000
     26          6.507174   0.000000
     27          7.487034   0.000000
     28          8.009802   0.000000
     29          8.184731   0.000000
     30          8.486831   0.000000
     31          8.587356   0.000000
     32          8.696849   0.000000
     33         10.552175   0.000000
     34         10.561311   0.000000
     35         10.835366   0.000000
     36         11.200334   0.000000
     37         11.351798   0.000000
     38         11.523567   0.000000
     39         12.035937   0.000000
     40         12.429087   0.000000
     41         12.771860   0.000000
     42         13.168999   0.000000
     43         14.608067   0.000000
     44         14.733541   0.000000
     45         14.815236   0.000000
     46         14.883808   0.000000
     47         16.169225   0.000000
     48         16.424670   0.000000
 
  0.3571429E-01  0.7500000E-01  0.0000000E+00  0.1098901E-02
      1        -12.716806   1.000000
      2        -11.569060   1.000000
      3         -8.649046   1.000000
      4         -8.409999   1.000000
      5         -6.054703   1.000000
      6         -5.078549   1.000000
      7         -4.639226   1.000000
      8         -4.396620   1.000000
      9         -4.173014   1.000000
     10         -3.554251   1.000000
     11         -2.985458   1.000000
     12         -2.073683   1.000000
     13         -1.394791   1.000000
     14         -1.068282   1.000000
     15         -0.183311   1.000000
     16         -0.159251   1.000000
     17          0.164920   1.000000
     18          0.228990   1.000000
     19          0.615949   1.000000
     20          1.897110   0.170739
     21          1.973496   0.000930
     22          2.261424   0.000000
     23          5.562145   0.000000
     24          5.677085   0.000000
     25          5.818598   0.000000
     26          5.937648   0.000000
     27          6.948562   0.000000
     28          7.726744   0.000000
     29          7.970715   0.000000
     30          8.284662   0.000000
     31          8.781827   0.000000
     32          9.031897   0.000000
     33          9.082016   0.000000
     34         10.343255   0.000000
     35         11.280527   0.000000
     36         11.328784   0.000000
     37         11.682116   0.000000
     38         11.843107   0.000000
     39         11.975910   0.000000
     40         12.520288   0.000000
     41         12.844816   0.000000
     42         13.278432   0.000000
     43         13.366358   0.000000
     44         15.453330   0.000000
     45         15.462330   0.000000
     46         15.982614   0.000000
     47         16.155465   0.000000
     48         16.282240   0.000000
 
  0.1071429E+00  0.7500000E-01  0.0000000E+00  0.1098901E-02
      1        -12.694419   1.000000
      2        -11.607480   1.000000
      3         -8.638401   1.000000
      4         -8.403770   1.000000
      5         -6.012735   1.000000
      6         -5.301334   1.000000
      7         -4.727353   1.000000
      8         -4.297971   1.000000
      9         -3.964901   1.000000
     10         -3.363439   1.000000
     11         -3.018156   1.000000
     12         -2.062756   1.000000
     13         -1.446213   1.000000
     14         -1.231771   1.000000
     15         -0.162575   1.000000
     16         -0.127102   1.000000
     17          0.172015   1.000000
     18          0.191542   1.000000
     19          0.563681   1.000000
     20          1.853663   0.609353
     21          1.932711   0.025104
     22          2.196413   0.000000
     23          5.613527   0.000000
     24          5.687713   0.000000
     25          5.883857   0.000000
     26          6.054417   0.000000
     27          6.902635   0.000000
     28          7.472042   0.000000
     29          8.130792   0.000000
     30          8.361114   0.000000
     31          8.975975   0.000000
     32          9.084633   0.000000
     33          9.182414   0.000000
     34         10.359995   0.000000
     35         11.118389   0.000000
     36         11.313673   0.000000
     37         11.356941   0.000000
     38         11.775717   0.000000
     39         12.093937   0.000000
     40         12.561925   0.000000
     41         13.041956   0.000000
     42         13.173356   0.000000
     43         13.612094   0.000000
     44         15.097197   0.000000
     45         15.553308   0.000000
     46         15.964100   0.000000
     47         16.027557   0.000000
     48         16.416128   0.000000
 
  0.1785714E+00  0.7500000E-01  0.0000000E+00  0.1098901E-02
      1        -12.650116   1.000000
      2        -11.680225   1.000000
      3         -8.616386   1.000000
      4         -8.393516   1.000000
      5         -5.963310   1.000000
      6         -5.555842   1.000000
      7         -4.790201   1.000000
      8         -4.223678   1.000000
      9         -3.620071   1.000000
     10         -3.124014   1.000000
     11         -3.027487   1.000000
     12         -2.040867   1.000000
     13         -1.532657   1.000000
     14         -1.525472   1.000000
     15         -0.127581   1.000000
     16         -0.109571   1.000000
     17          0.096024   1.000000
     18          0.227213   1.000000
     19          0.475644   1.000000
     20          1.773508   0.994532
     21          1.857507   0.567067
     22          2.068515   0.000000
     23          5.697462   0.000000
     24          5.777428   0.000000
     25          5.892431   0.000000
     26          6.338634   0.000000
     27          6.823868   0.000000
     28          7.244803   0.000000
     29          8.248481   0.000000
     30          8.492008   0.000000
     31          9.095222   0.000000
     32          9.269736   0.000000
     33          9.435838   0.000000
     34         10.391355   0.000000
     35         10.750523   0.000000
     36         10.934041   0.000000
     37         11.378370   0.000000
     38         11.799397   0.000000
     39         12.293483   0.000000
     40         12.653422   0.000000
     41         12.852588   0.000000
     42         13.157581   0.000000
     43         14.045640   0.000000
     44         14.874667   0.000000
     45         15.560006   0.000000
     46         15.789552   0.000000
     47         15.991898   0.000000
     48         16.556732   0.000000
 
  0.2500000E+00  0.7500000E-01  0.0000000E+00  0.1098901E-02
      1        -12.584902   1.000000
      2        -11.780175   1.000000
      3         -8.582905   1.000000
      4         -8.383466   1.000000
      5         -5.958234   1.000000
      6         -5.782024   1.000000
      7         -4.730377   1.000000
      8         -4.136807   1.000000
      9         -3.246293   1.000000
     10         -3.197422   1.000000
     11         -2.710161   1.000000
     12         -2.011995   1.000000
     13         -1.896371   1.000000
     14         -1.634562   1.000000
     15         -0.218714   1.000000
     16         -0.101233   1.000000
     17          0.105460   1.000000
     18          0.185737   1.000000
     19          0.458289   1.000000
     20          1.670228   1.000000
     21          1.759295   0.998394
     22          1.885782   0.264072
     23          5.785926   0.000000
     24          5.786500   0.000000
     25          6.101577   0.000000
     26          6.665146   0.000000
     27          6.733768   0.000000
     28          7.091911   0.000000
     29          8.347972   0.000000
     30          8.620117   0.000000
     31          9.052351   0.000000
     32          9.594511   0.000000
     33          9.768632   0.000000
     34         10.205051   0.000000
     35         10.421149   0.000000
     36         10.730303   0.000000
     37         11.448180   0.000000
     38         11.958456   0.000000
     39         12.432156   0.000000
     40         12.475596   0.000000
     41         12.893193   0.000000
     42         12.939207   0.000000
     43         14.456844   0.000000
     44         15.029855   0.000000
     45         15.240443   0.000000
     46         15.812321   0.000000
     47         15.849430   0.000000
     48         16.380228   0.000000
 
  0.3214286E+00  0.7500000E-01  0.0000000E+00  0.1098901E-02
      1        -12.500325   1.000000
      2        -11.898675   1.000000
      3         -8.539921   1.000000
      4         -8.379320   1.000000
      5         -6.009927   1.000000
      6         -5.959735   1.000000
      7         -4.521612   1.000000
      8         -4.029783   1.000000
      9         -3.320768   1.000000
     10         -2.919990   1.000000
     11         -2.361093   1.000000
     12         -2.289576   1.000000
     13         -1.953195   1.000000
     14         -1.738839   1.000000
     15         -0.415982   1.000000
     16         -0.183081   1.000000
     17          0.120852   1.000000
     18          0.163283   1.000000
     19          0.564614   1.000000
     20          1.558953   1.000000
     21          1.653020   1.000000
     22          1.668962   1.000000
     23          5.778984   0.000000
     24          5.852009   0.000000
     25          6.453617   0.000000
     26          6.657459   0.000000
     27          6.804387   0.000000
     28          7.221537   0.000000
     29          8.433943   0.000000
     30          8.628015   0.000000
     31          8.932938   0.000000
     32          9.672359   0.000000
     33          9.936290   0.000000
     34         10.072977   0.000000
     35         10.311795   0.000000
     36         11.009294   0.000000
     37         11.449379   0.000000
     38         12.029129   0.000000
     39         12.221812   0.000000
     40         12.495571   0.000000
     41         12.576404   0.000000
     42         13.226537   0.000000
     43         14.792193   0.000000
     44         14.893484   0.000000
     45         15.345380   0.000000
     46         15.425039   0.000000
     47         15.621255   0.000000
     48         16.342948   0.000000
 
  0.3928571E+00  0.7500000E-01  0.0000000E+00  0.1098901E-02
      1        -12.398629   1.000000
      2        -12.026996   1.000000
      3         -8.492044   1.000000
      4         -8.386785   1.000000
      5         -6.080625   1.000000
      6         -6.078479   1.000000
      7         -4.199503   1.000000
      8         -3.903935   1.000000
      9         -3.462680   1.000000
     10         -2.971109   1.000000
     11         -2.352069   1.000000
     12         -2.051132   1.000000
     13         -1.887930   1.000000
     14         -1.838276   1.000000
     15         -0.618601   1.000000
     16         -0.408371   1.000000
     17          0.152462   1.000000
     18          0.209620   1.000000
     19          0.727417   1.000000
     20          1.390767   1.000000
     21          1.512068   1.000000
     22          1.556265   1.000000
     23          5.793866   0.000000
     24          5.877659   0.000000
     25          6.617472   0.000000
     26          6.735189   0.000000
     27          6.893497   0.000000
     28          7.634997   0.000000
     29          8.371177   0.000000
     30          8.510630   0.000000
     31          8.785996   0.000000
     32          9.141422   0.000000
     33         10.227557   0.000000
     34         10.292601   0.000000
     35         10.556341   0.000000
     36         11.293180   0.000000
     37         11.505044   0.000000
     38         11.671389   0.000000
     39         11.992205   0.000000
     40         12.566776   0.000000
     41         12.639252   0.000000
     42         13.455150   0.000000
     43         14.649991   0.000000
     44         14.902864   0.000000
     45         14.940557   0.000000
     46         15.160815   0.000000
     47         15.848713   0.000000
     48         16.443294   0.000000
 
  0.4642857E+00  0.7500000E-01  0.0000000E+00  0.1098901E-02
      1        -12.282923   1.000000
      2        -12.157274   1.000000
      3         -8.446104   1.000000
      4         -8.409324   1.000000
      5         -6.134153   1.000000
      6         -6.130448   1.000000
      7         -3.807366   1.000000
      8         -3.763650   1.000000
      9         -3.611987   1.000000
     10         -3.376005   1.000000
     11         -2.139557   1.000000
     12         -1.983444   1.000000
     13         -1.823040   1.000000
     14         -1.815140   1.000000
     15         -0.727559   1.000000
     16         -0.636064   1.000000
     17          0.199380   1.000000
     18          0.223090   1.000000
     19          0.927152   1.000000
     20          1.154086   1.000000
     21          1.469372   1.000000
     22          1.488743   1.000000
     23          5.827273   0.000000
     24          5.862998   0.000000
     25          6.622742   0.000000
     26          6.665950   0.000000
     27          7.391207   0.000000
     28          7.908015   0.000000
     29          8.108653   0.000000
     30          8.589304   0.000000
     31          8.600340   0.000000
     32          8.691841   0.000000
     33         10.487389   0.000000
     34         10.586039   0.000000
     35         10.809782   0.000000
     36         11.006848   0.000000
     37         11.457180   0.000000
     38         11.563584   0.000000
     39         12.080906   0.000000
     40         12.510751   0.000000
     41         12.934643   0.000000
     42         13.300599   0.000000
     43         14.609681   0.000000
     44         14.766118   0.000000
     45         14.773326   0.000000
     46         14.949998   0.000000
     47         16.185185   0.000000
     48         16.414198   0.000000
 
  0.3571429E-01  0.1250000E+00  0.0000000E+00  0.1098901E-02
      1        -12.693736   1.000000
      2        -11.548360   1.000000
      3         -8.631056   1.000000
      4         -8.387752   1.000000
      5         -6.029065   1.000000
      6         -5.045537   1.000000
      7         -4.712736   1.000000
      8         -4.617773   1.000000
      9         -4.210974   1.000000
     10         -3.537495   1.000000
     11         -3.444327   1.000000
     12         -1.640644   1.000000
     13         -1.063913   1.000000
     14         -0.828305   1.000000
     15         -0.378905   1.000000
     16         -0.357488   1.000000
     17          0.176565   1.000000
     18          0.273647   1.000000
     19          0.675575   1.000000
     20          1.667507   1.000000
     21          1.743870   0.999642
     22          2.293377   0.000000
     23          5.523941   0.000000
     24          5.641302   0.000000
     25          5.793935   0.000000
     26          6.060223   0.000000
     27          7.208366   0.000000
     28          7.948005   0.000000
     29          7.978871   0.000000
     30          8.287457   0.000000
     31          8.783690   0.000000
     32          9.131117   0.000000
     33          9.178840   0.000000
     34         10.709099   0.000000
     35         11.280008   0.000000
     36         11.471254   0.000000
     37         11.623314   0.000000
     38         11.940842   0.000000
     39         12.086190   0.000000
     40         12.781800   0.000000
     41         12.826695   0.000000
     42         13.077670   0.000000
     43         13.119034   0.000000
     44         15.207057   0.000000
     45         15.416227   0.000000
     46         15.713005   0.000000
     47         15.766218   0.000000
     48         16.143754   0.000000
 
  0.1071429E+00  0.1250000E+00  0.0000000E+00  0.1098901E-02
      1        -12.671396   1.000000
      2        -11.586711   1.000000
      3         -8.620336   1.000000
      4         -8.381714   1.000000
      5         -5.986240   1.000000
      6         -5.272702   1.000000
      7         -4.706878   1.000000
      8         -4.664142   1.000000
      9         -3.949247   1.000000
     10         -3.496378   1.000000
     11         -3.326749   1.000000
     12         -1.629587   1.000000
     13         -1.227148   1.000000
     14         -0.915074   1.000000
     15         -0.356927   1.000000
     16         -0.286657   1.000000
     17          0.204536   1.000000
     18          0.211130   1.000000
     19          0.620267   1.000000
     20          1.625401   1.000000
     21          1.704092   0.999997
     22          2.225344   0.000000
     23          5.529697   0.000000
     24          5.848243   0.000000
     25          5.850699   0.000000
     26          6.037556   0.000000
     27          7.163447   0.000000
     28          7.755308   0.000000
     29          8.027101   0.000000
     30          8.404074   0.000000
     31          9.000041   0.000000
     32          9.142962   0.000000
     33          9.327874   0.000000
     34         10.635436   0.000000
     35         11.064759   0.000000
     36         11.314579   0.000000
     37         11.496065   0.000000
     38         11.907104   0.000000
     39         12.204060   0.000000
     40         12.798257   0.000000
     41         12.952035   0.000000
     42         13.045781   0.000000
     43         13.404024   0.000000
     44         15.115812   0.000000
     45         15.248157   0.000000
     46         15.691702   0.000000
     47         15.702303   0.000000
     48         16.228570   0.000000
 
  0.1785714E+00  0.1250000E+00  0.0000000E+00  0.1098901E-02
      1        -12.627194   1.000000
      2        -11.659312   1.000000
      3         -8.598182   1.000000
      4         -8.371823   1.000000
      5         -5.935050   1.000000
      6         -5.527323   1.000000
      7         -4.771787   1.000000
      8         -4.604565   1.000000