 running   24 mpi-ranks, with    1 threads/rank, on    1 nodes
 distrk:  each k-point on   24 cores,    1 groups
 distr:  one band on    1 cores,   24 groups
 vasp.6.4.3 19Mar24 (build May 31 2024 16:31:43) complex                        
  
 POSCAR found type information on POSCAR B 
 POSCAR found :  1 types and      14 ions
 Reading from existing POTCAR
 scaLAPACK will be used
 Reading from existing POTCAR
 LDA part: xc-table for (Slater+PW92), standard interpolation
 POSCAR, INCAR and KPOINTS ok, starting setup
 FFT: planning ... GRIDC
 FFT: planning ... GRID_SOFT
 FFT: planning ... GRID
 WAVECAR not read
 entering main loop
       N       E                     dE             d eps       ncg     rms          rms(c)
DAV:   1     0.540889795816E+02    0.54089E+02   -0.17631E+04 47040   0.723E+02
DAV:   2    -0.929043735422E+02   -0.14699E+03   -0.13840E+03 65544   0.151E+02
DAV:   3    -0.975883574958E+02   -0.46840E+01   -0.46595E+01 68568   0.241E+01
DAV:   4    -0.976156291572E+02   -0.27272E-01   -0.27270E-01 58104   0.210E+00
DAV:   5    -0.976159418027E+02   -0.31265E-03   -0.31264E-03 68376   0.217E-01    0.123E+01
