   1   1   0   0
  0.3369940E+04  0.1499250E-08  0.1249375E-08  0.1799100E-08  0.5000000E-15
  1.000000000000000E-004
  CAR 
 Convergence                             
      2.49581973     -9.97679603  301     -3.60715230      1.00000000
     -9.977  0.0000E+00  0.0000E+00
     -9.935  0.0000E+00  0.0000E+00
     -9.894  0.0000E+00  0.0000E+00
     -9.852  0.0000E+00  0.0000E+00
     -9.810  0.0000E+00  0.0000E+00
     -9.769  0.0000E+00  0.0000E+00
     -9.727  0.0000E+00  0.0000E+00
     -9.686  0.1442E-12  0.5995E-14
     -9.644  0.8184E-09  0.3403E-10
     -9.603  0.1197E-05  0.4979E-07
     -9.561  0.4562E-03  0.1902E-04
     -9.519  0.4606E-01  0.1934E-02
     -9.478  0.1260E+01  0.5432E-01
     -9.436  0.9620E+01  0.4543E+00
     -9.395  0.2109E+02  0.1331E+01
     -9.353  0.1347E+02  0.1891E+01
     -9.312  0.2486E+01  0.1995E+01
     -9.270  0.1291E+00  0.2000E+01
     -9.228  0.1831E-02  0.2000E+01
     -9.187  0.6914E-05  0.2000E+01
     -9.145  0.6830E-08  0.2000E+01
     -9.104  0.1741E-11  0.2000E+01
     -9.062  0.0000E+00  0.2000E+01
     -9.021  0.0000E+00  0.2000E+01
     -8.979  0.0000E+00  0.2000E+01
     -8.937  0.0000E+00  0.2000E+01
     -8.896  0.0000E+00  0.2000E+01
     -8.854  0.0000E+00  0.2000E+01
     -8.813  0.0000E+00  0.2000E+01
     -8.771  0.0000E+00  0.2000E+01
     -8.730  0.0000E+00  0.2000E+01
     -8.688  0.0000E+00  0.2000E+01
     -8.646  0.0000E+00  0.2000E+01
     -8.605  0.0000E+00  0.2000E+01
     -8.563  0.0000E+00  0.2000E+01
     -8.522  0.0000E+00  0.2000E+01
     -8.480  0.0000E+00  0.2000E+01
     -8.439  0.0000E+00  0.2000E+01
     -8.397  0.0000E+00  0.2000E+01
     -8.355  0.0000E+00  0.2000E+01
     -8.314  0.0000E+00  0.2000E+01
     -8.272  0.0000E+00  0.2000E+01
     -8.231  0.0000E+00  0.2000E+01
     -8.189  0.0000E+00  0.2000E+01
     -8.147  0.0000E+00  0.2000E+01
     -8.106  0.0000E+00  0.2000E+01
     -8.064  0.0000E+00  0.2000E+01
     -8.023  0.0000E+00  0.2000E+01
     -7.981  0.0000E+00  0.2000E+01
     -7.940  0.0000E+00  0.2000E+01
     -7.898  0.0000E+00  0.2000E+01
     -7.856  0.0000E+00  0.2000E+01
     -7.815  0.0000E+00  0.2000E+01
     -7.773  0.0000E+00  0.2000E+01
     -7.732  0.0000E+00  0.2000E+01
     -7.690  0.0000E+00  0.2000E+01
     -7.649  0.0000E+00  0.2000E+01
     -7.607  0.0000E+00  0.2000E+01
     -7.565  0.0000E+00  0.2000E+01
     -7.524  0.0000E+00  0.2000E+01
     -7.482  0.0000E+00  0.2000E+01
     -7.441  0.0000E+00  0.2000E+01
     -7.399  0.0000E+00  0.2000E+01
     -7.358  0.0000E+00  0.2000E+01
     -7.316  0.0000E+00  0.2000E+01
     -7.274  0.0000E+00  0.2000E+01
     -7.233  0.0000E+00  0.2000E+01
     -7.191  0.0000E+00  0.2000E+01
     -7.150  0.0000E+00  0.2000E+01
     -7.108  0.0000E+00  0.2000E+01
     -7.067  0.0000E+00  0.2000E+01
     -7.025  0.0000E+00  0.2000E+01
     -6.983  0.0000E+00  0.2000E+01
     -6.942  0.0000E+00  0.2000E+01
     -6.900  0.0000E+00  0.2000E+01
     -6.859  0.0000E+00  0.2000E+01
     -6.817  0.0000E+00  0.2000E+01
     -6.775  0.0000E+00  0.2000E+01
     -6.734  0.0000E+00  0.2000E+01
     -6.692  0.0000E+00  0.2000E+01
     -6.651  0.0000E+00  0.2000E+01
     -6.609  0.0000E+00  0.2000E+01
     -6.568  0.0000E+00  0.2000E+01
     -6.526  0.0000E+00  0.2000E+01
     -6.484  0.0000E+00  0.2000E+01
     -6.443  0.0000E+00  0.2000E+01
     -6.401  0.0000E+00  0.2000E+01
     -6.360  0.0000E+00  0.2000E+01
     -6.318  0.0000E+00  0.2000E+01
     -6.277  0.0000E+00  0.2000E+01
     -6.235  0.0000E+00  0.2000E+01
     -6.193  0.0000E+00  0.2000E+01
     -6.152  0.0000E+00  0.2000E+01
     -6.110  0.0000E+00  0.2000E+01
     -6.069  0.0000E+00  0.2000E+01
     -6.027  0.0000E+00  0.2000E+01
     -5.986  0.0000E+00  0.2000E+01
     -5.944  0.0000E+00  0.2000E+01
     -5.902  0.0000E+00  0.2000E+01
     -5.861  0.0000E+00  0.2000E+01
     -5.819  0.0000E+00  0.2000E+01
     -5.778  0.0000E+00  0.2000E+01
     -5.736  0.0000E+00  0.2000E+01
     -5.695  0.0000E+00  0.2000E+01
     -5.653  0.0000E+00  0.2000E+01
     -5.611  0.0000E+00  0.2000E+01
     -5.570  0.0000E+00  0.2000E+01
     -5.528  0.0000E+00  0.2000E+01
     -5.487  0.0000E+00  0.2000E+01
     -5.445  0.0000E+00  0.2000E+01
     -5.404  0.0000E+00  0.2000E+01
     -5.362  0.0000E+00  0.2000E+01
     -5.320  0.0000E+00  0.2000E+01
     -5.279  0.0000E+00  0.2000E+01
     -5.237  0.0000E+00  0.2000E+01
     -5.196  0.0000E+00  0.2000E+01
     -5.154  0.0000E+00  0.2000E+01
     -5.112  0.0000E+00  0.2000E+01
     -5.071  0.0000E+00  0.2000E+01
     -5.029  0.0000E+00  0.2000E+01
     -4.988  0.0000E+00  0.2000E+01
     -4.946  0.0000E+00  0.2000E+01
     -4.905  0.0000E+00  0.2000E+01
     -4.863  0.0000E+00  0.2000E+01
     -4.821  0.0000E+00  0.2000E+01
     -4.780  0.0000E+00  0.2000E+01
     -4.738  0.0000E+00  0.2000E+01
     -4.697  0.0000E+00  0.2000E+01
     -4.655  0.0000E+00  0.2000E+01
     -4.614  0.0000E+00  0.2000E+01
     -4.572  0.0000E+00  0.2000E+01
     -4.530  0.0000E+00  0.2000E+01
     -4.489  0.0000E+00  0.2000E+01
     -4.447  0.0000E+00  0.2000E+01
     -4.406  0.0000E+00  0.2000E+01
     -4.364  0.0000E+00  0.2000E+01
     -4.323  0.0000E+00  0.2000E+01
     -4.281  0.0000E+00  0.2000E+01
     -4.239  0.0000E+00  0.2000E+01
     -4.198  0.0000E+00  0.2000E+01
     -4.156  0.0000E+00  0.2000E+01
     -4.115  0.0000E+00  0.2000E+01
     -4.073  0.0000E+00  0.2000E+01
     -4.032  0.0000E+00  0.2000E+01
     -3.990  0.0000E+00  0.2000E+01
     -3.948  0.0000E+00  0.2000E+01
     -3.907  0.0000E+00  0.2000E+01
     -3.865  0.8011E-14  0.2000E+01
     -3.824  0.9636E-10  0.2000E+01
     -3.782  0.2399E-06  0.2000E+01
     -3.740  0.1549E-03  0.2000E+01
     -3.699  0.2632E-01  0.2001E+01
     -3.657  0.1200E+01  0.2051E+01
     -3.616  0.1508E+02  0.2678E+01
     -3.574  0.5384E+02  0.4916E+01
     -3.533  0.5585E+02  0.7238E+01
     -3.491  0.1684E+02  0.7938E+01
     -3.449  0.1446E+01  0.7999E+01
     -3.408  0.3428E-01  0.8000E+01
     -3.366  0.2184E-03  0.8000E+01
     -3.325  0.3662E-06  0.8000E+01
     -3.283  0.1594E-09  0.8000E+01
     -3.242  0.1602E-13  0.8000E+01
     -3.200  0.0000E+00  0.8000E+01
     -3.158  0.0000E+00  0.8000E+01
     -3.117  0.0000E+00  0.8000E+01
     -3.075  0.0000E+00  0.8000E+01
     -3.034  0.0000E+00  0.8000E+01
     -2.992  0.0000E+00  0.8000E+01
     -2.951  0.0000E+00  0.8000E+01
     -2.909  0.0000E+00  0.8000E+01
     -2.867  0.0000E+00  0.8000E+01
     -2.826  0.0000E+00  0.8000E+01
     -2.784  0.0000E+00  0.8000E+01
     -2.743  0.0000E+00  0.8000E+01
     -2.701  0.0000E+00  0.8000E+01
     -2.660  0.0000E+00  0.8000E+01
     -2.618  0.0000E+00  0.8000E+01
     -2.576  0.0000E+00  0.8000E+01
     -2.535  0.0000E+00  0.8000E+01
     -2.493  0.0000E+00  0.8000E+01
     -2.452  0.0000E+00  0.8000E+01
     -2.410  0.0000E+00  0.8000E+01
     -2.369  0.0000E+00  0.8000E+01
     -2.327  0.0000E+00  0.8000E+01
     -2.285  0.0000E+00  0.8000E+01
     -2.244  0.0000E+00  0.8000E+01
     -2.202  0.0000E+00  0.8000E+01
     -2.161  0.0000E+00  0.8000E+01
     -2.119  0.0000E+00  0.8000E+01
     -2.077  0.0000E+00  0.8000E+01
     -2.036  0.0000E+00  0.8000E+01
     -1.994  0.0000E+00  0.8000E+01
     -1.953  0.0000E+00  0.8000E+01
     -1.911  0.0000E+00  0.8000E+01
     -1.870  0.0000E+00  0.8000E+01
     -1.828  0.0000E+00  0.8000E+01
     -1.786  0.0000E+00  0.8000E+01
     -1.745  0.0000E+00  0.8000E+01
     -1.703  0.0000E+00  0.8000E+01
     -1.662  0.0000E+00  0.8000E+01
     -1.620  0.0000E+00  0.8000E+01
     -1.579  0.0000E+00  0.8000E+01
     -1.537  0.0000E+00  0.8000E+01
     -1.495  0.0000E+00  0.8000E+01
     -1.454  0.0000E+00  0.8000E+01
     -1.412  0.0000E+00  0.8000E+01
     -1.371  0.0000E+00  0.8000E+01
     -1.329  0.0000E+00  0.8000E+01
     -1.288  0.0000E+00  0.8000E+01
     -1.246  0.0000E+00  0.8000E+01
     -1.204  0.0000E+00  0.8000E+01
     -1.163  0.0000E+00  0.8000E+01
     -1.121  0.0000E+00  0.8000E+01
     -1.080  0.0000E+00  0.8000E+01
     -1.038  0.0000E+00  0.8000E+01
     -0.997  0.0000E+00  0.8000E+01
     -0.955  0.0000E+00  0.8000E+01
     -0.913  0.0000E+00  0.8000E+01
     -0.872  0.0000E+00  0.8000E+01
     -0.830  0.0000E+00  0.8000E+01
     -0.789  0.0000E+00  0.8000E+01
     -0.747  0.0000E+00  0.8000E+01
     -0.705  0.0000E+00  0.8000E+01
     -0.664  0.0000E+00  0.8000E+01
     -0.622  0.0000E+00  0.8000E+01
     -0.581  0.0000E+00  0.8000E+01
     -0.539  0.8986E-15  0.8000E+01
     -0.498  0.6451E-11  0.8000E+01
     -0.456  0.1196E-07  0.8000E+01
     -0.414  0.6113E-05  0.8000E+01
     -0.373  0.8945E-03  0.8000E+01
     -0.331  0.3971E-01  0.8002E+01
     -0.290  0.5826E+00  0.8026E+01
     -0.248  0.3202E+01  0.8159E+01
     -0.207  0.7867E+01  0.8486E+01
     -0.165  0.1074E+02  0.8933E+01
     -0.123  0.1035E+02  0.9363E+01
     -0.082  0.8394E+01  0.9712E+01
     -0.040  0.5012E+01  0.9920E+01
      0.001  0.1699E+01  0.9991E+01
      0.043  0.6723E+00  0.1002E+02
      0.084  0.2188E+01  0.1011E+02
      0.126  0.5897E+01  0.1036E+02
      0.168  0.1051E+02  0.1079E+02
      0.209  0.1407E+02  0.1138E+02
      0.251  0.1563E+02  0.1203E+02
      0.292  0.1577E+02  0.1268E+02
      0.334  0.1591E+02  0.1334E+02
      0.375  0.1620E+02  0.1402E+02
      0.417  0.1652E+02  0.1470E+02
      0.459  0.1760E+02  0.1544E+02
      0.500  0.1848E+02  0.1620E+02
      0.542  0.1847E+02  0.1697E+02
      0.583  0.1899E+02  0.1776E+02
      0.625  0.1990E+02  0.1859E+02
      0.667  0.2036E+02  0.1943E+02
      0.708  0.2102E+02  0.2031E+02
      0.750  0.2242E+02  0.2124E+02
      0.791  0.2237E+02  0.2217E+02
      0.833  0.2187E+02  0.2308E+02
      0.874  0.2336E+02  0.2405E+02
      0.916  0.2452E+02  0.2507E+02
      0.958  0.2420E+02  0.2608E+02
      0.999  0.2486E+02  0.2711E+02
      1.041  0.2589E+02  0.2819E+02
      1.082  0.2598E+02  0.2927E+02
      1.124  0.2605E+02  0.3035E+02
      1.165  0.2682E+02  0.3146E+02
      1.207  0.2770E+02  0.3262E+02
      1.249  0.2729E+02  0.3375E+02
      1.290  0.2748E+02  0.3489E+02
      1.332  0.2854E+02  0.3608E+02
      1.373  0.2858E+02  0.3727E+02
      1.415  0.2829E+02  0.3844E+02
      1.456  0.2933E+02  0.3966E+02
      1.498  0.3087E+02  0.4095E+02
      1.540  0.2999E+02  0.4219E+02
      1.581  0.2955E+02  0.4342E+02
      1.623  0.3006E+02  0.4467E+02
      1.664  0.2766E+02  0.4582E+02
      1.706  0.2117E+02  0.4670E+02
      1.747  0.1402E+02  0.4729E+02
      1.789  0.8308E+01  0.4763E+02
      1.831  0.4789E+01  0.4783E+02
      1.872  0.2567E+01  0.4794E+02
      1.914  0.1087E+01  0.4798E+02
      1.955  0.3451E+00  0.4800E+02
      1.997  0.7282E-01  0.4800E+02
      2.038  0.7038E-02  0.4800E+02
      2.080  0.2246E-03  0.4800E+02
      2.122  0.2047E-05  0.4800E+02
      2.163  0.5040E-08  0.4800E+02
      2.205  0.3273E-11  0.4800E+02
      2.246  0.5595E-15  0.4800E+02
      2.288  0.0000E+00  0.4800E+02
      2.330  0.0000E+00  0.4800E+02
      2.371  0.0000E+00  0.4800E+02
      2.413  0.0000E+00  0.4800E+02
      2.454  0.0000E+00  0.4800E+02
      2.496  0.0000E+00  0.4800E+02
