<?xml version="1.0" encoding="ISO-8859-1"?>
<modeling>
 <generator>
  <i name="program" type="string">vasp </i>
  <i name="version" type="string">6.4.3  </i>
  <i name="subversion" type="string">19Mar24 (build May 31 2024 16:31:43) complex                          parallel </i>
  <i name="platform" type="string">LinuxIFC </i>
  <i name="date" type="string">2024 11 05 </i>
  <i name="time" type="string">22:41:23 </i>
 </generator>
 <incar>
  <i type="string" name="SYSTEM">Convergence</i>
  <i type="int" name="ISTART">     0</i>
  <i type="string" name="PREC">Accurate</i>
  <i type="string" name="ALGO">Normal</i>
  <i type="int" name="ISPIN">     1</i>
  <i type="int" name="ICHARG">     2</i>
  <i type="int" name="NELM">   100</i>
  <i type="int" name="IBRION">    -1</i>
  <i name="EDIFF">      0.00000100</i>
  <i name="EDIFFG">     -0.00100000</i>
  <i type="int" name="NSW">     0</i>
  <i type="int" name="ISIF">     2</i>
  <i name="ENCUT">    600.00000000</i>
  <i name="POTIM">      0.50000000</i>
  <i type="int" name="ISMEAR">     0</i>
  <i name="SIGMA">      0.05000000</i>
  <i type="logical" name="LWAVE"> F  </i>
  <i type="logical" name="LCHARG"> F  </i>
  <i type="string" name="GGA">PE</i>
 </incar>
 <primitive_cell>
  <structure name="primitive_cell" >
   <crystal>
    <varray name="basis" >
     <v>      14.99250000       0.00000000       0.00000000 </v>
     <v>       0.00000000      12.49375000       0.00000000 </v>
     <v>       0.00000000       0.00000000      17.99100000 </v>
    </varray>
    <i name="volume">   3369.94003083 </i>
    <varray name="rec_basis" >
     <v>       0.06670002       0.00000000       0.00000000 </v>
     <v>       0.00000000       0.08004002       0.00000000 </v>
     <v>       0.00000000       0.00000000       0.05558335 </v>
    </varray>
   </crystal>
   <varray name="positions" >
    <v>       0.52123000       0.54500000       0.63796000 </v>
   </varray>
  </structure>
  <varray name="primitive_index" >
   <v type="int" >        1 </v>
  </varray>
 </primitive_cell>
 <kpoints>
  <generation param="Monkhorst-Pack">
   <v type="int" name="divisions">      10       14        9 </v>
   <v name="usershift">      0.00000000       0.00000000       0.00000000 </v>
   <v name="genvec1">      0.10000000       0.00000000       0.00000000 </v>
   <v name="genvec2">      0.00000000       0.07142857       0.00000000 </v>
   <v name="genvec3">      0.00000000       0.00000000       0.11111111 </v>
   <v name="shift">      0.50000000       0.50000000       0.00000000 </v>
  </generation>
  <varray name="kpointlist" >
   <v>       0.05000000       0.03571429       0.00000000 </v>
   <v>       0.15000000       0.03571429       0.00000000 </v>
   <v>       0.25000000       0.03571429       0.00000000 </v>
   <v>       0.35000000       0.03571429       0.00000000 </v>
   <v>       0.45000000       0.03571429       0.00000000 </v>
   <v>       0.05000000       0.10714286       0.00000000 </v>
   <v>       0.15000000       0.10714286       0.00000000 </v>
   <v>       0.25000000       0.10714286       0.00000000 </v>
   <v>       0.35000000       0.10714286       0.00000000 </v>
   <v>       0.45000000       0.10714286       0.00000000 </v>
   <v>       0.05000000       0.17857143       0.00000000 </v>
   <v>       0.15000000       0.17857143       0.00000000 </v>
   <v>       0.25000000       0.17857143       0.00000000 </v>
   <v>       0.35000000       0.17857143       0.00000000 </v>
   <v>       0.45000000       0.17857143       0.00000000 </v>
   <v>       0.05000000       0.25000000       0.00000000 </v>
   <v>       0.15000000       0.25000000       0.00000000 </v>
   <v>       0.25000000       0.25000000       0.00000000 </v>
   <v>       0.35000000       0.25000000       0.00000000 </v>
   <v>       0.45000000       0.25000000       0.00000000 </v>
   <v>       0.05000000       0.32142857       0.00000000 </v>
   <v>       0.15000000       0.32142857       0.00000000 </v>
   <v>       0.25000000       0.32142857       0.00000000 </v>
   <v>       0.35000000       0.32142857       0.00000000 </v>
   <v>       0.45000000       0.32142857       0.00000000 </v>
   <v>       0.05000000       0.39285714       0.00000000 </v>
   <v>       0.15000000       0.39285714       0.00000000 </v>
   <v>       0.25000000       0.39285714       0.00000000 </v>
   <v>       0.35000000       0.39285714       0.00000000 </v>
   <v>       0.45000000       0.39285714       0.00000000 </v>
   <v>       0.05000000       0.46428571       0.00000000 </v>
   <v>       0.15000000       0.46428571       0.00000000 </v>
   <v>       0.25000000       0.46428571       0.00000000 </v>
   <v>       0.35000000       0.46428571       0.00000000 </v>
   <v>       0.45000000       0.46428571       0.00000000 </v>
   <v>       0.05000000       0.03571429       0.11111111 </v>
   <v>       0.15000000       0.03571429       0.11111111 </v>
   <v>       0.25000000       0.03571429       0.11111111 </v>
   <v>       0.35000000       0.03571429       0.11111111 </v>
   <v>       0.45000000       0.03571429       0.11111111 </v>
   <v>       0.05000000       0.10714286       0.11111111 </v>
   <v>       0.15000000       0.10714286       0.11111111 </v>
   <v>       0.25000000       0.10714286       0.11111111 </v>
   <v>       0.35000000       0.10714286       0.11111111 </v>
   <v>       0.45000000       0.10714286       0.11111111 </v>
   <v>       0.05000000       0.17857143       0.11111111 </v>
   <v>       0.15000000       0.17857143       0.11111111 </v>
   <v>       0.25000000       0.17857143       0.11111111 </v>
   <v>       0.35000000       0.17857143       0.11111111 </v>
   <v>       0.45000000       0.17857143       0.11111111 </v>
   <v>       0.05000000       0.25000000       0.11111111 </v>
   <v>       0.15000000       0.25000000       0.11111111 </v>
   <v>       0.25000000       0.25000000       0.11111111 </v>
   <v>       0.35000000       0.25000000       0.11111111 </v>
   <v>       0.45000000       0.25000000       0.11111111 </v>
   <v>       0.05000000       0.32142857       0.11111111 </v>
   <v>       0.15000000       0.32142857       0.11111111 </v>
   <v>       0.25000000       0.32142857       0.11111111 </v>
   <v>       0.35000000       0.32142857       0.11111111 </v>
   <v>       0.45000000       0.32142857       0.11111111 </v>
   <v>       0.05000000       0.39285714       0.11111111 </v>
   <v>       0.15000000       0.39285714       0.11111111 </v>
   <v>       0.25000000       0.39285714       0.11111111 </v>
   <v>       0.35000000       0.39285714       0.11111111 </v>
   <v>       0.45000000       0.39285714       0.11111111 </v>
   <v>       0.05000000       0.46428571       0.11111111 </v>
   <v>       0.15000000       0.46428571       0.11111111 </v>
   <v>       0.25000000       0.46428571       0.11111111 </v>
   <v>       0.35000000       0.46428571       0.11111111 </v>
   <v>       0.45000000       0.46428571       0.11111111 </v>
   <v>       0.05000000       0.03571429       0.22222222 </v>
   <v>       0.15000000       0.03571429       0.22222222 </v>
   <v>       0.25000000       0.03571429       0.22222222 </v>
   <v>       0.35000000       0.03571429       0.22222222 </v>
   <v>       0.45000000       0.03571429       0.22222222 </v>
   <v>       0.05000000       0.10714286       0.22222222 </v>
   <v>       0.15000000       0.10714286       0.22222222 </v>
   <v>       0.25000000       0.10714286       0.22222222 </v>
   <v>       0.35000000       0.10714286       0.22222222 </v>
   <v>       0.45000000       0.10714286       0.22222222 </v>
   <v>       0.05000000       0.17857143       0.22222222 </v>
   <v>       0.15000000       0.17857143       0.22222222 </v>
   <v>       0.25000000       0.17857143       0.22222222 </v>
   <v>       0.35000000       0.17857143       0.22222222 </v>
   <v>       0.45000000       0.17857143       0.22222222 </v>
   <v>       0.05000000       0.25000000       0.22222222 </v>
   <v>       0.15000000       0.25000000       0.22222222 </v>
   <v>       0.25000000       0.25000000       0.22222222 </v>
   <v>       0.35000000       0.25000000       0.22222222 </v>
   <v>       0.45000000       0.25000000       0.22222222 </v>
   <v>       0.05000000       0.32142857       0.22222222 </v>
   <v>       0.15000000       0.32142857       0.22222222 </v>
   <v>       0.25000000       0.32142857       0.22222222 </v>
   <v>       0.35000000       0.32142857       0.22222222 </v>
   <v>       0.45000000       0.32142857       0.22222222 </v>
   <v>       0.05000000       0.39285714       0.22222222 </v>
   <v>       0.15000000       0.39285714       0.22222222 </v>
   <v>       0.25000000       0.39285714       0.22222222 </v>
   <v>       0.35000000       0.39285714       0.22222222 </v>
   <v>       0.45000000       0.39285714       0.22222222 </v>
   <v>       0.05000000       0.46428571       0.22222222 </v>
   <v>       0.15000000       0.46428571       0.22222222 </v>
   <v>       0.25000000       0.46428571       0.22222222 </v>
   <v>       0.35000000       0.46428571       0.22222222 </v>
   <v>       0.45000000       0.46428571       0.22222222 </v>
   <v>       0.05000000       0.03571429       0.33333333 </v>
   <v>       0.15000000       0.03571429       0.33333333 </v>
   <v>       0.25000000       0.03571429       0.33333333 </v>
   <v>       0.35000000       0.03571429       0.33333333 </v>
   <v>       0.45000000       0.03571429       0.33333333 </v>
   <v>       0.05000000       0.10714286       0.33333333 </v>
   <v>       0.15000000       0.10714286       0.33333333 </v>
   <v>       0.25000000       0.10714286       0.33333333 </v>
   <v>       0.35000000       0.10714286       0.33333333 </v>
   <v>       0.45000000       0.10714286       0.33333333 </v>
   <v>       0.05000000       0.17857143       0.33333333 </v>
   <v>       0.15000000       0.17857143       0.33333333 </v>
   <v>       0.25000000       0.17857143       0.33333333 </v>
   <v>       0.35000000       0.17857143       0.33333333 </v>
   <v>       0.45000000       0.17857143       0.33333333 </v>
   <v>       0.05000000       0.25000000       0.33333333 </v>
   <v>       0.15000000       0.25000000       0.33333333 </v>
   <v>       0.25000000       0.25000000       0.33333333 </v>
   <v>       0.35000000       0.25000000       0.33333333 </v>
   <v>       0.45000000       0.25000000       0.33333333 </v>
   <v>       0.05000000       0.32142857       0.33333333 </v>
   <v>       0.15000000       0.32142857       0.33333333 </v>
   <v>       0.25000000       0.32142857       0.33333333 </v>
   <v>       0.35000000       0.32142857       0.33333333 </v>
   <v>       0.45000000       0.32142857       0.33333333 </v>
   <v>       0.05000000       0.39285714       0.33333333 </v>
   <v>       0.15000000       0.39285714       0.33333333 </v>
   <v>       0.25000000       0.39285714       0.33333333 </v>
   <v>       0.35000000       0.39285714       0.33333333 </v>
   <v>       0.45000000       0.39285714       0.33333333 </v>
   <v>       0.05000000       0.46428571       0.33333333 </v>
   <v>       0.15000000       0.46428571       0.33333333 </v>
   <v>       0.25000000       0.46428571       0.33333333 </v>
   <v>       0.35000000       0.46428571       0.33333333 </v>
   <v>       0.45000000       0.46428571       0.33333333 </v>
   <v>       0.05000000       0.03571429       0.44444444 </v>
   <v>       0.15000000       0.03571429       0.44444444 </v>
   <v>       0.25000000       0.03571429       0.44444444 </v>
   <v>       0.35000000       0.03571429       0.44444444 </v>
   <v>       0.45000000       0.03571429       0.44444444 </v>
   <v>       0.05000000       0.10714286       0.44444444 </v>
   <v>       0.15000000       0.10714286       0.44444444 </v>
   <v>       0.25000000       0.10714286       0.44444444 </v>
   <v>       0.35000000       0.10714286       0.44444444 </v>
   <v>       0.45000000       0.10714286       0.44444444 </v>
   <v>       0.05000000       0.17857143       0.44444444 </v>
   <v>       0.15000000       0.17857143       0.44444444 </v>
   <v>       0.25000000       0.17857143       0.44444444 </v>
   <v>       0.35000000       0.17857143       0.44444444 </v>
   <v>       0.45000000       0.17857143       0.44444444 </v>
   <v>       0.05000000       0.25000000       0.44444444 </v>
   <v>       0.15000000       0.25000000       0.44444444 </v>
   <v>       0.25000000       0.25000000       0.44444444 </v>
   <v>       0.35000000       0.25000000       0.44444444 </v>
   <v>       0.45000000       0.25000000       0.44444444 </v>
   <v>       0.05000000       0.32142857       0.44444444 </v>
   <v>       0.15000000       0.32142857       0.44444444 </v>
   <v>       0.25000000       0.32142857       0.44444444 </v>
   <v>       0.35000000       0.32142857       0.44444444 </v>
   <v>       0.45000000       0.32142857       0.44444444 </v>
   <v>       0.05000000       0.39285714       0.44444444 </v>
   <v>       0.15000000       0.39285714       0.44444444 </v>
   <v>       0.25000000       0.39285714       0.44444444 </v>
   <v>       0.35000000       0.39285714       0.44444444 </v>
   <v>       0.45000000       0.39285714       0.44444444 </v>
   <v>       0.05000000       0.46428571       0.44444444 </v>
   <v>       0.15000000       0.46428571       0.44444444 </v>
   <v>       0.25000000       0.46428571       0.44444444 </v>
   <v>       0.35000000       0.46428571       0.44444444 </v>
   <v>       0.45000000       0.46428571       0.44444444 </v>
  </varray>
  <varray name="weights" >
   <v>       0.00317460 </v>
   <v>       0.00317460 </v>
   <v>       0.00317460 </v>
   <v>       0.00317460 </v>
   <v>       0.00317460 </v>
   <v>       0.00317460 </v>
   <v>       0.00317460 </v>
   <v>       0.00317460 </v>
   <v>       0.00317460 </v>
   <v>       0.00317460 </v>
   <v>       0.00317460 </v>
   <v>       0.00317460 </v>
   <v>       0.00317460 </v>
   <v>       0.00317460 </v>
   <v>       0.00317460 </v>
   <v>       0.00317460 </v>
   <v>       0.00317460 </v>
   <v>       0.00317460 </v>
   <v>       0.00317460 </v>
   <v>       0.00317460 </v>
   <v>       0.00317460 </v>
   <v>       0.00317460 </v>
   <v>       0.00317460 </v>
   <v>       0.00317460 </v>
   <v>       0.00317460 </v>
   <v>       0.00317460 </v>
   <v>       0.00317460 </v>
   <v>       0.00317460 </v>
   <v>       0.00317460 </v>
   <v>       0.00317460 </v>
   <v>       0.00317460 </v>
   <v>       0.00317460 </v>
   <v>       0.00317460 </v>
   <v>       0.00317460 </v>
   <v>       0.00317460 </v>
   <v>       0.00634921 </v>
   <v>       0.00634921 </v>
   <v>       0.00634921 </v>
   <v>       0.00634921 </v>
   <v>       0.00634921 </v>
   <v>       0.00634921 </v>
   <v>       0.00634921 </v>
   <v>       0.00634921 </v>
   <v>       0.00634921 </v>
   <v>       0.00634921 </v>
   <v>       0.00634921 </v>
   <v>       0.00634921 </v>
   <v>       0.00634921 </v>
   <v>       0.00634921 </v>
   <v>       0.00634921 </v>
   <v>       0.00634921 </v>
   <v>       0.00634921 </v>
   <v>       0.00634921 </v>
   <v>       0.00634921 </v>
   <v>       0.00634921 </v>
   <v>       0.00634921 </v>
   <v>       0.00634921 </v>
   <v>       0.00634921 </v>
   <v>       0.00634921 </v>
   <v>       0.00634921 </v>
   <v>       0.00634921 </v>
   <v>       0.00634921 </v>
   <v>       0.00634921 </v>
   <v>       0.00634921 </v>
   <v>       0.00634921 </v>
   <v>       0.00634921 </v>
   <v>       0.00634921 </v>
   <v>       0.00634921 </v>
   <v>       0.00634921 </v>
   <v>       0.00634921 </v>
   <v>       0.00634921 </v>
   <v>       0.00634921 </v>
   <v>       0.00634921 </v>
   <v>       0.00634921 </v>
   <v>       0.00634921 </v>
   <v>       0.00634921 </v>
   <v>       0.00634921 </v>
   <v>       0.00634921 </v>
   <v>       0.00634921 </v>
   <v>       0.00634921 </v>
   <v>       0.00634921 </v>
   <v>       0.00634921 </v>
   <v>       0.00634921 </v>
   <v>       0.00634921 </v>
   <v>       0.00634921 </v>
   <v>       0.00634921 </v>
   <v>       0.00634921 </v>
   <v>       0.00634921 </v>
   <v>       0.00634921 </v>
   <v>       0.00634921 </v>
   <v>       0.00634921 </v>
   <v>       0.00634921 </v>
   <v>       0.00634921 </v>
   <v>       0.00634921 </v>
   <v>       0.00634921 </v>
   <v>       0.00634921 </v>
   <v>       0.00634921 </v>
   <v>       0.00634921 </v>
   <v>       0.00634921 </v>
   <v>       0.00634921 </v>
   <v>       0.00634921 </v>
   <v>       0.00634921 </v>
   <v>       0.00634921 </v>
   <v>       0.00634921 </v>
   <v>       0.00634921 </v>
   <v>       0.00634921 </v>
   <v>       0.00634921 </v>
   <v>       0.00634921 </v>
   <v>       0.00634921 </v>
   <v>       0.00634921 </v>
   <v>       0.00634921 </v>
   <v>       0.00634921 </v>
   <v>       0.00634921 </v>
   <v>       0.00634921 </v>
   <v>       0.00634921 </v>
   <v>       0.00634921 </v>
   <v>       0.00634921 </v>
   <v>       0.00634921 </v>
   <v>       0.00634921 </v>
   <v>       0.00634921 </v>
   <v>       0.00634921 </v>
   <v>       0.00634921 </v>
   <v>       0.00634921 </v>
   <v>       0.00634921 </v>
   <v>       0.00634921 </v>
   <v>       0.00634921 </v>
   <v>       0.00634921 </v>
   <v>       0.00634921 </v>
   <v>       0.00634921 </v>
   <v>       0.00634921 </v>
   <v>       0.00634921 </v>
   <v>       0.00634921 </v>
   <v>       0.00634921 </v>
   <v>       0.00634921 </v>
   <v>       0.00634921 </v>
   <v>       0.00634921 </v>
   <v>       0.00634921 </v>
   <v>       0.00634921 </v>
   <v>       0.00634921 </v>
   <v>       0.00634921 </v>
   <v>       0.00634921 </v>
   <v>       0.00634921 </v>
   <v>       0.00634921 </v>
   <v>       0.00634921 </v>
   <v>       0.00634921 </v>
   <v>       0.00634921 </v>
   <v>       0.00634921 </v>
   <v>       0.00634921 </v>
   <v>       0.00634921 </v>
   <v>       0.00634921 </v>
   <v>       0.00634921 </v>
   <v>       0.00634921 </v>
   <v>       0.00634921 </v>
   <v>       0.00634921 </v>
   <v>       0.00634921 </v>
   <v>       0.00634921 </v>
   <v>       0.00634921 </v>
   <v>       0.00634921 </v>
   <v>       0.00634921 </v>
   <v>       0.00634921 </v>
   <v>       0.00634921 </v>
   <v>       0.00634921 </v>
   <v>       0.00634921 </v>
   <v>       0.00634921 </v>
   <v>       0.00634921 </v>
   <v>       0.00634921 </v>
   <v>       0.00634921 </v>
   <v>       0.00634921 </v>
   <v>       0.00634921 </v>
   <v>       0.00634921 </v>
   <v>       0.00634921 </v>
   <v>       0.00634921 </v>
   <v>       0.00634921 </v>
   <v>       0.00634921 </v>
   <v>       0.00634921 </v>
  </varray>
 </kpoints>
 <parameters>
  <separator name="general" >
   <i type="string" name="SYSTEM">Convergence</i>
   <i type="logical" name="LCOMPAT"> F  </i>
  </separator>
  <separator name="electronic" >
   <i type="string" name="PREC">accura</i>
   <i name="ENMAX">    600.00000000</i>
   <i name="ENAUG">    535.51400000</i>
   <i name="EDIFF">      0.00000100</i>
   <i type="int" name="IALGO">    38</i>
   <i type="int" name="IWAVPR">    10</i>
   <i type="int" name="NBANDS">    24</i>
   <i type="int" name="NBANDSLOW">    -1</i>
   <i type="int" name="NBANDSHIGH">    -1</i>
   <i name="NELECT">      3.00000000</i>
   <i type="int" name="TURBO">     0</i>
   <i type="int" name="IRESTART">     0</i>
   <i type="int" name="NREBOOT">     0</i>
   <i type="int" name="NMIN">     0</i>
   <i name="EREF">      0.00000000</i>
   <separator name="electronic smearing" >
    <i type="int" name="ISMEAR">     0</i>
    <i name="SIGMA">      0.05000000</i>
    <i name="KSPACING">      0.50000000</i>
    <i type="logical" name="KGAMMA"> T  </i>
    <i type="logical" name="KBLOWUP"> T  </i>
   </separator>
   <separator name="electronic projectors" >
    <i type="logical" name="LREAL"> F  </i>
    <v name="ROPT">      0.00000000</v>
    <i type="int" name="LMAXPAW">  -100</i>
    <i type="int" name="LMAXMIX">     2</i>
    <i type="logical" name="NLSPLINE"> F  </i>
   </separator>
   <separator name="electronic startup" >
    <i type="int" name="ISTART">     0</i>
    <i type="int" name="ICHARG">     2</i>
    <i type="int" name="INIWAV">     1</i>
   </separator>
   <separator name="electronic spin" >
    <i type="int" name="ISPIN">     1</i>
    <i type="logical" name="LNONCOLLINEAR"> F  </i>
    <v name="MAGMOM">      1.00000000</v>
    <i name="NUPDOWN">     -1.00000000</i>
    <i type="logical" name="LSORBIT"> F  </i>
    <v name="SAXIS">      0.00000000      0.00000000      1.00000000</v>
    <i type="logical" name="LSPIRAL"> F  </i>
    <v name="QSPIRAL">      0.00000000      0.00000000      0.00000000</v>
    <i type="logical" name="LZEROZ"> F  </i>
   </separator>
   <separator name="electronic exchange-correlation" >
    <i type="logical" name="LASPH"> F  </i>
   </separator>
   <separator name="electronic convergence" >
    <i type="int" name="NELM">   100</i>
    <i type="int" name="NELMDL">    -5</i>
    <i type="int" name="NELMIN">     2</i>
    <i name="ENINI">    600.00000000</i>
    <separator name="electronic convergence detail" >
     <i type="logical" name="LDIAG"> T  </i>
     <i type="logical" name="LSUBROT"> F  </i>
     <i name="WEIMIN">      0.00000000</i>
     <i name="EBREAK">      0.00000001</i>
     <i name="DEPER">      0.30000000</i>
     <i type="int" name="NRMM">     4</i>
     <i name="TIME">      0.40000000</i>
    </separator>
   </separator>
   <separator name="electronic mixer" >
    <i name="AMIX">      0.40000000</i>
    <i name="BMIX">      1.00000000</i>
    <i name="AMIN">      0.10000000</i>
    <i name="AMIX_MAG">      1.60000000</i>
    <i name="BMIX_MAG">      1.00000000</i>
    <separator name="electronic mixer details" >
     <i type="int" name="IMIX">     4</i>
     <i type="logical" name="MIXFIRST"> F  </i>
     <i type="int" name="MAXMIX">   -45</i>
     <i name="WC">    100.00000000</i>
     <i type="int" name="INIMIX">     1</i>
     <i type="int" name="MIXPRE">     1</i>
     <i type="int" name="MREMOVE">     5</i>
    </separator>
   </separator>
   <separator name="electronic dipolcorrection" >
    <i type="logical" name="LDIPOL"> F  </i>
    <i type="logical" name="LMONO"> F  </i>
    <i type="int" name="IDIPOL">     0</i>
    <i name="EPSILON">      1.00000000</i>
    <v name="DIPOL">   -100.00000000   -100.00000000   -100.00000000</v>
    <i name="EFIELD">      0.00000000</i>
    <i type="logical" name="LVACPOTAV"> F  </i>
   </separator>
  </separator>
  <separator name="grids" >
   <i type="int" name="NGX">   120</i>
   <i type="int" name="NGY">   100</i>
   <i type="int" name="NGZ">   144</i>
   <i type="int" name="NGXF">   240</i>
   <i type="int" name="NGYF">   200</i>
   <i type="int" name="NGZF">   288</i>
   <i type="logical" name="ADDGRID"> F  </i>
  </separator>
  <separator name="ionic" >
   <i type="int" name="NSW">     0</i>
   <i type="int" name="IBRION">    -1</i>
   <i type="int" name="MDALGO">     0</i>
   <i type="int" name="ISIF">     2</i>
   <i name="PSTRESS">      0.00000000</i>
   <i name="EDIFFG">     -0.00100000</i>
   <i type="int" name="NFREE">     0</i>
   <i name="POTIM">      0.50000000</i>
   <i name="SMASS">     -3.00000000</i>
   <i name="SCALEE">      1.00000000</i>
  </separator>
  <separator name="ionic md" >
   <i name="TEBEG">      0.00010000</i>
   <i name="TEEND">      0.00010000</i>
   <i type="int" name="NBLOCK">     1</i>
   <i type="int" name="KBLOCK">     1</i>
   <i type="int" name="NPACO">   256</i>
   <i name="APACO">     10.00000000</i>
  </separator>
  <separator name="symmetry" >
   <i type="int" name="ISYM">     2</i>
   <i name="SYMPREC">      0.00001000</i>
  </separator>
  <separator name="dos" >
   <i type="int" name="LORBIT">     0</i>
   <v name="RWIGS">     -1.00000000</v>
   <i type="int" name="NEDOS">   301</i>
   <i name="EMIN">     10.00000000</i>
   <i name="EMAX">    -10.00000000</i>
   <i name="EFERMI">      0.00000000</i>
  </separator>
  <separator name="writing" >
   <i type="int" name="NWRITE">     2</i>
   <i type="logical" name="LWAVE"> F  </i>
   <i type="logical" name="LDOWNSAMPLE"> F  </i>
   <i type="logical" name="LCHARG"> F  </i>
   <i type="logical" name="LPARD"> F  </i>
   <i type="logical" name="LVTOT"> F  </i>
   <i type="logical" name="LVHAR"> F  </i>
   <i type="logical" name="LELF"> F  </i>
   <i type="logical" name="LOPTICS"> F  </i>
   <v name="STM">      0.00000000      0.00000000      0.00000000      0.00000000      0.00000000      0.00000000      0.00000000</v>
  </separator>
  <separator name="performance" >
   <i type="int" name="NPAR">    24</i>
   <i type="int" name="NSIM">     4</i>
   <i type="int" name="NBLK">    -1</i>
   <i type="logical" name="LPLANE"> T  </i>
   <i type="logical" name="LSCALAPACK"> T  </i>
   <i type="logical" name="LSCAAWARE"> F  </i>
   <i type="logical" name="LSCALU"> F  </i>
   <i type="logical" name="LASYNC"> F  </i>
   <i type="logical" name="LORBITALREAL"> F  </i>
  </separator>
  <separator name="miscellaneous" >
   <i type="int" name="IDIOT">     3</i>
   <i type="int" name="PHON_NSTRUCT">    -1</i>
   <i type="logical" name="LMUSIC"> F  </i>
   <v name="POMASS">     10.81100000</v>
   <v name="DARWINR">      0.00000000</v>
   <v name="DARWINV">      1.00000000</v>
   <i type="logical" name="LCORR"> T  </i>
  </separator>
  <i type="logical" name="GGA_COMPAT"> T  </i>
  <i type="logical" name="LBERRY"> F  </i>
  <i type="int" name="ICORELEVEL">     0</i>
  <i type="logical" name="LDAU"> F  </i>
  <i type="int" name="I_CONSTRAINED_M">     0</i>
  <separator name="electronic exchange-correlation" >
   <i type="string" name="GGA    ">PE</i>
   <i type="string" name="XC_C">1</i>
   <i type="int" name="VOSKOWN">     0</i>
   <i type="logical" name="LHFCALC"> F  </i>
   <i type="string" name="PRECFOCK"></i>
   <i type="logical" name="LSYMGRAD"> F  </i>
   <i type="logical" name="LHFONE"> F  </i>
   <i type="logical" name="LRHFCALC"> F  </i>
   <i type="logical" name="LTHOMAS"> F  </i>
   <i type="logical" name="LMODELHF"> F  </i>
   <i type="logical" name="LFOCKACE"> F  </i>
   <i name="ENCUT4O">     -1.00000000</i>
   <i type="int" name="EXXOEP">     0</i>
   <i type="int" name="FOURORBIT">     0</i>
   <i name="AEXX">      0.00000000</i>
   <i name="HFALPHA">      0.00000000</i>
   <i name="MCALPHA">      0.00000000</i>
   <i name="ALDAX">      1.00000000</i>
   <i name="AGGAX">      1.00000000</i>
   <i name="AMGGAX">      1.00000000</i>
   <i name="ALDAC">      1.00000000</i>
   <i name="AGGAC">      1.00000000</i>
   <i name="AMGGAC">      1.00000000</i>
   <i type="int" name="NKREDX">     1</i>
   <i type="int" name="NKREDY">     1</i>
   <i type="int" name="NKREDZ">     1</i>
   <i type="logical" name="SHIFTRED"> F  </i>
   <i type="logical" name="ODDONLY"> F  </i>
   <i type="logical" name="EVENONLY"> F  </i>
   <i type="int" name="LMAXFOCK">     0</i>
   <i type="int" name="NMAXFOCKAE">     0</i>
   <i type="logical" name="LFOCKAEDFT"> F  </i>
   <i name="HFSCREEN">      0.00000000</i>
   <i name="HFSCREENC">      0.00000000</i>
   <i type="int" name="NBANDSGWLOW">     0</i>
  </separator>
  <separator name="vdW DFT" >
   <i type="logical" name="LUSE_VDW"> F  </i>
   <i type="int" name="IVDW_NL">    -1</i>
   <i type="logical" name="LSPIN_VDW"> F  </i>
   <i name="ZAB_VDW">     -0.84910000</i>
   <i name="GAMMA_VDW">      1.39626340</i>
   <i name="ALPHA_VDW">      0.00000000</i>
   <i name="PARAM1">      0.12340000</i>
   <i name="PARAM2">      1.00000000</i>
   <i name="BPARAM">      6.30000000</i>
   <i name="CPARAM">      0.00930000</i>
  </separator>
  <separator name="model GW" >
   <i type="int" name="MODEL_GW">     0</i>
   <i name="MODEL_EPS0">   2021.96401850</i>
   <i name="MODEL_ALPHA">      1.00000000</i>
  </separator>
  <separator name="linear response parameters" >
   <i type="logical" name="LEPSILON"> F  </i>
   <i type="logical" name="LRPA"> F  </i>
   <i type="logical" name="LNABLA"> F  </i>
   <i type="logical" name="LVEL"> F  </i>
   <i name="CSHIFT">      0.10000000</i>
   <i name="OMEGAMAX">     -1.00000000</i>
   <i name="DEG_THRESHOLD">      0.00200000</i>
   <i name="RTIME">     -0.10000000</i>
   <i name="WPLASMAI">      0.00000000</i>
   <v name="DFIELD">      0.00000000      0.00000000      0.00000000</v>
   <v name="WPLASMA">      0.00000000      0.00000000      0.00000000      0.00000000      0.00000000      0.00000000      0.00000000      0.00000000      0.00000000</v>
  </separator>
  <separator name="orbital magnetization" >
   <i type="logical" name="NUCIND"> F  </i>
   <v name="MAGPOS">      0.00000000      0.00000000      0.00000000</v>
   <i type="logical" name="LNICSALL"> T  </i>
   <i type="logical" name="ORBITALMAG"> F  </i>
   <i type="logical" name="LMAGBLOCH"> F  </i>
   <i type="logical" name="LCHIMAG"> F  </i>
   <i type="logical" name="LGAUGE"> T  </i>
   <i type="int" name="MAGATOM">     0</i>
   <v name="MAGDIPOL">      0.00000000      0.00000000      0.00000000</v>
   <v name="AVECCONST">      0.00000000      0.00000000      0.00000000</v>
  </separator>
  <separator name="response functions" >
   <i type="logical" name="LALL_IN_ONE"> F  </i>
   <i type="int" name="IALL_IN_ONE">    -1</i>
   <i type="int" name="NBANDS_WAVE">    -1</i>
   <i type="logical" name="LFINITE_TEMPERATURE"> F  </i>
   <i type="logical" name="LADDER"> F  </i>
   <i type="logical" name="LRPAFORCE"> F  </i>
   <i type="logical" name="LFXC"> F  </i>
   <i type="logical" name="LHARTREE"> T  </i>
   <i type="int" name="IBSE">     0</i>
   <v type="int" name="KPOINT">    -1     0     0     0</v>
   <i type="logical" name="LTCTC"> F  </i>
   <i type="logical" name="LTCTE"> F  </i>
   <i type="logical" name="LTETE"> F  </i>
   <i type="logical" name="LTRIPLET"> F  </i>
   <i type="logical" name="LFXCEPS"> F  </i>
   <i type="logical" name="LFXHEG"> F  </i>
   <i type="int" name="NATURALO">     2</i>
   <i type="logical" name="LHOLEGF"> F  </i>
   <i type="logical" name="L2ORDER"> F  </i>
   <i type="logical" name="LDMP1"> F  </i>
   <i type="logical" name="LMP2LT"> F  </i>
   <i type="logical" name="LSMP2LT"> F  </i>
   <i type="logical" name="LGWLF"> F  </i>
   <i name="ENCUTGW">     -1.60000002</i>
   <i name="ENCUTGWSOFT">     -1.60000002</i>
   <i name="ENCUTLF">     -1.00000000</i>
   <i type="logical" name="ESF_SPLINES"> F  </i>
   <i name="ESF_CONV">      0.01000000</i>
   <i type="int" name="ESF_NINTER">    15</i>
   <i type="int" name="LMAXMP2">    -1</i>
   <i name="SCISSOR">      0.00000000</i>
   <i type="int" name="NOMEGA">     0</i>
   <i type="int" name="NOMEGAR">     0</i>
   <i type="int" name="NBANDSGW">    -1</i>
   <i type="int" name="NBANDSO">    -1</i>
   <i type="int" name="NBANDSV">    -1</i>
   <i type="int" name="NELMGW">     1</i>
   <i type="int" name="NELMHF">     1</i>
   <i type="int" name="DIM">     3</i>
   <i type="int" name="IESPILON">     4</i>
   <i type="int" name="ANTIRES">     0</i>
   <i name="OMEGAMAX">    -30.00000000</i>
   <i name="OMEGAMIN">    -30.00000000</i>
   <i name="OMEGATL">   -200.00000000</i>
   <i type="int" name="OMEGAGRID">     0</i>
   <i name="CSHIFT">     -0.10000000</i>
   <i type="logical" name="LSELFENERGY"> F  </i>
   <i type="logical" name="LSPECTRAL"> F  </i>
   <i type="logical" name="LSPECTRALGW"> F  </i>
   <i type="logical" name="LSINGLES"> F  </i>
   <i type="logical" name="LFERMIGW"> F  </i>
   <i type="logical" name="ODDONLYGW"> F  </i>
   <i type="logical" name="EVENONLYGW"> F  </i>
   <i type="int" name="NKREDLFX">     1</i>
   <i type="int" name="NKREDLFY">     1</i>
   <i type="int" name="NKREDLFZ">     1</i>
   <i type="int" name="MAXMEM">  2800</i>
   <i type="int" name="TELESCOPE">     0</i>
   <i type="int" name="NTAUPAR">    -1</i>
   <i type="int" name="NOMEGAPAR">    -1</i>
   <i name="DAMP_NEWTON">      0.80000001</i>
   <i name="LAMBDA">      1.00000000</i>
  </separator>
  <separator name="External order field" >
   <i name="OFIELD_KAPPA">      0.00000000</i>
   <v name="OFIELD_K">      0.00000000      0.00000000      0.00000000</v>
   <i name="OFIELD_Q6_NEAR">      0.00000000</i>
   <i name="OFIELD_Q6_FAR">      0.00000000</i>
   <i name="OFIELD_A">      0.00000000</i>
  </separator>
  <separator name="optional k-points parameters" >
   <i type="int" name="KPOINTS_OPT_MODE">     1</i>
   <i type="logical" name="LKPOINTS_OPT"> F  </i>
  </separator>
 </parameters>
 <atominfo>
  <atoms>       1 </atoms>
  <types>       1 </types>
  <array name="atoms" >
   <dimension dim="1">ion</dimension>
   <field type="string">element</field>
   <field type="int">atomtype</field>
   <set>
    <rc><c>B </c><c>   1</c></rc>
   </set>
  </array>
  <array name="atomtypes" >
   <dimension dim="1">type</dimension>
   <field type="int">atomspertype</field>
   <field type="string">element</field>
   <field>mass</field>
   <field>valence</field>
   <field type="string">pseudopotential</field>
   <set>
    <rc><c>   1</c><c>B </c><c>     10.81100000</c><c>      3.00000000</c><c>  PAW_PBE B 06Sep2000                   </c></rc>
   </set>
  </array>
 </atominfo>
 <structure name="initialpos" >
  <crystal>
   <varray name="basis" >
    <v>      14.99250000       0.00000000       0.00000000 </v>
    <v>       0.00000000      12.49375000       0.00000000 </v>
    <v>       0.00000000       0.00000000      17.99100000 </v>
   </varray>
   <i name="volume">   3369.94003083 </i>
   <varray name="rec_basis" >
    <v>       0.06670002       0.00000000       0.00000000 </v>
    <v>       0.00000000       0.08004002       0.00000000 </v>
    <v>       0.00000000       0.00000000       0.05558335 </v>
   </varray>
  </crystal>
  <varray name="positions" >
   <v>       0.52123000       0.54500000       0.63796000 </v>
  </varray>
 </structure>
 <calculation>
  <scstep>
   <time name="dav">   66.46   67.20</time>
   <time name="total">   67.00   67.74</time>
   <energy>
    <i name="alphaZ">      0.02041434 </i>
    <i name="ewald">    -11.83493411 </i>
    <i name="hartreedc">    -42.57822953 </i>
    <i name="XCdc">      4.75549675 </i>
    <i name="pawpsdc">     43.49986551 </i>
    <i name="pawaedc">    -42.64454556 </i>
    <i name="eentropy">     -0.01047740 </i>
    <i name="bandstr">    -14.35579958 </i>
    <i name="atom">     71.16960075 </i>
    <i name="e_fr_energy">      8.02139118 </i>
    <i name="e_wo_entrp">      8.03186858 </i>
    <i name="e_0_energy">      8.02662988 </i>
   </energy>
  </scstep>
  <scstep>
   <time name="dav">  108.21  109.18</time>
   <time name="total">  108.21  109.18</time>
   <energy>
    <i name="e_fr_energy">      0.10093976 </i>
    <i name="e_wo_entrp">      0.13020541 </i>
    <i name="e_0_energy">      0.11557259 </i>
   </energy>
  </scstep>
  <scstep>
   <time name="dav">   67.18   67.87</time>
   <time name="total">   67.18   67.87</time>
   <energy>
    <i name="e_fr_energy">     -0.05509949 </i>
    <i name="e_wo_entrp">     -0.00222036 </i>
    <i name="e_0_energy">     -0.02865992 </i>
   </energy>
  </scstep>
  <scstep>
   <time name="dav">   74.71   75.43</time>
   <time name="total">   74.71   75.43</time>
   <energy>
    <i name="e_fr_energy">     -0.05821837 </i>
    <i name="e_wo_entrp">     -0.00521706 </i>
    <i name="e_0_energy">     -0.03171771 </i>
   </energy>
  </scstep>
  <scstep>
   <time name="dav">   89.77   90.59</time>
   <time name="total">   93.76   94.60</time>
   <energy>
    <i name="e_fr_energy">     -0.05825222 </i>
    <i name="e_wo_entrp">     -0.00525089 </i>
    <i name="e_0_energy">     -0.03175155 </i>
   </energy>
  </scstep>
  <scstep>
   <time name="dav">   81.45   82.38</time>
   <time name="total">   81.94   82.88</time>
   <energy>
    <i name="alphaZ">      0.02041434 </i>
    <i name="ewald">    -11.83493411 </i>
    <i name="hartreedc">    -42.57843969 </i>
    <i name="XCdc">      4.75548609 </i>
    <i name="pawpsdc">     43.56777821 </i>
    <i name="pawaedc">    -42.71249105 </i>
    <i name="eentropy">     -0.05300134 </i>
    <i name="bandstr">    -22.39266571 </i>
    <i name="atom">     71.16960075 </i>
    <i name="e_fr_energy">     -0.05825251 </i>
    <i name="e_wo_entrp">     -0.00525117 </i>
    <i name="e_0_energy">     -0.03175184 </i>
   </energy>
  </scstep>
  <structure>
   <crystal>
    <varray name="basis" >
     <v>      14.99250000       0.00000000       0.00000000 </v>
     <v>       0.00000000      12.49375000       0.00000000 </v>
     <v>       0.00000000       0.00000000      17.99100000 </v>
    </varray>
    <i name="volume">   3369.94003083 </i>
    <varray name="rec_basis" >
     <v>       0.06670002       0.00000000       0.00000000 </v>
     <v>       0.00000000       0.08004002       0.00000000 </v>
     <v>       0.00000000       0.00000000       0.05558335 </v>
    </varray>
   </crystal>
   <varray name="positions" >
    <v>       0.52123000       0.54500000       0.63796000 </v>
   </varray>
  </structure>
  <varray name="forces" >
   <v>      -0.00000000      -0.00000000       0.00000000 </v>
  </varray>
  <varray name="stress" >
   <v>      -0.00046991      -0.00000000       0.00000000 </v>
   <v>      -0.00000000      -0.00047667       0.00000000 </v>
   <v>       0.00000000       0.00000000      -0.00045582 </v>
  </varray>
  <energy>
   <i name="e_fr_energy">     -0.05825251 </i>
   <i name="e_wo_entrp">     -0.00525117 </i>
   <i name="e_0_energy">     -0.03175184 </i>
  </energy>
  <time name="totalsc">  555.56  560.79</time>
  <eigenvalues>
   <array>
    <dimension dim="1">band</dimension>
    <dimension dim="2">kpoint</dimension>
    <dimension dim="3">spin</dimension>
    <field>eigene</field>
    <field>occ</field>
    <set>
     <set comment="spin 1">
      <set comment="kpoint 1">
       <r>   -9.4099    1.0000 </r>
       <r>   -3.5730    0.1667 </r>
       <r>   -3.5729    0.1667 </r>
       <r>   -3.5728    0.1659 </r>
       <r>   -0.2621    0.0000 </r>
       <r>    0.2948    0.0000 </r>
       <r>    0.3098    0.0000 </r>
       <r>    0.4395    0.0000 </r>
       <r>    0.5740    0.0000 </r>
       <r>    0.6872    0.0000 </r>
       <r>    0.8294    0.0000 </r>
       <r>    0.9113    0.0000 </r>
       <r>    0.9450    0.0000 </r>
       <r>    1.0366    0.0000 </r>
       <r>    1.0798    0.0000 </r>
       <r>    1.1747    0.0000 </r>
       <r>    1.2099    0.0000 </r>
       <r>    1.2904    0.0000 </r>
       <r>    1.3357    0.0000 </r>
       <r>    1.3537    0.0000 </r>
       <r>    1.4292    0.0000 </r>
       <r>    1.4998    0.0000 </r>
       <r>    1.5775    0.0000 </r>
       <r>    1.7091    0.0000 </r>
      </set>
      <set comment="kpoint 2">
       <r>   -9.4099    1.0000 </r>
       <r>   -3.5730    0.1667 </r>
       <r>   -3.5730    0.1667 </r>
       <r>   -3.5728    0.1659 </r>
       <r>   -0.2522    0.0000 </r>
       <r>    0.2693    0.0000 </r>
       <r>    0.3210    0.0000 </r>
       <r>    0.3738    0.0000 </r>
       <r>    0.6899    0.0000 </r>
       <r>    0.7085    0.0000 </r>
       <r>    0.8014    0.0000 </r>
       <r>    0.8311    0.0000 </r>
       <r>    0.8421    0.0000 </r>
       <r>    1.1527    0.0000 </r>
       <r>    1.1659    0.0000 </r>
       <r>    1.1985    0.0000 </r>
       <r>    1.2208    0.0000 </r>
       <r>    1.2581    0.0000 </r>
       <r>    1.3331    0.0000 </r>
       <r>    1.3524    0.0000 </r>
       <r>    1.3891    0.0000 </r>
       <r>    1.5778    0.0000 </r>
       <r>    1.6390    0.0000 </r>
       <r>    1.6893    0.0000 </r>
      </set>
      <set comment="kpoint 3">
       <r>   -9.4099    1.0000 </r>
       <r>   -3.5730    0.1667 </r>
       <r>   -3.5730    0.1667 </r>
       <r>   -3.5728    0.1659 </r>
       <r>   -0.2340    0.0000 </r>
       <r>    0.1993    0.0000 </r>
       <r>    0.3427    0.0000 </r>
       <r>    0.3759    0.0000 </r>
       <r>    0.7044    0.0000 </r>
       <r>    0.7121    0.0000 </r>
       <r>    0.7165    0.0000 </r>
       <r>    0.8552    0.0000 </r>
       <r>    0.8728    0.0000 </r>
       <r>    1.0904    0.0000 </r>
       <r>    1.1944    0.0000 </r>
       <r>    1.2350    0.0000 </r>
       <r>    1.2742    0.0000 </r>
       <r>    1.2965    0.0000 </r>
       <r>    1.3890    0.0000 </r>
       <r>    1.3998    0.0000 </r>
       <r>    1.4074    0.0000 </r>
       <r>    1.5977    0.0000 </r>
       <r>    1.5981    0.0000 </r>
       <r>    1.6508    0.0000 </r>
      </set>
      <set comment="kpoint 4">
       <r>   -9.4099    1.0000 </r>
       <r>   -3.5730    0.1668 </r>
       <r>   -3.5730    0.1667 </r>
       <r>   -3.5728    0.1659 </r>
       <r>   -0.2117    0.0000 </r>
       <r>    0.1313    0.0000 </r>
       <r>    0.3718    0.0000 </r>
       <r>    0.4072    0.0000 </r>
       <r>    0.6247    0.0000 </r>
       <r>    0.6274    0.0000 </r>
       <r>    0.7400    0.0000 </r>
       <r>    0.8880    0.0000 </r>
       <r>    1.0020    0.0000 </r>
       <r>    1.0412    0.0000 </r>
       <r>    1.1678    0.0000 </r>
       <r>    1.2204    0.0000 </r>
       <r>    1.3084    0.0000 </r>
       <r>    1.3639    0.0000 </r>
       <r>    1.4376    0.0000 </r>
       <r>    1.4863    0.0000 </r>
       <r>    1.5069    0.0000 </r>
       <r>    1.5467    0.0000 </r>
       <r>    1.5606    0.0000 </r>
       <r>    1.6064    0.0000 </r>
      </set>
      <set comment="kpoint 5">
       <r>   -9.4099    1.0000 </r>
       <r>   -3.5730    0.1668 </r>
       <r>   -3.5730    0.1667 </r>
       <r>   -3.5728    0.1659 </r>
       <r>   -0.1946    0.0000 </r>
       <r>    0.0901    0.0000 </r>
       <r>    0.3984    0.0000 </r>
       <r>    0.4455    0.0000 </r>
       <r>    0.5617    0.0000 </r>
       <r>    0.5728    0.0000 </r>
       <r>    0.7604    0.0000 </r>
       <r>    0.9130    0.0000 </r>
       <r>    0.9714    0.0000 </r>
       <r>    1.1020    0.0000 </r>
       <r>    1.2129    0.0000 </r>
       <r>    1.2402    0.0000 </r>
       <r>    1.3431    0.0000 </r>
       <r>    1.4049    0.0000 </r>
       <r>    1.4050    0.0000 </r>
       <r>    1.4496    0.0000 </r>
       <r>    1.4545    0.0000 </r>
       <r>    1.5171    0.0000 </r>
       <r>    1.5822    0.0000 </r>
       <r>    1.5847    0.0000 </r>
      </set>
      <set comment="kpoint 6">
       <r>   -9.4099    1.0000 </r>
       <r>   -3.5730    0.1667 </r>
       <r>   -3.5729    0.1666 </r>
       <r>   -3.5729    0.1660 </r>
       <r>   -0.2529    0.0000 </r>
       <r>    0.3030    0.0000 </r>
       <r>    0.3188    0.0000 </r>
       <r>    0.4484    0.0000 </r>
       <r>    0.5624    0.0000 </r>
       <r>    0.5924    0.0000 </r>
       <r>    0.9188    0.0000 </r>
       <r>    0.9472    0.0000 </r>
       <r>    0.9648    0.0000 </r>
       <r>    1.0257    0.0000 </r>
       <r>    1.0856    0.0000 </r>
       <r>    1.0881    0.0000 </r>
       <r>    1.0968    0.0000 </r>
       <r>    1.1900    0.0000 </r>
       <r>    1.3352    0.0000 </r>
       <r>    1.4571    0.0000 </r>
       <r>    1.4946    0.0000 </r>
       <r>    1.5857    0.0000 </r>
       <r>    1.6393    0.0000 </r>
       <r>    1.6808    0.0000 </r>
      </set>
      <set comment="kpoint 7">
       <r>   -9.4099    1.0000 </r>
       <r>   -3.5730    0.1667 </r>
       <r>   -3.5730    0.1667 </r>
       <r>   -3.5729    0.1660 </r>
       <r>   -0.2430    0.0000 </r>
       <r>    0.2778    0.0000 </r>
       <r>    0.3300    0.0000 </r>
       <r>    0.3828    0.0000 </r>
       <r>    0.5793    0.0000 </r>
       <r>    0.7126    0.0000 </r>
       <r>    0.8101    0.0000 </r>
       <r>    0.8412    0.0000 </r>
       <r>    0.9684    0.0000 </r>
       <r>    1.0598    0.0000 </r>
       <r>    1.0625    0.0000 </r>
       <r>    1.1367    0.0000 </r>
       <r>    1.1939    0.0000 </r>
       <r>    1.2354    0.0000 </r>
       <r>    1.4215    0.0000 </r>
       <r>    1.4671    0.0000 </r>
       <r>    1.4717    0.0000 </r>
       <r>    1.5600    0.0000 </r>
       <r>    1.5760    0.0000 </r>
       <r>    1.6065    0.0000 </r>
      </set>
      <set comment="kpoint 8">
       <r>   -9.4099    1.0000 </r>
       <r>   -3.5730    0.1667 </r>
       <r>   -3.5730    0.1667 </r>
       <r>   -3.5729    0.1660 </r>
       <r>   -0.2249    0.0000 </r>
       <r>    0.2084    0.0000 </r>
       <r>    0.3516    0.0000 </r>
       <r>    0.3845    0.0000 </r>
       <r>    0.5999    0.0000 </r>
       <r>    0.7135    0.0000 </r>
       <r>    0.7218    0.0000 </r>
       <r>    0.8748    0.0000 </r>
       <r>    0.9657    0.0000 </r>
       <r>    1.0038    0.0000 </r>
       <r>    1.0856    0.0000 </r>
       <r>    1.1533    0.0000 </r>
       <r>    1.3260    0.0000 </r>
       <r>    1.3513    0.0000 </r>
       <r>    1.3978    0.0000 </r>
       <r>    1.4699    0.0000 </r>
       <r>    1.4991    0.0000 </r>
       <r>    1.5107    0.0000 </r>
       <r>    1.5333    0.0000 </r>
       <r>    1.6334    0.0000 </r>
      </set>
      <set comment="kpoint 9">
       <r>   -9.4099    1.0000 </r>
       <r>   -3.5730    0.1668 </r>
       <r>   -3.5730    0.1667 </r>
       <r>   -3.5729    0.1660 </r>
       <r>   -0.2027    0.0000 </r>
       <r>    0.1406    0.0000 </r>
       <r>    0.3806    0.0000 </r>
       <r>    0.4157    0.0000 </r>
       <r>    0.6258    0.0000 </r>
       <r>    0.6341    0.0000 </r>
       <r>    0.6366    0.0000 </r>
       <r>    0.8946    0.0000 </r>
       <r>    1.0193    0.0000 </r>
       <r>    1.0402    0.0000 </r>
       <r>    1.1131    0.0000 </r>
       <r>    1.1888    0.0000 </r>
       <r>    1.2928    0.0000 </r>
       <r>    1.3698    0.0000 </r>
       <r>    1.4004    0.0000 </r>
       <r>    1.4863    0.0000 </r>
       <r>    1.5469    0.0000 </r>
       <r>    1.5527    0.0000 </r>
       <r>    1.5723    0.0000 </r>
       <r>    1.6421    0.0000 </r>
      </set>
      <set comment="kpoint 10">
       <r>   -9.4099    1.0000 </r>
       <r>   -3.5730    0.1668 </r>
       <r>   -3.5730    0.1667 </r>
       <r>   -3.5729    0.1660 </r>
       <r>   -0.1856    0.0000 </r>
       <r>    0.0995    0.0000 </r>
       <r>    0.4070    0.0000 </r>
       <r>    0.4539    0.0000 </r>
       <r>    0.5703    0.0000 </r>
       <r>    0.5824    0.0000 </r>
       <r>    0.6488    0.0000 </r>
       <r>    0.8507    0.0000 </r>
       <r>    1.0392    0.0000 </r>
       <r>    1.1363    0.0000 </r>
       <r>    1.1918    0.0000 </r>
       <r>    1.2317    0.0000 </r>
       <r>    1.2601    0.0000 </r>
       <r>    1.3326    0.0000 </r>
       <r>    1.3370    0.0000 </r>
       <r>    1.4211    0.0000 </r>
       <r>    1.5265    0.0000 </r>
       <r>    1.6439    0.0000 </r>
       <r>    1.6494    0.0000 </r>
       <r>    1.7079    0.0000 </r>
      </set>
      <set comment="kpoint 11">
       <r>   -9.4099    1.0000 </r>
       <r>   -3.5730    0.1667 </r>
       <r>   -3.5729    0.1666 </r>
       <r>   -3.5729    0.1663 </r>
       <r>   -0.2349    0.0000 </r>
       <r>    0.3159    0.0000 </r>
       <r>    0.3366    0.0000 </r>
       <r>    0.4615    0.0000 </r>
       <r>    0.4681    0.0000 </r>
       <r>    0.6050    0.0000 </r>
       <r>    0.9187    0.0000 </r>
       <r>    0.9557    0.0000 </r>
       <r>    0.9614    0.0000 </r>
       <r>    0.9754    0.0000 </r>
       <r>    1.0733    0.0000 </r>
       <r>    1.0804    0.0000 </r>
       <r>    1.1042    0.0000 </r>
       <r>    1.1360    0.0000 </r>
       <r>    1.2306    0.0000 </r>
       <r>    1.5476    0.0000 </r>
       <r>    1.5765    0.0000 </r>
       <r>    1.6102    0.0000 </r>
       <r>    1.6453    0.0000 </r>
       <r>    1.6619    0.0000 </r>
      </set>
      <set comment="kpoint 12">
       <r>   -9.4099    1.0000 </r>
       <r>   -3.5730    0.1667 </r>
       <r>   -3.5729    0.1667 </r>
       <r>   -3.5729    0.1663 </r>
       <r>   -0.2251    0.0000 </r>
       <r>    0.2930    0.0000 </r>
       <r>    0.3478    0.0000 </r>
       <r>    0.3994    0.0000 </r>
       <r>    0.4740    0.0000 </r>
       <r>    0.7297    0.0000 </r>
       <r>    0.8265    0.0000 </r>
       <r>    0.8577    0.0000 </r>
       <r>    0.9403    0.0000 </r>
       <r>    0.9587    0.0000 </r>
       <r>    1.0189    0.0000 </r>
       <r>    1.1284    0.0000 </r>
       <r>    1.2092    0.0000 </r>
       <r>    1.2542    0.0000 </r>
       <r>    1.3437    0.0000 </r>
       <r>    1.4530    0.0000 </r>
       <r>    1.4813    0.0000 </r>
       <r>    1.6117    0.0000 </r>
       <r>    1.6152    0.0000 </r>
       <r>    1.6759    0.0000 </r>
      </set>
      <set comment="kpoint 13">
       <r>   -9.4099    1.0000 </r>
       <r>   -3.5730    0.1667 </r>
       <r>   -3.5730    0.1667 </r>
       <r>   -3.5729    0.1663 </r>
       <r>   -0.2070    0.0000 </r>
       <r>    0.2260    0.0000 </r>
       <r>    0.3693    0.0000 </r>
       <r>    0.3987    0.0000 </r>
       <r>    0.4947    0.0000 </r>
       <r>    0.7315    0.0000 </r>
       <r>    0.7365    0.0000 </r>
       <r>    0.8580    0.0000 </r>
       <r>    0.9028    0.0000 </r>
       <r>    0.9788    0.0000 </r>
       <r>    1.0273    0.0000 </r>
       <r>    1.1491    0.0000 </r>
       <r>    1.3196    0.0000 </r>
       <r>    1.3472    0.0000 </r>
       <r>    1.3935    0.0000 </r>
       <r>    1.4090    0.0000 </r>
       <r>    1.5023    0.0000 </r>
       <r>    1.5564    0.0000 </r>
       <r>    1.6316    0.0000 </r>
       <r>    1.6921    0.0000 </r>
      </set>
      <set comment="kpoint 14">
       <r>   -9.4099    1.0000 </r>
       <r>   -3.5730    0.1667 </r>
       <r>   -3.5730    0.1667 </r>
       <r>   -3.5729    0.1663 </r>
       <r>   -0.1849    0.0000 </r>
       <r>    0.1591    0.0000 </r>
       <r>    0.3981    0.0000 </r>
       <r>    0.4287    0.0000 </r>
       <r>    0.5221    0.0000 </r>
       <r>    0.6519    0.0000 </r>
       <r>    0.6527    0.0000 </r>
       <r>    0.7878    0.0000 </r>
       <r>    1.0065    0.0000 </r>
       <r>    1.0514    0.0000 </r>
       <r>    1.0649    0.0000 </r>
       <r>    1.1744    0.0000 </r>
       <r>    1.2680    0.0000 </r>
       <r>    1.2744    0.0000 </r>
       <r>    1.4493    0.0000 </r>
       <r>    1.5173    0.0000 </r>
       <r>    1.5811    0.0000 </r>
       <r>    1.6049    0.0000 </r>
       <r>    1.6602    0.0000 </r>
       <r>    1.6833    0.0000 </r>
      </set>
      <set comment="kpoint 15">
       <r>   -9.4099    1.0000 </r>
       <r>   -3.5730    0.1668 </r>
       <r>   -3.5730    0.1667 </r>
       <r>   -3.5729    0.1663 </r>
       <r>   -0.1680    0.0000 </r>
       <r>    0.1182    0.0000 </r>
       <r>    0.4241    0.0000 </r>
       <r>    0.4652    0.0000 </r>
       <r>    0.5467    0.0000 </r>
       <r>    0.5869    0.0000 </r>
       <r>    0.6015    0.0000 </r>
       <r>    0.7404    0.0000 </r>
       <r>    1.0310    0.0000 </r>
       <r>    1.0948    0.0000 </r>
       <r>    1.1902    0.0000 </r>
       <r>    1.1962    0.0000 </r>
       <r>    1.2202    0.0000 </r>
       <r>    1.2508    0.0000 </r>
       <r>    1.3885    0.0000 </r>
       <r>    1.4606    0.0000 </r>
       <r>    1.6366    0.0000 </r>
       <r>    1.6943    0.0000 </r>
       <r>    1.7418    0.0000 </r>
       <r>    1.7668    0.0000 </r>
      </set>
      <set comment="kpoint 16">
       <r>   -9.4099    1.0000 </r>
       <r>   -3.5729    0.1667 </r>
       <r>   -3.5729    0.1667 </r>
       <r>   -3.5729    0.1666 </r>
       <r>   -0.2089    0.0000 </r>
       <r>    0.3078    0.0000 </r>
       <r>    0.3631    0.0000 </r>
       <r>    0.3996    0.0000 </r>
       <r>    0.4923    0.0000 </r>
       <r>    0.6322    0.0000 </r>
       <r>    0.8390    0.0000 </r>
       <r>    0.8589    0.0000 </r>
       <r>    0.9593    0.0000 </r>
       <r>    0.9710    0.0000 </r>
       <r>    1.0214    0.0000 </r>
       <r>    1.1036    0.0000 </r>
       <r>    1.1093    0.0000 </r>
       <r>    1.1519    0.0000 </r>
       <r>    1.2768    0.0000 </r>
       <r>    1.4626    0.0000 </r>
       <r>    1.4849    0.0000 </r>
       <r>    1.5852    0.0000 </r>
       <r>    1.6231    0.0000 </r>
       <r>    1.6960    0.0000 </r>
      </set>
      <set comment="kpoint 17">
       <r>   -9.4099    1.0000 </r>
       <r>   -3.5729    0.1667 </r>
       <r>   -3.5729    0.1667 </r>
       <r>   -3.5729    0.1666 </r>
       <r>   -0.1992    0.0000 </r>
       <r>    0.3010    0.0000 </r>
       <r>    0.3741    0.0000 </r>
       <r>    0.3846    0.0000 </r>
       <r>    0.4356    0.0000 </r>
       <r>    0.7525    0.0000 </r>
       <r>    0.8309    0.0000 </r>
       <r>    0.8337    0.0000 </r>
       <r>    0.8795    0.0000 </r>
       <r>    0.8935    0.0000 </r>
       <r>    0.9217    0.0000 </r>
       <r>    1.2229    0.0000 </r>
       <r>    1.2312    0.0000 </r>
       <r>    1.2802    0.0000 </r>
       <r>    1.2983    0.0000 </r>
       <r>    1.3570    0.0000 </r>
       <r>    1.3884    0.0000 </r>
       <r>    1.6949    0.0000 </r>
       <r>    1.7005    0.0000 </r>
       <r>    1.7495    0.0000 </r>
      </set>
      <set comment="kpoint 18">
       <r>   -9.4099    1.0000 </r>
       <r>   -3.5729    0.1667 </r>
       <r>   -3.5729    0.1667 </r>
       <r>   -3.5729    0.1666 </r>
       <r>   -0.1812    0.0000 </r>
       <r>    0.2501    0.0000 </r>
       <r>    0.3747    0.0000 </r>
       <r>    0.3954    0.0000 </r>
       <r>    0.4498    0.0000 </r>
       <r>    0.7283    0.0000 </r>
       <r>    0.7573    0.0000 </r>
       <r>    0.7965    0.0000 </r>
       <r>    0.8812    0.0000 </r>
       <r>    0.9233    0.0000 </r>
       <r>    0.9273    0.0000 </r>
       <r>    1.2418    0.0000 </r>
       <r>    1.2471    0.0000 </r>
       <r>    1.2922    0.0000 </r>
       <r>    1.3957    0.0000 </r>
       <r>    1.4202    0.0000 </r>
       <r>    1.4460    0.0000 </r>
       <r>    1.6766    0.0000 </r>
       <r>    1.7421    0.0000 </r>
       <r>    1.7427    0.0000 </r>
      </set>
      <set comment="kpoint 19">
       <r>   -9.4099    1.0000 </r>
       <r>   -3.5730    0.1667 </r>
       <r>   -3.5729    0.1667 </r>
       <r>   -3.5729    0.1667 </r>
       <r>   -0.1594    0.0000 </r>
       <r>    0.1862    0.0000 </r>
       <r>    0.3973    0.0000 </r>
       <r>    0.4239    0.0000 </r>
       <r>    0.4824    0.0000 </r>
       <r>    0.6509    0.0000 </r>
       <r>    0.6802    0.0000 </r>
       <r>    0.7144    0.0000 </r>
       <r>    0.9082    0.0000 </r>
       <r>    0.9583    0.0000 </r>
       <r>    1.0814    0.0000 </r>
       <r>    1.1662    0.0000 </r>
       <r>    1.1707    0.0000 </r>
       <r>    1.3213    0.0000 </r>
       <r>    1.5416    0.0000 </r>
       <r>    1.5450    0.0000 </r>
       <r>    1.5843    0.0000 </r>
       <r>    1.6506    0.0000 </r>
       <r>    1.6699    0.0000 </r>
       <r>    1.7695    0.0000 </r>
      </set>
      <set comment="kpoint 20">
       <r>   -9.4099    1.0000 </r>
       <r>   -3.5730    0.1667 </r>
       <r>   -3.5729    0.1667 </r>
       <r>   -3.5729    0.1667 </r>
       <r>   -0.1427    0.0000 </r>
       <r>    0.1462    0.0000 </r>
       <r>    0.4219    0.0000 </r>
       <r>    0.4493    0.0000 </r>
       <r>    0.5192    0.0000 </r>
       <r>    0.5937    0.0000 </r>
       <r>    0.6299    0.0000 </r>
       <r>    0.6579    0.0000 </r>
       <r>    0.9336    0.0000 </r>
       <r>    0.9988    0.0000 </r>
       <r>    1.0975    0.0000 </r>
       <r>    1.1156    0.0000 </r>
       <r>    1.2573    0.0000 </r>
       <r>    1.3430    0.0000 </r>
       <r>    1.4467    0.0000 </r>
       <r>    1.5811    0.0000 </r>
       <r>    1.6885    0.0000 </r>
       <r>    1.7235    0.0000 </r>
       <r>    1.7742    0.0000 </r>
       <r>    1.8033    0.0000 </r>
      </set>
      <set comment="kpoint 21">
       <r>   -9.4099    1.0000 </r>
       <r>   -3.5730    0.1670 </r>
       <r>   -3.5729    0.1666 </r>
       <r>   -3.5729    0.1666 </r>
       <r>   -0.1767    0.0000 </r>
       <r>    0.2433    0.0000 </r>
       <r>    0.3973    0.0000 </r>
       <r>    0.4141    0.0000 </r>
       <r>    0.5259    0.0000 </r>
       <r>    0.6680    0.0000 </r>
       <r>    0.7518    0.0000 </r>
       <r>    0.7629    0.0000 </r>
       <r>    0.8826    0.0000 </r>
       <r>    1.0033    0.0000 </r>
       <r>    1.0241    0.0000 </r>
       <r>    1.0509    0.0000 </r>
       <r>    1.1370    0.0000 </r>
       <r>    1.1818    0.0000 </r>
       <r>    1.3734    0.0000 </r>
       <r>    1.3765    0.0000 </r>
       <r>    1.4380    0.0000 </r>
       <r>    1.4987    0.0000 </r>
       <r>    1.5418    0.0000 </r>
       <r>    1.7328    0.0000 </r>
      </set>
      <set comment="kpoint 22">
       <r>   -9.4099    1.0000 </r>
       <r>   -3.5730    0.1670 </r>
       <r>   -3.5729    0.1666 </r>
       <r>   -3.5729    0.1666 </r>
       <r>   -0.1671    0.0000 </r>
       <r>    0.2521    0.0000 </r>
       <r>    0.3845    0.0000 </r>
       <r>    0.4082    0.0000 </r>
       <r>    0.4691    0.0000 </r>
       <r>    0.7286    0.0000 </r>
       <r>    0.7620    0.0000 </r>
       <r>    0.7962    0.0000 </r>
       <r>    0.8246    0.0000 </r>
       <r>    0.8970    0.0000 </r>
       <r>    0.9354    0.0000 </r>
       <r>    1.1490    0.0000 </r>
       <r>    1.2331    0.0000 </r>
       <r>    1.2754    0.0000 </r>
       <r>    1.2974    0.0000 </r>
       <r>    1.3227    0.0000 </r>
       <r>    1.4521    0.0000 </r>
       <r>    1.6353    0.0000 </r>
       <r>    1.6694    0.0000 </r>
       <r>    1.7402    0.0000 </r>
      </set>
      <set comment="kpoint 23">
       <r>   -9.4099    1.0000 </r>
       <r>   -3.5730    0.1670 </r>
       <r>   -3.5729    0.1666 </r>
       <r>   -3.5729    0.1666 </r>
       <r>   -0.1494    0.0000 </r>
       <r>    0.2587    0.0000 </r>
       <r>    0.3215    0.0000 </r>
       <r>    0.4292    0.0000 </r>
       <r>    0.4798    0.0000 </r>
       <r>    0.6521    0.0000 </r>
       <r>    0.7715    0.0000 </r>
       <r>    0.8137    0.0000 </r>
       <r>    0.8174    0.0000 </r>
       <r>    0.8300    0.0000 </r>
       <r>    0.9602    0.0000 </r>
       <r>    1.1529    0.0000 </r>
       <r>    1.1584    0.0000 </r>
       <r>    1.3108    0.0000 </r>
       <r>    1.4254    0.0000 </r>
       <r>    1.4514    0.0000 </r>
       <r>    1.4986    0.0000 </r>
       <r>    1.7343    0.0000 </r>
       <r>    1.7733    0.0000 </r>
       <r>    1.8198    0.0000 </r>
      </set>
      <set comment="kpoint 24">
       <r>   -9.4099    1.0000 </r>
       <r>   -3.5730    0.1670 </r>
       <r>   -3.5730    0.1667 </r>
       <r>   -3.5729    0.1666 </r>
       <r>   -0.1281    0.0000 </r>
       <r>    0.2198    0.0000 </r>
       <r>    0.3195    0.0000 </r>
       <r>    0.4570    0.0000 </r>
       <r>    0.5127    0.0000 </r>
       <r>    0.5775    0.0000 </r>
       <r>    0.7155    0.0000 </r>
       <r>    0.7330    0.0000 </r>
       <r>    0.8213    0.0000 </r>
       <r>    0.8630    0.0000 </r>
       <r>    1.0646    0.0000 </r>
       <r>    1.0732    0.0000 </r>
       <r>    1.1287    0.0000 </r>
       <r>    1.4399    0.0000 </r>
       <r>    1.5080    0.0000 </r>
       <r>    1.5778    0.0000 </r>
       <r>    1.6383    0.0000 </r>
       <r>    1.6713    0.0000 </r>
       <r>    1.8031    0.0000 </r>
       <r>    1.8346    0.0000 </r>
      </set>
      <set comment="kpoint 25">
       <r>   -9.4099    1.0000 </r>
       <r>   -3.5730    0.1670 </r>
       <r>   -3.5730    0.1667 </r>
       <r>   -3.5729    0.1666 </r>
       <r>   -0.1119    0.0000 </r>
       <r>    0.1828    0.0000 </r>
       <r>    0.3406    0.0000 </r>
       <r>    0.4815    0.0000 </r>
       <r>    0.5259    0.0000 </r>
       <r>    0.5533    0.0000 </r>
       <r>    0.6673    0.0000 </r>
       <r>    0.6681    0.0000 </r>
       <r>    0.8468    0.0000 </r>
       <r>    0.9038    0.0000 </r>
       <r>    1.0037    0.0000 </r>
       <r>    1.0206    0.0000 </r>
       <r>    1.2928    0.0000 </r>
       <r>    1.4560    0.0000 </r>
       <r>    1.5132    0.0000 </r>
       <r>    1.6450    0.0000 </r>
       <r>    1.7228    0.0000 </r>
       <r>    1.7396    0.0000 </r>
       <r>    1.8159    0.0000 </r>
       <r>    1.8360    0.0000 </r>
      </set>
      <set comment="kpoint 26">
       <r>   -9.4099    1.0000 </r>
       <r>   -3.5730    0.1673 </r>
       <r>   -3.5729    0.1666 </r>
       <r>   -3.5729    0.1666 </r>
       <r>   -0.1426    0.0000 </r>
       <r>    0.1760    0.0000 </r>
       <r>    0.4368    0.0000 </r>
       <r>    0.4564    0.0000 </r>
       <r>    0.5642    0.0000 </r>
       <r>    0.6758    0.0000 </r>
       <r>    0.6766    0.0000 </r>
       <r>    0.7108    0.0000 </r>
       <r>    0.8097    0.0000 </r>
       <r>    0.9466    0.0000 </r>
       <r>    1.0413    0.0000 </r>
       <r>    1.0947    0.0000 </r>
       <r>    1.1762    0.0000 </r>
       <r>    1.2285    0.0000 </r>
       <r>    1.2971    0.0000 </r>
       <r>    1.3014    0.0000 </r>
       <r>    1.4228    0.0000 </r>
       <r>    1.4317    0.0000 </r>
       <r>    1.6090    0.0000 </r>
       <r>    1.7780    0.0000 </r>
      </set>
      <set comment="kpoint 27">
       <r>   -9.4099    1.0000 </r>
       <r>   -3.5730    0.1673 </r>
       <r>   -3.5729    0.1666 </r>
       <r>   -3.5729    0.1666 </r>
       <r>   -0.1332    0.0000 </r>
       <r>    0.1871    0.0000 </r>
       <r>    0.4221    0.0000 </r>
       <r>    0.4475    0.0000 </r>
       <r>    0.5122    0.0000 </r>
       <r>    0.6516    0.0000 </r>
       <r>    0.6874    0.0000 </r>
       <r>    0.7383    0.0000 </r>
       <r>    0.8369    0.0000 </r>
       <r>    0.9361    0.0000 </r>
       <r>    0.9825    0.0000 </r>
       <r>    1.0743    0.0000 </r>
       <r>    1.1713    0.0000 </r>
       <r>    1.1919    0.0000 </r>
       <r>    1.3192    0.0000 </r>
       <r>    1.3700    0.0000 </r>
       <r>    1.5555    0.0000 </r>
       <r>    1.5619    0.0000 </r>
       <r>    1.6333    0.0000 </r>
       <r>    1.7834    0.0000 </r>
      </set>
      <set comment="kpoint 28">
       <r>   -9.4099    1.0000 </r>
       <r>   -3.5730    0.1673 </r>
       <r>   -3.5729    0.1666 </r>
       <r>   -3.5729    0.1666 </r>
       <r>   -0.1161    0.0000 </r>
       <r>    0.2079    0.0000 </r>
       <r>    0.3448    0.0000 </r>
       <r>    0.4679    0.0000 </r>
       <r>    0.5238    0.0000 </r>
       <r>    0.5753    0.0000 </r>
       <r>    0.7093    0.0000 </r>
       <r>    0.7448    0.0000 </r>
       <r>    0.8422    0.0000 </r>
       <r>    0.8604    0.0000 </r>
       <r>    0.9993    0.0000 </r>
       <r>    1.0740    0.0000 </r>
       <r>    1.0790    0.0000 </r>
       <r>    1.2381    0.0000 </r>
       <r>    1.4619    0.0000 </r>
       <r>    1.5192    0.0000 </r>
       <r>    1.6173    0.0000 </r>
       <r>    1.7107    0.0000 </r>
       <r>    1.7380    0.0000 </r>
       <r>    1.7833    0.0000 </r>
      </set>
      <set comment="kpoint 29">
       <r>   -9.4099    1.0000 </r>
       <r>   -3.5730    0.1673 </r>
       <r>   -3.5729    0.1667 </r>
       <r>   -3.5729    0.1666 </r>
       <r>   -0.0955    0.0000 </r>
       <r>    0.2321    0.0000 </r>
       <r>    0.2814    0.0000 </r>
       <r>    0.4946    0.0000 </r>
       <r>    0.4976    0.0000 </r>
       <r>    0.5595    0.0000 </r>
       <r>    0.7347    0.0000 </r>
       <r>    0.7710    0.0000 </r>
       <r>    0.7756    0.0000 </r>
       <r>    0.7789    0.0000 </r>
       <r>    0.9856    0.0000 </r>
       <r>    0.9918    0.0000 </r>
       <r>    1.1634    0.0000 </r>
       <r>    1.3961    0.0000 </r>
       <r>    1.6136    0.0000 </r>
       <r>    1.6152    0.0000 </r>
       <r>    1.6846    0.0000 </r>
       <r>    1.7114    0.0000 </r>
       <r>    1.8509    0.0000 </r>
       <r>    1.8848    0.0000 </r>
      </set>
      <set comment="kpoint 30">
       <r>   -9.4099    1.0000 </r>
       <r>   -3.5730    0.1673 </r>
       <r>   -3.5730    0.1667 </r>
       <r>   -3.5729    0.1666 </r>
       <r>   -0.0802    0.0000 </r>
       <r>    0.2262    0.0000 </r>
       <r>    0.2733    0.0000 </r>
       <r>    0.4477    0.0000 </r>
       <r>    0.5176    0.0000 </r>
       <r>    0.5983    0.0000 </r>
       <r>    0.7110    0.0000 </r>
       <r>    0.7120    0.0000 </r>
       <r>    0.7744    0.0000 </r>
       <r>    0.8185    0.0000 </r>
       <r>    0.9194    0.0000 </r>
       <r>    0.9371    0.0000 </r>
       <r>    1.3308    0.0000 </r>
       <r>    1.5023    0.0000 </r>
       <r>    1.5821    0.0000 </r>
       <r>    1.6404    0.0000 </r>
       <r>    1.7529    0.0000 </r>
       <r>    1.7554    0.0000 </r>
       <r>    1.8771    0.0000 </r>
       <r>    1.8820    0.0000 </r>
      </set>
      <set comment="kpoint 31">
       <r>   -9.4099    1.0000 </r>
       <r>   -3.5731    0.1675 </r>
       <r>   -3.5729    0.1666 </r>
       <r>   -3.5729    0.1665 </r>
       <r>   -0.1173    0.0000 </r>
       <r>    0.1331    0.0000 </r>
       <r>    0.4719    0.0000 </r>
       <r>    0.5044    0.0000 </r>
       <r>    0.5966    0.0000 </r>
       <r>    0.6087    0.0000 </r>
       <r>    0.6224    0.0000 </r>
       <r>    0.7471    0.0000 </r>
       <r>    0.7614    0.0000 </r>
       <r>    0.8887    0.0000 </r>
       <r>    1.0737    0.0000 </r>
       <r>    1.1467    0.0000 </r>
       <r>    1.2128    0.0000 </r>
       <r>    1.2294    0.0000 </r>
       <r>    1.2430    0.0000 </r>
       <r>    1.2837    0.0000 </r>
       <r>    1.3627    0.0000 </r>
       <r>    1.3703    0.0000 </r>
       <r>    1.7141    0.0000 </r>
       <r>    1.8556    0.0000 </r>
      </set>
      <set comment="kpoint 32">
       <r>   -9.4099    1.0000 </r>
       <r>   -3.5731    0.1675 </r>
       <r>   -3.5729    0.1666 </r>
       <r>   -3.5729    0.1666 </r>
       <r>   -0.1082    0.0000 </r>
       <r>    0.1448    0.0000 </r>
       <r>    0.4621    0.0000 </r>
       <r>    0.4822    0.0000 </r>
       <r>    0.5555    0.0000 </r>
       <r>    0.5904    0.0000 </r>
       <r>    0.6346    0.0000 </r>
       <r>    0.6777    0.0000 </r>
       <r>    0.8708    0.0000 </r>
       <r>    0.9723    0.0000 </r>
       <r>    1.0208    0.0000 </r>
       <r>    1.0373    0.0000 </r>
       <r>    1.1180    0.0000 </r>
       <r>    1.1184    0.0000 </r>
       <r>    1.3501    0.0000 </r>
       <r>    1.4229    0.0000 </r>
       <r>    1.5027    0.0000 </r>
       <r>    1.5107    0.0000 </r>
       <r>    1.7221    0.0000 </r>
       <r>    1.8558    0.0000 </r>
      </set>
      <set comment="kpoint 33">
       <r>   -9.4099    1.0000 </r>
       <r>   -3.5731    0.1675 </r>
       <r>   -3.5729    0.1666 </r>
       <r>   -3.5729    0.1666 </r>
       <r>   -0.0916    0.0000 </r>
       <r>    0.1675    0.0000 </r>
       <r>    0.3818    0.0000 </r>
       <r>    0.5015    0.0000 </r>
       <r>    0.5153    0.0000 </r>
       <r>    0.5737    0.0000 </r>
       <r>    0.6583    0.0000 </r>
       <r>    0.6774    0.0000 </r>
       <r>    0.8799    0.0000 </r>
       <r>    0.9065    0.0000 </r>
       <r>    1.0002    0.0000 </r>
       <r>    1.0164    0.0000 </r>
       <r>    1.0512    0.0000 </r>
       <r>    1.1820    0.0000 </r>
       <r>    1.4930    0.0000 </r>
       <r>    1.5725    0.0000 </r>
       <r>    1.6515    0.0000 </r>
       <r>    1.6630    0.0000 </r>
       <r>    1.7399    0.0000 </r>
       <r>    1.8303    0.0000 </r>
      </set>
      <set comment="kpoint 34">
       <r>   -9.4099    1.0000 </r>
       <r>   -3.5731    0.1675 </r>
       <r>   -3.5729    0.1666 </r>
       <r>   -3.5729    0.1666 </r>
       <r>   -0.0720    0.0000 </r>
       <r>    0.1988    0.0000 </r>
       <r>    0.3137    0.0000 </r>
       <r>    0.4387    0.0000 </r>
       <r>    0.5265    0.0000 </r>
       <r>    0.6078    0.0000 </r>
       <r>    0.6914    0.0000 </r>
       <r>    0.7091    0.0000 </r>
       <r>    0.8055    0.0000 </r>
       <r>    0.8263    0.0000 </r>
       <r>    0.9171    0.0000 </r>
       <r>    0.9311    0.0000 </r>
       <r>    1.1978    0.0000 </r>
       <r>    1.3459    0.0000 </r>
       <r>    1.6425    0.0000 </r>
       <r>    1.6980    0.0000 </r>
       <r>    1.7114    0.0000 </r>
       <r>    1.7738    0.0000 </r>
       <r>    1.8182    0.0000 </r>
       <r>    1.8286    0.0000 </r>
      </set>
      <set comment="kpoint 35">
       <r>   -9.4099    1.0000 </r>
       <r>   -3.5731    0.1675 </r>
       <r>   -3.5729    0.1667 </r>
       <r>   -3.5729    0.1666 </r>
       <r>   -0.0576    0.0000 </r>
       <r>    0.2293    0.0000 </r>
       <r>    0.2732    0.0000 </r>
       <r>    0.3853    0.0000 </r>
       <r>    0.5474    0.0000 </r>
       <r>    0.6474    0.0000 </r>
       <r>    0.7245    0.0000 </r>
       <r>    0.7496    0.0000 </r>
       <r>    0.7590    0.0000 </r>
       <r>    0.7611    0.0000 </r>
       <r>    0.8497    0.0000 </r>
       <r>    0.8725    0.0000 </r>
       <r>    1.3623    0.0000 </r>
       <r>    1.5149    0.0000 </r>
       <r>    1.5545    0.0000 </r>
       <r>    1.7186    0.0000 </r>
       <r>    1.7328    0.0000 </r>
       <r>    1.7787    0.0000 </r>
       <r>    1.9219    0.0000 </r>
       <r>    1.9289    0.0000 </r>
      </set>
      <set comment="kpoint 36">
       <r>   -9.4099    1.0000 </r>
       <r>   -3.5730    0.1667 </r>
       <r>   -3.5729    0.1667 </r>
       <r>   -3.5728    0.1659 </r>
       <r>   -0.2590    0.0000 </r>
       <r>    0.2176    0.0000 </r>
       <r>    0.3884    0.0000 </r>
       <r>    0.4528    0.0000 </r>
       <r>    0.5808    0.0000 </r>
       <r>    0.6907    0.0000 </r>
       <r>    0.8320    0.0000 </r>
       <r>    0.8380    0.0000 </r>
       <r>    0.9658    0.0000 </r>
       <r>    1.0303    0.0000 </r>
       <r>    1.1051    0.0000 </r>
       <r>    1.1644    0.0000 </r>
       <r>    1.2547    0.0000 </r>
       <r>    1.2711    0.0000 </r>
       <r>    1.3131    0.0000 </r>
       <r>    1.4154    0.0000 </r>
       <r>    1.4399    0.0000 </r>
       <r>    1.4985    0.0000 </r>
       <r>    1.5206    0.0000 </r>
       <r>    1.6279    0.0000 </r>
      </set>
      <set comment="kpoint 37">
       <r>   -9.4099    1.0000 </r>
       <r>   -3.5730    0.1667 </r>
       <r>   -3.5730    0.1667 </r>
       <r>   -3.5728    0.1659 </r>
       <r>   -0.2492    0.0000 </r>
       <r>    0.2230    0.0000 </r>
       <r>    0.3191    0.0000 </r>
       <r>    0.4387    0.0000 </r>
       <r>    0.6927    0.0000 </r>
       <r>    0.7064    0.0000 </r>
       <r>    0.7335    0.0000 </r>
       <r>    0.8445    0.0000 </r>
       <r>    0.9200    0.0000 </r>
       <r>    1.0938    0.0000 </r>
       <r>    1.1215    0.0000 </r>
       <r>    1.1932    0.0000 </r>
       <r>    1.2490    0.0000 </r>
       <r>    1.2998    0.0000 </r>
       <r>    1.3368    0.0000 </r>
       <r>    1.3488    0.0000 </r>
       <r>    1.4630    0.0000 </r>
       <r>    1.5013    0.0000 </r>
       <r>    1.5882    0.0000 </r>
       <r>    1.6335    0.0000 </r>
      </set>
      <set comment="kpoint 38">
       <r>   -9.4099    1.0000 </r>
       <r>   -3.5730    0.1667 </r>
       <r>   -3.5730    0.1667 </r>
       <r>   -3.5728    0.1659 </r>
       <r>   -0.2311    0.0000 </r>
       <r>    0.1973    0.0000 </r>
       <r>    0.2787    0.0000 </r>
       <r>    0.4586    0.0000 </r>
       <r>    0.6203    0.0000 </r>
       <r>    0.7185    0.0000 </r>
       <r>    0.8040    0.0000 </r>
       <r>    0.8628    0.0000 </r>
       <r>    0.8795    0.0000 </r>
       <r>    1.0909    0.0000 </r>
       <r>    1.1457    0.0000 </r>
       <r>    1.2345    0.0000 </r>
       <r>    1.2453    0.0000 </r>
       <r>    1.3043    0.0000 </r>
       <r>    1.3477    0.0000 </r>
       <r>    1.4564    0.0000 </r>
       <r>    1.4937    0.0000 </r>
       <r>    1.5166    0.0000 </r>
       <r>    1.5264    0.0000 </r>
       <r>    1.6425    0.0000 </r>
      </set>
      <set comment="kpoint 39">
       <r>   -9.4099    1.0000 </r>
       <r>   -3.5730    0.1668 </r>
       <r>   -3.5730    0.1667 </r>
       <r>   -3.5728    0.1659 </r>
       <r>   -0.2090    0.0000 </r>
       <r>    0.1353    0.0000 </r>
       <r>    0.3013    0.0000 </r>
       <r>    0.4876    0.0000 </r>
       <r>    0.5391    0.0000 </r>
       <r>    0.7287    0.0000 </r>
       <r>    0.7433    0.0000 </r>
       <r>    0.8917    0.0000 </r>
       <r>    1.0061    0.0000 </r>
       <r>    1.0453    0.0000 </r>
       <r>    1.1689    0.0000 </r>
       <r>    1.1753    0.0000 </r>
       <r>    1.3031    0.0000 </r>
       <r>    1.3660    0.0000 </r>
       <r>    1.4067    0.0000 </r>
       <r>    1.4656    0.0000 </r>
       <r>    1.5004    0.0000 </r>
       <r>    1.5378    0.0000 </r>
       <r>    1.5714    0.0000 </r>
       <r>    1.6087    0.0000 </r>
      </set>
      <set comment="kpoint 40">
       <r>   -9.4099    1.0000 </r>
       <r>   -3.5730    0.1668 </r>
       <r>   -3.5730    0.1667 </r>
       <r>   -3.5728    0.1659 </r>
       <r>   -0.1921    0.0000 </r>
       <r>    0.0950    0.0000 </r>
       <r>    0.3317    0.0000 </r>
       <r>    0.4722    0.0000 </r>
       <r>    0.5281    0.0000 </r>
       <r>    0.6715    0.0000 </r>
       <r>    0.7633    0.0000 </r>
       <r>    0.9164    0.0000 </r>
       <r>    0.9762    0.0000 </r>
       <r>    1.1066    0.0000 </r>
       <r>    1.1947    0.0000 </r>
       <r>    1.2199    0.0000 </r>
       <r>    1.3284    0.0000 </r>
       <r>    1.3686    0.0000 </r>
       <r>    1.4047    0.0000 </r>
       <r>    1.4281    0.0000 </r>
       <r>    1.4814    0.0000 </r>
       <r>    1.5418    0.0000 </r>
       <r>    1.5672    0.0000 </r>
       <r>    1.6127    0.0000 </r>
      </set>
      <set comment="kpoint 41">
       <r>   -9.4099    1.0000 </r>
       <r>   -3.5730    0.1667 </r>
       <r>   -3.5729    0.1666 </r>
       <r>   -3.5729    0.1660 </r>
       <r>   -0.2499    0.0000 </r>
       <r>    0.2266    0.0000 </r>
       <r>    0.3959    0.0000 </r>
       <r>    0.4615    0.0000 </r>
       <r>    0.5684    0.0000 </r>
       <r>    0.5975    0.0000 </r>
       <r>    0.8451    0.0000 </r>
       <r>    0.9507    0.0000 </r>
       <r>    0.9744    0.0000 </r>
       <r>    1.0010    0.0000 </r>
       <r>    1.0424    0.0000 </r>
       <r>    1.1637    0.0000 </r>
       <r>    1.1689    0.0000 </r>
       <r>    1.2097    0.0000 </r>
       <r>    1.3353    0.0000 </r>
       <r>    1.3968    0.0000 </r>
       <r>    1.4935    0.0000 </r>
       <r>    1.5710    0.0000 </r>
       <r>    1.5897    0.0000 </r>
       <r>    1.6297    0.0000 </r>
      </set>
      <set comment="kpoint 42">
       <r>   -9.4099    1.0000 </r>
       <r>   -3.5730    0.1667 </r>
       <r>   -3.5730    0.1667 </r>
       <r>   -3.5729    0.1660 </r>
       <r>   -0.2401    0.0000 </r>
       <r>    0.2320    0.0000 </r>
       <r>    0.3280    0.0000 </r>
       <r>    0.4467    0.0000 </r>
       <r>    0.5836    0.0000 </r>
       <r>    0.7096    0.0000 </r>
       <r>    0.7428    0.0000 </r>
       <r>    0.9268    0.0000 </r>
       <r>    0.9653    0.0000 </r>
       <r>    1.0057    0.0000 </r>
       <r>    1.0742    0.0000 </r>
       <r>    1.1262    0.0000 </r>
       <r>    1.1997    0.0000 </r>
       <r>    1.3098    0.0000 </r>
       <r>    1.4038    0.0000 </r>
       <r>    1.4134    0.0000 </r>
       <r>    1.4972    0.0000 </r>
       <r>    1.5148    0.0000 </r>
       <r>    1.5348    0.0000 </r>
       <r>    1.6083    0.0000 </r>
      </set>
      <set comment="kpoint 43">
       <r>   -9.4099    1.0000 </r>
       <r>   -3.5730    0.1667 </r>
       <r>   -3.5730    0.1667 </r>
       <r>   -3.5729    0.1660 </r>
       <r>   -0.2220    0.0000 </r>
       <r>    0.2063    0.0000 </r>
       <r>    0.2878    0.0000 </r>
       <r>    0.4664    0.0000 </r>
       <r>    0.6037    0.0000 </r>
       <r>    0.6297    0.0000 </r>
       <r>    0.8120    0.0000 </r>
       <r>    0.8852    0.0000 </r>
       <r>    0.9652    0.0000 </r>
       <r>    1.0075    0.0000 </r>
       <r>    1.0334    0.0000 </r>
       <r>    1.2185    0.0000 </r>
       <r>    1.2653    0.0000 </r>
       <r>    1.3485    0.0000 </r>
       <r>    1.4133    0.0000 </r>
       <r>    1.4178    0.0000 </r>
       <r>    1.4827    0.0000 </r>
       <r>    1.5358    0.0000 </r>
       <r>    1.5806    0.0000 </r>
       <r>    1.6017    0.0000 </r>
      </set>
      <set comment="kpoint 44">
       <r>   -9.4099    1.0000 </r>
       <r>   -3.5730    0.1668 </r>
       <r>   -3.5730    0.1667 </r>
       <r>   -3.5729    0.1660 </r>
       <r>   -0.1999    0.0000 </r>
       <r>    0.1446    0.0000 </r>
       <r>    0.3103    0.0000 </r>
       <r>    0.4954    0.0000 </r>
       <r>    0.5481    0.0000 </r>
       <r>    0.6304    0.0000 </r>
       <r>    0.7370    0.0000 </r>
       <r>    0.8994    0.0000 </r>
       <r>    1.0199    0.0000 </r>
       <r>    1.0437    0.0000 </r>
       <r>    1.0626    0.0000 </r>
       <r>    1.2432    0.0000 </r>
       <r>    1.2852    0.0000 </r>
       <r>    1.3210    0.0000 </r>
       <r>    1.4173    0.0000 </r>
       <r>    1.4753    0.0000 </r>
       <r>    1.4928    0.0000 </r>
       <r>    1.5558    0.0000 </r>
       <r>    1.6041    0.0000 </r>
       <r>    1.6535    0.0000 </r>
      </set>
      <set comment="kpoint 45">
       <r>   -9.4099    1.0000 </r>
       <r>   -3.5730    0.1668 </r>
       <r>   -3.5730    0.1667 </r>
       <r>   -3.5729    0.1660 </r>
       <r>   -0.1831    0.0000 </r>
       <r>    0.1044    0.0000 </r>
       <r>    0.3407    0.0000 </r>
       <r>    0.4815    0.0000 </r>
       <r>    0.5356    0.0000 </r>
       <r>    0.6525    0.0000 </r>
       <r>    0.6799    0.0000 </r>
       <r>    0.8562    0.0000 </r>
       <r>    1.0396    0.0000 </r>
       <r>    1.0901    0.0000 </r>
       <r>    1.2009    0.0000 </r>
       <r>    1.2240    0.0000 </r>
       <r>    1.2634    0.0000 </r>
       <r>    1.3121    0.0000 </r>
       <r>    1.4160    0.0000 </r>
       <r>    1.4316    0.0000 </r>
       <r>    1.4874    0.0000 </r>
       <r>    1.5839    0.0000 </r>
       <r>    1.6023    0.0000 </r>
       <r>    1.6609    0.0000 </r>
      </set>
      <set comment="kpoint 46">
       <r>   -9.4099    1.0000 </r>
       <r>   -3.5730    0.1667 </r>
       <r>   -3.5729    0.1666 </r>
       <r>   -3.5729    0.1663 </r>
       <r>   -0.2319    0.0000 </r>
       <r>    0.2440    0.0000 </r>
       <r>    0.4027    0.0000 </r>
       <r>    0.4714    0.0000 </r>
       <r>    0.4828    0.0000 </r>
       <r>    0.6113    0.0000 </r>
       <r>    0.8506    0.0000 </r>
       <r>    0.8816    0.0000 </r>
       <r>    0.9951    0.0000 </r>
       <r>    1.0259    0.0000 </r>
       <r>    1.0655    0.0000 </r>
       <r>    1.0960    0.0000 </r>
       <r>    1.1283    0.0000 </r>
       <r>    1.2019    0.0000 </r>
       <r>    1.2364    0.0000 </r>
       <r>    1.4780    0.0000 </r>
       <r>    1.5070    0.0000 </r>
       <r>    1.5527    0.0000 </r>
       <r>    1.6235    0.0000 </r>
       <r>    1.6660    0.0000 </r>
      </set>
      <set comment="kpoint 47">
       <r>   -9.4099    1.0000 </r>
       <r>   -3.5730    0.1667 </r>
       <r>   -3.5729    0.1667 </r>
       <r>   -3.5729    0.1663 </r>
       <r>   -0.2221    0.0000 </r>
       <r>    0.2492    0.0000 </r>
       <r>    0.3450    0.0000 </r>
       <r>    0.4497    0.0000 </r>
[...]
       <r>    1.0340    0.0000 </r>
       <r>    1.0716    0.0000 </r>
       <r>    1.1375    0.0000 </r>
       <r>    1.1599    0.0000 </r>
       <r>    1.2831    0.0000 </r>
       <r>    1.5679    0.0000 </r>
       <r>    1.6846    0.0000 </r>
       <r>    1.7178    0.0000 </r>
       <r>    1.7649    0.0000 </r>
      </set>
      <set comment="kpoint 172">
       <r>   -9.4099    1.0000 </r>
       <r>   -3.5731    0.1675 </r>
       <r>   -3.5729    0.1666 </r>
       <r>   -3.5729    0.1666 </r>
       <r>   -0.0847    0.0000 </r>
       <r>    0.1972    0.0000 </r>
       <r>    0.2653    0.0000 </r>
       <r>    0.3639    0.0000 </r>
       <r>    0.5248    0.0000 </r>
       <r>    0.6864    0.0000 </r>
       <r>    0.7323    0.0000 </r>
       <r>    0.8313    0.0000 </r>
       <r>    0.9165    0.0000 </r>
       <r>    0.9867    0.0000 </r>
       <r>    1.0562    0.0000 </r>
       <r>    1.1097    0.0000 </r>
       <r>    1.1321    0.0000 </r>
       <r>    1.1902    0.0000 </r>
       <r>    1.2331    0.0000 </r>
       <r>    1.3060    0.0000 </r>
       <r>    1.4741    0.0000 </r>
       <r>    1.6037    0.0000 </r>
       <r>    1.6308    0.0000 </r>
       <r>    1.7503    0.0000 </r>
      </set>
      <set comment="kpoint 173">
       <r>   -9.4099    1.0000 </r>
       <r>   -3.5731    0.1675 </r>
       <r>   -3.5729    0.1666 </r>
       <r>   -3.5729    0.1666 </r>
       <r>   -0.0691    0.0000 </r>
       <r>    0.2184    0.0000 </r>
       <r>    0.2893    0.0000 </r>
       <r>    0.3895    0.0000 </r>
       <r>    0.4351    0.0000 </r>
       <r>    0.5898    0.0000 </r>
       <r>    0.6335    0.0000 </r>
       <r>    0.7279    0.0000 </r>
       <r>    1.0132    0.0000 </r>
       <r>    1.0604    0.0000 </r>
       <r>    1.1371    0.0000 </r>
       <r>    1.1585    0.0000 </r>
       <r>    1.2232    0.0000 </r>
       <r>    1.2972    0.0000 </r>
       <r>    1.3111    0.0000 </r>
       <r>    1.3869    0.0000 </r>
       <r>    1.4182    0.0000 </r>
       <r>    1.5057    0.0000 </r>
       <r>    1.5448    0.0000 </r>
       <r>    1.6559    0.0000 </r>
      </set>
      <set comment="kpoint 174">
       <r>   -9.4099    1.0000 </r>
       <r>   -3.5731    0.1675 </r>
       <r>   -3.5729    0.1666 </r>
       <r>   -3.5729    0.1666 </r>
       <r>   -0.0510    0.0000 </r>
       <r>    0.2467    0.0000 </r>
       <r>    0.3228    0.0000 </r>
       <r>    0.3665    0.0000 </r>
       <r>    0.4267    0.0000 </r>
       <r>    0.5113    0.0000 </r>
       <r>    0.5491    0.0000 </r>
       <r>    0.6379    0.0000 </r>
       <r>    1.0443    0.0000 </r>
       <r>    1.1741    0.0000 </r>
       <r>    1.1825    0.0000 </r>
       <r>    1.2183    0.0000 </r>
       <r>    1.2984    0.0000 </r>
       <r>    1.3190    0.0000 </r>
       <r>    1.3977    0.0000 </r>
       <r>    1.4240    0.0000 </r>
       <r>    1.4531    0.0000 </r>
       <r>    1.5063    0.0000 </r>
       <r>    1.5693    0.0000 </r>
       <r>    1.5863    0.0000 </r>
      </set>
      <set comment="kpoint 175">
       <r>   -9.4099    1.0000 </r>
       <r>   -3.5731    0.1675 </r>
       <r>   -3.5729    0.1667 </r>
       <r>   -3.5729    0.1666 </r>
       <r>   -0.0379    0.0000 </r>
       <r>    0.2720    0.0000 </r>
       <r>    0.3257    0.0000 </r>
       <r>    0.3593    0.0000 </r>
       <r>    0.4555    0.0000 </r>
       <r>    0.4753    0.0000 </r>
       <r>    0.4902    0.0000 </r>
       <r>    0.5671    0.0000 </r>
       <r>    1.0718    0.0000 </r>
       <r>    1.2078    0.0000 </r>
       <r>    1.2155    0.0000 </r>
       <r>    1.2313    0.0000 </r>
       <r>    1.3422    0.0000 </r>
       <r>    1.3639    0.0000 </r>
       <r>    1.3765    0.0000 </r>
       <r>    1.4430    0.0000 </r>
       <r>    1.4964    0.0000 </r>
       <r>    1.5792    0.0000 </r>
       <r>    1.6078    0.0000 </r>
       <r>    1.6681    0.0000 </r>
      </set>
     </set>
    </set>
   </array>
  </eigenvalues>
  <separator name="orbital magnetization" >
   <v name="MAGDIPOLOUT">      0.00000000      0.00000000      0.00000000</v>
  </separator>
  <dos>
   <i name="efermi">     -3.60715230 </i>
   <total>
    <array>
     <dimension dim="1">gridpoints</dimension>
     <dimension dim="2">spin</dimension>
     <field>energy</field>
     <field>total</field>
     <field>integrated</field>
     <set>
      <set comment="spin 1">
       <r>    -9.9768     0.0000     0.0000 </r>
       <r>    -9.9352     0.0000     0.0000 </r>
       <r>    -9.8936     0.0000     0.0000 </r>
       <r>    -9.8521     0.0000     0.0000 </r>
       <r>    -9.8105     0.0000     0.0000 </r>
       <r>    -9.7689     0.0000     0.0000 </r>
       <r>    -9.7273     0.0000     0.0000 </r>
       <r>    -9.6858     0.0000     0.0000 </r>
       <r>    -9.6442     0.0000     0.0000 </r>
       <r>    -9.6026     0.0000     0.0000 </r>
       <r>    -9.5610     0.0005     0.0000 </r>
       <r>    -9.5195     0.0461     0.0019 </r>
       <r>    -9.4779     1.2601     0.0543 </r>
       <r>    -9.4363     9.6196     0.4543 </r>
       <r>    -9.3947    21.0893     1.3311 </r>
       <r>    -9.3532    13.4726     1.8912 </r>
       <r>    -9.3116     2.4864     1.9946 </r>
       <r>    -9.2700     0.1291     1.9999 </r>
       <r>    -9.2284     0.0018     2.0000 </r>
       <r>    -9.1869     0.0000     2.0000 </r>
       <r>    -9.1453     0.0000     2.0000 </r>
       <r>    -9.1037     0.0000     2.0000 </r>
       <r>    -9.0621     0.0000     2.0000 </r>
       <r>    -9.0206     0.0000     2.0000 </r>
       <r>    -8.9790     0.0000     2.0000 </r>
       <r>    -8.9374     0.0000     2.0000 </r>
       <r>    -8.8958     0.0000     2.0000 </r>
       <r>    -8.8543     0.0000     2.0000 </r>
       <r>    -8.8127     0.0000     2.0000 </r>
       <r>    -8.7711     0.0000     2.0000 </r>
       <r>    -8.7295     0.0000     2.0000 </r>
       <r>    -8.6880     0.0000     2.0000 </r>
       <r>    -8.6464     0.0000     2.0000 </r>
       <r>    -8.6048     0.0000     2.0000 </r>
       <r>    -8.5632     0.0000     2.0000 </r>
       <r>    -8.5217     0.0000     2.0000 </r>
       <r>    -8.4801     0.0000     2.0000 </r>
       <r>    -8.4385     0.0000     2.0000 </r>
       <r>    -8.3969     0.0000     2.0000 </r>
       <r>    -8.3554     0.0000     2.0000 </r>
       <r>    -8.3138     0.0000     2.0000 </r>
       <r>    -8.2722     0.0000     2.0000 </r>
       <r>    -8.2306     0.0000     2.0000 </r>
       <r>    -8.1891     0.0000     2.0000 </r>
       <r>    -8.1475     0.0000     2.0000 </r>
       <r>    -8.1059     0.0000     2.0000 </r>
       <r>    -8.0643     0.0000     2.0000 </r>
       <r>    -8.0228     0.0000     2.0000 </r>
       <r>    -7.9812     0.0000     2.0000 </r>
       <r>    -7.9396     0.0000     2.0000 </r>
       <r>    -7.8980     0.0000     2.0000 </r>
       <r>    -7.8565     0.0000     2.0000 </r>
       <r>    -7.8149     0.0000     2.0000 </r>
       <r>    -7.7733     0.0000     2.0000 </r>
       <r>    -7.7317     0.0000     2.0000 </r>
       <r>    -7.6901     0.0000     2.0000 </r>
       <r>    -7.6486     0.0000     2.0000 </r>
       <r>    -7.6070     0.0000     2.0000 </r>
       <r>    -7.5654     0.0000     2.0000 </r>
       <r>    -7.5238     0.0000     2.0000 </r>
       <r>    -7.4823     0.0000     2.0000 </r>
       <r>    -7.4407     0.0000     2.0000 </r>
       <r>    -7.3991     0.0000     2.0000 </r>
       <r>    -7.3575     0.0000     2.0000 </r>
       <r>    -7.3160     0.0000     2.0000 </r>
       <r>    -7.2744     0.0000     2.0000 </r>
       <r>    -7.2328     0.0000     2.0000 </r>
       <r>    -7.1912     0.0000     2.0000 </r>
       <r>    -7.1497     0.0000     2.0000 </r>
       <r>    -7.1081     0.0000     2.0000 </r>
       <r>    -7.0665     0.0000     2.0000 </r>
       <r>    -7.0249     0.0000     2.0000 </r>
       <r>    -6.9834     0.0000     2.0000 </r>
       <r>    -6.9418     0.0000     2.0000 </r>
       <r>    -6.9002     0.0000     2.0000 </r>
       <r>    -6.8586     0.0000     2.0000 </r>
       <r>    -6.8171     0.0000     2.0000 </r>
       <r>    -6.7755     0.0000     2.0000 </r>
       <r>    -6.7339     0.0000     2.0000 </r>
       <r>    -6.6923     0.0000     2.0000 </r>
       <r>    -6.6508     0.0000     2.0000 </r>
       <r>    -6.6092     0.0000     2.0000 </r>
       <r>    -6.5676     0.0000     2.0000 </r>
       <r>    -6.5260     0.0000     2.0000 </r>
       <r>    -6.4845     0.0000     2.0000 </r>
       <r>    -6.4429     0.0000     2.0000 </r>
       <r>    -6.4013     0.0000     2.0000 </r>
       <r>    -6.3597     0.0000     2.0000 </r>
       <r>    -6.3182     0.0000     2.0000 </r>
       <r>    -6.2766     0.0000     2.0000 </r>
       <r>    -6.2350     0.0000     2.0000 </r>
       <r>    -6.1934     0.0000     2.0000 </r>
       <r>    -6.1519     0.0000     2.0000 </r>
       <r>    -6.1103     0.0000     2.0000 </r>
       <r>    -6.0687     0.0000     2.0000 </r>
       <r>    -6.0271     0.0000     2.0000 </r>
       <r>    -5.9856     0.0000     2.0000 </r>
       <r>    -5.9440     0.0000     2.0000 </r>
       <r>    -5.9024     0.0000     2.0000 </r>
       <r>    -5.8608     0.0000     2.0000 </r>
       <r>    -5.8193     0.0000     2.0000 </r>
       <r>    -5.7777     0.0000     2.0000 </r>
       <r>    -5.7361     0.0000     2.0000 </r>
       <r>    -5.6945     0.0000     2.0000 </r>
       <r>    -5.6530     0.0000     2.0000 </r>
       <r>    -5.6114     0.0000     2.0000 </r>
       <r>    -5.5698     0.0000     2.0000 </r>
       <r>    -5.5282     0.0000     2.0000 </r>
       <r>    -5.4867     0.0000     2.0000 </r>
       <r>    -5.4451     0.0000     2.0000 </r>
       <r>    -5.4035     0.0000     2.0000 </r>
       <r>    -5.3619     0.0000     2.0000 </r>
       <r>    -5.3204     0.0000     2.0000 </r>
       <r>    -5.2788     0.0000     2.0000 </r>
       <r>    -5.2372     0.0000     2.0000 </r>
       <r>    -5.1956     0.0000     2.0000 </r>
       <r>    -5.1541     0.0000     2.0000 </r>
       <r>    -5.1125     0.0000     2.0000 </r>
       <r>    -5.0709     0.0000     2.0000 </r>
       <r>    -5.0293     0.0000     2.0000 </r>
       <r>    -4.9877     0.0000     2.0000 </r>
       <r>    -4.9462     0.0000     2.0000 </r>
       <r>    -4.9046     0.0000     2.0000 </r>
       <r>    -4.8630     0.0000     2.0000 </r>
       <r>    -4.8214     0.0000     2.0000 </r>
       <r>    -4.7799     0.0000     2.0000 </r>
       <r>    -4.7383     0.0000     2.0000 </r>
       <r>    -4.6967     0.0000     2.0000 </r>
       <r>    -4.6551     0.0000     2.0000 </r>
       <r>    -4.6136     0.0000     2.0000 </r>
       <r>    -4.5720     0.0000     2.0000 </r>
       <r>    -4.5304     0.0000     2.0000 </r>
       <r>    -4.4888     0.0000     2.0000 </r>
       <r>    -4.4473     0.0000     2.0000 </r>
       <r>    -4.4057     0.0000     2.0000 </r>
       <r>    -4.3641     0.0000     2.0000 </r>
       <r>    -4.3225     0.0000     2.0000 </r>
       <r>    -4.2810     0.0000     2.0000 </r>
       <r>    -4.2394     0.0000     2.0000 </r>
       <r>    -4.1978     0.0000     2.0000 </r>
       <r>    -4.1562     0.0000     2.0000 </r>
       <r>    -4.1147     0.0000     2.0000 </r>
       <r>    -4.0731     0.0000     2.0000 </r>
       <r>    -4.0315     0.0000     2.0000 </r>
       <r>    -3.9899     0.0000     2.0000 </r>
       <r>    -3.9484     0.0000     2.0000 </r>
       <r>    -3.9068     0.0000     2.0000 </r>
       <r>    -3.8652     0.0000     2.0000 </r>
       <r>    -3.8236     0.0000     2.0000 </r>
       <r>    -3.7821     0.0000     2.0000 </r>
       <r>    -3.7405     0.0002     2.0000 </r>
       <r>    -3.6989     0.0263     2.0011 </r>
       <r>    -3.6573     1.1997     2.0510 </r>
       <r>    -3.6158    15.0757     2.6778 </r>
       <r>    -3.5742    53.8409     4.9162 </r>
       <r>    -3.5326    55.8522     7.2383 </r>
       <r>    -3.4910    16.8411     7.9385 </r>
       <r>    -3.4495     1.4456     7.9986 </r>
       <r>    -3.4079     0.0343     8.0000 </r>
       <r>    -3.3663     0.0002     8.0000 </r>
       <r>    -3.3247     0.0000     8.0000 </r>
       <r>    -3.2832     0.0000     8.0000 </r>
       <r>    -3.2416     0.0000     8.0000 </r>
       <r>    -3.2000     0.0000     8.0000 </r>
       <r>    -3.1584     0.0000     8.0000 </r>
       <r>    -3.1169     0.0000     8.0000 </r>
       <r>    -3.0753     0.0000     8.0000 </r>
       <r>    -3.0337     0.0000     8.0000 </r>
       <r>    -2.9921     0.0000     8.0000 </r>
       <r>    -2.9506     0.0000     8.0000 </r>
       <r>    -2.9090     0.0000     8.0000 </r>
       <r>    -2.8674     0.0000     8.0000 </r>
       <r>    -2.8258     0.0000     8.0000 </r>
       <r>    -2.7843     0.0000     8.0000 </r>
       <r>    -2.7427     0.0000     8.0000 </r>
       <r>    -2.7011     0.0000     8.0000 </r>
       <r>    -2.6595     0.0000     8.0000 </r>
       <r>    -2.6180     0.0000     8.0000 </r>
       <r>    -2.5764     0.0000     8.0000 </r>
       <r>    -2.5348     0.0000     8.0000 </r>
       <r>    -2.4932     0.0000     8.0000 </r>
       <r>    -2.4517     0.0000     8.0000 </r>
       <r>    -2.4101     0.0000     8.0000 </r>
       <r>    -2.3685     0.0000     8.0000 </r>
       <r>    -2.3269     0.0000     8.0000 </r>
       <r>    -2.2853     0.0000     8.0000 </r>
       <r>    -2.2438     0.0000     8.0000 </r>
       <r>    -2.2022     0.0000     8.0000 </r>
       <r>    -2.1606     0.0000     8.0000 </r>
       <r>    -2.1190     0.0000     8.0000 </r>
       <r>    -2.0775     0.0000     8.0000 </r>
       <r>    -2.0359     0.0000     8.0000 </r>
       <r>    -1.9943     0.0000     8.0000 </r>
       <r>    -1.9527     0.0000     8.0000 </r>
       <r>    -1.9112     0.0000     8.0000 </r>
       <r>    -1.8696     0.0000     8.0000 </r>
       <r>    -1.8280     0.0000     8.0000 </r>
       <r>    -1.7864     0.0000     8.0000 </r>
       <r>    -1.7449     0.0000     8.0000 </r>
       <r>    -1.7033     0.0000     8.0000 </r>
       <r>    -1.6617     0.0000     8.0000 </r>
       <r>    -1.6201     0.0000     8.0000 </r>
       <r>    -1.5786     0.0000     8.0000 </r>
       <r>    -1.5370     0.0000     8.0000 </r>
       <r>    -1.4954     0.0000     8.0000 </r>
       <r>    -1.4538     0.0000     8.0000 </r>
       <r>    -1.4123     0.0000     8.0000 </r>
       <r>    -1.3707     0.0000     8.0000 </r>
       <r>    -1.3291     0.0000     8.0000 </r>
       <r>    -1.2875     0.0000     8.0000 </r>
       <r>    -1.2460     0.0000     8.0000 </r>
       <r>    -1.2044     0.0000     8.0000 </r>
       <r>    -1.1628     0.0000     8.0000 </r>
       <r>    -1.1212     0.0000     8.0000 </r>
       <r>    -1.0797     0.0000     8.0000 </r>
       <r>    -1.0381     0.0000     8.0000 </r>
       <r>    -0.9965     0.0000     8.0000 </r>
       <r>    -0.9549     0.0000     8.0000 </r>
       <r>    -0.9134     0.0000     8.0000 </r>
       <r>    -0.8718     0.0000     8.0000 </r>
       <r>    -0.8302     0.0000     8.0000 </r>
       <r>    -0.7886     0.0000     8.0000 </r>
       <r>    -0.7471     0.0000     8.0000 </r>
       <r>    -0.7055     0.0000     8.0000 </r>
       <r>    -0.6639     0.0000     8.0000 </r>
       <r>    -0.6223     0.0000     8.0000 </r>
       <r>    -0.5808     0.0000     8.0000 </r>
       <r>    -0.5392     0.0000     8.0000 </r>
       <r>    -0.4976     0.0000     8.0000 </r>
       <r>    -0.4560     0.0000     8.0000 </r>
       <r>    -0.4145     0.0000     8.0000 </r>
       <r>    -0.3729     0.0009     8.0000 </r>
       <r>    -0.3313     0.0397     8.0017 </r>
       <r>    -0.2897     0.5826     8.0259 </r>
       <r>    -0.2482     3.2019     8.1590 </r>
       <r>    -0.2066     7.8670     8.4861 </r>
       <r>    -0.1650    10.7376     8.9325 </r>
       <r>    -0.1234    10.3512     9.3629 </r>
       <r>    -0.0819     8.3943     9.7119 </r>
       <r>    -0.0403     5.0121     9.9203 </r>
       <r>     0.0013     1.6992     9.9909 </r>
       <r>     0.0429     0.6723    10.0189 </r>
       <r>     0.0844     2.1879    10.1098 </r>
       <r>     0.1260     5.8974    10.3550 </r>
       <r>     0.1676    10.5067    10.7918 </r>
       <r>     0.2092    14.0664    11.3766 </r>
       <r>     0.2507    15.6261    12.0263 </r>
       <r>     0.2923    15.7713    12.6820 </r>
       <r>     0.3339    15.9148    13.3437 </r>
       <r>     0.3755    16.1977    14.0171 </r>
       <r>     0.4171    16.5152    14.7037 </r>
       <r>     0.4586    17.5968    15.4353 </r>
       <r>     0.5002    18.4762    16.2035 </r>
       <r>     0.5418    18.4663    16.9712 </r>
       <r>     0.5834    18.9887    17.7607 </r>
       <r>     0.6249    19.8968    18.5879 </r>
       <r>     0.6665    20.3554    19.4342 </r>
       <r>     0.7081    21.0163    20.3079 </r>
       <r>     0.7497    22.4210    21.2401 </r>
       <r>     0.7912    22.3720    22.1702 </r>
       <r>     0.8328    21.8662    23.0793 </r>
       <r>     0.8744    23.3566    24.0504 </r>
       <r>     0.9160    24.5183    25.0697 </r>
       <r>     0.9575    24.2022    26.0760 </r>
       <r>     0.9991    24.8643    27.1097 </r>
       <r>     1.0407    25.8919    28.1862 </r>
       <r>     1.0823    25.9835    29.2664 </r>
       <r>     1.1238    26.0547    30.3497 </r>
       <r>     1.1654    26.8233    31.4649 </r>
       <r>     1.2070    27.6983    32.6164 </r>
       <r>     1.2486    27.2912    33.7511 </r>
       <r>     1.2901    27.4755    34.8934 </r>
       <r>     1.3317    28.5410    36.0800 </r>
       <r>     1.3733    28.5787    37.2681 </r>
       <r>     1.4149    28.2922    38.4444 </r>
       <r>     1.4564    29.3297    39.6638 </r>
       <r>     1.4980    30.8719    40.9473 </r>
       <r>     1.5396    29.9928    42.1943 </r>
       <r>     1.5812    29.5516    43.4229 </r>
       <r>     1.6227    30.0603    44.6727 </r>
       <r>     1.6643    27.6608    45.8227 </r>
       <r>     1.7059    21.1730    46.7029 </r>
       <r>     1.7475    14.0218    47.2859 </r>
       <r>     1.7890     8.3079    47.6313 </r>
       <r>     1.8306     4.7889    47.8304 </r>
       <r>     1.8722     2.5667    47.9371 </r>
       <r>     1.9138     1.0873    47.9823 </r>
       <r>     1.9553     0.3451    47.9967 </r>
       <r>     1.9969     0.0728    47.9997 </r>
       <r>     2.0385     0.0070    48.0000 </r>
       <r>     2.0801     0.0002    48.0000 </r>
       <r>     2.1216     0.0000    48.0000 </r>
       <r>     2.1632     0.0000    48.0000 </r>
       <r>     2.2048     0.0000    48.0000 </r>
       <r>     2.2464     0.0000    48.0000 </r>
       <r>     2.2879     0.0000    48.0000 </r>
       <r>     2.3295     0.0000    48.0000 </r>
       <r>     2.3711     0.0000    48.0000 </r>
       <r>     2.4127     0.0000    48.0000 </r>
       <r>     2.4542     0.0000    48.0000 </r>
       <r>     2.4958     0.0000    48.0000 </r>
      </set>
     </set>
    </array>
   </total>
  </dos>
 </calculation>
 <structure name="finalpos" >
  <crystal>
   <varray name="basis" >
    <v>      14.99250000       0.00000000       0.00000000 </v>
    <v>       0.00000000      12.49375000       0.00000000 </v>
    <v>       0.00000000       0.00000000      17.99100000 </v>
   </varray>
   <i name="volume">   3369.94003083 </i>
   <varray name="rec_basis" >
    <v>       0.06670002       0.00000000       0.00000000 </v>
    <v>       0.00000000       0.08004002       0.00000000 </v>
    <v>       0.00000000       0.00000000       0.05558335 </v>
   </varray>
  </crystal>
  <varray name="positions" >
   <v>       0.52123000       0.54500000       0.63796000 </v>
  </varray>
 </structure>
</modeling>
