Convergence                             
           1
    14.992500    0.000000    0.000000
     0.000000   12.493750    0.000000
     0.000000    0.000000   17.991000
   B 
     1
Direct configuration=     1
   0.52123000  0.54500000  0.63796000
