<?xml version="1.0" encoding="ISO-8859-1"?>
<modeling>
 <generator>
  <i name="program" type="string">vasp </i>
  <i name="version" type="string">6.4.3  </i>
  <i name="subversion" type="string">19Mar24 (build May 31 2024 16:31:43) complex                          parallel </i>
  <i name="platform" type="string">LinuxIFC </i>
  <i name="date" type="string">2024 10 29 </i>
  <i name="time" type="string">14:13:09 </i>
 </generator>
 <incar>
  <i type="string" name="SYSTEM">Kpoints</i>
  <i type="int" name="ISTART">     0</i>
  <i type="string" name="PREC">Accurate</i>
  <i type="string" name="ALGO">Normal</i>
  <i type="int" name="ISPIN">     1</i>
  <i type="int" name="ICHARG">     2</i>
  <i type="int" name="NELM">   100</i>
  <i type="int" name="IBRION">    -1</i>
  <i name="EDIFF">      0.00000100</i>
  <i name="EDIFFG">     -0.00100000</i>
  <i type="int" name="NSW">     0</i>
  <i type="int" name="ISIF">     2</i>
  <i name="ENCUT">    450.00000000</i>
  <i name="POTIM">      0.50000000</i>
  <i type="int" name="ISMEAR">     0</i>
  <i name="SIGMA">      0.05000000</i>
  <i type="logical" name="LWAVE"> F  </i>
  <i type="logical" name="LCHARG"> F  </i>
  <i type="string" name="GGA">PE</i>
 </incar>
 <primitive_cell>
  <structure name="primitive_cell" >
   <crystal>
    <varray name="basis" >
     <v>       5.69700000       0.00000000       0.00000000 </v>
     <v>       0.00000000       4.04790000       0.00000000 </v>
     <v>       0.00000000       0.00000000       6.20420000 </v>
    </varray>
    <i name="volume">    143.07435078 </i>
    <varray name="rec_basis" >
     <v>       0.17553098       0.00000000       0.00000000 </v>
     <v>       0.00000000       0.24704168       0.00000000 </v>
     <v>       0.00000000       0.00000000       0.16118114 </v>
    </varray>
   </crystal>
   <varray name="positions" >
    <v>       0.52123000       0.50000000       0.63796000 </v>
    <v>       0.47877000       0.50000000       0.36204000 </v>
    <v>       0.97877000       0.50000000       0.63796000 </v>
    <v>       0.02123000       0.50000000       0.36204000 </v>
    <v>       0.60090000       0.50000000       0.89991000 </v>
    <v>       0.39910000       0.50000000       0.10009000 </v>
    <v>       0.89910000       0.50000000       0.89991000 </v>
    <v>       0.10090000       0.50000000       0.10009000 </v>
    <v>       0.75000000       0.79171000       0.72973000 </v>
    <v>       0.25000000       0.20829000       0.27027000 </v>
    <v>       0.75000000       0.20829000       0.72973000 </v>
    <v>       0.25000000       0.79171000       0.27027000 </v>
    <v>       0.25000000       0.50000000       0.52367000 </v>
    <v>       0.75000000       0.50000000       0.47633000 </v>
   </varray>
  </structure>
  <varray name="primitive_index" >
   <v type="int" >        1 </v>
   <v type="int" >        2 </v>
   <v type="int" >        3 </v>
   <v type="int" >        4 </v>
   <v type="int" >        5 </v>
   <v type="int" >        6 </v>
   <v type="int" >        7 </v>
   <v type="int" >        8 </v>
   <v type="int" >        9 </v>
   <v type="int" >       10 </v>
   <v type="int" >       11 </v>
   <v type="int" >       12 </v>
   <v type="int" >       13 </v>
   <v type="int" >       14 </v>
  </varray>
 </primitive_cell>
 <kpoints>
  <generation param="Monkhorst-Pack">
   <v type="int" name="divisions">       1        1        1 </v>
   <v name="usershift">      0.00000000       0.00000000       0.00000000 </v>
   <v name="genvec1">      1.00000000       0.00000000       0.00000000 </v>
   <v name="genvec2">      0.00000000       1.00000000       0.00000000 </v>
   <v name="genvec3">      0.00000000       0.00000000       1.00000000 </v>
   <v name="shift">      0.00000000       0.00000000       0.00000000 </v>
  </generation>
  <varray name="kpointlist" >
   <v>       0.00000000       0.00000000       0.00000000 </v>
  </varray>
  <varray name="weights" >
   <v>       1.00000000 </v>
  </varray>
 </kpoints>
 <parameters>
  <separator name="general" >
   <i type="string" name="SYSTEM">Kpoints</i>
   <i type="logical" name="LCOMPAT"> F  </i>
  </separator>
  <separator name="electronic" >
   <i type="string" name="PREC">accura</i>
   <i name="ENMAX">    450.00000000</i>
   <i name="ENAUG">    535.51400000</i>
   <i name="EDIFF">      0.00000100</i>
   <i type="int" name="IALGO">    38</i>
   <i type="int" name="IWAVPR">    10</i>
   <i type="int" name="NBANDS">    48</i>
   <i type="int" name="NBANDSLOW">    -1</i>
   <i type="int" name="NBANDSHIGH">    -1</i>
   <i name="NELECT">     42.00000000</i>
   <i type="int" name="TURBO">     0</i>
   <i type="int" name="IRESTART">     0</i>
   <i type="int" name="NREBOOT">     0</i>
   <i type="int" name="NMIN">     0</i>
   <i name="EREF">      0.00000000</i>
   <separator name="electronic smearing" >
    <i type="int" name="ISMEAR">     0</i>
    <i name="SIGMA">      0.05000000</i>
    <i name="KSPACING">      0.50000000</i>
    <i type="logical" name="KGAMMA"> T  </i>
    <i type="logical" name="KBLOWUP"> T  </i>
   </separator>
   <separator name="electronic projectors" >
    <i type="logical" name="LREAL"> F  </i>
    <v name="ROPT">      0.00000000</v>
    <i type="int" name="LMAXPAW">  -100</i>
    <i type="int" name="LMAXMIX">     2</i>
    <i type="logical" name="NLSPLINE"> F  </i>
   </separator>
   <separator name="electronic startup" >
    <i type="int" name="ISTART">     0</i>
    <i type="int" name="ICHARG">     2</i>
    <i type="int" name="INIWAV">     1</i>
   </separator>
   <separator name="electronic spin" >
    <i type="int" name="ISPIN">     1</i>
    <i type="logical" name="LNONCOLLINEAR"> F  </i>
    <v name="MAGMOM">      1.00000000      1.00000000      1.00000000      1.00000000      1.00000000      1.00000000      1.00000000      1.00000000      1.00000000      1.00000000      1.00000000      1.00000000      1.00000000      1.00000000</v>
    <i name="NUPDOWN">     -1.00000000</i>
    <i type="logical" name="LSORBIT"> F  </i>
    <v name="SAXIS">      0.00000000      0.00000000      1.00000000</v>
    <i type="logical" name="LSPIRAL"> F  </i>
    <v name="QSPIRAL">      0.00000000      0.00000000      0.00000000</v>
    <i type="logical" name="LZEROZ"> F  </i>
   </separator>
   <separator name="electronic exchange-correlation" >
    <i type="logical" name="LASPH"> F  </i>
   </separator>
   <separator name="electronic convergence" >
    <i type="int" name="NELM">   100</i>
    <i type="int" name="NELMDL">    -5</i>
    <i type="int" name="NELMIN">     2</i>
    <i name="ENINI">    450.00000000</i>
    <separator name="electronic convergence detail" >
     <i type="logical" name="LDIAG"> T  </i>
     <i type="logical" name="LSUBROT"> F  </i>
     <i name="WEIMIN">      0.00000000</i>
     <i name="EBREAK">      0.00000001</i>
     <i name="DEPER">      0.30000000</i>
     <i type="int" name="NRMM">     4</i>
     <i name="TIME">      0.40000000</i>
    </separator>
   </separator>
   <separator name="electronic mixer" >
    <i name="AMIX">      0.40000000</i>
    <i name="BMIX">      1.00000000</i>
    <i name="AMIN">      0.10000000</i>
    <i name="AMIX_MAG">      1.60000000</i>
    <i name="BMIX_MAG">      1.00000000</i>
    <separator name="electronic mixer details" >
     <i type="int" name="IMIX">     4</i>
     <i type="logical" name="MIXFIRST"> F  </i>
     <i type="int" name="MAXMIX">   -45</i>
     <i name="WC">    100.00000000</i>
     <i type="int" name="INIMIX">     1</i>
     <i type="int" name="MIXPRE">     1</i>
     <i type="int" name="MREMOVE">     5</i>
    </separator>
   </separator>
   <separator name="electronic dipolcorrection" >
    <i type="logical" name="LDIPOL"> F  </i>
    <i type="logical" name="LMONO"> F  </i>
    <i type="int" name="IDIPOL">     0</i>
    <i name="EPSILON">      1.00000000</i>
    <v name="DIPOL">   -100.00000000   -100.00000000   -100.00000000</v>
    <i name="EFIELD">      0.00000000</i>
    <i type="logical" name="LVACPOTAV"> F  </i>
   </separator>
  </separator>
  <separator name="grids" >
   <i type="int" name="NGX">    40</i>
   <i type="int" name="NGY">    28</i>
   <i type="int" name="NGZ">    48</i>
   <i type="int" name="NGXF">    80</i>
   <i type="int" name="NGYF">    56</i>
   <i type="int" name="NGZF">    96</i>
   <i type="logical" name="ADDGRID"> F  </i>
  </separator>
  <separator name="ionic" >
   <i type="int" name="NSW">     0</i>
   <i type="int" name="IBRION">    -1</i>
   <i type="int" name="MDALGO">     0</i>
   <i type="int" name="ISIF">     2</i>
   <i name="PSTRESS">      0.00000000</i>
   <i name="EDIFFG">     -0.00100000</i>
   <i type="int" name="NFREE">     0</i>
   <i name="POTIM">      0.50000000</i>
   <i name="SMASS">     -3.00000000</i>
   <i name="SCALEE">      1.00000000</i>
  </separator>
  <separator name="ionic md" >
   <i name="TEBEG">      0.00010000</i>
   <i name="TEEND">      0.00010000</i>
   <i type="int" name="NBLOCK">     1</i>
   <i type="int" name="KBLOCK">     1</i>
   <i type="int" name="NPACO">   256</i>
   <i name="APACO">     10.00000000</i>
  </separator>
  <separator name="symmetry" >
   <i type="int" name="ISYM">     2</i>
   <i name="SYMPREC">      0.00001000</i>
  </separator>
  <separator name="dos" >
   <i type="int" name="LORBIT">     0</i>
   <v name="RWIGS">     -1.00000000</v>
   <i type="int" name="NEDOS">   301</i>
   <i name="EMIN">     10.00000000</i>
   <i name="EMAX">    -10.00000000</i>
   <i name="EFERMI">      0.00000000</i>
  </separator>
  <separator name="writing" >
   <i type="int" name="NWRITE">     2</i>
   <i type="logical" name="LWAVE"> F  </i>
   <i type="logical" name="LDOWNSAMPLE"> F  </i>
   <i type="logical" name="LCHARG"> F  </i>
   <i type="logical" name="LPARD"> F  </i>
   <i type="logical" name="LVTOT"> F  </i>
   <i type="logical" name="LVHAR"> F  </i>
   <i type="logical" name="LELF"> F  </i>
   <i type="logical" name="LOPTICS"> F  </i>
   <v name="STM">      0.00000000      0.00000000      0.00000000      0.00000000      0.00000000      0.00000000      0.00000000</v>
  </separator>
  <separator name="performance" >
   <i type="int" name="NPAR">    24</i>
   <i type="int" name="NSIM">     4</i>
   <i type="int" name="NBLK">    -1</i>
   <i type="logical" name="LPLANE"> T  </i>
   <i type="logical" name="LSCALAPACK"> T  </i>
   <i type="logical" name="LSCAAWARE"> F  </i>
   <i type="logical" name="LSCALU"> F  </i>
   <i type="logical" name="LASYNC"> F  </i>
   <i type="logical" name="LORBITALREAL"> F  </i>
  </separator>
  <separator name="miscellaneous" >
   <i type="int" name="IDIOT">     3</i>
   <i type="int" name="PHON_NSTRUCT">    -1</i>
   <i type="logical" name="LMUSIC"> F  </i>
   <v name="POMASS">     10.81100000</v>
   <v name="DARWINR">      0.00000000</v>
   <v name="DARWINV">      1.00000000</v>
   <i type="logical" name="LCORR"> T  </i>
  </separator>
  <i type="logical" name="GGA_COMPAT"> T  </i>
  <i type="logical" name="LBERRY"> F  </i>
  <i type="int" name="ICORELEVEL">     0</i>
  <i type="logical" name="LDAU"> F  </i>
  <i type="int" name="I_CONSTRAINED_M">     0</i>
  <separator name="electronic exchange-correlation" >
   <i type="string" name="GGA    ">PE</i>
   <i type="string" name="XC_C">1</i>
   <i type="int" name="VOSKOWN">     0</i>
   <i type="logical" name="LHFCALC"> F  </i>
   <i type="string" name="PRECFOCK"></i>
   <i type="logical" name="LSYMGRAD"> F  </i>
   <i type="logical" name="LHFONE"> F  </i>
   <i type="logical" name="LRHFCALC"> F  </i>
   <i type="logical" name="LTHOMAS"> F  </i>
   <i type="logical" name="LMODELHF"> F  </i>
   <i type="logical" name="LFOCKACE"> F  </i>
   <i name="ENCUT4O">     -1.00000000</i>
   <i type="int" name="EXXOEP">     0</i>
   <i type="int" name="FOURORBIT">     0</i>
   <i name="AEXX">      0.00000000</i>
   <i name="HFALPHA">      0.00000000</i>
   <i name="MCALPHA">      0.00000000</i>
   <i name="ALDAX">      1.00000000</i>
   <i name="AGGAX">      1.00000000</i>
   <i name="AMGGAX">      1.00000000</i>
   <i name="ALDAC">      1.00000000</i>
   <i name="AGGAC">      1.00000000</i>
   <i name="AMGGAC">      1.00000000</i>
   <i type="int" name="NKREDX">     1</i>
   <i type="int" name="NKREDY">     1</i>
   <i type="int" name="NKREDZ">     1</i>
   <i type="logical" name="SHIFTRED"> F  </i>
   <i type="logical" name="ODDONLY"> F  </i>
   <i type="logical" name="EVENONLY"> F  </i>
   <i type="int" name="LMAXFOCK">     0</i>
   <i type="int" name="NMAXFOCKAE">     0</i>
   <i type="logical" name="LFOCKAEDFT"> F  </i>
   <i name="HFSCREEN">      0.00000000</i>
   <i name="HFSCREENC">      0.00000000</i>
   <i type="int" name="NBANDSGWLOW">     0</i>
  </separator>
  <separator name="vdW DFT" >
   <i type="logical" name="LUSE_VDW"> F  </i>
   <i type="int" name="IVDW_NL">    -1</i>
   <i type="logical" name="LSPIN_VDW"> F  </i>
   <i name="ZAB_VDW">     -0.84910000</i>
   <i name="GAMMA_VDW">      1.39626340</i>
   <i name="ALPHA_VDW">      0.00000000</i>
   <i name="PARAM1">      0.12340000</i>
   <i name="PARAM2">      1.00000000</i>
   <i name="BPARAM">      6.30000000</i>
   <i name="CPARAM">      0.00930000</i>
  </separator>
  <separator name="model GW" >
   <i type="int" name="MODEL_GW">     0</i>
   <i name="MODEL_EPS0">      6.13175789</i>
   <i name="MODEL_ALPHA">      1.00000000</i>
  </separator>
  <separator name="linear response parameters" >
   <i type="logical" name="LEPSILON"> F  </i>
   <i type="logical" name="LRPA"> F  </i>
   <i type="logical" name="LNABLA"> F  </i>
   <i type="logical" name="LVEL"> F  </i>
   <i name="CSHIFT">      0.10000000</i>
   <i name="OMEGAMAX">     -1.00000000</i>
   <i name="DEG_THRESHOLD">      0.00200000</i>
   <i name="RTIME">     -0.10000000</i>
   <i name="WPLASMAI">      0.00000000</i>
   <v name="DFIELD">      0.00000000      0.00000000      0.00000000</v>
   <v name="WPLASMA">      0.00000000      0.00000000      0.00000000      0.00000000      0.00000000      0.00000000      0.00000000      0.00000000      0.00000000</v>
  </separator>
  <separator name="orbital magnetization" >
   <i type="logical" name="NUCIND"> F  </i>
   <v name="MAGPOS">      0.00000000      0.00000000      0.00000000</v>
   <i type="logical" name="LNICSALL"> T  </i>
   <i type="logical" name="ORBITALMAG"> F  </i>
   <i type="logical" name="LMAGBLOCH"> F  </i>
   <i type="logical" name="LCHIMAG"> F  </i>
   <i type="logical" name="LGAUGE"> T  </i>
   <i type="int" name="MAGATOM">     0</i>
   <v name="MAGDIPOL">      0.00000000      0.00000000      0.00000000</v>
   <v name="AVECCONST">      0.00000000      0.00000000      0.00000000</v>
  </separator>
  <separator name="response functions" >
   <i type="logical" name="LALL_IN_ONE"> F  </i>
   <i type="int" name="IALL_IN_ONE">    -1</i>
   <i type="int" name="NBANDS_WAVE">    -1</i>
   <i type="logical" name="LFINITE_TEMPERATURE"> F  </i>
   <i type="logical" name="LADDER"> F  </i>
   <i type="logical" name="LRPAFORCE"> F  </i>
   <i type="logical" name="LFXC"> F  </i>
   <i type="logical" name="LHARTREE"> T  </i>
   <i type="int" name="IBSE">     0</i>
   <v type="int" name="KPOINT">    -1     0     0     0</v>
   <i type="logical" name="LTCTC"> F  </i>
   <i type="logical" name="LTCTE"> F  </i>
   <i type="logical" name="LTETE"> F  </i>
   <i type="logical" name="LTRIPLET"> F  </i>
   <i type="logical" name="LFXCEPS"> F  </i>
   <i type="logical" name="LFXHEG"> F  </i>
   <i type="int" name="NATURALO">     2</i>
   <i type="logical" name="LHOLEGF"> F  </i>
   <i type="logical" name="L2ORDER"> F  </i>
   <i type="logical" name="LDMP1"> F  </i>
   <i type="logical" name="LMP2LT"> F  </i>
   <i type="logical" name="LSMP2LT"> F  </i>
   <i type="logical" name="LGWLF"> F  </i>
   <i name="ENCUTGW">     -1.60000002</i>
   <i name="ENCUTGWSOFT">     -1.60000002</i>
   <i name="ENCUTLF">     -1.00000000</i>
   <i type="logical" name="ESF_SPLINES"> F  </i>
   <i name="ESF_CONV">      0.01000000</i>
   <i type="int" name="ESF_NINTER">    15</i>
   <i type="int" name="LMAXMP2">    -1</i>
   <i name="SCISSOR">      0.00000000</i>
   <i type="int" name="NOMEGA">     0</i>
   <i type="int" name="NOMEGAR">     0</i>
   <i type="int" name="NBANDSGW">    -1</i>
   <i type="int" name="NBANDSO">    -1</i>
   <i type="int" name="NBANDSV">    -1</i>
   <i type="int" name="NELMGW">     1</i>
   <i type="int" name="NELMHF">     1</i>
   <i type="int" name="DIM">     3</i>
   <i type="int" name="IESPILON">     4</i>
   <i type="int" name="ANTIRES">     0</i>
   <i name="OMEGAMAX">    -30.00000000</i>
   <i name="OMEGAMIN">    -30.00000000</i>
   <i name="OMEGATL">   -200.00000000</i>
   <i type="int" name="OMEGAGRID">     0</i>
   <i name="CSHIFT">     -0.10000000</i>
   <i type="logical" name="LSELFENERGY"> F  </i>
   <i type="logical" name="LSPECTRAL"> F  </i>
   <i type="logical" name="LSPECTRALGW"> F  </i>
   <i type="logical" name="LSINGLES"> F  </i>
   <i type="logical" name="LFERMIGW"> F  </i>
   <i type="logical" name="ODDONLYGW"> F  </i>
   <i type="logical" name="EVENONLYGW"> F  </i>
   <i type="int" name="NKREDLFX">     1</i>
   <i type="int" name="NKREDLFY">     1</i>
   <i type="int" name="NKREDLFZ">     1</i>
   <i type="int" name="MAXMEM">  2800</i>
   <i type="int" name="TELESCOPE">     0</i>
   <i type="int" name="NTAUPAR">    -1</i>
   <i type="int" name="NOMEGAPAR">    -1</i>
   <i name="DAMP_NEWTON">      0.80000001</i>
   <i name="LAMBDA">      1.00000000</i>
  </separator>
  <separator name="External order field" >
   <i name="OFIELD_KAPPA">      0.00000000</i>
   <v name="OFIELD_K">      0.00000000      0.00000000      0.00000000</v>
   <i name="OFIELD_Q6_NEAR">      0.00000000</i>
   <i name="OFIELD_Q6_FAR">      0.00000000</i>
   <i name="OFIELD_A">      0.00000000</i>
  </separator>
  <separator name="optional k-points parameters" >
   <i type="int" name="KPOINTS_OPT_MODE">     1</i>
   <i type="logical" name="LKPOINTS_OPT"> F  </i>
  </separator>
 </parameters>
 <atominfo>
  <atoms>      14 </atoms>
  <types>       1 </types>
  <array name="atoms" >
   <dimension dim="1">ion</dimension>
   <field type="string">element</field>
   <field type="int">atomtype</field>
   <set>
    <rc><c>B </c><c>   1</c></rc>
    <rc><c>B </c><c>   1</c></rc>
    <rc><c>B </c><c>   1</c></rc>
    <rc><c>B </c><c>   1</c></rc>
    <rc><c>B </c><c>   1</c></rc>
    <rc><c>B </c><c>   1</c></rc>
    <rc><c>B </c><c>   1</c></rc>
    <rc><c>B </c><c>   1</c></rc>
    <rc><c>B </c><c>   1</c></rc>
    <rc><c>B </c><c>   1</c></rc>
    <rc><c>B </c><c>   1</c></rc>
    <rc><c>B </c><c>   1</c></rc>
    <rc><c>B </c><c>   1</c></rc>
    <rc><c>B </c><c>   1</c></rc>
   </set>
  </array>
  <array name="atomtypes" >
   <dimension dim="1">type</dimension>
   <field type="int">atomspertype</field>
   <field type="string">element</field>
   <field>mass</field>
   <field>valence</field>
   <field type="string">pseudopotential</field>
   <set>
    <rc><c>  14</c><c>B </c><c>     10.81100000</c><c>      3.00000000</c><c>  PAW_PBE B 06Sep2000                   </c></rc>
   </set>
  </array>
 </atominfo>
 <structure name="initialpos" >
  <crystal>
   <varray name="basis" >
    <v>       5.69700000       0.00000000       0.00000000 </v>
    <v>       0.00000000       4.04790000       0.00000000 </v>
    <v>       0.00000000       0.00000000       6.20420000 </v>
   </varray>
   <i name="volume">    143.07435078 </i>
   <varray name="rec_basis" >
    <v>       0.17553098       0.00000000       0.00000000 </v>
    <v>       0.00000000       0.24704168       0.00000000 </v>
    <v>       0.00000000       0.00000000       0.16118114 </v>
   </varray>
  </crystal>
  <varray name="positions" >
   <v>       0.52123000       0.50000000       0.63796000 </v>
   <v>       0.47877000       0.50000000       0.36204000 </v>
   <v>       0.97877000       0.50000000       0.63796000 </v>
   <v>       0.02123000       0.50000000       0.36204000 </v>
   <v>       0.60090000       0.50000000       0.89991000 </v>
   <v>       0.39910000       0.50000000       0.10009000 </v>
   <v>       0.89910000       0.50000000       0.89991000 </v>
   <v>       0.10090000       0.50000000       0.10009000 </v>
   <v>       0.75000000       0.79171000       0.72973000 </v>
   <v>       0.25000000       0.20829000       0.27027000 </v>
   <v>       0.75000000       0.20829000       0.72973000 </v>
   <v>       0.25000000       0.79171000       0.27027000 </v>
   <v>       0.25000000       0.50000000       0.52367000 </v>
   <v>       0.75000000       0.50000000       0.47633000 </v>
  </varray>
 </structure>
 <calculation>
  <scstep>
   <time name="dav">    0.06    0.06</time>
   <time name="total">    0.07    0.08</time>
   <energy>
    <i name="alphaZ">     94.24357992 </i>
    <i name="ewald">   -795.76658092 </i>
    <i name="hartreedc">   -271.33601302 </i>
    <i name="XCdc">     97.50108175 </i>
    <i name="pawpsdc">    608.99811708 </i>
    <i name="pawaedc">   -597.02363782 </i>
    <i name="eentropy">     -0.00000000 </i>
    <i name="bandstr">    -74.98695788 </i>
    <i name="atom">    996.36340036 </i>
    <i name="e_fr_energy">     57.99298947 </i>
    <i name="e_wo_entrp">     57.99298947 </i>
    <i name="e_0_energy">     57.99298947 </i>
   </energy>
  </scstep>
  <scstep>
   <time name="dav">    0.05    0.05</time>
   <time name="total">    0.05    0.05</time>
   <energy>
    <i name="e_fr_energy">    -88.72063740 </i>
    <i name="e_wo_entrp">    -88.69356612 </i>
    <i name="e_0_energy">    -88.70710176 </i>
   </energy>
  </scstep>
  <scstep>
   <time name="dav">    0.04    0.04</time>
   <time name="total">    0.04    0.04</time>
   <energy>
    <i name="e_fr_energy">    -93.54755920 </i>
    <i name="e_wo_entrp">    -93.48971647 </i>
    <i name="e_0_energy">    -93.51863784 </i>
   </energy>
  </scstep>
  <scstep>
   <time name="dav">    0.04    0.04</time>
   <time name="total">    0.04    0.04</time>
   <energy>
    <i name="e_fr_energy">    -93.57425643 </i>
    <i name="e_wo_entrp">    -93.51647782 </i>
    <i name="e_0_energy">    -93.54536712 </i>
   </energy>
  </scstep>
  <scstep>
   <time name="dav">    0.04    0.04</time>
   <time name="total">    0.05    0.05</time>
   <energy>
    <i name="e_fr_energy">    -93.57455996 </i>
    <i name="e_wo_entrp">    -93.51678371 </i>
    <i name="e_0_energy">    -93.54567184 </i>
   </energy>
  </scstep>
  <scstep>
   <time name="dav">    0.03    0.03</time>
   <time name="total">    0.05    0.05</time>
   <energy>
    <i name="e_fr_energy">    -87.47879301 </i>
    <i name="e_wo_entrp">    -87.43855740 </i>
    <i name="e_0_energy">    -87.45867521 </i>
   </energy>
  </scstep>
  <scstep>
   <time name="dav">    0.04    0.04</time>
   <time name="total">    0.06    0.06</time>
   <energy>
    <i name="e_fr_energy">    -86.20527743 </i>
    <i name="e_wo_entrp">    -86.20441277 </i>
    <i name="e_0_energy">    -86.20484510 </i>
   </energy>
  </scstep>
  <scstep>
   <time name="dav">    0.04    0.04</time>
   <time name="total">    0.05    0.06</time>
   <energy>
    <i name="e_fr_energy">    -85.69515014 </i>
    <i name="e_wo_entrp">    -85.64078132 </i>
    <i name="e_0_energy">    -85.66796573 </i>
   </energy>
  </scstep>
  <scstep>
   <time name="dav">    0.03    0.03</time>
   <time name="total">    0.04    0.04</time>
   <energy>
    <i name="e_fr_energy">    -85.60912462 </i>
    <i name="e_wo_entrp">    -85.57877596 </i>
    <i name="e_0_energy">    -85.59395029 </i>
   </energy>
  </scstep>
  <scstep>
   <time name="dav">    0.04    0.04</time>
   <time name="total">    0.05    0.06</time>
   <energy>
    <i name="e_fr_energy">    -85.65641220 </i>
    <i name="e_wo_entrp">    -85.61999480 </i>
    <i name="e_0_energy">    -85.63820350 </i>
   </energy>
  </scstep>
  <scstep>
   <time name="dav">    0.03    0.03</time>
   <time name="total">    0.05    0.05</time>
   <energy>
    <i name="e_fr_energy">    -85.57657825 </i>
    <i name="e_wo_entrp">    -85.51785620 </i>
    <i name="e_0_energy">    -85.54721723 </i>
   </energy>
  </scstep>
  <scstep>
   <time name="dav">    0.02    0.02</time>
   <time name="total">    0.04    0.04</time>
   <energy>
    <i name="e_fr_energy">    -85.58203137 </i>
    <i name="e_wo_entrp">    -85.52927318 </i>
    <i name="e_0_energy">    -85.55565228 </i>
   </energy>
  </scstep>
  <scstep>
   <time name="dav">    0.02    0.02</time>
   <time name="total">    0.04    0.07</time>
   <energy>
    <i name="e_fr_energy">    -85.57461250 </i>
    <i name="e_wo_entrp">    -85.50447804 </i>
    <i name="e_0_energy">    -85.53954527 </i>
   </energy>
  </scstep>
  <scstep>
   <time name="dav">    0.04    0.04</time>
   <time name="total">    0.06    0.06</time>
   <energy>
    <i name="e_fr_energy">    -85.57557097 </i>
    <i name="e_wo_entrp">    -85.50478556 </i>
    <i name="e_0_energy">    -85.54017827 </i>
   </energy>
  </scstep>
  <scstep>
   <time name="dav">    0.02    0.02</time>
   <time name="total">    0.04    0.04</time>
   <energy>
    <i name="e_fr_energy">    -85.57482767 </i>
    <i name="e_wo_entrp">    -85.50627890 </i>
    <i name="e_0_energy">    -85.54055329 </i>
   </energy>
  </scstep>
  <scstep>
   <time name="dav">    0.04    0.04</time>
   <time name="total">    0.06    0.07</time>
   <energy>
    <i name="e_fr_energy">    -85.57483072 </i>
    <i name="e_wo_entrp">    -85.50585388 </i>
    <i name="e_0_energy">    -85.54034230 </i>
   </energy>
  </scstep>
  <scstep>
   <time name="dav">    0.04    0.04</time>
   <time name="total">    0.05    0.06</time>
   <energy>
    <i name="e_fr_energy">    -85.57483251 </i>
    <i name="e_wo_entrp">    -85.50591260 </i>
    <i name="e_0_energy">    -85.54037256 </i>
   </energy>
  </scstep>
  <scstep>
   <time name="dav">    0.03    0.03</time>
   <time name="total">    0.04    0.04</time>
   <energy>
    <i name="alphaZ">     94.24357992 </i>
    <i name="ewald">   -795.76658092 </i>
    <i name="hartreedc">   -357.56947642 </i>
    <i name="XCdc">    101.98513935 </i>
    <i name="pawpsdc">   3756.91830530 </i>
    <i name="pawaedc">  -3746.14891088 </i>
    <i name="eentropy">     -0.06892450 </i>
    <i name="bandstr">   -135.53136442 </i>
    <i name="atom">    996.36340036 </i>
    <i name="e_fr_energy">    -85.57483220 </i>
    <i name="e_wo_entrp">    -85.50590770 </i>
    <i name="e_0_energy">    -85.54036995 </i>
   </energy>
  </scstep>
  <structure>
   <crystal>
    <varray name="basis" >
     <v>       5.69700000       0.00000000       0.00000000 </v>
     <v>       0.00000000       4.04790000       0.00000000 </v>
     <v>       0.00000000       0.00000000       6.20420000 </v>
    </varray>
    <i name="volume">    143.07435078 </i>
    <varray name="rec_basis" >
     <v>       0.17553098       0.00000000       0.00000000 </v>
     <v>       0.00000000       0.24704168       0.00000000 </v>
     <v>       0.00000000       0.00000000       0.16118114 </v>
    </varray>
   </crystal>
   <varray name="positions" >
    <v>       0.52123000       0.50000000       0.63796000 </v>
    <v>       0.47877000       0.50000000       0.36204000 </v>
    <v>       0.97877000       0.50000000       0.63796000 </v>
    <v>       0.02123000       0.50000000       0.36204000 </v>
    <v>       0.60090000       0.50000000       0.89991000 </v>
    <v>       0.39910000       0.50000000       0.10009000 </v>
    <v>       0.89910000       0.50000000       0.89991000 </v>
    <v>       0.10090000       0.50000000       0.10009000 </v>
    <v>       0.75000000       0.79171000       0.72973000 </v>
    <v>       0.25000000       0.20829000       0.27027000 </v>
    <v>       0.75000000       0.20829000       0.72973000 </v>
    <v>       0.25000000       0.79171000       0.27027000 </v>
    <v>       0.25000000       0.50000000       0.52367000 </v>
    <v>       0.75000000       0.50000000       0.47633000 </v>
   </varray>
  </structure>
  <varray name="forces" >
   <v>       0.68709514      -0.00000000      -0.68411845 </v>
   <v>      -0.68709514      -0.00000000       0.68411845 </v>
   <v>      -0.68709514      -0.00000000      -0.68411845 </v>
   <v>       0.68709514      -0.00000000       0.68411845 </v>
   <v>      -0.18070208       0.00000000      -0.54843621 </v>
   <v>       0.18070208       0.00000000       0.54843621 </v>
   <v>       0.18070208       0.00000000      -0.54843621 </v>
   <v>      -0.18070208      -0.00000000       0.54843621 </v>
   <v>      -0.00000000      -3.88514607      -0.36194518 </v>
   <v>      -0.00000000       3.88514607       0.36194518 </v>
   <v>      -0.00000000       3.88514607      -0.36194518 </v>
   <v>      -0.00000000      -3.88514607       0.36194518 </v>
   <v>      -0.00000000      -0.00000000      -0.81496427 </v>
   <v>      -0.00000000      -0.00000000       0.81496427 </v>
  </varray>
  <varray name="stress" >
   <v>     -29.23864905       0.00000000       0.00000000 </v>
   <v>       0.00000000     193.14912914       0.00000000 </v>
   <v>       0.00000000       0.00000000      -9.56363966 </v>
  </varray>
  <energy>
   <i name="e_fr_energy">    -85.57483220 </i>
   <i name="e_wo_entrp">    -85.50590770 </i>
   <i name="e_0_energy">    -85.54036995 </i>
  </energy>
  <time name="totalsc">    0.95    1.00</time>
  <eigenvalues>
   <array>
    <dimension dim="1">band</dimension>
    <dimension dim="2">kpoint</dimension>
    <dimension dim="3">spin</dimension>
    <field>eigene</field>
    <field>occ</field>
    <set>
     <set comment="spin 1">
      <set comment="kpoint 1">
       <r>  -12.4004    1.0000 </r>
       <r>  -11.2723    1.0000 </r>
       <r>   -8.2693    1.0000 </r>
       <r>   -8.1582    1.0000 </r>
       <r>   -5.7937    1.0000 </r>
       <r>   -4.8523    1.0000 </r>
       <r>   -4.4699    1.0000 </r>
       <r>   -4.2055    1.0000 </r>
       <r>   -3.7011    1.0000 </r>
       <r>   -3.4953    1.0000 </r>
       <r>   -2.5370    1.0000 </r>
       <r>   -2.3713    1.0000 </r>
       <r>   -1.9297    1.0000 </r>
       <r>   -0.6785    1.0000 </r>
       <r>    0.1369    1.0000 </r>
       <r>    0.2328    1.0000 </r>
       <r>    0.2890    1.0000 </r>
       <r>    0.3073    1.0000 </r>
       <r>    0.7157    1.0000 </r>
       <r>    2.3350    0.7957 </r>
       <r>    2.3373    0.7765 </r>
       <r>    2.3707    0.4278 </r>
       <r>    5.5528    0.0000 </r>
       <r>    5.9187    0.0000 </r>
       <r>    5.9502    0.0000 </r>
       <r>    6.1038    0.0000 </r>
       <r>    6.8519    0.0000 </r>
       <r>    7.8078    0.0000 </r>
       <r>    7.9213    0.0000 </r>
       <r>    8.8270    0.0000 </r>
       <r>    8.9159    0.0000 </r>
       <r>    9.0502    0.0000 </r>
       <r>    9.2932    0.0000 </r>
       <r>   10.0767    0.0000 </r>
       <r>   11.1108    0.0000 </r>
       <r>   11.7121    0.0000 </r>
       <r>   11.8708    0.0000 </r>
       <r>   11.9518    0.0000 </r>
       <r>   12.0426    0.0000 </r>
       <r>   12.5202    0.0000 </r>
       <r>   12.9135    0.0000 </r>
       <r>   13.5119    0.0000 </r>
       <r>   13.7290    0.0000 </r>
       <r>   15.6795    0.0000 </r>
       <r>   15.7254    0.0000 </r>
       <r>   16.1688    0.0000 </r>
       <r>   16.5072    0.0000 </r>
       <r>   16.7333    0.0000 </r>
      </set>
     </set>
    </set>
   </array>
  </eigenvalues>
  <separator name="orbital magnetization" >
   <v name="MAGDIPOLOUT">      0.00000000      0.00000000      0.00000000</v>
  </separator>
  <dos>
   <i name="efermi">      2.36422809 </i>
   <total>
    <array>
     <dimension dim="1">gridpoints</dimension>
     <dimension dim="2">spin</dimension>
     <field>energy</field>
     <field>total</field>
     <field>integrated</field>
     <set>
      <set comment="spin 1">
       <r>   -13.8571     0.0000     0.0000 </r>
       <r>   -13.7503     0.0000     0.0000 </r>
       <r>   -13.6435     0.0000     0.0000 </r>
       <r>   -13.5366     0.0000     0.0000 </r>
       <r>   -13.4298     0.0000     0.0000 </r>
       <r>   -13.3230     0.0000     0.0000 </r>
       <r>   -13.2162     0.0000     0.0000 </r>
       <r>   -13.1093     0.0000     0.0000 </r>
       <r>   -13.0025     0.0000     0.0000 </r>
       <r>   -12.8957     0.0000     0.0000 </r>
       <r>   -12.7889     0.0000     0.0000 </r>
       <r>   -12.6821     0.0000     0.0000 </r>
       <r>   -12.5752     0.0000     0.0000 </r>
       <r>   -12.4684     0.5103     0.0545 </r>
       <r>   -12.3616    15.6668     1.7281 </r>
       <r>   -12.2548     2.5450     2.0000 </r>
       <r>   -12.1479     0.0004     2.0000 </r>
       <r>   -12.0411     0.0000     2.0000 </r>
       <r>   -11.9343     0.0000     2.0000 </r>
       <r>   -11.8275     0.0000     2.0000 </r>
       <r>   -11.7206     0.0000     2.0000 </r>
       <r>   -11.6138     0.0000     2.0000 </r>
       <r>   -11.5070     0.0000     2.0000 </r>
       <r>   -11.4002     0.0028     2.0003 </r>
       <r>   -11.2933     5.1608     2.5516 </r>
       <r>   -11.1865    13.4160     3.9847 </r>
       <r>   -11.0797     0.1429     4.0000 </r>
       <r>   -10.9729     0.0000     4.0000 </r>
       <r>   -10.8661     0.0000     4.0000 </r>
       <r>   -10.7592     0.0000     4.0000 </r>
       <r>   -10.6524     0.0000     4.0000 </r>
       <r>   -10.5456     0.0000     4.0000 </r>
       <r>   -10.4388     0.0000     4.0000 </r>
       <r>   -10.3319     0.0000     4.0000 </r>
       <r>   -10.2251     0.0000     4.0000 </r>
       <r>   -10.1183     0.0000     4.0000 </r>
       <r>   -10.0115     0.0000     4.0000 </r>
       <r>    -9.9046     0.0000     4.0000 </r>
       <r>    -9.7978     0.0000     4.0000 </r>
       <r>    -9.6910     0.0000     4.0000 </r>
       <r>    -9.5842     0.0000     4.0000 </r>
       <r>    -9.4773     0.0000     4.0000 </r>
       <r>    -9.3705     0.0000     4.0000 </r>
       <r>    -9.2637     0.0000     4.0000 </r>
       <r>    -9.1569     0.0000     4.0000 </r>
       <r>    -9.0501     0.0000     4.0000 </r>
       <r>    -8.9432     0.0000     4.0000 </r>
       <r>    -8.8364     0.0000     4.0000 </r>
       <r>    -8.7296     0.0000     4.0000 </r>
       <r>    -8.6228     0.0000     4.0000 </r>
       <r>    -8.5159     0.0000     4.0000 </r>
       <r>    -8.4091     0.0007     4.0001 </r>
       <r>    -8.3023     3.2893     4.3515 </r>
       <r>    -8.1955    17.8171     6.2547 </r>
       <r>    -8.0886    15.8767     7.9507 </r>
       <r>    -7.9818     0.4611     8.0000 </r>
       <r>    -7.8750     0.0000     8.0000 </r>
       <r>    -7.7682     0.0000     8.0000 </r>
       <r>    -7.6613     0.0000     8.0000 </r>
       <r>    -7.5545     0.0000     8.0000 </r>
       <r>    -7.4477     0.0000     8.0000 </r>
       <r>    -7.3409     0.0000     8.0000 </r>
       <r>    -7.2340     0.0000     8.0000 </r>
       <r>    -7.1272     0.0000     8.0000 </r>
       <r>    -7.0204     0.0000     8.0000 </r>
       <r>    -6.9136     0.0000     8.0000 </r>
       <r>    -6.8068     0.0000     8.0000 </r>
       <r>    -6.6999     0.0000     8.0000 </r>
       <r>    -6.5931     0.0000     8.0000 </r>
       <r>    -6.4863     0.0000     8.0000 </r>
       <r>    -6.3795     0.0000     8.0000 </r>
       <r>    -6.2726     0.0000     8.0000 </r>
       <r>    -6.1658     0.0000     8.0000 </r>
       <r>    -6.0590     0.0000     8.0000 </r>
       <r>    -5.9522     0.0001     8.0000 </r>
       <r>    -5.8453     1.3486     8.1441 </r>
       <r>    -5.7385    16.2634     9.8814 </r>
       <r>    -5.6317     1.1103    10.0000 </r>
       <r>    -5.5249     0.0000    10.0000 </r>
       <r>    -5.4180     0.0000    10.0000 </r>
       <r>    -5.3112     0.0000    10.0000 </r>
       <r>    -5.2044     0.0000    10.0000 </r>
       <r>    -5.0976     0.0000    10.0000 </r>
       <r>    -4.9908     0.0008    10.0001 </r>
       <r>    -4.8839     3.4702    10.3708 </r>
       <r>    -4.7771    14.9381    11.9665 </r>
       <r>    -4.6703     0.3133    12.0000 </r>
       <r>    -4.5635     0.0763    12.0081 </r>
       <r>    -4.4566    12.0260    13.2928 </r>
       <r>    -4.3498     6.6142    13.9994 </r>
       <r>    -4.2430     2.7070    14.2885 </r>
       <r>    -4.1362    15.5535    15.9500 </r>
       <r>    -4.0293     0.4679    16.0000 </r>
       <r>    -3.9225     0.0000    16.0000 </r>
       <r>    -3.8157     0.0111    16.0012 </r>
       <r>    -3.7089     7.7144    16.8253 </r>
       <r>    -3.6020    10.9730    17.9974 </r>
       <r>    -3.4952     9.4025    19.0018 </r>
       <r>    -3.3884     9.3206    19.9975 </r>
       <r>    -3.2816     0.0234    20.0000 </r>
       <r>    -3.1748     0.0000    20.0000 </r>
       <r>    -3.0679     0.0000    20.0000 </r>
       <r>    -2.9611     0.0000    20.0000 </r>
       <r>    -2.8543     0.0000    20.0000 </r>
       <r>    -2.7475     0.0000    20.0000 </r>
       <r>    -2.6406     0.0317    20.0034 </r>
       <r>    -2.5338    10.0121    21.0729 </r>
       <r>    -2.4270     9.7411    22.1135 </r>
       <r>    -2.3202    16.2751    23.8521 </r>
       <r>    -2.2133     1.3848    24.0000 </r>
       <r>    -2.1065     0.0001    24.0000 </r>
       <r>    -1.9997     0.4456    24.0476 </r>
       <r>    -1.8929    15.4863    25.7019 </r>
       <r>    -1.7860     2.7901    26.0000 </r>
       <r>    -1.6792     0.0005    26.0000 </r>
       <r>    -1.5724     0.0000    26.0000 </r>
       <r>    -1.4656     0.0000    26.0000 </r>
       <r>    -1.3588     0.0000    26.0000 </r>
       <r>    -1.2519     0.0000    26.0000 </r>
       <r>    -1.1451     0.0000    26.0000 </r>
       <r>    -1.0383     0.0000    26.0000 </r>
       <r>    -0.9315     0.0000    26.0000 </r>
       <r>    -0.8246     0.0003    26.0000 </r>
       <r>    -0.7178     2.4968    26.2668 </r>
       <r>    -0.6110    15.7009    27.9440 </r>
       <r>    -0.5042     0.5244    28.0000 </r>
       <r>    -0.3973     0.0000    28.0000 </r>
       <r>    -0.2905     0.0000    28.0000 </r>
       <r>    -0.1837     0.0000    28.0000 </r>
       <r>    -0.0769     0.0000    28.0000 </r>
       <r>     0.0300     0.0232    28.0025 </r>
       <r>     0.1368     9.3672    29.0031 </r>
       <r>     0.2436    23.4561    31.5088 </r>
       <r>     0.3504    39.1792    35.6940 </r>
       <r>     0.4572     2.8639    36.0000 </r>
       <r>     0.5641     0.0004    36.0000 </r>
       <r>     0.6709     1.9156    36.2046 </r>
       <r>     0.7777    16.0615    37.9204 </r>
       <r>     0.8845     0.7451    38.0000 </r>
       <r>     0.9914     0.0000    38.0000 </r>
       <r>     1.0982     0.0000    38.0000 </r>
       <r>     1.2050     0.0000    38.0000 </r>
       <r>     1.3118     0.0000    38.0000 </r>
       <r>     1.4187     0.0000    38.0000 </r>
       <r>     1.5255     0.0000    38.0000 </r>
       <r>     1.6323     0.0000    38.0000 </r>
       <r>     1.7391     0.0000    38.0000 </r>
       <r>     1.8460     0.0000    38.0000 </r>
       <r>     1.9528     0.0000    38.0000 </r>
       <r>     2.0596     0.0000    38.0000 </r>
       <r>     2.1664     0.0000    38.0000 </r>
       <r>     2.2732     1.4637    38.1564 </r>
       <r>     2.3801    43.2886    42.7806 </r>
       <r>     2.4869    11.4052    43.9989 </r>
       <r>     2.5937     0.0098    44.0000 </r>
       <r>     2.7005     0.0000    44.0000 </r>
       <r>     2.8074     0.0000    44.0000 </r>
       <r>     2.9142     0.0000    44.0000 </r>
       <r>     3.0210     0.0000    44.0000 </r>
       <r>     3.1278     0.0000    44.0000 </r>
       <r>     3.2347     0.0000    44.0000 </r>
       <r>     3.3415     0.0000    44.0000 </r>
       <r>     3.4483     0.0000    44.0000 </r>
       <r>     3.5551     0.0000    44.0000 </r>
       <r>     3.6620     0.0000    44.0000 </r>
       <r>     3.7688     0.0000    44.0000 </r>
       <r>     3.8756     0.0000    44.0000 </r>
       <r>     3.9824     0.0000    44.0000 </r>
       <r>     4.0892     0.0000    44.0000 </r>
       <r>     4.1961     0.0000    44.0000 </r>
       <r>     4.3029     0.0000    44.0000 </r>
       <r>     4.4097     0.0000    44.0000 </r>
       <r>     4.5165     0.0000    44.0000 </r>
       <r>     4.6234     0.0000    44.0000 </r>
       <r>     4.7302     0.0000    44.0000 </r>
       <r>     4.8370     0.0000    44.0000 </r>
       <r>     4.9438     0.0000    44.0000 </r>
       <r>     5.0507     0.0000    44.0000 </r>
       <r>     5.1575     0.0000    44.0000 </r>
       <r>     5.2643     0.0000    44.0000 </r>
       <r>     5.3711     0.0000    44.0000 </r>
       <r>     5.4780     0.3217    44.0344 </r>
       <r>     5.5848    14.9828    45.6349 </r>
       <r>     5.6916     3.4171    45.9999 </r>
       <r>     5.7984     0.0072    46.0007 </r>
       <r>     5.9053     8.4876    46.9074 </r>
       <r>     6.0121    28.2115    49.9210 </r>
       <r>     6.1189    13.2053    51.3317 </r>
       <r>     6.2257     6.2513    51.9994 </r>
       <r>     6.3325     0.0053    52.0000 </r>
       <r>     6.4394     0.0000    52.0000 </r>
       <r>     6.5462     0.0000    52.0000 </r>
       <r>     6.6530     0.0000    52.0000 </r>
       <r>     6.7598     0.0864    52.0092 </r>
       <r>     6.8667    12.3089    53.3241 </r>
       <r>     6.9735     6.3216    53.9994 </r>
       <r>     7.0803     0.0055    54.0000 </r>
       <r>     7.1871     0.0000    54.0000 </r>
       <r>     7.2940     0.0000    54.0000 </r>
       <r>     7.4008     0.0000    54.0000 </r>
       <r>     7.5076     0.0000    54.0000 </r>
       <r>     7.6144     0.0000    54.0000 </r>
       <r>     7.7213     0.1346    54.0144 </r>
       <r>     7.8281    13.3661    55.4422 </r>
       <r>     7.9349    17.3830    57.2991 </r>
       <r>     8.0417     6.5551    57.9993 </r>
       <r>     8.1485     0.0062    58.0000 </r>
       <r>     8.2554     0.0000    58.0000 </r>
       <r>     8.3622     0.0000    58.0000 </r>
       <r>     8.4690     0.0000    58.0000 </r>
       <r>     8.5758     0.0000    58.0000 </r>
       <r>     8.6827     0.0004    58.0000 </r>
       <r>     8.7895     2.7084    58.2894 </r>
       <r>     8.8963    20.9647    60.5289 </r>
       <r>     9.0031    15.3552    62.1692 </r>
       <r>     9.1100    16.2854    63.9089 </r>
       <r>     9.2168     1.1408    64.0307 </r>
       <r>     9.3236    14.7896    65.6106 </r>
       <r>     9.4304     3.6444    65.9999 </r>
       <r>     9.5373     0.0010    66.0000 </r>
       <r>     9.6441     0.0000    66.0000 </r>
       <r>     9.7509     0.0000    66.0000 </r>
       <r>     9.8577     0.0000    66.0000 </r>
       <r>     9.9645     0.0141    66.0015 </r>
       <r>    10.0714     8.2160    66.8792 </r>
       <r>    10.1782    10.4539    67.9959 </r>
       <r>    10.2850     0.0385    68.0000 </r>
       <r>    10.3918     0.0000    68.0000 </r>
       <r>    10.4987     0.0000    68.0000 </r>
       <r>    10.6055     0.0000    68.0000 </r>
       <r>    10.7123     0.0000    68.0000 </r>
       <r>    10.8191     0.0000    68.0000 </r>
       <r>    10.9260     0.0000    68.0000 </r>
       <r>    11.0328     0.2550    68.0272 </r>
       <r>    11.1396    14.5733    69.5840 </r>
       <r>    11.2464     3.8929    69.9999 </r>
       <r>    11.3533     0.0012    70.0000 </r>
       <r>    11.4601     0.0000    70.0000 </r>
       <r>    11.5669     0.0004    70.0000 </r>
       <r>    11.6737     2.6048    70.2783 </r>
       <r>    11.7805    15.7241    71.9580 </r>
       <r>    11.8874    13.7756    73.4296 </r>
       <r>    11.9942    23.4975    75.9396 </r>
       <r>    12.1010    18.3643    77.9014 </r>
       <r>    12.2078     0.9231    78.0000 </r>
       <r>    12.3147     0.0000    78.0000 </r>
       <r>    12.4215     0.0489    78.0052 </r>
       <r>    12.5283    11.0022    79.1805 </r>
       <r>    12.6351     7.6606    79.9988 </r>
       <r>    12.7420     0.0108    80.0000 </r>
       <r>    12.8488     0.6293    80.0672 </r>
       <r>    12.9556    15.9069    81.7665 </r>
       <r>    13.0624     2.1860    82.0000 </r>
       <r>    13.1693     0.0002    82.0000 </r>
       <r>    13.2761     0.0000    82.0000 </r>
       <r>    13.3829     0.0025    82.0003 </r>
       <r>    13.4897     4.9650    82.5306 </r>
       <r>    13.5965    13.6008    83.9835 </r>
       <r>    13.7034     4.5380    84.4683 </r>
       <r>    13.8102    14.1358    85.9783 </r>
       <r>    13.9170     0.2028    86.0000 </r>
       <r>    14.0238     0.0000    86.0000 </r>
       <r>    14.1307     0.0000    86.0000 </r>
       <r>    14.2375     0.0000    86.0000 </r>
       <r>    14.3443     0.0000    86.0000 </r>
       <r>    14.4511     0.0000    86.0000 </r>
       <r>    14.5580     0.0000    86.0000 </r>
       <r>    14.6648     0.0000    86.0000 </r>
       <r>    14.7716     0.0000    86.0000 </r>
       <r>    14.8784     0.0000    86.0000 </r>
       <r>    14.9853     0.0000    86.0000 </r>
       <r>    15.0921     0.0000    86.0000 </r>
       <r>    15.1989     0.0000    86.0000 </r>
       <r>    15.3057     0.0000    86.0000 </r>
       <r>    15.4125     0.0000    86.0000 </r>
       <r>    15.5194     0.0001    86.0000 </r>
       <r>    15.6262     1.2773    86.1364 </r>
       <r>    15.7330    27.1928    89.0413 </r>
       <r>    15.8398     8.9635    89.9988 </r>
       <r>    15.9467     0.0113    90.0000 </r>
       <r>    16.0535     0.0104    90.0011 </r>
       <r>    16.1603     7.5721    90.8100 </r>
       <r>    16.2671    11.0892    91.9946 </r>
       <r>    16.3740     0.0523    92.0002 </r>
       <r>    16.4808     4.2566    92.4549 </r>
       <r>    16.5876    14.2497    93.9771 </r>
       <r>    16.6944     2.7599    94.2719 </r>
       <r>    16.8013    15.6668    95.9455 </r>
       <r>    16.9081     0.5103    96.0000 </r>
       <r>    17.0149     0.0000    96.0000 </r>
       <r>    17.1217     0.0000    96.0000 </r>
       <r>    17.2286     0.0000    96.0000 </r>
       <r>    17.3354     0.0000    96.0000 </r>
       <r>    17.4422     0.0000    96.0000 </r>
       <r>    17.5490     0.0000    96.0000 </r>
       <r>    17.6558     0.0000    96.0000 </r>
       <r>    17.7627     0.0000    96.0000 </r>
       <r>    17.8695     0.0000    96.0000 </r>
       <r>    17.9763     0.0000    96.0000 </r>
       <r>    18.0831     0.0000    96.0000 </r>
       <r>    18.1900     0.0000    96.0000 </r>
      </set>
     </set>
    </array>
   </total>
  </dos>
 </calculation>
 <structure name="finalpos" >
  <crystal>
   <varray name="basis" >
    <v>       5.69700000       0.00000000       0.00000000 </v>
    <v>       0.00000000       4.04790000       0.00000000 </v>
    <v>       0.00000000       0.00000000       6.20420000 </v>
   </varray>
   <i name="volume">    143.07435078 </i>
   <varray name="rec_basis" >
    <v>       0.17553098       0.00000000       0.00000000 </v>
    <v>       0.00000000       0.24704168       0.00000000 </v>
    <v>       0.00000000       0.00000000       0.16118114 </v>
   </varray>
  </crystal>
  <varray name="positions" >
   <v>       0.52123000       0.50000000       0.63796000 </v>
   <v>       0.47877000       0.50000000       0.36204000 </v>
   <v>       0.97877000       0.50000000       0.63796000 </v>
   <v>       0.02123000       0.50000000       0.36204000 </v>
   <v>       0.60090000       0.50000000       0.89991000 </v>
   <v>       0.39910000       0.50000000       0.10009000 </v>
   <v>       0.89910000       0.50000000       0.89991000 </v>
   <v>       0.10090000       0.50000000       0.10009000 </v>
   <v>       0.75000000       0.79171000       0.72973000 </v>
   <v>       0.25000000       0.20829000       0.27027000 </v>
   <v>       0.75000000       0.20829000       0.72973000 </v>
   <v>       0.25000000       0.79171000       0.27027000 </v>
   <v>       0.25000000       0.50000000       0.52367000 </v>
   <v>       0.75000000       0.50000000       0.47633000 </v>
  </varray>
 </structure>
</modeling>
