       N       E                     dE             d eps       ncg     rms          rms(c)
DAV:   1    -0.118302101873E+02   -0.11830E+02   -0.10505E+04 16896   0.363E+02
DAV:   2    -0.928256796530E+02   -0.80995E+02   -0.77102E+02 24840   0.959E+01
DAV:   3    -0.948497262455E+02   -0.20240E+01   -0.20213E+01 22560   0.144E+01
DAV:   4    -0.948615917410E+02   -0.11865E-01   -0.11865E-01 23784   0.115E+00
DAV:   5    -0.948617357587E+02   -0.14402E-03   -0.14402E-03 21816   0.126E-01    0.152E+01
DAV:   6    -0.898507001416E+02    0.50110E+01   -0.35545E+00 24408   0.616E+00    0.859E+00
DAV:   7    -0.882952245221E+02    0.15555E+01   -0.30785E+00 25200   0.561E+00    0.193E+00
DAV:   8    -0.883070442080E+02   -0.11820E-01   -0.23183E-01 18936   0.161E+00    0.728E-01
DAV:   9    -0.883189064598E+02   -0.11862E-01   -0.15456E-02 23256   0.397E-01    0.195E-01
DAV:  10    -0.883223444633E+02   -0.34380E-02   -0.19082E-03 18672   0.146E-01    0.583E-02
DAV:  11    -0.883233764202E+02   -0.10320E-02   -0.60691E-04 21576   0.761E-02    0.319E-02
DAV:  12    -0.883234808212E+02   -0.10440E-03   -0.77033E-05 21936   0.273E-02    0.464E-03
DAV:  13    -0.883234851654E+02   -0.43442E-05   -0.40356E-06 23280   0.698E-03    0.236E-03
DAV:  14    -0.883234858064E+02   -0.64103E-06   -0.39154E-07 20736   0.203E-03
   1 F= -.88323486E+02 E0= -.88321967E+02  d E =-.303711E-02
