       N       E                     dE             d eps       ncg     rms          rms(c)
DAV:   1     0.782339431566E+02    0.78234E+02   -0.19987E+04 16800   0.861E+02
DAV:   2    -0.915989281636E+02   -0.16983E+03   -0.15913E+03 23040   0.166E+02
DAV:   3    -0.974382192839E+02   -0.58393E+01   -0.58080E+01 24792   0.275E+01
DAV:   4    -0.974730326091E+02   -0.34813E-01   -0.34811E-01 20160   0.246E+00
DAV:   5    -0.974734246018E+02   -0.39199E-03   -0.39198E-03 24792   0.249E-01    0.122E+01
DAV:   6    -0.921894237495E+02    0.52840E+01   -0.38578E+00 24288   0.649E+00    0.674E+00
DAV:   7    -0.905727435327E+02    0.16167E+01   -0.31528E+00 25176   0.578E+00    0.169E+00
DAV:   8    -0.905853307478E+02   -0.12587E-01   -0.22994E-01 18696   0.165E+00    0.701E-01
DAV:   9    -0.905995366029E+02   -0.14206E-01   -0.16699E-02 23352   0.437E-01    0.196E-01
DAV:  10    -0.906035635193E+02   -0.40269E-02   -0.20944E-03 19128   0.161E-01    0.608E-02
DAV:  11    -0.906046339508E+02   -0.10704E-02   -0.63031E-04 21648   0.871E-02    0.318E-02
DAV:  12    -0.906047467631E+02   -0.11281E-03   -0.90360E-05 20808   0.368E-02    0.427E-03
DAV:  13    -0.906047516417E+02   -0.48786E-05   -0.40575E-06 23400   0.874E-03    0.175E-03
DAV:  14    -0.906047523114E+02   -0.66972E-06   -0.27494E-07 20400   0.227E-03
   1 F= -.90604752E+02 E0= -.90603142E+02  d E =-.321972E-02
