 vasp.6.4.3 19Mar24 (build May 31 2024 16:31:43) complex                        
  
 executed on             LinuxIFC date 2024.11.11  15:59:59
 running   24 mpi-ranks, with    1 threads/rank, on    1 nodes
 distrk:  each k-point on   24 cores,    1 groups
 distr:  one band on NCORE=   1 cores,   24 groups


--------------------------------------------------------------------------------------------------------


 INCAR:
   SYSTEM = Convergence
   ISTART = 0
   ICHARG = 2
   PREC = Accurate
   ENCUT = 600
   LCHARG = .FALSE.
   LWAVE = .FALSE.
   ALGO = Normal
   NELM = 100
   EDIFF = 1E-6
   EDIFFG = -1E-3
   SIGMA = 0.05
   ISMEAR = 0
   ISPIN = 1
   NSW = 0
   IBRION = -1
   POTIM = .5
   ISIF = 2
   GGA = PE

 POTCAR:    PAW_PBE B 06Sep2000                   
 POTCAR:    PAW_PBE B 06Sep2000                   
   SHA256 =  a32ced30f5ae56fd4d10b4325ff17eb3e4e38ee0f4288bc219fb012fddfa6e97 B/POTCAR              
   COPYR  = (c) Copyright 06Sep2000 Georg Kresse                                                    
   COPYR  = This file is part of the software VASP. Any use, copying, and all other rights are regul
   COPYR  = If you do not have a valid VASP license, you may not use, copy or distribute this file. 
   VRHFIN =B: s2p1                                                                                  
   LEXCH  = PE                                                                                      
   EATOM  =    71.1703 eV,    5.2309 Ry                                                             
                                                                                                    
   TITEL  = PAW_PBE B 06Sep2000                                                                     
   LULTRA =        F    use ultrasoft PP ?                                                          
   IUNSCR =        1    unscreen: 0-lin 1-nonlin 2-no                                               
   RPACOR =    1.200    partial core radius                                                         
   POMASS =   10.811; ZVAL   =    3.000    mass and valenz                                          
   RCORE  =    1.700    outmost cutoff radius                                                       
   RWIGS  =    1.710; RWIGS  =    0.905    wigner-seitz radius (au A)                               
   ENMAX  =  318.614; ENMIN  =  238.960 eV                                                          
   ICORE  =        2    local potential                                                             
   LCOR   =        T    correct aug charges                                                         
   LPAW   =        T    paw PP                                                                      
   EAUG   =  535.514                                                                                
   DEXC   =    0.000                                                                                
   RMAX   =    1.732    core radius for proj-oper                                                   
   RAUG   =    1.300    factor for augmentation sphere                                              
   RDEP   =    1.757    radius for radial grids                                                     
   RDEPT  =    1.436    core radius for aug-charge                                                  
                                                                                                    
   Atomic configuration                                                                             
    4 entries                                                                                       
     n  l   j            E        occ.                                                              
     1  0  0.50      -180.5896   2.0000                                                             
     2  0  0.50        -9.4431   2.0000                                                             
     2  1  0.50        -3.6068   1.0000                                                             
     3  2  1.50        -4.0817   0.0000                                                             
   Description                                                                                      
     l       E           TYP  RCUT    TYP  RCUT                                                     
     0     -9.4430752     23  1.500                                                                 
     0      0.8675899     23  1.500                                                                 
     1     -3.6067955     23  1.700                                                                 
     1      6.1086146     23  1.700                                                                 
     2     -4.0817478      7  1.700                                                                 
  local pseudopotential read in
  partial core-charges read in
  partial kinetic energy density read in
  atomic valenz-charges read in
  non local Contribution for L=           0  read in
    real space projection operators read in
  non local Contribution for L=           0  read in
    real space projection operators read in
  non local Contribution for L=           1  read in
    real space projection operators read in
  non local Contribution for L=           1  read in
    real space projection operators read in
    PAW grid and wavefunctions read in
 
   number of l-projection  operators is LMAX  =           4
   number of lm-projection operators is LMMAX =           8
 
  PAW_PBE B 06Sep2000                   :
 energy of atom  1       EATOM=  -71.1703
 kinetic energy error for atom=    0.0007 (will be added to EATOM!!)
 
 
 POSCAR: o-B14
  positions in direct lattice
  No initial velocities read in


 exchange-correlation table for PE
   RHO(1)=    0.500       N(1)  =     2000
   RHO(2)=  100.500       N(2)  =     4000
 


--------------------------------------------------------------------------------------------------------


 ion  position               nearest neighbor table
   1  0.521  0.500  0.638-  14 1.65   5 1.69  13 1.71   2 1.73   9 1.85  11 1.85
   2  0.479  0.500  0.362-  13 1.65   6 1.69  14 1.71   1 1.73  10 1.85  12 1.85
   3  0.979  0.500  0.638-  14 1.65   7 1.69  13 1.71   4 1.73   9 1.85  11 1.85
   4  0.021  0.500  0.362-  13 1.65   8 1.69  14 1.71   3 1.73  10 1.85  12 1.85
   5  0.601  0.500  0.900-   1 1.69   6 1.70   7 1.70   9 1.80  11 1.80
   6  0.399  0.500  0.100-   2 1.69   5 1.70   8 1.70  10 1.80  12 1.80
   7  0.899  0.500  0.900-   3 1.69   8 1.70   5 1.70   9 1.80  11 1.80
   8  0.101  0.500  0.100-   4 1.69   7 1.70   6 1.70  10 1.80  12 1.80
   9  0.750  0.792  0.730-  11 1.69   7 1.80   5 1.80   3 1.85   1 1.85  14 1.97
  10  0.250  0.208  0.270-  12 1.69   8 1.80   6 1.80   4 1.85   2 1.85  13 1.97
  11  0.750  0.208  0.730-   9 1.69   7 1.80   5 1.80   3 1.85   1 1.85  14 1.97
  12  0.250  0.792  0.270-  10 1.69   8 1.80   6 1.80   4 1.85   2 1.85  13 1.97
  13  0.250  0.500  0.524-   2 1.65   4 1.65   3 1.71   1 1.71  10 1.97  12 1.97
  14  0.750  0.500  0.476-   1 1.65   3 1.65   2 1.71   4 1.71   9 1.97  11 1.97
 
  LATTYP: Found a simple orthorhombic cell.
 ALAT       =     4.0600437000
 B/A-ratio  =     1.4073964278
 C/A-ratio  =     1.5326959658
  
  Lattice vectors:
  
 A1 = (   0.0000000000,  -4.0600437000,   0.0000000000)
 A2 = (   5.7140910000,   0.0000000000,   0.0000000000)
 A3 = (   0.0000000000,   0.0000000000,   6.2228126000)


Analysis of symmetry for initial positions (statically):
=====================================================================
 Subroutine PRICEL returns:
 Original cell was already a primitive cell.
 

 Routine SETGRP: Setting up the symmetry group for a 
 simple orthorhombic supercell.


 Subroutine GETGRP returns: Found  8 space group operations
 (whereof  4 operations were pure point group operations)
 out of a pool of  8 trial point group operations.


The static configuration has the point symmetry C_2h.
 The point group associated with its full space group is D_2h.


Analysis of symmetry for dynamics (positions and initial velocities):
=====================================================================
 Subroutine PRICEL returns:
 Original cell was already a primitive cell.
 

 Routine SETGRP: Setting up the symmetry group for a 
 simple orthorhombic supercell.


 Subroutine GETGRP returns: Found  8 space group operations
 (whereof  4 operations were pure point group operations)
 out of a pool of  8 trial point group operations.


The dynamic configuration has the point symmetry C_2h.
 The point group associated with its full space group is D_2h.


 Subroutine INISYM returns: Found  8 space group operations
 (whereof  4 operations are pure point group operations),
 and found     1 'primitive' translations


----------------------------------------------------------------------------------------

                                     Primitive cell                                     

  volume of cell :     144.3659

  direct lattice vectors                    reciprocal lattice vectors
     5.714091000  0.000000000  0.000000000     0.175005963  0.000000000  0.000000000
     0.000000000  4.060043700  0.000000000     0.000000000  0.246302768  0.000000000
     0.000000000  0.000000000  6.222812600     0.000000000  0.000000000  0.160699038

  length of vectors
     5.714091000  4.060043700  6.222812600     0.175005963  0.246302768  0.160699038

  position of ions in fractional coordinates (direct lattice)
     0.521230000  0.500000000  0.637960000
     0.478770000  0.500000000  0.362040000
     0.978770000  0.500000000  0.637960000
     0.021230000  0.500000000  0.362040000
     0.600900000  0.500000000  0.899910000
     0.399100000  0.500000000  0.100090000
     0.899100000  0.500000000  0.899910000
     0.100900000  0.500000000  0.100090000
     0.750000000  0.791710000  0.729730000
     0.250000000  0.208290000  0.270270000
     0.750000000  0.208290000  0.729730000
     0.250000000  0.791710000  0.270270000
     0.250000000  0.500000000  0.523670000
     0.750000000  0.500000000  0.476330000

  ion indices of the primitive-cell ions
   primitive index   ion index
                 1           1
                 2           2
                 3           3
                 4           4
                 5           5
                 6           6
                 7           7
                 8           8
                 9           9
                10          10
                11          11
                12          12
                13          13
                14          14

----------------------------------------------------------------------------------------

 
 
 KPOINTS: k-points                                

Automatic generation of k-mesh.
 Grid dimensions read from file:
 generate k-points for:   10   14    9

 Generating k-lattice:

  Cartesian coordinates                     Fractional coordinates (reciprocal lattice)
     0.017500596  0.000000000  0.000000000     0.100000000  0.000000000  0.000000000
     0.000000000  0.017593055  0.000000000     0.000000000  0.071428571  0.000000000
     0.000000000  0.000000000  0.017855449     0.000000000  0.000000000  0.111111111

  Length of vectors
     0.017500596  0.017593055  0.017855449

  Shift w.r.t. Gamma in fractional coordinates (k-lattice)
     0.500000000  0.500000000  0.000000000

 
 Subroutine IBZKPT returns following result:
 ===========================================
 
 Found    175 irreducible k-points:
 
 Following reciprocal coordinates:
            Coordinates               Weight
  0.050000  0.035714  0.000000      4.000000
  0.150000  0.035714  0.000000      4.000000
  0.250000  0.035714  0.000000      4.000000
  0.350000  0.035714  0.000000      4.000000
  0.450000  0.035714  0.000000      4.000000
  0.050000  0.107143  0.000000      4.000000
  0.150000  0.107143  0.000000      4.000000
  0.250000  0.107143  0.000000      4.000000
  0.350000  0.107143  0.000000      4.000000
  0.450000  0.107143  0.000000      4.000000
  0.050000  0.178571  0.000000      4.000000
  0.150000  0.178571  0.000000      4.000000
  0.250000  0.178571  0.000000      4.000000
  0.350000  0.178571  0.000000      4.000000
  0.450000  0.178571  0.000000      4.000000
  0.050000  0.250000  0.000000      4.000000
  0.150000  0.250000  0.000000      4.000000
  0.250000  0.250000  0.000000      4.000000
  0.350000  0.250000  0.000000      4.000000
  0.450000  0.250000  0.000000      4.000000
  0.050000  0.321429  0.000000      4.000000
  0.150000  0.321429  0.000000      4.000000
  0.250000  0.321429  0.000000      4.000000
  0.350000  0.321429  0.000000      4.000000
  0.450000  0.321429  0.000000      4.000000
  0.050000  0.392857  0.000000      4.000000
  0.150000  0.392857  0.000000      4.000000
  0.250000  0.392857  0.000000      4.000000
  0.350000  0.392857  0.000000      4.000000
  0.450000  0.392857  0.000000      4.000000
  0.050000  0.464286  0.000000      4.000000
  0.150000  0.464286  0.000000      4.000000
  0.250000  0.464286  0.000000      4.000000
  0.350000  0.464286  0.000000      4.000000
  0.450000  0.464286  0.000000      4.000000
  0.050000  0.035714  0.111111      8.000000
  0.150000  0.035714  0.111111      8.000000
  0.250000  0.035714  0.111111      8.000000
  0.350000  0.035714  0.111111      8.000000
  0.450000  0.035714  0.111111      8.000000
  0.050000  0.107143  0.111111      8.000000
  0.150000  0.107143  0.111111      8.000000
  0.250000  0.107143  0.111111      8.000000
  0.350000  0.107143  0.111111      8.000000
  0.450000  0.107143  0.111111      8.000000
  0.050000  0.178571  0.111111      8.000000
  0.150000  0.178571  0.111111      8.000000
  0.250000  0.178571  0.111111      8.000000
  0.350000  0.178571  0.111111      8.000000
  0.450000  0.178571  0.111111      8.000000
  0.050000  0.250000  0.111111      8.000000
  0.150000  0.250000  0.111111      8.000000
  0.250000  0.250000  0.111111      8.000000
  0.350000  0.250000  0.111111      8.000000
  0.450000  0.250000  0.111111      8.000000
  0.050000  0.321429  0.111111      8.000000
  0.150000  0.321429  0.111111      8.000000
  0.250000  0.321429  0.111111      8.000000
  0.350000  0.321429  0.111111      8.000000
  0.450000  0.321429  0.111111      8.000000
  0.050000  0.392857  0.111111      8.000000
  0.150000  0.392857  0.111111      8.000000
  0.250000  0.392857  0.111111      8.000000
  0.350000  0.392857  0.111111      8.000000
  0.450000  0.392857  0.111111      8.000000
  0.050000  0.464286  0.111111      8.000000
  0.150000  0.464286  0.111111      8.000000
  0.250000  0.464286  0.111111      8.000000
  0.350000  0.464286  0.111111      8.000000
  0.450000  0.464286  0.111111      8.000000
  0.050000  0.035714  0.222222      8.000000
  0.150000  0.035714  0.222222      8.000000
  0.250000  0.035714  0.222222      8.000000
  0.350000  0.035714  0.222222      8.000000
  0.450000  0.035714  0.222222      8.000000
  0.050000  0.107143  0.222222      8.000000
  0.150000  0.107143  0.222222      8.000000
  0.250000  0.107143  0.222222      8.000000
  0.350000  0.107143  0.222222      8.000000
  0.450000  0.107143  0.222222      8.000000
  0.050000  0.178571  0.222222      8.000000
  0.150000  0.178571  0.222222      8.000000
  0.250000  0.178571  0.222222      8.000000
  0.350000  0.178571  0.222222      8.000000
  0.450000  0.178571  0.222222      8.000000
  0.050000  0.250000  0.222222      8.000000
  0.150000  0.250000  0.222222      8.000000
  0.250000  0.250000  0.222222      8.000000
  0.350000  0.250000  0.222222      8.000000
  0.450000  0.250000  0.222222      8.000000
  0.050000  0.321429  0.222222      8.000000
  0.150000  0.321429  0.222222      8.000000
  0.250000  0.321429  0.222222      8.000000
  0.350000  0.321429  0.222222      8.000000
  0.450000  0.321429  0.222222      8.000000
  0.050000  0.392857  0.222222      8.000000
  0.150000  0.392857  0.222222      8.000000
  0.250000  0.392857  0.222222      8.000000
  0.350000  0.392857  0.222222      8.000000
  0.450000  0.392857  0.222222      8.000000
  0.050000  0.464286  0.222222      8.000000
  0.150000  0.464286  0.222222      8.000000
  0.250000  0.464286  0.222222      8.000000
  0.350000  0.464286  0.222222      8.000000
  0.450000  0.464286  0.222222      8.000000
  0.050000  0.035714  0.333333      8.000000
  0.150000  0.035714  0.333333      8.000000
  0.250000  0.035714  0.333333      8.000000
  0.350000  0.035714  0.333333      8.000000
  0.450000  0.035714  0.333333      8.000000
  0.050000  0.107143  0.333333      8.000000
  0.150000  0.107143  0.333333      8.000000
  0.250000  0.107143  0.333333      8.000000
  0.350000  0.107143  0.333333      8.000000
  0.450000  0.107143  0.333333      8.000000
  0.050000  0.178571  0.333333      8.000000
  0.150000  0.178571  0.333333      8.000000
  0.250000  0.178571  0.333333      8.000000
  0.350000  0.178571  0.333333      8.000000
  0.450000  0.178571  0.333333      8.000000
  0.050000  0.250000  0.333333      8.000000
  0.150000  0.250000  0.333333      8.000000
  0.250000  0.250000  0.333333      8.000000
  0.350000  0.250000  0.333333      8.000000
  0.450000  0.250000  0.333333      8.000000
  0.050000  0.321429  0.333333      8.000000
  0.150000  0.321429  0.333333      8.000000
  0.250000  0.321429  0.333333      8.000000
  0.350000  0.321429  0.333333      8.000000
  0.450000  0.321429  0.333333      8.000000
  0.050000  0.392857  0.333333      8.000000
  0.150000  0.392857  0.333333      8.000000
  0.250000  0.392857  0.333333      8.000000
  0.350000  0.392857  0.333333      8.000000
  0.450000  0.392857  0.333333      8.000000
  0.050000  0.464286  0.333333      8.000000
  0.150000  0.464286  0.333333      8.000000
  0.250000  0.464286  0.333333      8.000000
  0.350000  0.464286  0.333333      8.000000
  0.450000  0.464286  0.333333      8.000000
  0.050000  0.035714  0.444444      8.000000
  0.150000  0.035714  0.444444      8.000000
  0.250000  0.035714  0.444444      8.000000
  0.350000  0.035714  0.444444      8.000000
  0.450000  0.035714  0.444444      8.000000
  0.050000  0.107143  0.444444      8.000000
  0.150000  0.107143  0.444444      8.000000
  0.250000  0.107143  0.444444      8.000000
  0.350000  0.107143  0.444444      8.000000
  0.450000  0.107143  0.444444      8.000000
  0.050000  0.178571  0.444444      8.000000
  0.150000  0.178571  0.444444      8.000000
  0.250000  0.178571  0.444444      8.000000
  0.350000  0.178571  0.444444      8.000000
  0.450000  0.178571  0.444444      8.000000
  0.050000  0.250000  0.444444      8.000000
  0.150000  0.250000  0.444444      8.000000
  0.250000  0.250000  0.444444      8.000000
  0.350000  0.250000  0.444444      8.000000
  0.450000  0.250000  0.444444      8.000000
  0.050000  0.321429  0.444444      8.000000
  0.150000  0.321429  0.444444      8.000000
  0.250000  0.321429  0.444444      8.000000
  0.350000  0.321429  0.444444      8.000000
  0.450000  0.321429  0.444444      8.000000
  0.050000  0.392857  0.444444      8.000000
  0.150000  0.392857  0.444444      8.000000
  0.250000  0.392857  0.444444      8.000000
  0.350000  0.392857  0.444444      8.000000
  0.450000  0.392857  0.444444      8.000000
  0.050000  0.464286  0.444444      8.000000
  0.150000  0.464286  0.444444      8.000000
  0.250000  0.464286  0.444444      8.000000
  0.350000  0.464286  0.444444      8.000000
  0.450000  0.464286  0.444444      8.000000
 
 Following cartesian coordinates:
            Coordinates               Weight
  0.008777  0.008823  0.000000      4.000000
  0.026330  0.008823  0.000000      4.000000
  0.043883  0.008823  0.000000      4.000000
  0.061436  0.008823  0.000000      4.000000
  0.078989  0.008823  0.000000      4.000000
  0.008777  0.026469  0.000000      4.000000
  0.026330  0.026469  0.000000      4.000000
  0.043883  0.026469  0.000000      4.000000
  0.061436  0.026469  0.000000      4.000000
  0.078989  0.026469  0.000000      4.000000
  0.008777  0.044115  0.000000      4.000000
  0.026330  0.044115  0.000000      4.000000
  0.043883  0.044115  0.000000      4.000000
  0.061436  0.044115  0.000000      4.000000
  0.078989  0.044115  0.000000      4.000000
  0.008777  0.061760  0.000000      4.000000
  0.026330  0.061760  0.000000      4.000000
  0.043883  0.061760  0.000000      4.000000
  0.061436  0.061760  0.000000      4.000000
  0.078989  0.061760  0.000000      4.000000
  0.008777  0.079406  0.000000      4.000000
  0.026330  0.079406  0.000000      4.000000
  0.043883  0.079406  0.000000      4.000000
  0.061436  0.079406  0.000000      4.000000
  0.078989  0.079406  0.000000      4.000000
  0.008777  0.097052  0.000000      4.000000
  0.026330  0.097052  0.000000      4.000000
  0.043883  0.097052  0.000000      4.000000
  0.061436  0.097052  0.000000      4.000000
  0.078989  0.097052  0.000000      4.000000
  0.008777  0.114698  0.000000      4.000000
  0.026330  0.114698  0.000000      4.000000
  0.043883  0.114698  0.000000      4.000000
  0.061436  0.114698  0.000000      4.000000
  0.078989  0.114698  0.000000      4.000000
  0.008777  0.008823  0.017909      8.000000
  0.026330  0.008823  0.017909      8.000000
  0.043883  0.008823  0.017909      8.000000
  0.061436  0.008823  0.017909      8.000000
  0.078989  0.008823  0.017909      8.000000
  0.008777  0.026469  0.017909      8.000000
  0.026330  0.026469  0.017909      8.000000
  0.043883  0.026469  0.017909      8.000000
  0.061436  0.026469  0.017909      8.000000
  0.078989  0.026469  0.017909      8.000000
  0.008777  0.044115  0.017909      8.000000
  0.026330  0.044115  0.017909      8.000000
  0.043883  0.044115  0.017909      8.000000
  0.061436  0.044115  0.017909      8.000000
  0.078989  0.044115  0.017909      8.000000
  0.008777  0.061760  0.017909      8.000000
  0.026330  0.061760  0.017909      8.000000
  0.043883  0.061760  0.017909      8.000000
  0.061436  0.061760  0.017909      8.000000
  0.078989  0.061760  0.017909      8.000000
  0.008777  0.079406  0.017909      8.000000
  0.026330  0.079406  0.017909      8.000000
  0.043883  0.079406  0.017909      8.000000
  0.061436  0.079406  0.017909      8.000000
  0.078989  0.079406  0.017909      8.000000
  0.008777  0.097052  0.017909      8.000000
  0.026330  0.097052  0.017909      8.000000
  0.043883  0.097052  0.017909      8.000000
  0.061436  0.097052  0.017909      8.000000
  0.078989  0.097052  0.017909      8.000000
  0.008777  0.114698  0.017909      8.000000
  0.026330  0.114698  0.017909      8.000000
  0.043883  0.114698  0.017909      8.000000
  0.061436  0.114698  0.017909      8.000000
  0.078989  0.114698  0.017909      8.000000
  0.008777  0.008823  0.035818      8.000000
  0.026330  0.008823  0.035818      8.000000
  0.043883  0.008823  0.035818      8.000000
  0.061436  0.008823  0.035818      8.000000
  0.078989  0.008823  0.035818      8.000000
  0.008777  0.026469  0.035818      8.000000
  0.026330  0.026469  0.035818      8.000000
  0.043883  0.026469  0.035818      8.000000
  0.061436  0.026469  0.035818      8.000000
  0.078989  0.026469  0.035818      8.000000
  0.008777  0.044115  0.035818      8.000000
  0.026330  0.044115  0.035818      8.000000
  0.043883  0.044115  0.035818      8.000000
  0.061436  0.044115  0.035818      8.000000
  0.078989  0.044115  0.035818      8.000000
  0.008777  0.061760  0.035818      8.000000
  0.026330  0.061760  0.035818      8.000000
  0.043883  0.061760  0.035818      8.000000
  0.061436  0.061760  0.035818      8.000000
  0.078989  0.061760  0.035818      8.000000
  0.008777  0.079406  0.035818      8.000000
  0.026330  0.079406  0.035818      8.000000
  0.043883  0.079406  0.035818      8.000000
  0.061436  0.079406  0.035818      8.000000
  0.078989  0.079406  0.035818      8.000000
  0.008777  0.097052  0.035818      8.000000
  0.026330  0.097052  0.035818      8.000000
  0.043883  0.097052  0.035818      8.000000
  0.061436  0.097052  0.035818      8.000000
  0.078989  0.097052  0.035818      8.000000
  0.008777  0.114698  0.035818      8.000000
  0.026330  0.114698  0.035818      8.000000
  0.043883  0.114698  0.035818      8.000000
  0.061436  0.114698  0.035818      8.000000
  0.078989  0.114698  0.035818      8.000000
  0.008777  0.008823  0.053727      8.000000
  0.026330  0.008823  0.053727      8.000000
  0.043883  0.008823  0.053727      8.000000
  0.061436  0.008823  0.053727      8.000000
  0.078989  0.008823  0.053727      8.000000
  0.008777  0.026469  0.053727      8.000000
  0.026330  0.026469  0.053727      8.000000
  0.043883  0.026469  0.053727      8.000000
  0.061436  0.026469  0.053727      8.000000
  0.078989  0.026469  0.053727      8.000000
  0.008777  0.044115  0.053727      8.000000
  0.026330  0.044115  0.053727      8.000000
  0.043883  0.044115  0.053727      8.000000
  0.061436  0.044115  0.053727      8.000000
  0.078989  0.044115  0.053727      8.000000
  0.008777  0.061760  0.053727      8.000000
  0.026330  0.061760  0.053727      8.000000
  0.043883  0.061760  0.053727      8.000000
  0.061436  0.061760  0.053727      8.000000
  0.078989  0.061760  0.053727      8.000000
  0.008777  0.079406  0.053727      8.000000
  0.026330  0.079406  0.053727      8.000000
  0.043883  0.079406  0.053727      8.000000
  0.061436  0.079406  0.053727      8.000000
  0.078989  0.079406  0.053727      8.000000
  0.008777  0.097052  0.053727      8.000000
  0.026330  0.097052  0.053727      8.000000
  0.043883  0.097052  0.053727      8.000000
  0.061436  0.097052  0.053727      8.000000
  0.078989  0.097052  0.053727      8.000000
  0.008777  0.114698  0.053727      8.000000
  0.026330  0.114698  0.053727      8.000000
  0.043883  0.114698  0.053727      8.000000
  0.061436  0.114698  0.053727      8.000000
  0.078989  0.114698  0.053727      8.000000
  0.008777  0.008823  0.071636      8.000000
  0.026330  0.008823  0.071636      8.000000
  0.043883  0.008823  0.071636      8.000000
  0.061436  0.008823  0.071636      8.000000
  0.078989  0.008823  0.071636      8.000000
  0.008777  0.026469  0.071636      8.000000
  0.026330  0.026469  0.071636      8.000000
  0.043883  0.026469  0.071636      8.000000
  0.061436  0.026469  0.071636      8.000000
  0.078989  0.026469  0.071636      8.000000
  0.008777  0.044115  0.071636      8.000000
  0.026330  0.044115  0.071636      8.000000
  0.043883  0.044115  0.071636      8.000000
  0.061436  0.044115  0.071636      8.000000
  0.078989  0.044115  0.071636      8.000000
  0.008777  0.061760  0.071636      8.000000
  0.026330  0.061760  0.071636      8.000000
  0.043883  0.061760  0.071636      8.000000
  0.061436  0.061760  0.071636      8.000000
  0.078989  0.061760  0.071636      8.000000
  0.008777  0.079406  0.071636      8.000000
  0.026330  0.079406  0.071636      8.000000
  0.043883  0.079406  0.071636      8.000000
  0.061436  0.079406  0.071636      8.000000
  0.078989  0.079406  0.071636      8.000000
  0.008777  0.097052  0.071636      8.000000
  0.026330  0.097052  0.071636      8.000000
  0.043883  0.097052  0.071636      8.000000
  0.061436  0.097052  0.071636      8.000000
  0.078989  0.097052  0.071636      8.000000
  0.008777  0.114698  0.071636      8.000000
  0.026330  0.114698  0.071636      8.000000
  0.043883  0.114698  0.071636      8.000000
  0.061436  0.114698  0.071636      8.000000
  0.078989  0.114698  0.071636      8.000000
 


--------------------------------------------------------------------------------------------------------




 Dimension of arrays:
   k-points           NKPTS =    175   k-points in BZ     NKDIM =    175   number of bands    NBANDS=     48
   number of dos      NEDOS =    301   number of ions     NIONS =     14
   non local maximal  LDIM  =      4   non local SUM 2l+1 LMDIM =      8
   total plane-waves  NPLWV =  76800
   max r-space proj   IRMAX =      1   max aug-charges    IRDMAX=   8494
   dimension x,y,z NGX =    48 NGY =   32 NGZ =   50
   dimension x,y,z NGXF=    96 NGYF=   64 NGZF=  100
   support grid    NGXF=    96 NGYF=   64 NGZF=  100
   ions per type =              14
   NGX,Y,Z   is equivalent  to a cutoff of  13.97, 13.10, 13.36 a.u.
   NGXF,Y,Z  is equivalent  to a cutoff of  27.93, 26.21, 26.72 a.u.

 SYSTEM =  Convergence                             
 POSCAR =  o-B14                                   

 Startparameter for this run:
   NWRITE =      2    write-flag & timer
   PREC   = accura    normal or accurate (medium, high low for compatibility)
   ISTART =      0    job   : 0-new  1-cont  2-samecut
   ICHARG =      2    charge: 1-file 2-atom 10-const
   ISPIN  =      1    spin polarized calculation?
   LNONCOLLINEAR =      F non collinear calculations
   LSORBIT =      F    spin-orbit coupling
   INIWAV =      1    electr: 0-lowe 1-rand  2-diag
   LASPH  =      F    aspherical Exc in radial PAW
 Electronic Relaxation 1
   ENCUT  =  600.0 eV  44.10 Ry    6.64 a.u.  11.41  8.11 12.43*2*pi/ulx,y,z
   ENINI  =  600.0     initial cutoff
   ENAUG  =  535.5 eV  augmentation charge cutoff
   NELM   =    100;   NELMIN=  2; NELMDL= -5     # of ELM steps 
   EDIFF  = 0.1E-05   stopping-criterion for ELM
   LREAL  =      F    real-space projection
   NLSPLINE    = F    spline interpolate recip. space projectors
   LCOMPAT=      F    compatible to vasp.4.4
   GGA_COMPAT  = T    GGA compatible to vasp.4.4-vasp.4.6
   LMAXPAW     = -100 max onsite density
   LMAXMIX     =    2 max onsite mixed and CHGCAR
   VOSKOWN=      0    Vosko Wilk Nusair interpolation
   ROPT   =    0.00000
 Ionic relaxation
   EDIFFG = -.1E-02   stopping-criterion for IOM
   NSW    =      0    number of steps for IOM
   NBLOCK =      1;   KBLOCK =      1    inner block; outer block 
   IBRION =     -1    ionic relax: 0-MD 1-quasi-New 2-CG
   NFREE  =      0    steps in history (QN), initial steepest desc. (CG)
   ISIF   =      2    stress and relaxation
   IWAVPR =     10    prediction:  0-non 1-charg 2-wave 3-comb
   ISYM   =      2    0-nonsym 1-usesym 2-fastsym
   LCORR  =      T    Harris-Foulkes like correction to forces

   POTIM  = 0.5000    time-step for ionic-motion
   TEIN   =    0.0    initial temperature
   TEBEG  =    0.0;   TEEND  =   0.0 temperature during run
   SMASS  =  -3.00    Nose mass-parameter (am)
   estimated Nose-frequenzy (Omega)   =  0.10E-29 period in steps = 0.13E+47 mass=  -0.746E-27a.u.
   SCALEE = 1.0000    scale energy and forces
   NPACO  =    256;   APACO  = 10.0  distance and # of slots for P.C.
   PSTRESS=    0.0 pullay stress

  Mass of Ions in am
   POMASS =  10.81
  Ionic Valenz
   ZVAL   =   3.00
  Atomic Wigner-Seitz radii
   RWIGS  =  -1.00
  virtual crystal weights 
   VCA    =   1.00
   NELECT =      42.0000    total number of electrons
   NUPDOWN=      -1.0000    fix difference up-down

 DOS related values:
   EMIN   =  10.00;   EMAX   =-10.00  energy-range for DOS
   EFERMI =   0.00;   METHOD = LEGACY      
   ISMEAR =     0;   SIGMA  =   0.05  broadening in eV -4-tet -1-fermi 0-gaus

 Electronic relaxation 2 (details)
   IALGO  =     38    algorithm
   LDIAG  =      T    sub-space diagonalisation (order eigenvalues)
   LSUBROT=      F    optimize rotation matrix (better conditioning)
   TURBO    =      0    0=normal 1=particle mesh
   IRESTART =      0    0=no restart 2=restart with 2 vectors
   NREBOOT  =      0    no. of reboots
   NMIN     =      0    reboot dimension
   EREF     =   0.00    reference energy to select bands
   IMIX   =      4    mixing-type and parameters
     AMIX     =   0.40;   BMIX     =  1.00
     AMIX_MAG =   1.60;   BMIX_MAG =  1.00
     AMIN     =   0.10
     WC   =   100.;   INIMIX=   1;  MIXPRE=   1;  MAXMIX= -45

 Intra band minimization:
   WEIMIN = 0.0000     energy-eigenvalue tresh-hold
   EBREAK =  0.52E-08  absolut break condition
   DEPER  =   0.30     relativ break condition  

   TIME   =   0.40     timestep for ELM

  volume/ion in A,a.u.               =      10.31        69.59
  Fermi-wavevector in a.u.,A,eV,Ry     =   1.084767  2.049912 16.010235  1.176719
  Thomas-Fermi vector in A             =   2.220865
 
 Write flags
   LWAVE        =      F    write WAVECAR
   LDOWNSAMPLE  =      F    k-point downsampling of WAVECAR
   LCHARG       =      F    write CHGCAR
   LVTOT        =      F    write LOCPOT, total local potential
   LVHAR        =      F    write LOCPOT, Hartree potential only
   WRT_POTENTIAL= false  ! write potential to hdf5 file
   LELF         =      F    write electronic localiz. function (ELF)
   LORBIT       =      0    0 simple, 1 ext, 2 COOP (PROOUT), +10 PAW based schemes


 Dipole corrections
   LMONO      =      F    monopole corrections only (constant potential shift)
   LDIPOL     =      F    correct potential (dipole corrections)
   IDIPOL     =      0    1-x, 2-y, 3-z, 4-all directions 
   EPSILON    =  1.0000000 bulk dielectric constant
   LVACPOTAV  =      F  vacuum potentials using an averaging scheme for the charge density
   VACPOTFLAT =  0.1000000 required flatness to determine vacuum potential
 Exchange correlation treatment:
   GGA     = PE    functional components
   XC_C    = 1    coefficients multiplying the functional components
   LIBXC   =     F    Libxc                    
   VOSKOWN =     0    Vosko Wilk Nusair interpolation
   LHFCALC =     F    Hartree Fock is set to
   LHFONE  =     F    Hartree Fock one center treatment
   AEXX    =    0.0000 exact exchange contribution

 Parameters of functionals:
   PE:
     No parameter
 
 Van der Waals corrections
   IVDW    =     0    specifies the selected vdW correction

 Linear response parameters
   LEPSILON=     F    determine dielectric tensor
   LRPA    =     F    only Hartree local field effects (RPA)
   LNABLA  =     F    use nabla operator in PAW spheres
   LVEL    =     F    velocity operator in full k-point grid
   CSHIFT  =0.1000    complex shift for real part using Kramers Kronig
   OMEGAMAX=  -1.0    maximum frequency
   DEG_THRESHOLD= 0.2000000E-02 threshold for treating states as degnerate
   RTIME   =   -0.100 relaxation time in fs
  (WPLASMAI=    0.000 imaginary part of plasma frequency in eV, 0.658/RTIME)
   DFIELD  = 0.0000000 0.0000000 0.0000000 field for delta impulse in time
 
  Optional k-point grid parameters
   LKPOINTS_OPT  =     F    use optional k-point grid
   KPOINTS_OPT_MODE=     1    mode for optional k-point grid
 
 Orbital magnetization related:
   ORBITALMAG=     F  switch on orbital magnetization
   LCHIMAG   =     F  perturbation theory with respect to B field
   DQ        =  0.001000  dq finite difference perturbation B field
   LLRAUG    =     F  two centre corrections for induced B field
   LBONE     =     F  B-component reconstruction in AE one-centre
   LVGVCALC  =     T  calculate vGv susceptibility
   LVGVAPPL  =     F  apply vGv susceptibility instead of pGv for G=0

 Random number generation:
   RANDOM_GENERATOR = DEFAULT
   PCG_SEED         = not used


--------------------------------------------------------------------------------------------------------


 Static calculation
 charge density and potential will be updated during run
 non-spin polarized calculation
 Variant of blocked Davidson
 Davidson routine will perform the subspace rotation
 perform sub-space diagonalisation
    after iterative eigenvector-optimisation
 modified Broyden-mixing scheme, WC =      100.0
 initial mixing is a Kerker type mixing with AMIX =  0.4000 and BMIX =      1.0000
 Hartree-type preconditioning will be used
 using additional bands           27
 reciprocal scheme for non local part
 use partial core corrections
 calculate Harris-corrections to forces 
   (improved forces if not selfconsistent)
 use gradient corrections 
 use of overlap-Matrix (Vanderbilt PP)
 Gauss-broadening in eV      SIGMA  =   0.05


--------------------------------------------------------------------------------------------------------


  energy-cutoff  :      600.00
  volume of cell :      144.37
      direct lattice vectors                 reciprocal lattice vectors
     5.714091000  0.000000000  0.000000000     0.175005963  0.000000000  0.000000000
     0.000000000  4.060043700  0.000000000     0.000000000  0.246302768  0.000000000
     0.000000000  0.000000000  6.222812600     0.000000000  0.000000000  0.160699038

  length of vectors
     5.714091000  4.060043700  6.222812600     0.175005963  0.246302768  0.160699038


 
 k-points in units of 2pi/SCALE and weight: k-points                                
   0.00877655  0.00882292  0.00000000       0.003
   0.02632965  0.00882292  0.00000000       0.003
   0.04388275  0.00882292  0.00000000       0.003
   0.06143584  0.00882292  0.00000000       0.003
   0.07898894  0.00882292  0.00000000       0.003
   0.00877655  0.02646875  0.00000000       0.003
   0.02632965  0.02646875  0.00000000       0.003
   0.04388275  0.02646875  0.00000000       0.003
   0.06143584  0.02646875  0.00000000       0.003
   0.07898894  0.02646875  0.00000000       0.003
   0.00877655  0.04411458  0.00000000       0.003
   0.02632965  0.04411458  0.00000000       0.003
   0.04388275  0.04411458  0.00000000       0.003
   0.06143584  0.04411458  0.00000000       0.003
   0.07898894  0.04411458  0.00000000       0.003
   0.00877655  0.06176042  0.00000000       0.003
   0.02632965  0.06176042  0.00000000       0.003
   0.04388275  0.06176042  0.00000000       0.003
   0.06143584  0.06176042  0.00000000       0.003
   0.07898894  0.06176042  0.00000000       0.003
   0.00877655  0.07940625  0.00000000       0.003
   0.02632965  0.07940625  0.00000000       0.003
   0.04388275  0.07940625  0.00000000       0.003
   0.06143584  0.07940625  0.00000000       0.003
   0.07898894  0.07940625  0.00000000       0.003
   0.00877655  0.09705209  0.00000000       0.003
   0.02632965  0.09705209  0.00000000       0.003
   0.04388275  0.09705209  0.00000000       0.003
   0.06143584  0.09705209  0.00000000       0.003
   0.07898894  0.09705209  0.00000000       0.003
   0.00877655  0.11469792  0.00000000       0.003
   0.02632965  0.11469792  0.00000000       0.003
   0.04388275  0.11469792  0.00000000       0.003
   0.06143584  0.11469792  0.00000000       0.003
   0.07898894  0.11469792  0.00000000       0.003
   0.00877655  0.00882292  0.01790902       0.006
   0.02632965  0.00882292  0.01790902       0.006
   0.04388275  0.00882292  0.01790902       0.006
   0.06143584  0.00882292  0.01790902       0.006
   0.07898894  0.00882292  0.01790902       0.006
   0.00877655  0.02646875  0.01790902       0.006
   0.02632965  0.02646875  0.01790902       0.006
   0.04388275  0.02646875  0.01790902       0.006
   0.06143584  0.02646875  0.01790902       0.006
   0.07898894  0.02646875  0.01790902       0.006
   0.00877655  0.04411458  0.01790902       0.006
   0.02632965  0.04411458  0.01790902       0.006
   0.04388275  0.04411458  0.01790902       0.006
   0.06143584  0.04411458  0.01790902       0.006
   0.07898894  0.04411458  0.01790902       0.006
   0.00877655  0.06176042  0.01790902       0.006
   0.02632965  0.06176042  0.01790902       0.006
   0.04388275  0.06176042  0.01790902       0.006
   0.06143584  0.06176042  0.01790902       0.006
   0.07898894  0.06176042  0.01790902       0.006
   0.00877655  0.07940625  0.01790902       0.006
   0.02632965  0.07940625  0.01790902       0.006
   0.04388275  0.07940625  0.01790902       0.006
   0.06143584  0.07940625  0.01790902       0.006
   0.07898894  0.07940625  0.01790902       0.006
   0.00877655  0.09705209  0.01790902       0.006
   0.02632965  0.09705209  0.01790902       0.006
   0.04388275  0.09705209  0.01790902       0.006
   0.06143584  0.09705209  0.01790902       0.006
   0.07898894  0.09705209  0.01790902       0.006
   0.00877655  0.11469792  0.01790902       0.006
   0.02632965  0.11469792  0.01790902       0.006
   0.04388275  0.11469792  0.01790902       0.006
   0.06143584  0.11469792  0.01790902       0.006
   0.07898894  0.11469792  0.01790902       0.006
   0.00877655  0.00882292  0.03581803       0.006
   0.02632965  0.00882292  0.03581803       0.006
   0.04388275  0.00882292  0.03581803       0.006
   0.06143584  0.00882292  0.03581803       0.006
   0.07898894  0.00882292  0.03581803       0.006
   0.00877655  0.02646875  0.03581803       0.006
   0.02632965  0.02646875  0.03581803       0.006
   0.04388275  0.02646875  0.03581803       0.006
   0.06143584  0.02646875  0.03581803       0.006
   0.07898894  0.02646875  0.03581803       0.006
   0.00877655  0.04411458  0.03581803       0.006
   0.02632965  0.04411458  0.03581803       0.006
   0.04388275  0.04411458  0.03581803       0.006
   0.06143584  0.04411458  0.03581803       0.006
   0.07898894  0.04411458  0.03581803       0.006
   0.00877655  0.06176042  0.03581803       0.006
   0.02632965  0.06176042  0.03581803       0.006
   0.04388275  0.06176042  0.03581803       0.006
   0.06143584  0.06176042  0.03581803       0.006
   0.07898894  0.06176042  0.03581803       0.006
   0.00877655  0.07940625  0.03581803       0.006
   0.02632965  0.07940625  0.03581803       0.006
   0.04388275  0.07940625  0.03581803       0.006
   0.06143584  0.07940625  0.03581803       0.006
   0.07898894  0.07940625  0.03581803       0.006
   0.00877655  0.09705209  0.03581803       0.006
   0.02632965  0.09705209  0.03581803       0.006
   0.04388275  0.09705209  0.03581803       0.006
   0.06143584  0.09705209  0.03581803       0.006
   0.07898894  0.09705209  0.03581803       0.006
   0.00877655  0.11469792  0.03581803       0.006
   0.02632965  0.11469792  0.03581803       0.006
   0.04388275  0.11469792  0.03581803       0.006
   0.06143584  0.11469792  0.03581803       0.006
   0.07898894  0.11469792  0.03581803       0.006
   0.00877655  0.00882292  0.05372705       0.006
   0.02632965  0.00882292  0.05372705       0.006
   0.04388275  0.00882292  0.05372705       0.006
   0.06143584  0.00882292  0.05372705       0.006
   0.07898894  0.00882292  0.05372705       0.006
   0.00877655  0.02646875  0.05372705       0.006
   0.02632965  0.02646875  0.05372705       0.006
   0.04388275  0.02646875  0.05372705       0.006
   0.06143584  0.02646875  0.05372705       0.006
   0.07898894  0.02646875  0.05372705       0.006
   0.00877655  0.04411458  0.05372705       0.006
   0.02632965  0.04411458  0.05372705       0.006
   0.04388275  0.04411458  0.05372705       0.006
   0.06143584  0.04411458  0.05372705       0.006
   0.07898894  0.04411458  0.05372705       0.006
   0.00877655  0.06176042  0.05372705       0.006
   0.02632965  0.06176042  0.05372705       0.006
   0.04388275  0.06176042  0.05372705       0.006
   0.06143584  0.06176042  0.05372705       0.006
   0.07898894  0.06176042  0.05372705       0.006
   0.00877655  0.07940625  0.05372705       0.006
   0.02632965  0.07940625  0.05372705       0.006
   0.04388275  0.07940625  0.05372705       0.006
   0.06143584  0.07940625  0.05372705       0.006
   0.07898894  0.07940625  0.05372705       0.006
   0.00877655  0.09705209  0.05372705       0.006
   0.02632965  0.09705209  0.05372705       0.006
   0.04388275  0.09705209  0.05372705       0.006
   0.06143584  0.09705209  0.05372705       0.006
   0.07898894  0.09705209  0.05372705       0.006
   0.00877655  0.11469792  0.05372705       0.006
   0.02632965  0.11469792  0.05372705       0.006
   0.04388275  0.11469792  0.05372705       0.006
   0.06143584  0.11469792  0.05372705       0.006
   0.07898894  0.11469792  0.05372705       0.006
   0.00877655  0.00882292  0.07163606       0.006
   0.02632965  0.00882292  0.07163606       0.006
   0.04388275  0.00882292  0.07163606       0.006
   0.06143584  0.00882292  0.07163606       0.006
   0.07898894  0.00882292  0.07163606       0.006
   0.00877655  0.02646875  0.07163606       0.006
   0.02632965  0.02646875  0.07163606       0.006
   0.04388275  0.02646875  0.07163606       0.006
   0.06143584  0.02646875  0.07163606       0.006
   0.07898894  0.02646875  0.07163606       0.006
   0.00877655  0.04411458  0.07163606       0.006
   0.02632965  0.04411458  0.07163606       0.006
   0.04388275  0.04411458  0.07163606       0.006
   0.06143584  0.04411458  0.07163606       0.006
   0.07898894  0.04411458  0.07163606       0.006
   0.00877655  0.06176042  0.07163606       0.006
   0.02632965  0.06176042  0.07163606       0.006
   0.04388275  0.06176042  0.07163606       0.006
   0.06143584  0.06176042  0.07163606       0.006
   0.07898894  0.06176042  0.07163606       0.006
   0.00877655  0.07940625  0.07163606       0.006
   0.02632965  0.07940625  0.07163606       0.006
   0.04388275  0.07940625  0.07163606       0.006
   0.06143584  0.07940625  0.07163606       0.006
   0.07898894  0.07940625  0.07163606       0.006
   0.00877655  0.09705209  0.07163606       0.006
   0.02632965  0.09705209  0.07163606       0.006
   0.04388275  0.09705209  0.07163606       0.006
   0.06143584  0.09705209  0.07163606       0.006
   0.07898894  0.09705209  0.07163606       0.006
   0.00877655  0.11469792  0.07163606       0.006
   0.02632965  0.11469792  0.07163606       0.006
   0.04388275  0.11469792  0.07163606       0.006
   0.06143584  0.11469792  0.07163606       0.006
   0.07898894  0.11469792  0.07163606       0.006
 
 k-points in reciprocal lattice and weights: k-points                                
   0.05000000  0.03571429  0.00000000       0.003
   0.15000000  0.03571429  0.00000000       0.003
   0.25000000  0.03571429  0.00000000       0.003
   0.35000000  0.03571429  0.00000000       0.003
   0.45000000  0.03571429  0.00000000       0.003
   0.05000000  0.10714286  0.00000000       0.003
   0.15000000  0.10714286  0.00000000       0.003
   0.25000000  0.10714286  0.00000000       0.003
   0.35000000  0.10714286  0.00000000       0.003
   0.45000000  0.10714286  0.00000000       0.003
   0.05000000  0.17857143  0.00000000       0.003
   0.15000000  0.17857143  0.00000000       0.003
   0.25000000  0.17857143  0.00000000       0.003
   0.35000000  0.17857143  0.00000000       0.003
   0.45000000  0.17857143  0.00000000       0.003
   0.05000000  0.25000000  0.00000000       0.003
   0.15000000  0.25000000  0.00000000       0.003
   0.25000000  0.25000000  0.00000000       0.003
   0.35000000  0.25000000  0.00000000       0.003
   0.45000000  0.25000000  0.00000000       0.003
   0.05000000  0.32142857  0.00000000       0.003
   0.15000000  0.32142857  0.00000000       0.003
   0.25000000  0.32142857  0.00000000       0.003
   0.35000000  0.32142857  0.00000000       0.003
   0.45000000  0.32142857  0.00000000       0.003
   0.05000000  0.39285714  0.00000000       0.003
   0.15000000  0.39285714  0.00000000       0.003
   0.25000000  0.39285714  0.00000000       0.003
   0.35000000  0.39285714  0.00000000       0.003
   0.45000000  0.39285714  0.00000000       0.003
   0.05000000  0.46428571  0.00000000       0.003
   0.15000000  0.46428571  0.00000000       0.003
   0.25000000  0.46428571  0.00000000       0.003
   0.35000000  0.46428571  0.00000000       0.003
   0.45000000  0.46428571  0.00000000       0.003
   0.05000000  0.03571429  0.11111111       0.006
   0.15000000  0.03571429  0.11111111       0.006
   0.25000000  0.03571429  0.11111111       0.006
   0.35000000  0.03571429  0.11111111       0.006
   0.45000000  0.03571429  0.11111111       0.006
   0.05000000  0.10714286  0.11111111       0.006
   0.15000000  0.10714286  0.11111111       0.006
   0.25000000  0.10714286  0.11111111       0.006
   0.35000000  0.10714286  0.11111111       0.006
   0.45000000  0.10714286  0.11111111       0.006
   0.05000000  0.17857143  0.11111111       0.006
   0.15000000  0.17857143  0.11111111       0.006
   0.25000000  0.17857143  0.11111111       0.006
   0.35000000  0.17857143  0.11111111       0.006
   0.45000000  0.17857143  0.11111111       0.006
   0.05000000  0.25000000  0.11111111       0.006
   0.15000000  0.25000000  0.11111111       0.006
   0.25000000  0.25000000  0.11111111       0.006
   0.35000000  0.25000000  0.11111111       0.006
   0.45000000  0.25000000  0.11111111       0.006
   0.05000000  0.32142857  0.11111111       0.006
   0.15000000  0.32142857  0.11111111       0.006
   0.25000000  0.32142857  0.11111111       0.006
   0.35000000  0.32142857  0.11111111       0.006
   0.45000000  0.32142857  0.11111111       0.006
   0.05000000  0.39285714  0.11111111       0.006
   0.15000000  0.39285714  0.11111111       0.006
   0.25000000  0.39285714  0.11111111       0.006
   0.35000000  0.39285714  0.11111111       0.006
   0.45000000  0.39285714  0.11111111       0.006
   0.05000000  0.46428571  0.11111111       0.006
   0.15000000  0.46428571  0.11111111       0.006
   0.25000000  0.46428571  0.11111111       0.006
   0.35000000  0.46428571  0.11111111       0.006
   0.45000000  0.46428571  0.11111111       0.006
   0.05000000  0.03571429  0.22222222       0.006
   0.15000000  0.03571429  0.22222222       0.006
   0.25000000  0.03571429  0.22222222       0.006
   0.35000000  0.03571429  0.22222222       0.006
   0.45000000  0.03571429  0.22222222       0.006
   0.05000000  0.10714286  0.22222222       0.006
   0.15000000  0.10714286  0.22222222       0.006
   0.25000000  0.10714286  0.22222222       0.006
   0.35000000  0.10714286  0.22222222       0.006
   0.45000000  0.10714286  0.22222222       0.006
   0.05000000  0.17857143  0.22222222       0.006
   0.15000000  0.17857143  0.22222222       0.006
   0.25000000  0.17857143  0.22222222       0.006
   0.35000000  0.17857143  0.22222222       0.006
   0.45000000  0.17857143  0.22222222       0.006
   0.05000000  0.25000000  0.22222222       0.006
   0.15000000  0.25000000  0.22222222       0.006
   0.25000000  0.25000000  0.22222222       0.006
   0.35000000  0.25000000  0.22222222       0.006
   0.45000000  0.25000000  0.22222222       0.006
   0.05000000  0.32142857  0.22222222       0.006
   0.15000000  0.32142857  0.22222222       0.006
   0.25000000  0.32142857  0.22222222       0.006
   0.35000000  0.32142857  0.22222222       0.006
   0.45000000  0.32142857  0.22222222       0.006
   0.05000000  0.39285714  0.22222222       0.006
   0.15000000  0.39285714  0.22222222       0.006
   0.25000000  0.39285714  0.22222222       0.006
   0.35000000  0.39285714  0.22222222       0.006
   0.45000000  0.39285714  0.22222222       0.006
   0.05000000  0.46428571  0.22222222       0.006
   0.15000000  0.46428571  0.22222222       0.006
   0.25000000  0.46428571  0.22222222       0.006
   0.35000000  0.46428571  0.22222222       0.006
   0.45000000  0.46428571  0.22222222       0.006
   0.05000000  0.03571429  0.33333333       0.006
   0.15000000  0.03571429  0.33333333       0.006
   0.25000000  0.03571429  0.33333333       0.006
   0.35000000  0.03571429  0.33333333       0.006
   0.45000000  0.03571429  0.33333333       0.006
   0.05000000  0.10714286  0.33333333       0.006
   0.15000000  0.10714286  0.33333333       0.006
   0.25000000  0.10714286  0.33333333       0.006
   0.35000000  0.10714286  0.33333333       0.006
   0.45000000  0.10714286  0.33333333       0.006
   0.05000000  0.17857143  0.33333333       0.006
   0.15000000  0.17857143  0.33333333       0.006
   0.25000000  0.17857143  0.33333333       0.006
   0.35000000  0.17857143  0.33333333       0.006
   0.45000000  0.17857143  0.33333333       0.006
   0.05000000  0.25000000  0.33333333       0.006
   0.15000000  0.25000000  0.33333333       0.006
   0.25000000  0.25000000  0.33333333       0.006
   0.35000000  0.25000000  0.33333333       0.006
   0.45000000  0.25000000  0.33333333       0.006
   0.05000000  0.32142857  0.33333333       0.006
   0.15000000  0.32142857  0.33333333       0.006
   0.25000000  0.32142857  0.33333333       0.006
   0.35000000  0.32142857  0.33333333       0.006
   0.45000000  0.32142857  0.33333333       0.006
   0.05000000  0.39285714  0.33333333       0.006
   0.15000000  0.39285714  0.33333333       0.006
   0.25000000  0.39285714  0.33333333       0.006
   0.35000000  0.39285714  0.33333333       0.006
   0.45000000  0.39285714  0.33333333       0.006
   0.05000000  0.46428571  0.33333333       0.006
   0.15000000  0.46428571  0.33333333       0.006
   0.25000000  0.46428571  0.33333333       0.006
   0.35000000  0.46428571  0.33333333       0.006
   0.45000000  0.46428571  0.33333333       0.006
   0.05000000  0.03571429  0.44444444       0.006
   0.15000000  0.03571429  0.44444444       0.006
   0.25000000  0.03571429  0.44444444       0.006
   0.35000000  0.03571429  0.44444444       0.006
   0.45000000  0.03571429  0.44444444       0.006
   0.05000000  0.10714286  0.44444444       0.006
   0.15000000  0.10714286  0.44444444       0.006
   0.25000000  0.10714286  0.44444444       0.006
   0.35000000  0.10714286  0.44444444       0.006
   0.45000000  0.10714286  0.44444444       0.006
   0.05000000  0.17857143  0.44444444       0.006
   0.15000000  0.17857143  0.44444444       0.006
   0.25000000  0.17857143  0.44444444       0.006
   0.35000000  0.17857143  0.44444444       0.006
   0.45000000  0.17857143  0.44444444       0.006
   0.05000000  0.25000000  0.44444444       0.006
   0.15000000  0.25000000  0.44444444       0.006
   0.25000000  0.25000000  0.44444444       0.006
   0.35000000  0.25000000  0.44444444       0.006
   0.45000000  0.25000000  0.44444444       0.006
   0.05000000  0.32142857  0.44444444       0.006
   0.15000000  0.32142857  0.44444444       0.006
   0.25000000  0.32142857  0.44444444       0.006
   0.35000000  0.32142857  0.44444444       0.006
   0.45000000  0.32142857  0.44444444       0.006
   0.05000000  0.39285714  0.44444444       0.006
   0.15000000  0.39285714  0.44444444       0.006
   0.25000000  0.39285714  0.44444444       0.006
   0.35000000  0.39285714  0.44444444       0.006
   0.45000000  0.39285714  0.44444444       0.006
   0.05000000  0.46428571  0.44444444       0.006
   0.15000000  0.46428571  0.44444444       0.006
   0.25000000  0.46428571  0.44444444       0.006
   0.35000000  0.46428571  0.44444444       0.006
   0.45000000  0.46428571  0.44444444       0.006
 
 position of ions in fractional coordinates (direct lattice) 
   0.52123000  0.50000000  0.63796000
   0.47877000  0.50000000  0.36204000
   0.97877000  0.50000000  0.63796000
   0.02123000  0.50000000  0.36204000
   0.60090000  0.50000000  0.89991000
   0.39910000  0.50000000  0.10009000
   0.89910000  0.50000000  0.89991000
   0.10090000  0.50000000  0.10009000
   0.75000000  0.79171000  0.72973000
   0.25000000  0.20829000  0.27027000
   0.75000000  0.20829000  0.72973000
   0.25000000  0.79171000  0.27027000
   0.25000000  0.50000000  0.52367000
   0.75000000  0.50000000  0.47633000
 
 position of ions in cartesian coordinates  (Angst):
   2.97835565  2.03002185  3.96990553
   2.73573535  2.03002185  2.25290707
   5.59278085  2.03002185  3.96990553
   0.12131015  2.03002185  2.25290707
   3.43359728  2.03002185  5.59997129
   2.28049372  2.03002185  0.62284131
   5.13753922  2.03002185  5.59997129
   0.57655178  2.03002185  0.62284131
   4.28556825  3.21437720  4.54097304
   1.42852275  0.84566650  1.68183956
   4.28556825  0.84566650  4.54097304
   1.42852275  3.21437720  1.68183956
   1.42852275  2.03002185  3.25870027
   4.28556825  2.03002185  2.96411233
 


--------------------------------------------------------------------------------------------------------


 k-point     1 :   0.0500 0.0357 0.0000  plane waves:    4824
 k-point     2 :   0.1500 0.0357 0.0000  plane waves:    4818
 k-point     3 :   0.2500 0.0357 0.0000  plane waves:    4815
 k-point     4 :   0.3500 0.0357 0.0000  plane waves:    4801
 k-point     5 :   0.4500 0.0357 0.0000  plane waves:    4813
 k-point     6 :   0.0500 0.1071 0.0000  plane waves:    4804
 k-point     7 :   0.1500 0.1071 0.0000  plane waves:    4811
 k-point     8 :   0.2500 0.1071 0.0000  plane waves:    4810
 k-point     9 :   0.3500 0.1071 0.0000  plane waves:    4811
 k-point    10 :   0.4500 0.1071 0.0000  plane waves:    4799
 k-point    11 :   0.0500 0.1786 0.0000  plane waves:    4804
 k-point    12 :   0.1500 0.1786 0.0000  plane waves:    4805
 k-point    13 :   0.2500 0.1786 0.0000  plane waves:    4817
 k-point    14 :   0.3500 0.1786 0.0000  plane waves:    4826
 k-point    15 :   0.4500 0.1786 0.0000  plane waves:    4807
 k-point    16 :   0.0500 0.2500 0.0000  plane waves:    4822
 k-point    17 :   0.1500 0.2500 0.0000  plane waves:    4815
 k-point    18 :   0.2500 0.2500 0.0000  plane waves:    4818
 k-point    19 :   0.3500 0.2500 0.0000  plane waves:    4824
 k-point    20 :   0.4500 0.2500 0.0000  plane waves:    4815
 k-point    21 :   0.0500 0.3214 0.0000  plane waves:    4820
 k-point    22 :   0.1500 0.3214 0.0000  plane waves:    4826
 k-point    23 :   0.2500 0.3214 0.0000  plane waves:    4831
 k-point    24 :   0.3500 0.3214 0.0000  plane waves:    4823
 k-point    25 :   0.4500 0.3214 0.0000  plane waves:    4817
 k-point    26 :   0.0500 0.3929 0.0000  plane waves:    4828
 k-point    27 :   0.1500 0.3929 0.0000  plane waves:    4831
 k-point    28 :   0.2500 0.3929 0.0000  plane waves:    4844
 k-point    29 :   0.3500 0.3929 0.0000  plane waves:    4835
 k-point    30 :   0.4500 0.3929 0.0000  plane waves:    4831
 k-point    31 :   0.0500 0.4643 0.0000  plane waves:    4852
 k-point    32 :   0.1500 0.4643 0.0000  plane waves:    4840
 k-point    33 :   0.2500 0.4643 0.0000  plane waves:    4833
 k-point    34 :   0.3500 0.4643 0.0000  plane waves:    4836
 k-point    35 :   0.4500 0.4643 0.0000  plane waves:    4829
 k-point    36 :   0.0500 0.0357 0.1111  plane waves:    4810
 k-point    37 :   0.1500 0.0357 0.1111  plane waves:    4814
 k-point    38 :   0.2500 0.0357 0.1111  plane waves:    4811
 k-point    39 :   0.3500 0.0357 0.1111  plane waves:    4811
 k-point    40 :   0.4500 0.0357 0.1111  plane waves:    4812
 k-point    41 :   0.0500 0.1071 0.1111  plane waves:    4802
 k-point    42 :   0.1500 0.1071 0.1111  plane waves:    4809
 k-point    43 :   0.2500 0.1071 0.1111  plane waves:    4817
 k-point    44 :   0.3500 0.1071 0.1111  plane waves:    4815
 k-point    45 :   0.4500 0.1071 0.1111  plane waves:    4807
 k-point    46 :   0.0500 0.1786 0.1111  plane waves:    4808
 k-point    47 :   0.1500 0.1786 0.1111  plane waves:    4816
 k-point    48 :   0.2500 0.1786 0.1111  plane waves:    4823
 k-point    49 :   0.3500 0.1786 0.1111  plane waves:    4821
 k-point    50 :   0.4500 0.1786 0.1111  plane waves:    4813
 k-point    51 :   0.0500 0.2500 0.1111  plane waves:    4821
 k-point    52 :   0.1500 0.2500 0.1111  plane waves:    4818
 k-point    53 :   0.2500 0.2500 0.1111  plane waves:    4821
 k-point    54 :   0.3500 0.2500 0.1111  plane waves:    4819
 k-point    55 :   0.4500 0.2500 0.1111  plane waves:    4815
 k-point    56 :   0.0500 0.3214 0.1111  plane waves:    4831
 k-point    57 :   0.1500 0.3214 0.1111  plane waves:    4822
 k-point    58 :   0.2500 0.3214 0.1111  plane waves:    4829
 k-point    59 :   0.3500 0.3214 0.1111  plane waves:    4822
 k-point    60 :   0.4500 0.3214 0.1111  plane waves:    4820
 k-point    61 :   0.0500 0.3929 0.1111  plane waves:    4832
 k-point    62 :   0.1500 0.3929 0.1111  plane waves:    4838
 k-point    63 :   0.2500 0.3929 0.1111  plane waves:    4820
 k-point    64 :   0.3500 0.3929 0.1111  plane waves:    4830
 k-point    65 :   0.4500 0.3929 0.1111  plane waves:    4826
 k-point    66 :   0.0500 0.4643 0.1111  plane waves:    4840
 k-point    67 :   0.1500 0.4643 0.1111  plane waves:    4837
 k-point    68 :   0.2500 0.4643 0.1111  plane waves:    4836
 k-point    69 :   0.3500 0.4643 0.1111  plane waves:    4826
 k-point    70 :   0.4500 0.4643 0.1111  plane waves:    4822
 k-point    71 :   0.0500 0.0357 0.2222  plane waves:    4800
 k-point    72 :   0.1500 0.0357 0.2222  plane waves:    4814
 k-point    73 :   0.2500 0.0357 0.2222  plane waves:    4817
 k-point    74 :   0.3500 0.0357 0.2222  plane waves:    4816
 k-point    75 :   0.4500 0.0357 0.2222  plane waves:    4816
 k-point    76 :   0.0500 0.1071 0.2222  plane waves:    4808
 k-point    77 :   0.1500 0.1071 0.2222  plane waves:    4809
 k-point    78 :   0.2500 0.1071 0.2222  plane waves:    4814
 k-point    79 :   0.3500 0.1071 0.2222  plane waves:    4812
 k-point    80 :   0.4500 0.1071 0.2222  plane waves:    4810
 k-point    81 :   0.0500 0.1786 0.2222  plane waves:    4815
 k-point    82 :   0.1500 0.1786 0.2222  plane waves:    4816
 k-point    83 :   0.2500 0.1786 0.2222  plane waves:    4816
 k-point    84 :   0.3500 0.1786 0.2222  plane waves:    4815
 k-point    85 :   0.4500 0.1786 0.2222  plane waves:    4816
 k-point    86 :   0.0500 0.2500 0.2222  plane waves:    4833
 k-point    87 :   0.1500 0.2500 0.2222  plane waves:    4816
 k-point    88 :   0.2500 0.2500 0.2222  plane waves:    4814
 k-point    89 :   0.3500 0.2500 0.2222  plane waves:    4821
 k-point    90 :   0.4500 0.2500 0.2222  plane waves:    4825
 k-point    91 :   0.0500 0.3214 0.2222  plane waves:    4833
 k-point    92 :   0.1500 0.3214 0.2222  plane waves:    4828
 k-point    93 :   0.2500 0.3214 0.2222  plane waves:    4821
 k-point    94 :   0.3500 0.3214 0.2222  plane waves:    4818
 k-point    95 :   0.4500 0.3214 0.2222  plane waves:    4825
 k-point    96 :   0.0500 0.3929 0.2222  plane waves:    4830
 k-point    97 :   0.1500 0.3929 0.2222  plane waves:    4832
 k-point    98 :   0.2500 0.3929 0.2222  plane waves:    4824
 k-point    99 :   0.3500 0.3929 0.2222  plane waves:    4815
 k-point   100 :   0.4500 0.3929 0.2222  plane waves:    4819
 k-point   101 :   0.0500 0.4643 0.2222  plane waves:    4837
 k-point   102 :   0.1500 0.4643 0.2222  plane waves:    4836
 k-point   103 :   0.2500 0.4643 0.2222  plane waves:    4830
 k-point   104 :   0.3500 0.4643 0.2222  plane waves:    4817
 k-point   105 :   0.4500 0.4643 0.2222  plane waves:    4810
 k-point   106 :   0.0500 0.0357 0.3333  plane waves:    4797
 k-point   107 :   0.1500 0.0357 0.3333  plane waves:    4800
 k-point   108 :   0.2500 0.0357 0.3333  plane waves:    4812
 k-point   109 :   0.3500 0.0357 0.3333  plane waves:    4812
 k-point   110 :   0.4500 0.0357 0.3333  plane waves:    4820
 k-point   111 :   0.0500 0.1071 0.3333  plane waves:    4803
 k-point   112 :   0.1500 0.1071 0.3333  plane waves:    4808
 k-point   113 :   0.2500 0.1071 0.3333  plane waves:    4807
 k-point   114 :   0.3500 0.1071 0.3333  plane waves:    4809
 k-point   115 :   0.4500 0.1071 0.3333  plane waves:    4811
 k-point   116 :   0.0500 0.1786 0.3333  plane waves:    4825
 k-point   117 :   0.1500 0.1786 0.3333  plane waves:    4810
 k-point   118 :   0.2500 0.1786 0.3333  plane waves:    4816
 k-point   119 :   0.3500 0.1786 0.3333  plane waves:    4805
 k-point   120 :   0.4500 0.1786 0.3333  plane waves:    4810
 k-point   121 :   0.0500 0.2500 0.3333  plane waves:    4831
 k-point   122 :   0.1500 0.2500 0.3333  plane waves:    4825
 k-point   123 :   0.2500 0.2500 0.3333  plane waves:    4816
 k-point   124 :   0.3500 0.2500 0.3333  plane waves:    4811
 k-point   125 :   0.4500 0.2500 0.3333  plane waves:    4814
 k-point   126 :   0.0500 0.3214 0.3333  plane waves:    4831
 k-point   127 :   0.1500 0.3214 0.3333  plane waves:    4826
 k-point   128 :   0.2500 0.3214 0.3333  plane waves:    4828
 k-point   129 :   0.3500 0.3214 0.3333  plane waves:    4819
 k-point   130 :   0.4500 0.3214 0.3333  plane waves:    4813
 k-point   131 :   0.0500 0.3929 0.3333  plane waves:    4832
 k-point   132 :   0.1500 0.3929 0.3333  plane waves:    4829
 k-point   133 :   0.2500 0.3929 0.3333  plane waves:    4824
 k-point   134 :   0.3500 0.3929 0.3333  plane waves:    4813
 k-point   135 :   0.4500 0.3929 0.3333  plane waves:    4804
 k-point   136 :   0.0500 0.4643 0.3333  plane waves:    4835
 k-point   137 :   0.1500 0.4643 0.3333  plane waves:    4842
 k-point   138 :   0.2500 0.4643 0.3333  plane waves:    4817
 k-point   139 :   0.3500 0.4643 0.3333  plane waves:    4811
 k-point   140 :   0.4500 0.4643 0.3333  plane waves:    4801
 k-point   141 :   0.0500 0.0357 0.4444  plane waves:    4798
 k-point   142 :   0.1500 0.0357 0.4444  plane waves:    4803
 k-point   143 :   0.2500 0.0357 0.4444  plane waves:    4808
 k-point   144 :   0.3500 0.0357 0.4444  plane waves:    4803
 k-point   145 :   0.4500 0.0357 0.4444  plane waves:    4810
 k-point   146 :   0.0500 0.1071 0.4444  plane waves:    4815
 k-point   147 :   0.1500 0.1071 0.4444  plane waves:    4806
 k-point   148 :   0.2500 0.1071 0.4444  plane waves:    4811
 k-point   149 :   0.3500 0.1071 0.4444  plane waves:    4794
 k-point   150 :   0.4500 0.1071 0.4444  plane waves:    4804
 k-point   151 :   0.0500 0.1786 0.4444  plane waves:    4826
 k-point   152 :   0.1500 0.1786 0.4444  plane waves:    4823
 k-point   153 :   0.2500 0.1786 0.4444  plane waves:    4813
 k-point   154 :   0.3500 0.1786 0.4444  plane waves:    4806
 k-point   155 :   0.4500 0.1786 0.4444  plane waves:    4803
 k-point   156 :   0.0500 0.2500 0.4444  plane waves:    4830
 k-point   157 :   0.1500 0.2500 0.4444  plane waves:    4833
 k-point   158 :   0.2500 0.2500 0.4444  plane waves:    4806
 k-point   159 :   0.3500 0.2500 0.4444  plane waves:    4808
 k-point   160 :   0.4500 0.2500 0.4444  plane waves:    4803
 k-point   161 :   0.0500 0.3214 0.4444  plane waves:    4827
 k-point   162 :   0.1500 0.3214 0.4444  plane waves:    4823
 k-point   163 :   0.2500 0.3214 0.4444  plane waves:    4814
 k-point   164 :   0.3500 0.3214 0.4444  plane waves:    4811
 k-point   165 :   0.4500 0.3214 0.4444  plane waves:    4809
 k-point   166 :   0.0500 0.3929 0.4444  plane waves:    4832
 k-point   167 :   0.1500 0.3929 0.4444  plane waves:    4826
 k-point   168 :   0.2500 0.3929 0.4444  plane waves:    4809
 k-point   169 :   0.3500 0.3929 0.4444  plane waves:    4809
 k-point   170 :   0.4500 0.3929 0.4444  plane waves:    4807
 k-point   171 :   0.0500 0.4643 0.4444  plane waves:    4826
 k-point   172 :   0.1500 0.4643 0.4444  plane waves:    4818
 k-point   173 :   0.2500 0.4643 0.4444  plane waves:    4820
 k-point   174 :   0.3500 0.4643 0.4444  plane waves:    4816
 k-point   175 :   0.4500 0.4643 0.4444  plane waves:    4801

 maximum and minimum number of plane-waves per node :      4852     4794

 maximum number of plane-waves:      4852
 maximum index in each direction: 
   IXMAX=   11   IYMAX=    8   IZMAX=   12
   IXMIN=  -11   IYMIN=   -8   IZMIN=  -12


 serial   3D FFT for wavefunctions
 parallel 3D FFT for charge:
    minimum data exchange during FFTs selected (reduces bandwidth)


 total amount of memory used by VASP MPI-rank0   119196. kBytes
=======================================================================

   base      :      30000. kBytes
   nonl-proj :      55657. kBytes
   fftplans  :       1200. kBytes
   grid      :       4341. kBytes
   one-center:         43. kBytes
   wavefun   :      27955. kBytes
 
     INWAV:  cpu time      0.0001: real time      0.0002
 Broyden mixing: mesh for mixing (old mesh)
   NGX = 23   NGY = 17   NGZ = 25
  (NGX  = 96   NGY  = 64   NGZ  =100)
  gives a total of   9775 points

 initial charge density was supplied:
 charge density of overlapping atoms calculated
 number of electron      42.0000000 magnetization 
 keeping initial charge density in first step


--------------------------------------------------------------------------------------------------------


 Maximum index for augmentation-charges          469 (set IRDMAX)


--------------------------------------------------------------------------------------------------------


 First call to EWALD:  gamma=   0.338
 Maximum number of real-space cells 3x 3x 2
 Maximum number of reciprocal cells 3x 2x 3

    FEWALD:  cpu time      0.0010: real time      0.0010


--------------------------------------- Ionic step        1  -------------------------------------------




--------------------------------------- Iteration      1(   1)  ---------------------------------------


    POTLOK:  cpu time      0.0147: real time      0.0153
    SETDIJ:  cpu time      0.0017: real time      0.0017
     EDDAV:  cpu time      5.5065: real time      5.5546
       DOS:  cpu time      0.0014: real time      0.0014
    --------------------------------------------
      LOOP:  cpu time      5.5242: real time      5.5730

 eigenvalue-minimisations  : 16800
 total energy-change (2. order) : 0.7823394E+02  (-0.1998657E+04)
 number of electron      42.0000000 magnetization 
 augmentation part       42.0000000 magnetization 

 Free energy of the ion-electron system (eV)
  ---------------------------------------------------
  alpha Z        PSCENC =        93.40045152
  Ewald energy   TEWEN  =      -793.38642165
  -Hartree energ DENC   =      -272.22985434
  -exchange      EXHF   =         0.00000000
  -V(xc)+E(xc)   XCENC  =        97.27418882
  PAW double counting   =       608.99811708     -597.02363782
  entropy T*S    EENTRO =        -0.00173223
  eigenvalues    EBANDS =       -55.17157877
  atomic energy  EATOM  =       996.37441054
  Solvation  Ediel_sol  =         0.00000000
  ---------------------------------------------------
  free energy    TOTEN  =        78.23394316 eV

  energy without entropy =       78.23567539  energy(sigma->0) =       78.23480927


--------------------------------------------------------------------------------------------------------




--------------------------------------- Iteration      1(   2)  ---------------------------------------


     EDDAV:  cpu time      7.2085: real time      7.3185
       DOS:  cpu time      0.0011: real time      0.0010
    --------------------------------------------
      LOOP:  cpu time      7.2096: real time      7.3196

 eigenvalue-minimisations  : 23040
 total energy-change (2. order) :-0.1698329E+03  (-0.1591297E+03)
 number of electron      42.0000000 magnetization 
 augmentation part       42.0000000 magnetization 

 Free energy of the ion-electron system (eV)
  ---------------------------------------------------
  alpha Z        PSCENC =        93.40045152
  Ewald energy   TEWEN  =      -793.38642165
  -Hartree energ DENC   =      -272.22985434
  -exchange      EXHF   =         0.00000000
  -V(xc)+E(xc)   XCENC  =        97.27418882
  PAW double counting   =       608.99811708     -597.02363782
  entropy T*S    EENTRO =        -0.00329774
  eigenvalues    EBANDS =      -225.00288458
  atomic energy  EATOM  =       996.37441054
  Solvation  Ediel_sol  =         0.00000000
  ---------------------------------------------------
  free energy    TOTEN  =       -91.59892816 eV

  energy without entropy =      -91.59563042  energy(sigma->0) =      -91.59727929


--------------------------------------------------------------------------------------------------------




--------------------------------------- Iteration      1(   3)  ---------------------------------------


     EDDAV:  cpu time      7.7692: real time      7.8341
       DOS:  cpu time      0.0012: real time      0.0012
    --------------------------------------------
      LOOP:  cpu time      7.7704: real time      7.8353

 eigenvalue-minimisations  : 24792
 total energy-change (2. order) :-0.5839291E+01  (-0.5808012E+01)
 number of electron      42.0000000 magnetization 
 augmentation part       42.0000000 magnetization 

 Free energy of the ion-electron system (eV)
  ---------------------------------------------------
  alpha Z        PSCENC =        93.40045152
  Ewald energy   TEWEN  =      -793.38642165
  -Hartree energ DENC   =      -272.22985434
  -exchange      EXHF   =         0.00000000
  -V(xc)+E(xc)   XCENC  =        97.27418882
  PAW double counting   =       608.99811708     -597.02363782
  entropy T*S    EENTRO =        -0.00366849
  eigenvalues    EBANDS =      -230.84180495
  atomic energy  EATOM  =       996.37441054
  Solvation  Ediel_sol  =         0.00000000
  ---------------------------------------------------
  free energy    TOTEN  =       -97.43821928 eV

  energy without entropy =      -97.43455080  energy(sigma->0) =      -97.43638504


--------------------------------------------------------------------------------------------------------




--------------------------------------- Iteration      1(   4)  ---------------------------------------


     EDDAV:  cpu time      6.4684: real time      6.5806
       DOS:  cpu time      0.0011: real time      0.0011
    --------------------------------------------
      LOOP:  cpu time      6.4694: real time      6.5817

 eigenvalue-minimisations  : 20160
 total energy-change (2. order) :-0.3481333E-01  (-0.3481142E-01)
 number of electron      42.0000000 magnetization 
 augmentation part       42.0000000 magnetization 

 Free energy of the ion-electron system (eV)
  ---------------------------------------------------
  alpha Z        PSCENC =        93.40045152
  Ewald energy   TEWEN  =      -793.38642165
  -Hartree energ DENC   =      -272.22985434
  -exchange      EXHF   =         0.00000000
  -V(xc)+E(xc)   XCENC  =        97.27418882
  PAW double counting   =       608.99811708     -597.02363782
  entropy T*S    EENTRO =        -0.00366971
  eigenvalues    EBANDS =      -230.87661705
  atomic energy  EATOM  =       996.37441054
  Solvation  Ediel_sol  =         0.00000000
  ---------------------------------------------------
  free energy    TOTEN  =       -97.47303261 eV

  energy without entropy =      -97.46936290  energy(sigma->0) =      -97.47119775


--------------------------------------------------------------------------------------------------------




--------------------------------------- Iteration      1(   5)  ---------------------------------------


     EDDAV:  cpu time      7.8048: real time      7.8826
       DOS:  cpu time      0.0016: real time      0.0023
    CHARGE:  cpu time      0.0933: real time      0.1034
    MIXING:  cpu time      0.0011: real time      0.0013
    --------------------------------------------
      LOOP:  cpu time      7.9008: real time      7.9896

 eigenvalue-minimisations  : 24792
 total energy-change (2. order) :-0.3919928E-03  (-0.3919839E-03)
 number of electron      41.9999999 magnetization 
 augmentation part       -0.1298409 magnetization 

 Broyden mixing:
  rms(total) = 0.12211E+01    rms(broyden)= 0.12211E+01
  rms(prec ) = 0.22393E+01
  weight for this iteration     100.00

 Free energy of the ion-electron system (eV)
  ---------------------------------------------------
  alpha Z        PSCENC =        93.40045152
  Ewald energy   TEWEN  =      -793.38642165
  -Hartree energ DENC   =      -272.22985434
  -exchange      EXHF   =         0.00000000
  -V(xc)+E(xc)   XCENC  =        97.27418882
  PAW double counting   =       608.99811708     -597.02363782
  entropy T*S    EENTRO =        -0.00366976
  eigenvalues    EBANDS =      -230.87700899
  atomic energy  EATOM  =       996.37441054
  Solvation  Ediel_sol  =         0.00000000
  ---------------------------------------------------
  free energy    TOTEN  =       -97.47342460 eV

  energy without entropy =      -97.46975484  energy(sigma->0) =      -97.47158972


--------------------------------------------------------------------------------------------------------




--------------------------------------- Iteration      1(   6)  ---------------------------------------


    POTLOK:  cpu time      0.0111: real time      0.0126
    SETDIJ:  cpu time      0.0012: real time      0.0012
     EDDAV:  cpu time      7.7156: real time      7.8183
       DOS:  cpu time      0.0021: real time      0.0021
    CHARGE:  cpu time      0.1295: real time      0.1304
    MIXING:  cpu time      0.0011: real time      0.0012
    --------------------------------------------
      LOOP:  cpu time      7.8606: real time      7.9659

 eigenvalue-minimisations  : 24288
 total energy-change (2. order) : 0.5284001E+01  (-0.3857820E+00)
 number of electron      41.9999999 magnetization 
 augmentation part       -0.1551739 magnetization 

 Broyden mixing:
  rms(total) = 0.67352E+00    rms(broyden)= 0.67352E+00
  rms(prec ) = 0.11527E+01
  weight for this iteration     100.00

 eigenvalues of (default mixing * dielectric matrix)
  average eigenvalue GAMMA=   2.0787
  2.0787

 Free energy of the ion-electron system (eV)
  ---------------------------------------------------
  alpha Z        PSCENC =        93.40045152
  Ewald energy   TEWEN  =      -793.38642165
  -Hartree energ DENC   =      -306.66821094
  -exchange      EXHF   =         0.00000000
  -V(xc)+E(xc)   XCENC  =        98.89338175
  PAW double counting   =      1492.38272284    -1481.01725260
  entropy T*S    EENTRO =        -0.00346850
  eigenvalues    EBANDS =      -192.16503670
  atomic energy  EATOM  =       996.37441054
  Solvation  Ediel_sol  =         0.00000000
  ---------------------------------------------------
  free energy    TOTEN  =       -92.18942375 eV

  energy without entropy =      -92.18595525  energy(sigma->0) =      -92.18768950


--------------------------------------------------------------------------------------------------------




--------------------------------------- Iteration      1(   7)  ---------------------------------------


    POTLOK:  cpu time      0.0184: real time      0.0193
    SETDIJ:  cpu time      0.0017: real time      0.0017
     EDDAV:  cpu time      8.0224: real time      8.3792
       DOS:  cpu time      0.0012: real time      0.0012
    CHARGE:  cpu time      0.0904: real time      0.0943
    MIXING:  cpu time      0.0010: real time      0.0010
    --------------------------------------------
      LOOP:  cpu time      8.1351: real time      8.4968

 eigenvalue-minimisations  : 25176
 total energy-change (2. order) : 0.1616680E+01  (-0.3152832E+00)
 number of electron      41.9999999 magnetization 
 augmentation part       -0.1741506 magnetization 

 Broyden mixing:
  rms(total) = 0.16883E+00    rms(broyden)= 0.16883E+00
  rms(prec ) = 0.24636E+00
  weight for this iteration     100.00

 eigenvalues of (default mixing * dielectric matrix)
  average eigenvalue GAMMA=   1.8871
  1.5299  2.2442

 Free energy of the ion-electron system (eV)
  ---------------------------------------------------
  alpha Z        PSCENC =        93.40045152
  Ewald energy   TEWEN  =      -793.38642165
  -Hartree energ DENC   =      -342.86818142
  -exchange      EXHF   =         0.00000000
  -V(xc)+E(xc)   XCENC  =       100.81976388
  PAW double counting   =      3037.26791810    -3026.44604454
  entropy T*S    EENTRO =        -0.00316115
  eigenvalues    EBANDS =      -155.73147881
  atomic energy  EATOM  =       996.37441054
  Solvation  Ediel_sol  =         0.00000000
  ---------------------------------------------------
  free energy    TOTEN  =       -90.57274353 eV

  energy without entropy =      -90.56958239  energy(sigma->0) =      -90.57116296


--------------------------------------------------------------------------------------------------------




--------------------------------------- Iteration      1(   8)  ---------------------------------------


    POTLOK:  cpu time      0.0110: real time      0.0119
    SETDIJ:  cpu time      0.0012: real time      0.0012
     EDDAV:  cpu time      5.9750: real time      6.0910
       DOS:  cpu time      0.0011: real time      0.0011
    CHARGE:  cpu time      0.0890: real time      0.0898
    MIXING:  cpu time      0.0008: real time      0.0008
    --------------------------------------------
      LOOP:  cpu time      6.0781: real time      6.1958

 eigenvalue-minimisations  : 18696
 total energy-change (2. order) :-0.1258722E-01  (-0.2299376E-01)
 number of electron      41.9999999 magnetization 
 augmentation part       -0.1798493 magnetization 

 Broyden mixing:
  rms(total) = 0.70082E-01    rms(broyden)= 0.70082E-01
  rms(prec ) = 0.10507E+00
  weight for this iteration     100.00

 eigenvalues of (default mixing * dielectric matrix)
[...]
     43      13.6782      0.00000
     44      14.1266      0.00000
     45      14.5683      0.00000
     46      14.6443      0.00000
     47      14.8877      0.00000
     48      15.2494      0.00000

 k-point   170 :       0.4500    0.3929    0.4444
  band No.  band energies     occupation 
      1     -12.0398      2.00000
      2     -11.9005      2.00000
      3      -8.5884      2.00000
      4      -8.4761      2.00000
      5      -5.7985      2.00000
      6      -5.6949      2.00000
      7      -4.9560      2.00000
      8      -4.6468      2.00000
      9      -4.4648      2.00000
     10      -4.0336      2.00000
     11      -2.1626      2.00000
     12      -2.0383      2.00000
     13      -2.0326      2.00000
     14      -1.8224      2.00000
     15      -0.2771      2.00000
     16      -0.0725      2.00000
     17       0.4661      2.00000
     18       0.5078      2.00000
     19       0.6005      2.00000
     20       0.8092      2.00000
     21       1.2996      2.00000
     22       1.4078      2.00000
     23       5.8500      0.00000
     24       6.0157      0.00000
     25       6.8617      0.00000
     26       7.2887      0.00000
     27       7.4209      0.00000
     28       7.5261      0.00000
     29       8.9695      0.00000
     30       9.1080      0.00000
     31       9.7809      0.00000
     32      10.0070      0.00000
     33      10.1758      0.00000
     34      10.3830      0.00000
     35      11.1115      0.00000
     36      11.3972      0.00000
     37      11.7101      0.00000
     38      11.7156      0.00000
     39      12.9643      0.00000
     40      13.0855      0.00000
     41      13.2263      0.00000
     42      13.6021      0.00000
     43      13.8497      0.00000
     44      14.0405      0.00000
     45      14.3668      0.00000
     46      14.5091      0.00000
     47      14.7429      0.00000
     48      15.1293      0.00000

 k-point   171 :       0.0500    0.4643    0.4444
  band No.  band energies     occupation 
      1     -12.3594      2.00000
      2     -11.4965      2.00000
      3      -8.4474      2.00000
      4      -7.8955      2.00000
      5      -6.6107      2.00000
      6      -6.2575      2.00000
      7      -5.6369      2.00000
      8      -5.4039      2.00000
      9      -3.2839      2.00000
     10      -2.8165      2.00000
     11      -2.0655      2.00000
     12      -1.6286      2.00000
     13      -1.5164      2.00000
     14      -1.4191      2.00000
     15      -1.3339      2.00000
     16      -0.9188      2.00000
     17      -0.7076      2.00000
     18      -0.4676      2.00000
     19       0.3725      2.00000
     20       1.6888      1.99995
     21       2.0880      0.00000
     22       3.8221      0.00000
     23       4.5715      0.00000
     24       5.6857      0.00000
     25       6.3925      0.00000
     26       7.1906      0.00000
     27       7.2148      0.00000
     28       7.8084      0.00000
     29       9.0238      0.00000
     30       9.3287      0.00000
     31       9.3730      0.00000
     32       9.9905      0.00000
     33      10.9712      0.00000
     34      11.1984      0.00000
     35      11.4673      0.00000
     36      11.5694      0.00000
     37      11.7635      0.00000
     38      11.8964      0.00000
     39      12.1826      0.00000
     40      12.4714      0.00000
     41      12.6265      0.00000
     42      12.7468      0.00000
     43      13.1517      0.00000
     44      13.2615      0.00000
     45      13.9476      0.00000
     46      15.2407      0.00000
     47      15.2634      0.00000
     48      15.4508      0.00000

 k-point   172 :       0.1500    0.4643    0.4444
  band No.  band energies     occupation 
      1     -12.3210      2.00000
      2     -11.5394      2.00000
      3      -8.5201      2.00000
      4      -7.9797      2.00000
      5      -6.3627      2.00000
      6      -6.2198      2.00000
      7      -5.6535      2.00000
      8      -5.3113      2.00000
      9      -3.4904      2.00000
     10      -2.7399      2.00000
     11      -2.3289      2.00000
     12      -1.7742      2.00000
     13      -1.5735      2.00000
     14      -1.5218      2.00000
     15      -1.2766      2.00000
     16      -0.7611      2.00000
     17      -0.4785      2.00000
     18      -0.1902      2.00000
     19       0.3645      2.00000
     20       1.6584      2.00000
     21       2.0411      0.00000
     22       3.1700      0.00000
     23       4.7315      0.00000
     24       6.2071      0.00000
     25       6.2932      0.00000
     26       6.9774      0.00000
     27       7.5191      0.00000
     28       8.0805      0.00000
     29       8.7518      0.00000
     30       9.1242      0.00000
     31       9.3901      0.00000
     32      10.3197      0.00000
     33      10.6214      0.00000
     34      11.1964      0.00000
     35      11.3170      0.00000
     36      11.3908      0.00000
     37      11.7002      0.00000
     38      11.8702      0.00000
     39      12.3802      0.00000
     40      12.4961      0.00000
     41      12.7035      0.00000
     42      12.9259      0.00000
     43      13.3897      0.00000
     44      13.4788      0.00000
     45      14.2582      0.00000
     46      14.7405      0.00000
     47      15.2872      0.00000
     48      15.4100      0.00000

 k-point   173 :       0.2500    0.4643    0.4444
  band No.  band energies     occupation 
      1     -12.2465      2.00000
      2     -11.6225      2.00000
      3      -8.5928      2.00000
      4      -8.1258      2.00000
      5      -6.1489      2.00000
      6      -5.9421      2.00000
      7      -5.6900      2.00000
      8      -5.1401      2.00000
      9      -3.8014      2.00000
     10      -2.8513      2.00000
     11      -2.5578      2.00000
     12      -2.0100      2.00000
     13      -1.7784      2.00000
     14      -1.3725      2.00000
     15      -1.1845      2.00000
     16      -0.5320      2.00000
     17      -0.1633      2.00000
     18       0.1143      2.00000
     19       0.4055      2.00000
     20       1.6069      2.00000
     21       1.9477      0.00106
     22       2.3534      0.00000
     23       5.0416      0.00000
     24       6.1620      0.00000
     25       6.7147      0.00000
     26       6.7750      0.00000
     27       7.8411      0.00000
     28       8.4309      0.00000
     29       8.5325      0.00000
     30       8.8564      0.00000
     31       9.5591      0.00000
     32       9.9684      0.00000
     33      10.6602      0.00000
     34      10.9821      0.00000
     35      11.1808      0.00000
     36      11.3220      0.00000
     37      11.5526      0.00000
     38      12.1530      0.00000
     39      12.3371      0.00000
     40      12.5786      0.00000
     41      13.0843      0.00000
     42      13.2813      0.00000
     43      13.6581      0.00000
     44      13.9526      0.00000
     45      13.9631      0.00000
     46      14.6979      0.00000
     47      15.1490      0.00000
     48      15.3144      0.00000

 k-point   174 :       0.3500    0.4643    0.4444
  band No.  band energies     occupation 
      1     -12.1411      2.00000
      2     -11.7383      2.00000
      3      -8.6120      2.00000
      4      -8.2948      2.00000
      5      -6.0531      2.00000
      6      -5.7544      2.00000
      7      -5.4274      2.00000
      8      -4.8982      2.00000
      9      -4.1426      2.00000
     10      -3.4153      2.00000
     11      -2.3634      2.00000
     12      -2.1612      2.00000
     13      -2.0010      2.00000
     14      -1.5365      2.00000
     15      -0.7740      2.00000
     16      -0.2471      2.00000
     17       0.1315      2.00000
     18       0.3496      2.00000
     19       0.4596      2.00000
     20       1.5373      2.00000
     21       1.5624      2.00000
     22       1.8168      1.33341
     23       5.4483      0.00000
     24       6.0747      0.00000
     25       6.5939      0.00000
     26       7.1174      0.00000
     27       7.6747      0.00000
     28       8.1432      0.00000
     29       8.8982      0.00000
     30       9.0473      0.00000
     31       9.6216      0.00000
     32       9.8533      0.00000
     33      10.4762      0.00000
     34      10.9407      0.00000
     35      11.0728      0.00000
     36      11.3349      0.00000
     37      11.4491      0.00000
     38      11.8417      0.00000
     39      12.7151      0.00000
     40      12.9854      0.00000
     41      13.2427      0.00000
     42      13.6137      0.00000
     43      13.7189      0.00000
     44      14.0237      0.00000
     45      14.3302      0.00000
     46      14.8448      0.00000
     47      14.9530      0.00000
     48      15.2515      0.00000

 k-point   175 :       0.4500    0.4643    0.4444
  band No.  band energies     occupation 
      1     -12.0129      2.00000
      2     -11.8737      2.00000
      3      -8.5619      2.00000
      4      -8.4496      2.00000
      5      -5.9455      2.00000
      6      -5.8412      2.00000
      7      -4.9214      2.00000
      8      -4.6014      2.00000
      9      -4.4400      2.00000
     10      -4.0059      2.00000
     11      -2.2140      2.00000
     12      -2.1532      2.00000
     13      -2.1056      2.00000
     14      -1.8212      2.00000
     15      -0.2612      2.00000
     16      -0.0523      2.00000
     17       0.3524      2.00000
     18       0.4399      2.00000
     19       0.4991      2.00000
     20       0.8276      2.00000
     21       1.5763      2.00000
     22       1.6757      1.99999
     23       5.7897      0.00000
     24       5.9727      0.00000
     25       6.7976      0.00000
     26       7.3019      0.00000
     27       7.3956      0.00000
     28       7.4703      0.00000
     29       9.3033      0.00000
     30       9.4806      0.00000
     31       9.6869      0.00000
     32       9.8642      0.00000
     33      10.3477      0.00000
     34      10.6894      0.00000
     35      11.1476      0.00000
     36      11.3782      0.00000
     37      11.3928      0.00000
     38      11.5028      0.00000
     39      12.9546      0.00000
     40      13.0569      0.00000
     41      13.5571      0.00000
     42      13.9145      0.00000
     43      14.0435      0.00000
     44      14.1368      0.00000
     45      14.4524      0.00000
     46      14.6134      0.00000
     47      14.7654      0.00000
     48      14.8911      0.00000


--------------------------------------------------------------------------------------------------------


 soft charge-density along one line, spin component           1
         0         1         2         3         4         5         6         7         8         9
 total charge-density along one line
 
 pseudopotential strength for first ion, spin component:           1
  6.449   9.820   0.000  -0.009   0.005   0.000  -0.014   0.007
  9.820  14.947   0.000  -0.013   0.007   0.000  -0.021   0.011
  0.000   0.000  -2.177  -0.000   0.000  -3.700  -0.000   0.000
 -0.009  -0.013  -0.000  -2.181  -0.001  -0.000  -3.710  -0.002
  0.005   0.007   0.000  -0.001  -2.180   0.000  -0.002  -3.708
  0.000   0.000  -3.700  -0.000   0.000  -6.090  -0.000   0.000
 -0.014  -0.021  -0.000  -3.710  -0.002  -0.000  -6.111  -0.004
  0.007   0.011   0.000  -0.002  -3.708   0.000  -0.004  -6.107
 total augmentation occupancy for first ion, spin component:           1
  3.613  -0.965   0.000  -0.240   0.410   0.000   0.122  -0.174
 -0.965   0.282   0.000   0.159  -0.194   0.000  -0.056   0.072
  0.000   0.000   2.266   0.000   0.000  -0.541   0.000  -0.000
 -0.240   0.159   0.000   3.752   0.321   0.000  -1.047  -0.118
  0.410  -0.194   0.000   0.321   3.582   0.000  -0.119  -0.974
  0.000   0.000  -0.541   0.000   0.000   0.133   0.000   0.000
  0.122  -0.056   0.000  -1.047  -0.119   0.000   0.302   0.042
 -0.174   0.072   0.000  -0.118  -0.974   0.000   0.042   0.275


------------------------ aborting loop because EDIFF is reached ----------------------------------------


    CHARGE:  cpu time      0.0880: real time      0.0926
    FORLOC:  cpu time      0.0012: real time      0.0017
    FORNL :  cpu time      0.8190: real time      0.8449
    STRESS:  cpu time      3.8813: real time      3.8966
    FORCOR:  cpu time      0.0108: real time      0.0109
    FORHAR:  cpu time      0.0033: real time      0.0033
    MIXING:  cpu time      0.0007: real time      0.0007
    OFIELD:  cpu time      0.0000: real time      0.0000

  FORCE on cell =-STRESS in cart. coord.  units (eV):
  Direction    XX          YY          ZZ          XY          YZ          ZX
  --------------------------------------------------------------------------------------
  Alpha Z    93.40045    93.40045    93.40045
  Ewald     -89.78529  -556.60653  -146.99716    -0.00000    -0.00000    -0.00000
  Hartree   187.02474     5.93021   156.22064    -0.00000    -0.00000     0.00000
  E(xc)    -134.61645  -135.59410  -134.58029    -0.00000    -0.00000     0.00000
  Local    -493.67169   125.48517  -405.80127    -0.00000     0.00000    -0.00000
  n-local    -8.70115   -10.73429    -9.07190    -0.01133    -0.00740     0.07591
  augment     1.35448     1.39914     1.38257    -0.00000     0.00000     0.00000
  Kinetic   444.68415   475.93805   443.42494     0.27058     0.07241    -1.15999
  Fock        0.00000     0.00000     0.00000     0.00000     0.00000     0.00000
  -------------------------------------------------------------------------------------
  Total      -0.31077    -0.78190    -2.02203     0.00000     0.00000     0.00000
  in kB      -3.44896    -8.67760   -22.44050     0.00000     0.00000     0.00000
  external pressure =      -11.52 kB  Pullay stress =        0.00 kB


 VOLUME and BASIS-vectors are now :
 -----------------------------------------------------------------------------
  energy-cutoff  :      600.00
  volume of cell :      144.37
      direct lattice vectors                 reciprocal lattice vectors
     5.714091000  0.000000000  0.000000000     0.175005963  0.000000000  0.000000000
     0.000000000  4.060043700  0.000000000     0.000000000  0.246302768  0.000000000
     0.000000000  0.000000000  6.222812600     0.000000000  0.000000000  0.160699038

  length of vectors
     5.714091000  4.060043700  6.222812600     0.175005963  0.246302768  0.160699038


 FORCES acting on ions
    electron-ion (+dipol)            ewald-force                    non-local-force                 convergence-correction
 -----------------------------------------------------------------------------------------------
   0.494E+02 -.272E-12 -.249E+02   -.512E+02 -.353E-14 0.282E+02   0.181E+01 -.116E-18 -.332E+01   -.399E-04 -.853E-15 0.566E-04
   -.494E+02 -.274E-12 0.249E+02   0.512E+02 -.318E-14 -.282E+02   -.181E+01 -.841E-19 0.332E+01   0.399E-04 0.633E-15 -.566E-04
   -.494E+02 0.915E-12 -.249E+02   0.512E+02 -.199E-14 0.282E+02   -.181E+01 -.131E-18 -.332E+01   0.399E-04 -.836E-15 0.566E-04
   0.494E+02 0.907E-13 0.249E+02   -.512E+02 -.495E-14 -.282E+02   0.181E+01 -.777E-19 0.332E+01   -.399E-04 0.710E-15 -.566E-04
   0.312E+02 -.343E-12 -.524E+02   -.339E+02 -.311E-15 0.567E+02   0.192E+01 0.524E-19 -.408E+01   -.769E-04 0.223E-15 -.930E-04
   -.312E+02 -.313E-12 0.524E+02   0.339E+02 0.369E-14 -.567E+02   -.192E+01 -.522E-19 0.408E+01   0.769E-04 -.315E-15 0.930E-04
   -.312E+02 0.700E-12 -.524E+02   0.339E+02 -.323E-15 0.567E+02   -.192E+01 -.206E-19 -.408E+01   0.769E-04 0.759E-16 -.930E-04
   0.312E+02 0.540E-13 0.524E+02   -.339E+02 0.367E-14 -.567E+02   0.192E+01 0.241E-19 0.408E+01   -.769E-04 -.387E-15 0.930E-04
   0.524E-13 -.555E+02 -.154E+02   0.181E-14 0.609E+02 0.165E+02   0.151E-17 -.537E+01 -.112E+01   0.604E-14 0.185E-04 0.214E-04
   0.375E-13 0.555E+02 0.154E+02   0.412E-15 -.609E+02 -.165E+02   0.166E-17 0.537E+01 0.112E+01   0.266E-14 -.185E-04 -.214E-04
   0.520E-13 0.555E+02 -.154E+02   -.112E-14 -.609E+02 0.165E+02   0.680E-18 0.537E+01 -.112E+01   0.603E-14 -.185E-04 0.214E-04
   0.377E-13 -.555E+02 0.154E+02   -.123E-14 0.609E+02 -.165E+02   0.856E-18 -.537E+01 0.112E+01   0.272E-14 0.185E-04 -.214E-04
   0.147E-13 0.356E-12 -.620E+02   0.303E-13 0.348E-14 0.645E+02   -.253E-18 0.175E-18 -.252E+01   0.229E-14 0.574E-15 0.195E-04
   0.170E-13 -.141E-12 0.620E+02   0.285E-13 -.248E-14 -.645E+02   0.261E-18 0.171E-18 0.252E+01   -.318E-14 -.585E-15 -.195E-04
 -----------------------------------------------------------------------------------------------
   -.154E-11 0.936E-12 0.284E-11   -.265E-13 0.152E-13 0.142E-13   -.217E-15 -.178E-14 0.000E+00   0.231E-13 -.520E-15 -.786E-13
 
 
 POSITION                                       TOTAL-FORCE (eV/Angst)
 -----------------------------------------------------------------------------------
      2.97836      2.03002      3.96991         0.044536      0.000000      0.032634
      2.73574      2.03002      2.25291        -0.044536      0.000000     -0.032634
      5.59278      2.03002      3.96991        -0.044536     -0.000000      0.032634
      0.12131      2.03002      2.25291         0.044536     -0.000000     -0.032634
      3.43360      2.03002      5.59997        -0.795716     -0.000000      0.226765
      2.28049      2.03002      0.62284         0.795716      0.000000     -0.226765
      5.13754      2.03002      5.59997         0.795716      0.000000      0.226765
      0.57655      2.03002      0.62284        -0.795716     -0.000000     -0.226765
      4.28557      3.21438      4.54097         0.000000      0.058100     -0.068495
      1.42852      0.84567      1.68184         0.000000     -0.058100      0.068495
      4.28557      0.84567      4.54097         0.000000     -0.058100     -0.068495
      1.42852      3.21438      1.68184         0.000000      0.058100      0.068495
      1.42852      2.03002      3.25870         0.000000     -0.000000      0.018242
      4.28557      2.03002      2.96411         0.000000      0.000000     -0.018242
 -----------------------------------------------------------------------------------
    total drift:                               -0.000000      0.000000      0.000000


--------------------------------------------------------------------------------------------------------



  FREE ENERGIE OF THE ION-ELECTRON SYSTEM (eV)
  ---------------------------------------------------
  free  energy   TOTEN  =       -90.60475231 eV

  energy  without entropy=      -90.60153259  energy(sigma->0) =      -90.60314245
 


--------------------------------------------------------------------------------------------------------


    POTLOK:  cpu time      0.0126: real time      0.0127


--------------------------------------------------------------------------------------------------------


     LOOP+:  cpu time    103.2479: real time    105.2774
    4ORBIT:  cpu time      0.0000: real time      0.0000

 total amount of memory used by VASP MPI-rank0   119196. kBytes
=======================================================================

   base      :      30000. kBytes
   nonl-proj :      55657. kBytes
   fftplans  :       1200. kBytes
   grid      :       4341. kBytes
   one-center:         43. kBytes
   wavefun   :      27955. kBytes
 
  
  
 General timing and accounting informations for this job:
 ========================================================
  
                  Total CPU time used (sec):      106.562
                            User time (sec):      105.473
                          System time (sec):        1.089
                         Elapsed time (sec):      109.328
  
                   Maximum memory used (kb):      456248.
                   Average memory used (kb):          N/A
  
                          Minor page faults:       236559
                          Major page faults:         1572
                 Voluntary context switches:         4609
