    1    1    1    1
  0.3375000E+04  0.1500000E-08  0.1250000E-08  0.1800000E-08  0.5000000E-15
  1.000000000000000E-004
  CAR 
 Convergence                             
      3    175      8
 
  0.5000000E-01  0.3571429E-01  0.0000000E+00  0.3174603E-02
      1         -9.409796   1.000000
      2         -3.572729   0.166732
      3         -3.572719   0.166665
      4         -3.572607   0.165873
      5         -0.261797   0.000000
      6          0.297305   0.000000
      7          0.309940   0.000000
      8          0.439880   0.000000
 
  0.1500000E+00  0.3571429E-01  0.0000000E+00  0.3174603E-02
      1         -9.409796   1.000000
      2         -3.572729   0.166731
      3         -3.572722   0.166686
      4         -3.572607   0.165872
      5         -0.251955   0.000000
      6          0.270618   0.000000
      7          0.321154   0.000000
      8          0.376016   0.000000
 
  0.2500000E+00  0.3571429E-01  0.0000000E+00  0.3174603E-02
      1         -9.409796   1.000000
      2         -3.572728   0.166724
      3         -3.572727   0.166718
      4         -3.572606   0.165866
      5         -0.233830   0.000000
      6          0.200014   0.000000
      7          0.342732   0.000000
      8          0.378999   0.000000
 
  0.3500000E+00  0.3571429E-01  0.0000000E+00  0.3174603E-02
      1         -9.409796   1.000000
      2         -3.572734   0.166768
      3         -3.572729   0.166730
      4         -3.572606   0.165867
      5         -0.211677   0.000000
      6          0.132122   0.000000
      7          0.371756   0.000000
      8          0.410608   0.000000
 
  0.4500000E+00  0.3571429E-01  0.0000000E+00  0.3174603E-02
      1         -9.409796   1.000000
      2         -3.572737   0.166789
      3         -3.572728   0.166729
      4         -3.572606   0.165865
      5         -0.194688   0.000000
      6          0.090997   0.000000
      7          0.398100   0.000000
      8          0.449452   0.000000
 
  0.5000000E-01  0.1071429E+00  0.0000000E+00  0.3174603E-02
      1         -9.409796   1.000000
      2         -3.572727   0.166719
      3         -3.572718   0.166653
      4         -3.572629   0.166027
      5         -0.252670   0.000000
      6          0.305410   0.000000
      7          0.318909   0.000000
      8          0.448744   0.000000
 
  0.1500000E+00  0.1071429E+00  0.0000000E+00  0.3174603E-02
      1         -9.409796   1.000000
      2         -3.572726   0.166712
      3         -3.572720   0.166670
      4         -3.572628   0.166022
      5         -0.242842   0.000000
      6          0.279111   0.000000
      7          0.330100   0.000000
      8          0.384962   0.000000
 
  0.2500000E+00  0.1071429E+00  0.0000000E+00  0.3174603E-02
      1         -9.409796   1.000000
      2         -3.572726   0.166714
      3         -3.572726   0.166710
      4         -3.572628   0.166024
      5         -0.224748   0.000000
      6          0.209063   0.000000
      7          0.351623   0.000000
      8          0.387588   0.000000
 
  0.3500000E+00  0.1071429E+00  0.0000000E+00  0.3174603E-02
      1         -9.409796   1.000000
      2         -3.572731   0.166748
      3         -3.572726   0.166713
      4         -3.572627   0.166016
      5         -0.202645   0.000000
      6          0.141406   0.000000
      7          0.380543   0.000000
      8          0.419067   0.000000
 
  0.4500000E+00  0.1071429E+00  0.0000000E+00  0.3174603E-02
      1         -9.409796   1.000000
      2         -3.572735   0.166778
      3         -3.572727   0.166722
      4         -3.572628   0.166019
      5         -0.185704   0.000000
      6          0.100394   0.000000
      7          0.406727   0.000000
      8          0.457797   0.000000
 
  0.5000000E-01  0.1785714E+00  0.0000000E+00  0.3174603E-02
      1         -9.409796   1.000000
      2         -3.572723   0.166693
      3         -3.572715   0.166634
      4         -3.572670   0.166315
      5         -0.234732   0.000000
      6          0.318176   0.000000
      7          0.336735   0.000000
      8          0.462728   0.000000
 
  0.1500000E+00  0.1785714E+00  0.0000000E+00  0.3174603E-02
      1         -9.409796   1.000000
      2         -3.572723   0.166690
      3         -3.572717   0.166651
      4         -3.572669   0.166309
      5         -0.224938   0.000000
      6          0.294267   0.000000
      7          0.347877   0.000000
      8          0.401235   0.000000
 
  0.2500000E+00  0.1785714E+00  0.0000000E+00  0.3174603E-02
      1         -9.409796   1.000000
      2         -3.572723   0.166689
      3         -3.572722   0.166687
      4         -3.572669   0.166308
      5         -0.206921   0.000000
      6          0.226709   0.000000
      7          0.369283   0.000000
      8          0.401403   0.000000
 
  0.3500000E+00  0.1785714E+00  0.0000000E+00  0.3174603E-02
      1         -9.409796   1.000000
      2         -3.572728   0.166728
      3         -3.572723   0.166692
      4         -3.572669   0.166307
      5         -0.184938   0.000000
      6          0.159824   0.000000
      7          0.397977   0.000000
      8          0.431693   0.000000
 
  0.4500000E+00  0.1785714E+00  0.0000000E+00  0.3174603E-02
      1         -9.409796   1.000000
      2         -3.572733   0.166759
      3         -3.572724   0.166700
      4         -3.572669   0.166311
      5         -0.168121   0.000000
      6          0.119127   0.000000
      7          0.423824   0.000000
      8          0.468491   0.000000
 
  0.5000000E-01  0.2500000E+00  0.0000000E+00  0.3174603E-02
      1         -9.409796   1.000000
      2         -3.572720   0.166668
      3         -3.572719   0.166664
      4         -3.572711   0.166603
      5         -0.208780   0.000000
      6          0.308957   0.000000
      7          0.363114   0.000000
      8          0.401172   0.000000
 
  0.1500000E+00  0.2500000E+00  0.0000000E+00  0.3174603E-02
      1         -9.409796   1.000000
      2         -3.572720   0.166669
      3         -3.572719   0.166663
      4         -3.572714   0.166627
      5         -0.199056   0.000000
      6          0.301977   0.000000
      7          0.374169   0.000000
      8          0.384589   0.000000
 
  0.2500000E+00  0.2500000E+00  0.0000000E+00  0.3174603E-02
      1         -9.409796   1.000000
      2         -3.572720   0.166668
      3         -3.572719   0.166664
      4         -3.572719   0.166660
      5         -0.181192   0.000000
      6          0.250778   0.000000
      7          0.375019   0.000000
      8          0.395373   0.000000
 
  0.3500000E+00  0.2500000E+00  0.0000000E+00  0.3174603E-02
      1         -9.409796   1.000000
      2         -3.572725   0.166704
      3         -3.572720   0.166668
      4         -3.572719   0.166665
      5         -0.159457   0.000000
      6          0.186894   0.000000
      7          0.397670   0.000000
      8          0.423682   0.000000
 
  0.4500000E+00  0.2500000E+00  0.0000000E+00  0.3174603E-02
      1         -9.409796   1.000000
      2         -3.572728   0.166730
      3         -3.572719   0.166663
      4         -3.572719   0.166660
      5         -0.142894   0.000000
      6          0.147024   0.000000
      7          0.422185   0.000000
      8          0.448963   0.000000
 
  0.5000000E-01  0.3214286E+00  0.0000000E+00  0.3174603E-02
      1         -9.409796   1.000000
      2         -3.572771   0.167031
      3         -3.572716   0.166640
      4         -3.572707   0.166576
      5         -0.176626   0.000000
      6          0.243690   0.000000
      7          0.397252   0.000000
      8          0.416409   0.000000
 
  0.1500000E+00  0.3214286E+00  0.0000000E+00  0.3174603E-02
      1         -9.409796   1.000000
      2         -3.572771   0.167029
      3         -3.572716   0.166642
      4         -3.572710   0.166601
      5         -0.167034   0.000000
      6          0.252567   0.000000
      7          0.385224   0.000000
      8          0.408161   0.000000
 
  0.2500000E+00  0.3214286E+00  0.0000000E+00  0.3174603E-02
      1         -9.409796   1.000000
      2         -3.572770   0.167027
      3         -3.572716   0.166641
      4         -3.572716   0.166639
      5         -0.149460   0.000000
      6          0.259232   0.000000
      7          0.321622   0.000000
      8          0.429027   0.000000
 
  0.3500000E+00  0.3214286E+00  0.0000000E+00  0.3174603E-02
      1         -9.409796   1.000000
      2         -3.572770   0.167020
      3         -3.572721   0.166679
      4         -3.572715   0.166637
      5         -0.128195   0.000000
      6          0.220508   0.000000
      7          0.319559   0.000000
      8          0.456697   0.000000
 
  0.4500000E+00  0.3214286E+00  0.0000000E+00  0.3174603E-02
      1         -9.409796   1.000000
      2         -3.572769   0.167017
      3         -3.572724   0.166701
      4         -3.572715   0.166633
      5         -0.112115   0.000000
      6          0.183608   0.000000
      7          0.340535   0.000000
      8          0.481071   0.000000
 
  0.5000000E-01  0.3928571E+00  0.0000000E+00  0.3174603E-02
      1         -9.409795   1.000000
      2         -3.572811   0.167311
      3         -3.572712   0.166616
      4         -3.572703   0.166548
      5         -0.142637   0.000000
      6          0.176477   0.000000
      7          0.436710   0.000000
      8          0.458966   0.000000
 
  0.1500000E+00  0.3928571E+00  0.0000000E+00  0.3174603E-02
      1         -9.409796   1.000000
      2         -3.572811   0.167314
      3         -3.572713   0.166620
      4         -3.572707   0.166579
      5         -0.133269   0.000000
      6          0.187518   0.000000
      7          0.422862   0.000000
      8          0.447357   0.000000
 
  0.2500000E+00  0.3928571E+00  0.0000000E+00  0.3174603E-02
      1         -9.409796   1.000000
      2         -3.572811   0.167314
      3         -3.572713   0.166618
      4         -3.572712   0.166616
      5         -0.116196   0.000000
      6          0.208301   0.000000
      7          0.345165   0.000000
      8          0.467623   0.000000
 
  0.3500000E+00  0.3928571E+00  0.0000000E+00  0.3174603E-02
      1         -9.409796   1.000000
      2         -3.572811   0.167316
      3         -3.572718   0.166656
      4         -3.572712   0.166614
      5         -0.095738   0.000000
      6          0.232447   0.000000
      7          0.281694   0.000000
      8          0.494436   0.000000
 
  0.4500000E+00  0.3928571E+00  0.0000000E+00  0.3174603E-02
      1         -9.409796   1.000000
      2         -3.572811   0.167313
      3         -3.572721   0.166680
      4         -3.572713   0.166617
      5         -0.080475   0.000000
      6          0.226832   0.000000
      7          0.273253   0.000000
      8          0.448272   0.000000
 
  0.5000000E-01  0.4642857E+00  0.0000000E+00  0.3174603E-02
      1         -9.409795   1.000000
      2         -3.572834   0.167479
      3         -3.572712   0.166610
      4         -3.572701   0.166538
      5         -0.117441   0.000000
      6          0.133611   0.000000
      7          0.471632   0.000000
      8          0.507207   0.000000
 
  0.1500000E+00  0.4642857E+00  0.0000000E+00  0.3174603E-02
      1         -9.409795   1.000000
      2         -3.572834   0.167479
      3         -3.572712   0.166612
      4         -3.572706   0.166569
      5         -0.108343   0.000000
      6          0.145279   0.000000
      7          0.462765   0.000000
      8          0.481838   0.000000
 
  0.2500000E+00  0.4642857E+00  0.0000000E+00  0.3174603E-02
      1         -9.409796   1.000000
      2         -3.572833   0.167472
      3         -3.572711   0.166603
      4         -3.572710   0.166601
      5         -0.091862   0.000000
      6          0.167915   0.000000
      7          0.382012   0.000000
      8          0.501234   0.000000
 
  0.3500000E+00  0.4642857E+00  0.0000000E+00  0.3174603E-02
      1         -9.409796   1.000000
      2         -3.572833   0.167469
      3         -3.572716   0.166644
      4         -3.572710   0.166600
      5         -0.072342   0.000000
      6          0.199066   0.000000
      7          0.314033   0.000000
      8          0.439291   0.000000
 
  0.4500000E+00  0.4642857E+00  0.0000000E+00  0.3174603E-02
      1         -9.409796   1.000000
      2         -3.572833   0.167468
      3         -3.572719   0.166666
      4         -3.572710   0.166599
      5         -0.058001   0.000000
      6          0.229433   0.000000
      7          0.273649   0.000000
      8          0.386092   0.000000
 
  0.5000000E-01  0.3571429E-01  0.1111111E+00  0.6349206E-02
      1         -9.409796   1.000000
      2         -3.572729   0.166734
      3         -3.572719   0.166664
      4         -3.572607   0.165872
      5         -0.258783   0.000000
      6          0.219371   0.000000
      7          0.389005   0.000000
      8          0.453284   0.000000
 
  0.1500000E+00  0.3571429E-01  0.1111111E+00  0.6349206E-02
      1         -9.409796   1.000000
      2         -3.572729   0.166733
      3         -3.572722   0.166686
      4         -3.572607   0.165873
      5         -0.248989   0.000000
      6          0.224671   0.000000
      7          0.319480   0.000000
      8          0.440201   0.000000
 
  0.2500000E+00  0.3571429E-01  0.1111111E+00  0.6349206E-02
      1         -9.409796   1.000000
      2         -3.572728   0.166729
      3         -3.572727   0.166722
      4         -3.572606   0.165867
      5         -0.230972   0.000000
      6          0.198122   0.000000
      7          0.280030   0.000000
      8          0.460138   0.000000
 
  0.3500000E+00  0.3571429E-01  0.1111111E+00  0.6349206E-02
      1         -9.409796   1.000000
      2         -3.572733   0.166764
      3         -3.572728   0.166725
      4         -3.572606   0.165865
      5         -0.208997   0.000000
      6          0.136117   0.000000
      7          0.302831   0.000000
      8          0.488830   0.000000
 
  0.4500000E+00  0.3571429E-01  0.1111111E+00  0.6349206E-02
      1         -9.409796   1.000000
      2         -3.572737   0.166787
      3         -3.572728   0.166724
      4         -3.572605   0.165861
      5         -0.192193   0.000000
      6          0.095857   0.000000
      7          0.333311   0.000000
      8          0.473312   0.000000
 
  0.5000000E-01  0.1071429E+00  0.1111111E+00  0.6349206E-02
      1         -9.409796   1.000000
      2         -3.572727   0.166719
      3         -3.572718   0.166653
      4         -3.572629   0.166025
      5         -0.249666   0.000000
      6          0.228379   0.000000
      7          0.396506   0.000000
      8          0.462015   0.000000
 
  0.1500000E+00  0.1071429E+00  0.1111111E+00  0.6349206E-02
      1         -9.409796   1.000000
      2         -3.572727   0.166719
      3         -3.572721   0.166677
      4         -3.572628   0.166022
      5         -0.239886   0.000000
      6          0.233636   0.000000
      7          0.328325   0.000000
      8          0.448155   0.000000
 
  0.2500000E+00  0.1071429E+00  0.1111111E+00  0.6349206E-02
      1         -9.409796   1.000000
      2         -3.572727   0.166717
      3         -3.572726   0.166712
      4         -3.572628   0.166024
      5         -0.221900   0.000000
      6          0.207180   0.000000
      7          0.289160   0.000000
      8          0.467891   0.000000
 
  0.3500000E+00  0.1071429E+00  0.1111111E+00  0.6349206E-02
      1         -9.409796   1.000000
      2         -3.572731   0.166750
      3         -3.572726   0.166714
      4         -3.572628   0.166021
      5         -0.199973   0.000000
      6          0.145397   0.000000
      7          0.311864   0.000000
      8          0.496631   0.000000
 
  0.4500000E+00  0.1071429E+00  0.1111111E+00  0.6349206E-02
      1         -9.409796   1.000000
      2         -3.572735   0.166775
      3         -3.572726   0.166710
      4         -3.572628   0.166018
      5         -0.183218   0.000000
      6          0.105247   0.000000
      7          0.342222   0.000000
      8          0.482594   0.000000
 
  0.5000000E-01  0.1785714E+00  0.1111111E+00  0.6349206E-02
      1         -9.409796   1.000000
      2         -3.572724   0.166696
      3         -3.572714   0.166631
      4         -3.572670   0.166314
      5         -0.231751   0.000000
      6          0.245742   0.000000
      7          0.403045   0.000000
      8          0.471254   0.000000
 
  0.1500000E+00  0.1785714E+00  0.1111111E+00  0.6349206E-02
      1         -9.409796   1.000000
      2         -3.572724   0.166697
      3         -3.572718   0.166655
      4         -3.572669   0.166313
      5         -0.222006   0.000000
      6          0.250844   0.000000
      7          0.345273   0.000000
      8          0.450166   0.000000
 
  0.2500000E+00  0.1785714E+00  0.1111111E+00  0.6349206E-02
      1         -9.409796   1.000000
      2         -3.572723   0.166694
      3         -3.572722   0.166687
      4         -3.572669   0.166308
      5         -0.204095   0.000000
      6          0.224836   0.000000
      7          0.307259   0.000000
      8          0.467715   0.000000
 
  0.3500000E+00  0.1785714E+00  0.1111111E+00  0.6349206E-02
      1         -9.409796   1.000000
      2         -3.572729   0.166732
      3         -3.572723   0.166689
      4         -3.572668   0.166304
      5         -0.182287   0.000000
      6          0.163804   0.000000
      7          0.329582   0.000000
      8          0.496044   0.000000
 
  0.4500000E+00  0.1785714E+00  0.1111111E+00  0.6349206E-02
      1         -9.409796   1.000000
      2         -3.572732   0.166758
      3         -3.572723   0.166690
      4         -3.572668   0.166306
      5         -0.165653   0.000000
      6          0.123964   0.000000
      7          0.359624   0.000000
      8          0.500773   0.000000
 
  0.5000000E-01  0.2500000E+00  0.1111111E+00  0.6349206E-02
      1         -9.409796   1.000000
      2         -3.572721   0.166674
      3         -3.572720   0.166668
      4         -3.572711   0.166605
      5         -0.205846   0.000000
      6          0.266947   0.000000
      7          0.351894   0.000000
      8          0.458953   0.000000
 
  0.1500000E+00  0.2500000E+00  0.1111111E+00  0.6349206E-02
      1         -9.409796   1.000000
      2         -3.572720   0.166672
      3         -3.572719   0.166664
      4         -3.572714   0.166627
      5         -0.196170   0.000000
      6          0.271653   0.000000
      7          0.355882   0.000000
      8          0.390254   0.000000
 
  0.2500000E+00  0.2500000E+00  0.1111111E+00  0.6349206E-02
      1         -9.409796   1.000000
      2         -3.572720   0.166670
      3         -3.572719   0.166665
      4         -3.572719   0.166662
      5         -0.178412   0.000000
      6          0.248941   0.000000
      7          0.333349   0.000000
      8          0.389314   0.000000
 
  0.3500000E+00  0.2500000E+00  0.1111111E+00  0.6349206E-02
      1         -9.409796   1.000000
      2         -3.572725   0.166705
      3         -3.572719   0.166664
      4         -3.572719   0.166662
      5         -0.156849   0.000000
      6          0.190846   0.000000
      7          0.353240   0.000000
      8          0.415478   0.000000
 
  0.4500000E+00  0.2500000E+00  0.1111111E+00  0.6349206E-02
      1         -9.409796   1.000000
      2         -3.572728   0.166727
      3         -3.572719   0.166663
      4         -3.572718   0.166658
      5         -0.140464   0.000000
      6          0.151834   0.000000
      7          0.381936   0.000000
      8          0.439212   0.000000
 
  0.5000000E-01  0.3214286E+00  0.1111111E+00  0.6349206E-02
      1         -9.409796   1.000000
      2         -3.572770   0.167025
      3         -3.572716   0.166644
      4         -3.572706   0.166572
      5         -0.173780   0.000000
      6          0.243930   0.000000
      7          0.327558   0.000000
      8          0.490115   0.000000
 
  0.1500000E+00  0.3214286E+00  0.1111111E+00  0.6349206E-02
      1         -9.409796   1.000000
      2         -3.572771   0.167029
      3         -3.572716   0.166639
      4         -3.572710   0.166598
      5         -0.164234   0.000000
      6          0.252706   0.000000
      7          0.336751   0.000000
      8          0.412603   0.000000
 
  0.2500000E+00  0.3214286E+00  0.1111111E+00  0.6349206E-02
      1         -9.409796   1.000000
      2         -3.572770   0.167023
      3         -3.572715   0.166638
      4         -3.572715   0.166634
      5         -0.146764   0.000000
      6          0.259752   0.000000
      7          0.324823   0.000000
      8          0.371772   0.000000
 
  0.3500000E+00  0.3214286E+00  0.1111111E+00  0.6349206E-02
      1         -9.409796   1.000000
      2         -3.572770   0.167021
      3         -3.572721   0.166677
      4         -3.572715   0.166635
      5         -0.125666   0.000000
      6          0.224382   0.000000
      7          0.322181   0.000000
      8          0.398144   0.000000
 
  0.4500000E+00  0.3214286E+00  0.1111111E+00  0.6349206E-02
      1         -9.409796   1.000000
      2         -3.572769   0.167020
      3         -3.572725   0.166703
      4         -3.572715   0.166633
      5         -0.109756   0.000000
      6          0.188368   0.000000
      7          0.342614   0.000000
      8          0.427312   0.000000
 
  0.5000000E-01  0.3928571E+00  0.1111111E+00  0.6349206E-02
      1         -9.409795   1.000000
      2         -3.572811   0.167311
      3         -3.572713   0.166620
      4         -3.572703   0.166549
      5         -0.139942   0.000000
      6          0.180355   0.000000
      7          0.364075   0.000000
      8          0.530133   0.000000
 
  0.1500000E+00  0.3928571E+00  0.1111111E+00  0.6349206E-02
      1         -9.409796   1.000000
      2         -3.572811   0.167313
      3         -3.572713   0.166617
      4         -3.572707   0.166577
      5         -0.130620   0.000000
      6          0.191371   0.000000
      7          0.371513   0.000000
      8          0.452054   0.000000
 
  0.2500000E+00  0.3928571E+00  0.1111111E+00  0.6349206E-02
      1         -9.409796   1.000000
      2         -3.572811   0.167314
      3         -3.572713   0.166619
      4         -3.572712   0.166615
      5         -0.113645   0.000000
      6          0.212098   0.000000
      7          0.345341   0.000000
      8          0.412423   0.000000
 
  0.3500000E+00  0.3928571E+00  0.1111111E+00  0.6349206E-02
      1         -9.409796   1.000000
      2         -3.572811   0.167312
      3         -3.572718   0.166656
      4         -3.572712   0.166611
      5         -0.093341   0.000000
      6          0.236257   0.000000
      7          0.285753   0.000000
      8          0.437098   0.000000
 
  0.4500000E+00  0.3928571E+00  0.1111111E+00  0.6349206E-02
      1         -9.409796   1.000000
      2         -3.572810   0.167309
      3         -3.572721   0.166677
      4         -3.572712   0.166613
      5         -0.078231   0.000000
      6          0.231473   0.000000
      7          0.276811   0.000000
      8          0.452770   0.000000
 
  0.5000000E-01  0.4642857E+00  0.1111111E+00  0.6349206E-02
      1         -9.409795   1.000000
      2         -3.572834   0.167477
      3         -3.572712   0.166612
      4         -3.572702   0.166543
      5         -0.114931   0.000000
      6          0.138036   0.000000
      7          0.404667   0.000000
      8          0.525859   0.000000
 
  0.1500000E+00  0.4642857E+00  0.1111111E+00  0.6349206E-02
      1         -9.409795   1.000000
      2         -3.572834   0.167475
      3         -3.572711   0.166605
      4         -3.572705   0.166563
      5         -0.105873   0.000000
      6          0.149672   0.000000
      7          0.411641   0.000000
      8          0.488170   0.000000
 
  0.2500000E+00  0.4642857E+00  0.1111111E+00  0.6349206E-02
      1         -9.409796   1.000000
      2         -3.572833   0.167473
      3         -3.572711   0.166608
      4         -3.572711   0.166603
      5         -0.089480   0.000000
      6          0.172228   0.000000
      7          0.382050   0.000000
      8          0.450887   0.000000
 
  0.3500000E+00  0.4642857E+00  0.1111111E+00  0.6349206E-02
      1         -9.409796   1.000000
      2         -3.572833   0.167470
      3         -3.572716   0.166643
      4         -3.572710   0.166602
      5         -0.070094   0.000000
      6          0.203216   0.000000
      7          0.317871   0.000000
      8          0.443540   0.000000
 
  0.4500000E+00  0.4642857E+00  0.1111111E+00  0.6349206E-02
      1         -9.409796   1.000000
      2         -3.572833   0.167471
      3         -3.572720   0.166667
      4         -3.572710   0.166603
      5         -0.055881   0.000000
      6          0.233286   0.000000
      7          0.278053   0.000000
      8          0.391243   0.000000
 
  0.5000000E-01  0.3571429E-01  0.2222222E+00  0.6349206E-02
      1         -9.409796   1.000000
      2         -3.572728   0.166726
      3         -3.572719   0.166664
      4         -3.572606   0.165869
      5         -0.250607   0.000000
      6          0.148243   0.000000
      7          0.433435   0.000000
      8          0.516721   0.000000
 
  0.1500000E+00  0.3571429E-01  0.2222222E+00  0.6349206E-02
      1         -9.409796   1.000000
      2         -3.572728   0.166728
      3         -3.572722   0.166687
      4         -3.572606   0.165866
      5         -0.240956   0.000000
      6          0.158769   0.000000
      7          0.330223   0.000000
      8          0.541629   0.000000
 
  0.2500000E+00  0.3571429E-01  0.2222222E+00  0.6349206E-02
      1         -9.409796   1.000000
      2         -3.572729   0.166730
      3         -3.572728   0.166725
      4         -3.572606   0.165867
      5         -0.223256   0.000000
      6          0.173044   0.000000
      7          0.246929   0.000000
      8          0.530147   0.000000
 
  0.3500000E+00  0.3571429E-01  0.2222222E+00  0.6349206E-02
      1         -9.409796   1.000000
      2         -3.572733   0.166762
      3         -3.572727   0.166721
      4         -3.572605   0.165861
      5         -0.201799   0.000000
      6          0.146540   0.000000
      7          0.234697   0.000000
      8          0.453459   0.000000
 
  0.4500000E+00  0.3571429E-01  0.2222222E+00  0.6349206E-02
      1         -9.409796   1.000000
      2         -3.572736   0.166784
      3         -3.572727   0.166718
      4         -3.572606   0.165863
      5         -0.185532   0.000000
      6          0.109999   0.000000
      7          0.263741   0.000000
      8          0.394150   0.000000
 
  0.5000000E-01  0.1071429E+00  0.2222222E+00  0.6349206E-02
      1         -9.409796   1.000000
      2         -3.572727   0.166718
      3         -3.572718   0.166653
      4         -3.572629   0.166027
      5         -0.241519   0.000000
      6          0.157524   0.000000
      7          0.441079   0.000000
      8          0.520525   0.000000
 
  0.1500000E+00  0.1071429E+00  0.2222222E+00  0.6349206E-02
      1         -9.409796   1.000000
      2         -3.572727   0.166716
      3         -3.572721   0.166678
      4         -3.572628   0.166024
      5         -0.231881   0.000000
      6          0.168038   0.000000
      7          0.338995   0.000000
      8          0.544618   0.000000
 
  0.2500000E+00  0.1071429E+00  0.2222222E+00  0.6349206E-02
      1         -9.409796   1.000000
      2         -3.572727   0.166717
      3         -3.572726   0.166710
      4         -3.572628   0.166021
      5         -0.214212   0.000000
      6          0.182277   0.000000
      7          0.256057   0.000000
      8          0.538520   0.000000
 
  0.3500000E+00  0.1071429E+00  0.2222222E+00  0.6349206E-02
      1         -9.409796   1.000000
      2         -3.572732   0.166754
      3         -3.572726   0.166711
      4         -3.572628   0.166020
      5         -0.192800   0.000000
      6          0.155813   0.000000
      7          0.243914   0.000000
      8          0.462777   0.000000
 
  0.4500000E+00  0.1071429E+00  0.2222222E+00  0.6349206E-02
      1         -9.409796   1.000000
      2         -3.572734   0.166770
      3         -3.572725   0.166708
      4         -3.572627   0.166017
      5         -0.176579   0.000000
      6          0.119364   0.000000
      7          0.272865   0.000000
      8          0.403628   0.000000
 
  0.5000000E-01  0.1785714E+00  0.2222222E+00  0.6349206E-02
      1         -9.409796   1.000000
      2         -3.572724   0.166699
      3         -3.572714   0.166630
      4         -3.572670   0.166316
      5         -0.223673   0.000000
      6          0.175848   0.000000
      7          0.440408   0.000000
      8          0.481744   0.000000
 
  0.1500000E+00  0.1785714E+00  0.2222222E+00  0.6349206E-02
      1         -9.409796   1.000000
      2         -3.572723   0.166694
      3         -3.572718   0.166653
      4         -3.572669   0.166313
      5         -0.214069   0.000000
      6          0.186326   0.000000
      7          0.355567   0.000000
      8          0.476198   0.000000
 
  0.2500000E+00  0.1785714E+00  0.2222222E+00  0.6349206E-02
      1         -9.409796   1.000000
      2         -3.572723   0.166694
      3         -3.572723   0.166690
      4         -3.572669   0.166312
      5         -0.196473   0.000000
      6          0.200456   0.000000
      7          0.274168   0.000000
      8          0.495491   0.000000
 