  14  14   0   0
  0.1021960E+02  0.5697000E-09  0.4047900E-09  0.6204200E-09  0.5000000E-15
  1.000000000000000E-004
  CAR 
 Kpoints                                 
     17.99905242    -14.19517656  301      1.87817492      1.00000000
    -14.195  0.0000E+00  0.0000E+00
    -14.088  0.0000E+00  0.0000E+00
    -13.981  0.0000E+00  0.0000E+00
    -13.873  0.0000E+00  0.0000E+00
    -13.766  0.0000E+00  0.0000E+00
    -13.659  0.0000E+00  0.0000E+00
    -13.551  0.0000E+00  0.0000E+00
    -13.444  0.0000E+00  0.0000E+00
    -13.337  0.0000E+00  0.0000E+00
    -13.229  0.0000E+00  0.0000E+00
    -13.122  0.0000E+00  0.0000E+00
    -13.015  0.9384E-17  0.1007E-17
    -12.907  0.1043E-07  0.1119E-08
    -12.800  0.2156E-02  0.2314E-03
    -12.693  0.4191E+00  0.4521E-01
    -12.585  0.2265E+01  0.2883E+00
    -12.478  0.3516E+01  0.6656E+00
    -12.371  0.4343E+01  0.1132E+01
    -12.264  0.3571E+01  0.1515E+01
    -12.156  0.2866E+01  0.1822E+01
    -12.049  0.2629E+01  0.2104E+01
    -11.942  0.2585E+01  0.2382E+01
    -11.834  0.2738E+01  0.2676E+01
    -11.727  0.3321E+01  0.3032E+01
    -11.620  0.3629E+01  0.3422E+01
    -11.512  0.3144E+01  0.3759E+01
    -11.405  0.1755E+01  0.3947E+01
    -11.298  0.4801E+00  0.3999E+01
    -11.190  0.1049E-01  0.4000E+01
    -11.083  0.5122E-06  0.4000E+01
    -10.976  0.7439E-14  0.4000E+01
    -10.868  0.0000E+00  0.4000E+01
    -10.761  0.0000E+00  0.4000E+01
    -10.654  0.0000E+00  0.4000E+01
    -10.546  0.0000E+00  0.4000E+01
    -10.439  0.0000E+00  0.4000E+01
    -10.332  0.0000E+00  0.4000E+01
    -10.225  0.0000E+00  0.4000E+01
    -10.117  0.0000E+00  0.4000E+01
    -10.010  0.0000E+00  0.4000E+01
     -9.903  0.0000E+00  0.4000E+01
     -9.795  0.0000E+00  0.4000E+01
     -9.688  0.0000E+00  0.4000E+01
     -9.581  0.0000E+00  0.4000E+01
     -9.473  0.0000E+00  0.4000E+01
     -9.366  0.0000E+00  0.4000E+01
     -9.259  0.0000E+00  0.4000E+01
     -9.151  0.0000E+00  0.4000E+01
     -9.044  0.3845E-09  0.4000E+01
     -8.937  0.3936E-03  0.4000E+01
     -8.829  0.2427E+00  0.4026E+01
     -8.722  0.2010E+01  0.4242E+01
     -8.615  0.5178E+01  0.4798E+01
     -8.508  0.7007E+01  0.5549E+01
     -8.400  0.6323E+01  0.6228E+01
     -8.293  0.5329E+01  0.6800E+01
     -8.186  0.4894E+01  0.7325E+01
     -8.078  0.3892E+01  0.7743E+01
     -7.971  0.1737E+01  0.7929E+01
     -7.864  0.6042E+00  0.7994E+01
     -7.756  0.5596E-01  0.8000E+01
     -7.649  0.5696E-04  0.8000E+01
     -7.542  0.3024E-10  0.8000E+01
     -7.434  0.0000E+00  0.8000E+01
     -7.327  0.0000E+00  0.8000E+01
     -7.220  0.1556E-14  0.8000E+01
     -7.112  0.1478E-06  0.8000E+01
     -7.005  0.2672E-02  0.8000E+01
     -6.898  0.8887E-01  0.8010E+01
     -6.791  0.2830E+00  0.8040E+01
     -6.683  0.4431E+00  0.8088E+01
     -6.576  0.7001E+00  0.8163E+01
     -6.469  0.8289E+00  0.8252E+01
     -6.361  0.1514E+01  0.8414E+01
     -6.254  0.1976E+01  0.8626E+01
     -6.147  0.2938E+01  0.8942E+01
     -6.039  0.3905E+01  0.9361E+01
     -5.932  0.3997E+01  0.9790E+01
     -5.825  0.3974E+01  0.1022E+02
     -5.717  0.4188E+01  0.1067E+02
     -5.610  0.3973E+01  0.1109E+02
     -5.503  0.4089E+01  0.1153E+02
     -5.395  0.4426E+01  0.1201E+02
     -5.288  0.4829E+01  0.1252E+02
     -5.181  0.4374E+01  0.1299E+02
     -5.073  0.3938E+01  0.1342E+02
     -4.966  0.3558E+01  0.1380E+02
     -4.859  0.2376E+01  0.1405E+02
     -4.752  0.2373E+01  0.1431E+02
     -4.644  0.3088E+01  0.1464E+02
     -4.537  0.3462E+01  0.1501E+02
     -4.430  0.3521E+01  0.1539E+02
     -4.322  0.3047E+01  0.1572E+02
     -4.215  0.3124E+01  0.1605E+02
     -4.108  0.2714E+01  0.1634E+02
     -4.000  0.3122E+01  0.1668E+02
     -3.893  0.2846E+01  0.1698E+02
     -3.786  0.3093E+01  0.1731E+02
     -3.678  0.3013E+01  0.1764E+02
     -3.571  0.2564E+01  0.1791E+02
     -3.464  0.2945E+01  0.1823E+02
     -3.356  0.2811E+01  0.1853E+02
     -3.249  0.2779E+01  0.1883E+02
     -3.142  0.2680E+01  0.1912E+02
     -3.035  0.2789E+01  0.1941E+02
     -2.927  0.3282E+01  0.1977E+02
     -2.820  0.2829E+01  0.2007E+02
     -2.713  0.2332E+01  0.2032E+02
     -2.605  0.2609E+01  0.2060E+02
     -2.498  0.2882E+01  0.2091E+02
     -2.391  0.3294E+01  0.2126E+02
     -2.283  0.3586E+01  0.2165E+02
     -2.176  0.3637E+01  0.2204E+02
     -2.069  0.3162E+01  0.2238E+02
     -1.961  0.3911E+01  0.2280E+02
     -1.854  0.5065E+01  0.2334E+02
     -1.747  0.5381E+01  0.2392E+02
     -1.639  0.5765E+01  0.2454E+02
     -1.532  0.6086E+01  0.2519E+02
     -1.425  0.5949E+01  0.2583E+02
     -1.317  0.6231E+01  0.2650E+02
     -1.210  0.4651E+01  0.2700E+02
     -1.103  0.5485E+01  0.2759E+02
     -0.996  0.4227E+01  0.2804E+02
     -0.888  0.2750E+01  0.2833E+02
     -0.781  0.2201E+01  0.2857E+02
     -0.674  0.3358E+01  0.2893E+02
     -0.566  0.4991E+01  0.2947E+02
     -0.459  0.5870E+01  0.3010E+02
     -0.352  0.6038E+01  0.3074E+02
     -0.244  0.6708E+01  0.3146E+02
     -0.137  0.6552E+01  0.3217E+02
     -0.030  0.6596E+01  0.3288E+02
      0.078  0.6779E+01  0.3360E+02
      0.185  0.6682E+01  0.3432E+02
      0.292  0.8088E+01  0.3519E+02
      0.400  0.8339E+01  0.3608E+02
      0.507  0.8860E+01  0.3703E+02
      0.614  0.5146E+01  0.3759E+02
      0.721  0.2855E+01  0.3789E+02
      0.829  0.3039E+01  0.3822E+02
      0.936  0.3104E+01  0.3855E+02
      1.043  0.3591E+01  0.3894E+02
      1.151  0.3973E+01  0.3936E+02
      1.258  0.3407E+01  0.3973E+02
      1.365  0.3613E+01  0.4012E+02
      1.473  0.4188E+01  0.4057E+02
      1.580  0.3608E+01  0.4095E+02
      1.687  0.3918E+01  0.4137E+02
      1.795  0.3695E+01  0.4177E+02
      1.902  0.2695E+01  0.4206E+02
      2.009  0.2357E+01  0.4231E+02
      2.117  0.2696E+01  0.4260E+02
      2.224  0.2759E+01  0.4290E+02
      2.331  0.2036E+01  0.4312E+02
      2.439  0.1215E+01  0.4325E+02
      2.546  0.8738E+00  0.4334E+02
      2.653  0.8235E+00  0.4343E+02
      2.760  0.8166E+00  0.4352E+02
      2.868  0.6155E+00  0.4358E+02
      2.975  0.4141E+00  0.4363E+02
      3.082  0.3918E+00  0.4367E+02
      3.190  0.4564E+00  0.4372E+02
      3.297  0.6253E+00  0.4378E+02
      3.404  0.4350E+00  0.4383E+02
      3.512  0.2086E+00  0.4385E+02
      3.619  0.3042E+00  0.4389E+02
      3.726  0.3976E+00  0.4393E+02
      3.834  0.3298E+00  0.4396E+02
      3.941  0.1907E+00  0.4398E+02
      4.048  0.1239E+00  0.4400E+02
      4.156  0.1734E-01  0.4400E+02
      4.263  0.3860E-01  0.4400E+02
      4.370  0.2202E+00  0.4403E+02
      4.477  0.3569E+00  0.4407E+02
      4.585  0.4950E+00  0.4412E+02
      4.692  0.7284E+00  0.4420E+02
      4.799  0.7759E+00  0.4428E+02
      4.907  0.9098E+00  0.4438E+02
      5.014  0.9610E+00  0.4448E+02
      5.121  0.1090E+01  0.4460E+02
      5.229  0.1330E+01  0.4474E+02
      5.336  0.1736E+01  0.4493E+02
      5.443  0.1995E+01  0.4514E+02
      5.551  0.2614E+01  0.4542E+02
      5.658  0.2789E+01  0.4572E+02
      5.765  0.3423E+01  0.4609E+02
      5.873  0.3564E+01  0.4647E+02
      5.980  0.4011E+01  0.4690E+02
      6.087  0.4542E+01  0.4739E+02
      6.195  0.4704E+01  0.4789E+02
      6.302  0.4206E+01  0.4835E+02
      6.409  0.3997E+01  0.4877E+02
      6.516  0.4454E+01  0.4925E+02
      6.624  0.4012E+01  0.4968E+02
      6.731  0.3654E+01  0.5007E+02
      6.838  0.3736E+01  0.5048E+02
      6.946  0.4359E+01  0.5094E+02
      7.053  0.4965E+01  0.5148E+02
      7.160  0.4903E+01  0.5200E+02
      7.268  0.5098E+01  0.5255E+02
      7.375  0.4668E+01  0.5305E+02
      7.482  0.4494E+01  0.5353E+02
      7.590  0.4134E+01  0.5398E+02
      7.697  0.3495E+01  0.5435E+02
      7.804  0.3087E+01  0.5468E+02
      7.912  0.3408E+01  0.5505E+02
      8.019  0.3125E+01  0.5538E+02
      8.126  0.3513E+01  0.5576E+02
      8.233  0.3919E+01  0.5618E+02
      8.341  0.4020E+01  0.5661E+02
      8.448  0.4257E+01  0.5707E+02
      8.555  0.3947E+01  0.5749E+02
      8.663  0.4157E+01  0.5794E+02
      8.770  0.4721E+01  0.5845E+02
      8.877  0.5109E+01  0.5899E+02
      8.985  0.5387E+01  0.5957E+02
      9.092  0.5009E+01  0.6011E+02
      9.199  0.4859E+01  0.6063E+02
      9.307  0.4978E+01  0.6117E+02
      9.414  0.4840E+01  0.6168E+02
      9.521  0.5061E+01  0.6223E+02
      9.629  0.4256E+01  0.6268E+02
      9.736  0.4951E+01  0.6322E+02
      9.843  0.5393E+01  0.6379E+02
      9.950  0.4992E+01  0.6433E+02
     10.058  0.4117E+01  0.6477E+02
     10.165  0.4008E+01  0.6520E+02
     10.272  0.4429E+01  0.6568E+02
     10.380  0.4843E+01  0.6620E+02
     10.487  0.5677E+01  0.6681E+02
     10.594  0.5209E+01  0.6737E+02
     10.702  0.4231E+01  0.6782E+02
     10.809  0.3982E+01  0.6825E+02
     10.916  0.3474E+01  0.6862E+02
     11.024  0.4760E+01  0.6913E+02
     11.131  0.5187E+01  0.6969E+02
     11.238  0.6245E+01  0.7036E+02
     11.346  0.5792E+01  0.7098E+02
     11.453  0.4940E+01  0.7151E+02
     11.560  0.4928E+01  0.7204E+02
     11.668  0.4608E+01  0.7253E+02
     11.775  0.4799E+01  0.7305E+02
     11.882  0.4943E+01  0.7358E+02
     11.989  0.5979E+01  0.7422E+02
     12.097  0.6014E+01  0.7486E+02
     12.204  0.5838E+01  0.7549E+02
     12.311  0.5085E+01  0.7604E+02
     12.419  0.5381E+01  0.7661E+02
     12.526  0.6136E+01  0.7727E+02
     12.633  0.5913E+01  0.7791E+02
     12.741  0.5792E+01  0.7853E+02
     12.848  0.5590E+01  0.7913E+02
     12.955  0.6250E+01  0.7980E+02
     13.063  0.6095E+01  0.8045E+02
     13.170  0.5976E+01  0.8110E+02
     13.277  0.6056E+01  0.8174E+02
     13.385  0.5714E+01  0.8236E+02
     13.492  0.5674E+01  0.8297E+02
     13.599  0.4971E+01  0.8350E+02
     13.706  0.5597E+01  0.8410E+02
     13.814  0.5532E+01  0.8469E+02
     13.921  0.5649E+01  0.8530E+02
     14.028  0.5911E+01  0.8594E+02
     14.136  0.4874E+01  0.8646E+02
     14.243  0.4817E+01  0.8698E+02
     14.350  0.4985E+01  0.8751E+02
     14.458  0.4988E+01  0.8805E+02
     14.565  0.5067E+01  0.8859E+02
     14.672  0.5452E+01  0.8917E+02
     14.780  0.4465E+01  0.8965E+02
     14.887  0.4170E+01  0.9010E+02
     14.994  0.5413E+01  0.9068E+02
     15.102  0.6218E+01  0.9135E+02
     15.209  0.5618E+01  0.9195E+02
     15.316  0.5986E+01  0.9259E+02
     15.424  0.5786E+01  0.9322E+02
     15.531  0.5974E+01  0.9386E+02
     15.638  0.5489E+01  0.9445E+02
     15.745  0.4193E+01  0.9490E+02
     15.853  0.2761E+01  0.9519E+02
     15.960  0.2166E+01  0.9542E+02
     16.067  0.1629E+01  0.9560E+02
     16.175  0.1223E+01  0.9573E+02
     16.282  0.9838E+00  0.9584E+02
     16.389  0.8574E+00  0.9593E+02
     16.497  0.5509E+00  0.9599E+02
     16.604  0.1205E+00  0.9600E+02
     16.711  0.8731E-03  0.9600E+02
     16.819  0.9036E-08  0.9600E+02
     16.926  0.1501E-16  0.9600E+02
     17.033  0.0000E+00  0.9600E+02
     17.141  0.0000E+00  0.9600E+02
     17.248  0.0000E+00  0.9600E+02
     17.355  0.0000E+00  0.9600E+02
     17.462  0.0000E+00  0.9600E+02
     17.570  0.0000E+00  0.9600E+02
     17.677  0.0000E+00  0.9600E+02
     17.784  0.0000E+00  0.9600E+02
     17.892  0.0000E+00  0.9600E+02
     17.999  0.0000E+00  0.9600E+02
