   14   14    1    1
  0.1021960E+02  0.5697000E-09  0.4047900E-09  0.6204200E-09  0.5000000E-15
  1.000000000000000E-004
  CAR 
 Kpoints                                 
     42    616     48
 
  0.0000000E+00  0.0000000E+00  0.3571429E-01  0.4535147E-03
      1        -12.731803   1.000000
      2        -11.577835   1.000000
      3         -8.661294   1.000000
      4         -8.421329   1.000000
      5         -6.091185   1.000000
      6         -5.086885   1.000000
      7         -4.606704   1.000000
      8         -4.333847   1.000000
      9         -3.970376   1.000000
     10         -3.586975   1.000000
     11         -2.418346   1.000000
     12         -2.240380   1.000000
     13         -2.189521   1.000000
     14         -1.057523   1.000000
     15         -0.026492   1.000000
     16          0.000491   1.000000
     17          0.126064   1.000000
     18          0.175123   1.000000
     19          0.537543   1.000000
     20          2.075816   0.000000
     21          2.117745   0.000000
     22          2.250994   0.000000
     23          5.411812   0.000000
     24          5.783466   0.000000
     25          5.835481   0.000000
     26          5.911035   0.000000
     27          6.800341   0.000000
     28          7.661366   0.000000
     29          7.705331   0.000000
     30          8.647280   0.000000
     31          8.739525   0.000000
     32          8.893590   0.000000
     33          9.048435   0.000000
     34         10.040695   0.000000
     35         11.144644   0.000000
     36         11.396209   0.000000
     37         11.719201   0.000000
     38         11.808434   0.000000
     39         11.891117   0.000000
     40         12.362551   0.000000
     41         12.826787   0.000000
     42         13.374437   0.000000
     43         13.620731   0.000000
     44         15.529577   0.000000
     45         15.577848   0.000000
     46         15.885237   0.000000
     47         16.362883   0.000000
     48         16.496797   0.000000
 
  0.6666667E-01  0.0000000E+00  0.3571429E-01  0.9070295E-03
      1        -12.722022   1.000000
      2        -11.594741   1.000000
      3         -8.657701   1.000000
      4         -8.417857   1.000000
      5         -6.072269   1.000000
      6         -5.194021   1.000000
      7         -4.669561   1.000000
      8         -4.188419   1.000000
      9         -3.956674   1.000000
     10         -3.493243   1.000000
     11         -2.414113   1.000000
     12         -2.243112   1.000000
     13         -2.220828   1.000000
     14         -1.130976   1.000000
     15         -0.033911   1.000000
     16          0.033165   1.000000
     17          0.124540   1.000000
     18          0.158420   1.000000
     19          0.515934   1.000000
     20          2.036567   0.000004
     21          2.119313   0.000000
     22          2.223015   0.000000
     23          5.431698   0.000000
     24          5.775113   0.000000
     25          5.808264   0.000000
     26          6.034625   0.000000
     27          6.778462   0.000000
     28          7.440521   0.000000
     29          7.880379   0.000000
     30          8.680053   0.000000
     31          8.815233   0.000000
     32          8.954517   0.000000
     33          9.062690   0.000000
     34         10.068911   0.000000
     35         11.160318   0.000000
     36         11.301224   0.000000
     37         11.561873   0.000000
     38         11.754704   0.000000
     39         11.942607   0.000000
     40         12.382130   0.000000
     41         12.935097   0.000000
     42         13.479199   0.000000
     43         13.589363   0.000000
     44         15.255160   0.000000
     45         15.627463   0.000000
     46         16.073606   0.000000
     47         16.263948   0.000000
     48         16.389474   0.000000
 
  0.1333333E+00  0.0000000E+00  0.3571429E-01  0.9070295E-03
      1        -12.692843   1.000000
      2        -11.643867   1.000000
      3         -8.646100   1.000000
      4         -8.408765   1.000000
      5         -6.029688   1.000000
      6         -5.403484   1.000000
      7         -4.768102   1.000000
      8         -3.915755   1.000000
      9         -3.893871   1.000000
     10         -3.262713   1.000000
     11         -2.401161   1.000000
     12         -2.309919   1.000000
     13         -2.251211   1.000000
     14         -1.337224   1.000000
     15         -0.023959   1.000000
     16          0.045822   1.000000
     17          0.094565   1.000000
     18          0.180019   1.000000
     19          0.452179   1.000000
     20          1.954950   0.014946
     21          2.093240   0.000000
     22          2.139038   0.000000
     23          5.483114   0.000000
     24          5.756078   0.000000
     25          5.859794   0.000000
     26          6.267652   0.000000
     27          6.717963   0.000000
     28          7.195463   0.000000
     29          8.021961   0.000000
     30          8.770152   0.000000
     31          8.984176   0.000000
     32          9.055844   0.000000
     33          9.185841   0.000000
     34         10.158463   0.000000
     35         11.036394   0.000000
     36         11.207007   0.000000
     37         11.208118   0.000000
     38         11.685939   0.000000
     39         12.084339   0.000000
     40         12.442301   0.000000
     41         13.128745   0.000000
     42         13.270103   0.000000
     43         13.933296   0.000000
     44         14.892308   0.000000
     45         15.754095   0.000000
     46         15.890999   0.000000
     47         16.266079   0.000000
     48         16.468274   0.000000
 
  0.2000000E+00  0.0000000E+00  0.3571429E-01  0.9070295E-03
      1        -12.644831   1.000000
      2        -11.720810   1.000000
      3         -8.624876   1.000000
      4         -8.397552   1.000000
      5         -6.003162   1.000000
      6         -5.613411   1.000000
      7         -4.802293   1.000000
      8         -3.848179   1.000000
      9         -3.556011   1.000000
     10         -2.966350   1.000000
     11         -2.444625   1.000000
     12         -2.378623   1.000000
     13         -2.264296   1.000000
     14         -1.642005   1.000000
     15         -0.095125   1.000000
     16          0.009703   1.000000
     17          0.166692   1.000000
     18          0.188743   1.000000
     19          0.384266   1.000000
     20          1.854385   0.749488
     21          2.000911   0.000259
     22          2.031963   0.000007
     23          5.544263   0.000000
     24          5.742705   0.000000
     25          6.018699   0.000000
     26          6.568047   0.000000
     27          6.632545   0.000000
     28          6.979542   0.000000
     29          8.133545   0.000000
     30          8.886818   0.000000
     31          9.000767   0.000000
     32          9.270926   0.000000
     33          9.470327   0.000000
     34         10.329040   0.000000
     35         10.645673   0.000000
     36         10.808633   0.000000
     37         11.283145   0.000000
     38         11.707509   0.000000
     39         12.255015   0.000000
     40         12.576420   0.000000
     41         12.930582   0.000000
     42         13.158982   0.000000
     43         14.388864   0.000000
     44         14.720590   0.000000
     45         15.509233   0.000000
     46         15.921832   0.000000
     47         16.228702   0.000000
     48         16.439886   0.000000
 
  0.2666667E+00  0.0000000E+00  0.3571429E-01  0.9070295E-03
      1        -12.578945   1.000000
      2        -11.819271   1.000000
      3         -8.593365   1.000000
      4         -8.389056   1.000000
      5         -6.028930   1.000000
      6         -5.792517   1.000000
      7         -4.710389   1.000000
      8         -3.754939   1.000000
      9         -3.218893   1.000000
     10         -2.649084   1.000000
     11         -2.610138   1.000000
     12         -2.347763   1.000000
     13         -2.281138   1.000000
     14         -1.996858   1.000000
     15         -0.277634   1.000000
     16          0.058821   1.000000
     17          0.063184   1.000000
     18          0.237131   1.000000
     19          0.430925   1.000000
     20          1.751914   0.999822
     21          1.815779   0.961203
     22          1.943754   0.031809
     23          5.591164   0.000000
     24          5.751435   0.000000
     25          6.279571   0.000000
     26          6.541688   0.000000
     27          6.805023   0.000000
     28          6.920380   0.000000
     29          8.229757   0.000000
     30          8.926942   0.000000
     31          8.952024   0.000000
     32          9.548789   0.000000
     33          9.814339   0.000000
     34         10.173217   0.000000
     35         10.493151   0.000000
     36         10.610091   0.000000
     37         11.355896   0.000000
     38         11.845835   0.000000
     39         12.356491   0.000000
     40         12.534108   0.000000
     41         12.811321   0.000000
     42         12.942462   0.000000
     43         14.783549   0.000000
     44         14.865633   0.000000
     45         15.152843   0.000000
     46         15.932626   0.000000
     47         16.041185   0.000000
     48         16.107146   0.000000
 
  0.3333333E+00  0.0000000E+00  0.3571429E-01  0.9070295E-03
      1        -12.496598   1.000000
      2        -11.932128   1.000000
      3         -8.553038   1.000000
      4         -8.388510   1.000000
      5         -6.091235   1.000000
      6         -5.937085   1.000000
      7         -4.490743   1.000000
      8         -3.637517   1.000000
      9         -2.950481   1.000000
     10         -2.792618   1.000000
     11         -2.436271   1.000000
     12         -2.375175   1.000000
     13         -2.283632   1.000000
     14         -2.182690   1.000000
     15         -0.481759   1.000000
     16         -0.161334   1.000000
     17          0.130177   1.000000
     18          0.292427   1.000000
     19          0.555061   1.000000
     20          1.597263   1.000000
     21          1.666353   1.000000
     22          1.841804   0.848197
     23          5.623676   0.000000
     24          5.771529   0.000000
     25          6.468466   0.000000
     26          6.628732   0.000000
     27          6.669536   0.000000
     28          7.312669   0.000000
     29          8.315058   0.000000
     30          8.814280   0.000000
     31          8.829132   0.000000
     32          9.668627   0.000000
     33          9.842371   0.000000
     34         10.170002   0.000000
     35         10.399418   0.000000
     36         11.015524   0.000000
     37         11.372462   0.000000
     38         12.079444   0.000000
     39         12.110028   0.000000
     40         12.328858   0.000000
     41         12.598633   0.000000
     42         13.173178   0.000000
     43         14.688683   0.000000
     44         15.040179   0.000000
     45         15.332559   0.000000
     46         15.416829   0.000000
     47         15.561728   0.000000
     48         16.285491   0.000000
 
  0.4000000E+00  0.0000000E+00  0.3571429E-01  0.9070295E-03
      1        -12.399748   1.000000
      2        -12.052386   1.000000
      3         -8.507747   1.000000
      4         -8.400155   1.000000
      5         -6.144036   1.000000
      6         -6.049766   1.000000
      7         -4.178648   1.000000
      8         -3.497998   1.000000
      9         -3.030116   1.000000
     10         -2.980576   1.000000
     11         -2.527636   1.000000
     12         -2.355038   1.000000
     13         -2.136421   1.000000
     14         -2.009058   1.000000
     15         -0.666392   1.000000
     16         -0.410376   1.000000
     17          0.201935   1.000000
     18          0.319303   1.000000
     19          0.718259   1.000000
     20          1.362932   1.000000
     21          1.616413   1.000000
     22          1.741681   0.999943
     23          5.659328   0.000000
     24          5.773143   0.000000
     25          6.433325   0.000000
     26          6.566048   0.000000
     27          7.047818   0.000000
     28          7.732891   0.000000
     29          8.395075   0.000000
     30          8.485501   0.000000
     31          8.691094   0.000000
     32          9.164944   0.000000
     33         10.145323   0.000000
     34         10.477781   0.000000
     35         10.561384   0.000000
     36         11.308392   0.000000
     37         11.529691   0.000000
     38         11.678957   0.000000
     39         11.978593   0.000000
     40         12.368876   0.000000
     41         12.582915   0.000000
     42         13.337675   0.000000
     43         14.510448   0.000000
     44         14.860256   0.000000
     45         15.065315   0.000000
     46         15.168190   0.000000
     47         15.765769   0.000000
     48         16.404658   0.000000
 
  0.4666667E+00  0.0000000E+00  0.3571429E-01  0.9070295E-03
      1        -12.291015   1.000000
      2        -12.173789   1.000000
      3         -8.463205   1.000000
      4         -8.425688   1.000000
      5         -6.158419   1.000000
      6         -6.126021   1.000000
      7         -3.808202   1.000000
      8         -3.408138   1.000000
      9         -3.339235   1.000000
     10         -3.165051   1.000000
     11         -2.449064   1.000000
     12         -2.392206   1.000000
     13         -1.962021   1.000000
     14         -1.888915   1.000000
     15         -0.743057   1.000000
     16         -0.635303   1.000000
     17          0.266561   1.000000
     18          0.309735   1.000000
     19          0.912001   1.000000
     20          1.129975   1.000000
     21          1.614519   1.000000
     22          1.660298   1.000000
     23          5.703083   0.000000
     24          5.746363   0.000000
     25          6.442982   0.000000
     26          6.490001   0.000000
     27          7.513653   0.000000
     28          7.972513   0.000000
     29          8.234328   0.000000
     30          8.479368   0.000000
     31          8.577034   0.000000
     32          8.676964   0.000000
     33         10.430810   0.000000
     34         10.598248   0.000000
     35         10.874261   0.000000
     36         11.259498   0.000000
     37         11.336711   0.000000
     38         11.597578   0.000000
     39         12.045224   0.000000
     40         12.400674   0.000000
     41         12.781800   0.000000
     42         13.144559   0.000000
     43         14.543281   0.000000
     44         14.640092   0.000000
     45         14.890100   0.000000
     46         14.938168   0.000000
     47         16.132700   0.000000
     48         16.369207   0.000000
 
  0.0000000E+00  0.4761905E-01  0.3571429E-01  0.9070295E-03
      1        -12.726327   1.000000
      2        -11.572914   1.000000
      3         -8.657004   1.000000
      4         -8.416040   1.000000
      5         -6.085141   1.000000
      6         -5.078579   1.000000
      7         -4.601510   1.000000
      8         -4.353150   1.000000
      9         -4.087144   1.000000
     10         -3.581170   1.000000
     11         -2.709701   1.000000
     12         -2.261839   1.000000
     13         -1.695756   1.000000
     14         -1.056476   1.000000
     15         -0.091740   1.000000
     16         -0.073667   1.000000
     17          0.129609   1.000000
     18          0.208314   1.000000
     19          0.563910   1.000000
     20          1.997690   0.000362
     21          2.056774   0.000000
     22          2.277236   0.000000
     23          5.470838   0.000000
     24          5.747403   0.000000
     25          5.857225   0.000000
     26          5.873489   0.000000
     27          6.870804   0.000000
     28          7.752100   0.000000
     29          7.752150   0.000000
     30          8.462301   0.000000
     31          8.753492   0.000000
     32          8.973033   0.000000
     33          9.061817   0.000000
     34         10.179023   0.000000
     35         11.196575   0.000000
     36         11.379027   0.000000
     37         11.702387   0.000000
     38         11.830745   0.000000
     39         11.915411   0.000000
     40         12.428249   0.000000
     41         12.828554   0.000000
     42         13.301473   0.000000
     43         13.544563   0.000000
     44         15.523346   0.000000
     45         15.527840   0.000000
     46         15.900243   0.000000
     47         16.317947   0.000000
     48         16.383014   0.000000
 
  0.6666667E-01  0.4761905E-01  0.3571429E-01  0.1814059E-02
      1        -12.716548   1.000000
      2        -11.589815   1.000000
      3         -8.653394   1.000000
      4         -8.412598   1.000000
      5         -6.066134   1.000000
      6         -5.186437   1.000000
      7         -4.664754   1.000000
      8         -4.227053   1.000000
      9         -4.053475   1.000000
     10         -3.487583   1.000000
     11         -2.724773   1.000000
     12         -2.257306   1.000000
     13         -1.715913   1.000000
     14         -1.129886   1.000000
     15         -0.101208   1.000000
     16         -0.042970   1.000000
     17          0.137584   1.000000
     18          0.187282   1.000000
     19          0.542261   1.000000
     20          1.963303   0.008025
     21          2.053741   0.000000
     22          2.248729   0.000000
     23          5.491068   0.000000
     24          5.733920   0.000000
     25          5.840713   0.000000
     26          5.991141   0.000000
     27          6.849013   0.000000
     28          7.513223   0.000000
     29          7.944935   0.000000
     30          8.497235   0.000000
     31          8.831622   0.000000
     32          9.035270   0.000000
     33          9.076219   0.000000
     34         10.197669   0.000000
     35         11.208890   0.000000
     36         11.286342   0.000000
     37         11.544144   0.000000
     38         11.778440   0.000000
     39         11.967153   0.000000
     40         12.447198   0.000000
     41         12.937608   0.000000
     42         13.403547   0.000000
     43         13.517349   0.000000
     44         15.269368   0.000000
     45         15.573287   0.000000
     46         16.039253   0.000000
     47         16.222901   0.000000
     48         16.362492   0.000000
 
  0.1333333E+00  0.4761905E-01  0.3571429E-01  0.1814059E-02
      1        -12.687390   1.000000
      2        -11.638926   1.000000
      3         -8.641757   1.000000
      4         -8.403580   1.000000
      5         -6.023280   1.000000
      6         -5.396445   1.000000
      7         -4.763515   1.000000
      8         -4.090810   1.000000
      9         -3.854844   1.000000
     10         -3.257902   1.000000
     11         -2.769755   1.000000
     12         -2.243594   1.000000
     13         -1.770548   1.000000
     14         -1.335937   1.000000
     15         -0.093927   1.000000
     16         -0.013215   1.000000
     17          0.116494   1.000000
     18          0.188416   1.000000
     19          0.478267   1.000000
     20          1.885198   0.421274
     21          2.024400   0.000018
     22          2.163780   0.000000
     23          5.542869   0.000000
     24          5.762264   0.000000
     25          5.849977   0.000000
     26          6.217798   0.000000
     27          6.788798   0.000000
     28          7.272981   0.000000
     29          8.083263   0.000000
     30          8.592015   0.000000
     31          8.993303   0.000000
     32          9.132123   0.000000
     33          9.222967   0.000000
     34         10.256812   0.000000
     35         11.016131   0.000000
     36         11.188071   0.000000
     37         11.258762   0.000000
     38         11.719896   0.000000
     39         12.109609   0.000000
     40         12.505689   0.000000
     41         13.133929   0.000000
     42         13.195660   0.000000
     43         13.853621   0.000000
     44         14.925458   0.000000
     45         15.677997   0.000000
     46         15.895559   0.000000
     47         16.162348   0.000000
     48         16.476814   0.000000
 
  0.2000000E+00  0.4761905E-01  0.3571429E-01  0.1814059E-02
      1        -12.639402   1.000000
      2        -11.715833   1.000000
      3         -8.620486   1.000000
      4         -8.392461   1.000000
      5         -5.996327   1.000000
      6         -5.606474   1.000000
      7         -4.798152   1.000000
      8         -4.012521   1.000000
      9         -3.528844   1.000000
     10         -2.972641   1.000000
     11         -2.834791   1.000000
     12         -2.220434   1.000000
     13         -1.846158   1.000000
     14         -1.640107   1.000000
     15         -0.111093   1.000000
     16         -0.053630   1.000000
     17          0.135118   1.000000
     18          0.211016   1.000000
     19          0.403252   1.000000
     20          1.786447   0.995263
     21          1.957927   0.012044
     22          2.028100   0.000011
     23          5.602527   0.000000
     24          5.781716   0.000000
     25          5.981141   0.000000
     26          6.507910   0.000000
     27          6.704435   0.000000
     28          7.068866   0.000000
     29          8.192179   0.000000
     30          8.714446   0.000000
     31          9.040114   0.000000
     32          9.330730   0.000000
     33          9.512098   0.000000
     34         10.365338   0.000000
     35         10.630382   0.000000
     36         10.801532   0.000000
     37         11.327677   0.000000
     38         11.757591   0.000000
     39         12.285091   0.000000
     40         12.631963   0.000000
     41         12.861654   0.000000
     42         13.167121   0.000000
     43         14.270364   0.000000
     44         14.798546   0.000000
     45         15.514866   0.000000
     46         15.838312   0.000000
     47         16.132422   0.000000
     48         16.484166   0.000000
 
  0.2666667E+00  0.4761905E-01  0.3571429E-01  0.1814059E-02
      1        -12.573551   1.000000
      2        -11.814243   1.000000
      3         -8.588932   1.000000
      4         -8.384096   1.000000
      5         -6.021758   1.000000
      6         -5.785493   1.000000
      7         -4.706713   1.000000
      8         -3.921911   1.000000
      9         -3.189314   1.000000
     10         -2.965123   1.000000
     11         -2.627498   1.000000
     12         -2.192697   1.000000
     13         -1.996574   1.000000
     14         -1.924791   1.000000
     15         -0.276051   1.000000
     16         -0.043301   1.000000
     17          0.120508   1.000000
     18          0.207600   1.000000
     19          0.436671   1.000000
     20          1.683786   1.000000
     21          1.822324   0.942913
     22          1.889627   0.373000
     23          5.645048   0.000000
     24          5.802281   0.000000
     25          6.237252   0.000000
     26          6.612270   0.000000
     27          6.781714   0.000000
     28          6.977808   0.000000
     29          8.286192   0.000000
     30          8.791759   0.000000
     31          8.993981   0.000000
     32          9.592234   0.000000
     33          9.855642   0.000000
     34         10.133968   0.000000
     35         10.418404   0.000000
     36         10.694234   0.000000
     37         11.390670   0.000000
     38         11.910974   0.000000
     39         12.389634   0.000000
     40         12.470089   0.000000
     41         12.858105   0.000000
     42         12.959799   0.000000
     43         14.628004   0.000000
     44         14.986900   0.000000
     45         15.183844   0.000000
     46         15.804125   0.000000
     47         15.953814   0.000000
     48         16.236799   0.000000
 
  0.3333333E+00  0.4761905E-01  0.3571429E-01  0.1814059E-02
      1        -12.491245   1.000000
      2        -11.927048   1.000000
      3         -8.548571   1.000000
      4         -8.383677   1.000000
      5         -6.083933   1.000000
      6         -5.929916   1.000000
      7         -4.487370   1.000000
      8         -3.812206   1.000000
      9         -3.092856   1.000000
     10         -2.915883   1.000000
     11         -2.398292   1.000000
     12         -2.290802   1.000000
     13         -2.103888   1.000000
     14         -2.006707   1.000000
     15         -0.475658   1.000000
     16         -0.179087   1.000000
     17          0.109392   1.000000
     18          0.257223   1.000000
     19          0.557952   1.000000
     20          1.577800   1.000000
     21          1.628945   1.000000
     22          1.782225   0.996675
     23          5.674789   0.000000
     24          5.827833   0.000000
     25          6.541067   0.000000
     26          6.585140   0.000000
     27          6.729170   0.000000
     28          7.288788   0.000000
     29          8.368885   0.000000
     30          8.724115   0.000000
     31          8.868271   0.000000
     32          9.625133   0.000000
     33          9.870098   0.000000
     34         10.184975   0.000000
     35         10.369966   0.000000
     36         11.044203   0.000000
     37         11.390707   0.000000
     38         12.040791   0.000000
     39         12.158504   0.000000
     40         12.365994   0.000000
     41         12.630611   0.000000
     42         13.219950   0.000000
     43         14.708696   0.000000
     44         14.994090   0.000000
     45         15.332597   0.000000
     46         15.365908   0.000000
     47         15.604272   0.000000
     48         16.300571   0.000000
 
  0.4000000E+00  0.4761905E-01  0.3571429E-01  0.1814059E-02
      1        -12.394438   1.000000
      2        -12.047248   1.000000
      3         -8.503242   1.000000
      4         -8.395448   1.000000
      5         -6.136689   1.000000
      6         -6.042487   1.000000
      7         -4.175515   1.000000
      8         -3.684810   1.000000
      9         -3.238744   1.000000
     10         -3.020907   1.000000
     11         -2.415299   1.000000
     12         -2.088281   1.000000
     13         -2.066873   1.000000
     14         -1.986657   1.000000
     15         -0.658567   1.000000
     16         -0.413296   1.000000
     17          0.168583   1.000000
     18          0.282664   1.000000
     19          0.720522   1.000000
     20          1.364170   1.000000
     21          1.558317   1.000000
     22          1.681596   1.000000
     23          5.710623   0.000000
     24          5.829901   0.000000
     25          6.507597   0.000000
     26          6.635982   0.000000
     27          7.003789   0.000000
     28          7.699439   0.000000
     29          8.427502   0.000000
     30          8.445660   0.000000
     31          8.726382   0.000000
     32          9.125771   0.000000
     33         10.154369   0.000000
     34         10.423672   0.000000
     35         10.594273   0.000000
     36         11.297772   0.000000
     37         11.538515   0.000000
     38         11.641506   0.000000
     39         12.004168   0.000000
     40         12.446845   0.000000
     41         12.634167   0.000000
     42         13.390412   0.000000
     43         14.548362   0.000000
     44         14.843802   0.000000
     45         15.036478   0.000000
     46         15.157472   0.000000
     47         15.806306   0.000000
     48         16.399403   0.000000
 
  0.4666667E+00  0.4761905E-01  0.3571429E-01  0.1814059E-02
      1        -12.285759   1.000000
      2        -12.168591   1.000000
      3         -8.458658   1.000000
      4         -8.421073   1.000000
      5         -6.151060   1.000000
      6         -6.118681   1.000000
      7         -3.805457   1.000000
      8         -3.544480   1.000000
      9         -3.403376   1.000000
     10         -3.390175   1.000000
     11         -2.270382   1.000000
     12         -2.167311   1.000000
     13         -1.923397   1.000000
     14         -1.871095   1.000000
     15         -0.736388   1.000000
     16         -0.632573   1.000000
     17          0.230108   1.000000
     18          0.272650   1.000000
     19          0.914188   1.000000
     20          1.132175   1.000000
     21          1.554997   1.000000
     22          1.600384   1.000000
     23          5.756004   0.000000
     24          5.801398   0.000000
     25          6.517913   0.000000
     26          6.563752   0.000000
     27          7.468751   0.000000
     28          7.926080   0.000000
     29          8.195731   0.000000
     30          8.525960   0.000000
     31          8.603387   0.000000
     32          8.652701   0.000000
     33         10.436086   0.000000
     34         10.598440   0.000000
     35         10.828344   0.000000
     36         11.145248   0.000000
     37         11.401709   0.000000
     38         11.630207   0.000000
     39         12.067152   0.000000
     40         12.440936   0.000000
     41         12.857429   0.000000
     42         13.208357   0.000000
     43         14.556554   0.000000
     44         14.641187   0.000000
     45         14.886935   0.000000
     46         14.959740   0.000000
     47         16.139239   0.000000
     48         16.362257   0.000000
 
  0.0000000E+00  0.9523810E-01  0.3571429E-01  0.9070295E-03
      1        -12.710253   1.000000
      2        -11.558483   1.000000
      3         -8.644451   1.000000
      4         -8.400539   1.000000
      5         -6.067396   1.000000
      6         -5.054113   1.000000
      7         -4.586127   1.000000
      8         -4.517656   1.000000