       N       E                     dE             d eps       ncg     rms          rms(c)
DAV:   1     0.539780717009E+02    0.53978E+02   -0.17657E+04 59136   0.724E+02
DAV:   2    -0.928880088563E+02   -0.14687E+03   -0.13812E+03 82512   0.150E+02
DAV:   3    -0.975909371867E+02   -0.47029E+01   -0.46803E+01 86256   0.241E+01
DAV:   4    -0.976181370942E+02   -0.27200E-01   -0.27198E-01 73560   0.210E+00
DAV:   5    -0.976184480898E+02   -0.31100E-03   -0.31099E-03 85920   0.216E-01    0.123E+01
DAV:   6    -0.922042479410E+02    0.54142E+01   -0.39440E+00 85992   0.658E+00    0.678E+00
DAV:   7    -0.905543458371E+02    0.16499E+01   -0.31930E+00 88176   0.583E+00    0.172E+00
DAV:   8    -0.905649781099E+02   -0.10632E-01   -0.22900E-01 65160   0.163E+00    0.740E-01
DAV:   9    -0.905795337724E+02   -0.14556E-01   -0.16952E-02 83520   0.447E-01    0.205E-01
DAV:  10    -0.905838923801E+02   -0.43586E-02   -0.25234E-03 65448   0.176E-01    0.648E-02
DAV:  11    -0.905850461052E+02   -0.11537E-02   -0.67687E-04 77472   0.896E-02    0.331E-02
