 vasp.6.4.3 19Mar24 (build May 31 2024 16:31:43) complex                        
  
 executed on             LinuxIFC date 2024.10.31  00:22:34
 running   24 mpi-ranks, with    1 threads/rank, on    1 nodes
 distrk:  each k-point on   24 cores,    1 groups
 distr:  one band on NCORE=   1 cores,   24 groups


--------------------------------------------------------------------------------------------------------


 INCAR:
   SYSTEM = Kpoints
   ISTART = 0
   ICHARG = 2
   PREC = Accurate
   ENCUT = 480
   LCHARG = .FALSE.
   LWAVE = .FALSE.
   ALGO = Normal
   NELM = 100
   EDIFF = 1E-6
   EDIFFG = -1E-3
   SIGMA = 0.05
   ISMEAR = 0
   ISPIN = 1
   NSW = 0
   IBRION = -1
   POTIM = .5
   ISIF = 2
   GGA = PE

 POTCAR:    PAW_PBE B 06Sep2000                   
 POTCAR:    PAW_PBE B 06Sep2000                   
   SHA256 =  a32ced30f5ae56fd4d10b4325ff17eb3e4e38ee0f4288bc219fb012fddfa6e97 B/POTCAR              
   COPYR  = (c) Copyright 06Sep2000 Georg Kresse                                                    
   COPYR  = This file is part of the software VASP. Any use, copying, and all other rights are regul
   COPYR  = If you do not have a valid VASP license, you may not use, copy or distribute this file. 
   VRHFIN =B: s2p1                                                                                  
   LEXCH  = PE                                                                                      
   EATOM  =    71.1703 eV,    5.2309 Ry                                                             
                                                                                                    
   TITEL  = PAW_PBE B 06Sep2000                                                                     
   LULTRA =        F    use ultrasoft PP ?                                                          
   IUNSCR =        1    unscreen: 0-lin 1-nonlin 2-no                                               
   RPACOR =    1.200    partial core radius                                                         
   POMASS =   10.811; ZVAL   =    3.000    mass and valenz                                          
   RCORE  =    1.700    outmost cutoff radius                                                       
   RWIGS  =    1.710; RWIGS  =    0.905    wigner-seitz radius (au A)                               
   ENMAX  =  318.614; ENMIN  =  238.960 eV                                                          
   ICORE  =        2    local potential                                                             
   LCOR   =        T    correct aug charges                                                         
   LPAW   =        T    paw PP                                                                      
   EAUG   =  535.514                                                                                
   DEXC   =    0.000                                                                                
   RMAX   =    1.732    core radius for proj-oper                                                   
   RAUG   =    1.300    factor for augmentation sphere                                              
   RDEP   =    1.757    radius for radial grids                                                     
   RDEPT  =    1.436    core radius for aug-charge                                                  
                                                                                                    
   Atomic configuration                                                                             
    4 entries                                                                                       
     n  l   j            E        occ.                                                              
     1  0  0.50      -180.5896   2.0000                                                             
     2  0  0.50        -9.4431   2.0000                                                             
     2  1  0.50        -3.6068   1.0000                                                             
     3  2  1.50        -4.0817   0.0000                                                             
   Description                                                                                      
     l       E           TYP  RCUT    TYP  RCUT                                                     
     0     -9.4430752     23  1.500                                                                 
     0      0.8675899     23  1.500                                                                 
     1     -3.6067955     23  1.700                                                                 
     1      6.1086146     23  1.700                                                                 
     2     -4.0817478      7  1.700                                                                 
  local pseudopotential read in
  partial core-charges read in
  partial kinetic energy density read in
  atomic valenz-charges read in
  non local Contribution for L=           0  read in
    real space projection operators read in
  non local Contribution for L=           0  read in
    real space projection operators read in
  non local Contribution for L=           1  read in
    real space projection operators read in
  non local Contribution for L=           1  read in
    real space projection operators read in
    PAW grid and wavefunctions read in
 
   number of l-projection  operators is LMAX  =           4
   number of lm-projection operators is LMMAX =           8
 
  PAW_PBE B 06Sep2000                   :
 energy of atom  1       EATOM=  -71.1703
 kinetic energy error for atom=    0.0013 (will be added to EATOM!!)
 
 
 POSCAR: o-B14
  positions in direct lattice
  No initial velocities read in


 exchange-correlation table for PE
   RHO(1)=    0.500       N(1)  =     2000
   RHO(2)=  100.500       N(2)  =     4000
 


--------------------------------------------------------------------------------------------------------


 ion  position               nearest neighbor table
   1  0.521  0.500  0.638-  14 1.64   5 1.69  13 1.70   2 1.73   9 1.85  11 1.85
   2  0.479  0.500  0.362-  13 1.64   6 1.69  14 1.70   1 1.73  10 1.85  12 1.85
   3  0.979  0.500  0.638-  14 1.64   7 1.69  13 1.70   4 1.73   9 1.85  11 1.85
   4  0.021  0.500  0.362-  13 1.64   8 1.69  14 1.70   3 1.73  10 1.85  12 1.85
   5  0.601  0.500  0.900-   1 1.69   6 1.69   7 1.70   9 1.80  11 1.80
   6  0.399  0.500  0.100-   2 1.69   5 1.69   8 1.70  10 1.80  12 1.80
   7  0.899  0.500  0.900-   3 1.69   8 1.69   5 1.70   9 1.80  11 1.80
   8  0.101  0.500  0.100-   4 1.69   7 1.69   6 1.70  10 1.80  12 1.80
   9  0.750  0.792  0.730-  11 1.69   7 1.80   5 1.80   3 1.85   1 1.85  14 1.97
  10  0.250  0.208  0.270-  12 1.69   8 1.80   6 1.80   4 1.85   2 1.85  13 1.97
  11  0.750  0.208  0.730-   9 1.69   7 1.80   5 1.80   3 1.85   1 1.85  14 1.97
  12  0.250  0.792  0.270-  10 1.69   8 1.80   6 1.80   4 1.85   2 1.85  13 1.97
  13  0.250  0.500  0.524-   2 1.64   4 1.64   3 1.70   1 1.70  10 1.97  12 1.97
  14  0.750  0.500  0.476-   1 1.64   3 1.64   2 1.70   4 1.70   9 1.97  11 1.97
 
  LATTYP: Found a simple orthorhombic cell.
 ALAT       =     4.0479000000
 B/A-ratio  =     1.4073964278
 C/A-ratio  =     1.5326959658
  
  Lattice vectors:
  
 A1 = (   0.0000000000,  -4.0479000000,   0.0000000000)
 A2 = (   5.6970000000,   0.0000000000,   0.0000000000)
 A3 = (   0.0000000000,   0.0000000000,   6.2042000000)


Analysis of symmetry for initial positions (statically):
=====================================================================
 Subroutine PRICEL returns:
 Original cell was already a primitive cell.
 

 Routine SETGRP: Setting up the symmetry group for a 
 simple orthorhombic supercell.


 Subroutine GETGRP returns: Found  8 space group operations
 (whereof  4 operations were pure point group operations)
 out of a pool of  8 trial point group operations.


The static configuration has the point symmetry C_2h.
 The point group associated with its full space group is D_2h.


Analysis of symmetry for dynamics (positions and initial velocities):
=====================================================================
 Subroutine PRICEL returns:
 Original cell was already a primitive cell.
 

 Routine SETGRP: Setting up the symmetry group for a 
 simple orthorhombic supercell.


 Subroutine GETGRP returns: Found  8 space group operations
 (whereof  4 operations were pure point group operations)
 out of a pool of  8 trial point group operations.


The dynamic configuration has the point symmetry C_2h.
 The point group associated with its full space group is D_2h.


 Subroutine INISYM returns: Found  8 space group operations
 (whereof  4 operations are pure point group operations),
 and found     1 'primitive' translations


----------------------------------------------------------------------------------------

                                     Primitive cell                                     

  volume of cell :     143.0744

  direct lattice vectors                    reciprocal lattice vectors
     5.697000000  0.000000000  0.000000000     0.175530981  0.000000000  0.000000000
     0.000000000  4.047900000  0.000000000     0.000000000  0.247041676  0.000000000
     0.000000000  0.000000000  6.204200000     0.000000000  0.000000000  0.161181135

  length of vectors
     5.697000000  4.047900000  6.204200000     0.175530981  0.247041676  0.161181135

  position of ions in fractional coordinates (direct lattice)
     0.521230000  0.500000000  0.637960000
     0.478770000  0.500000000  0.362040000
     0.978770000  0.500000000  0.637960000
     0.021230000  0.500000000  0.362040000
     0.600900000  0.500000000  0.899910000
     0.399100000  0.500000000  0.100090000
     0.899100000  0.500000000  0.899910000
     0.100900000  0.500000000  0.100090000
     0.750000000  0.791710000  0.729730000
     0.250000000  0.208290000  0.270270000
     0.750000000  0.208290000  0.729730000
     0.250000000  0.791710000  0.270270000
     0.250000000  0.500000000  0.523670000
     0.750000000  0.500000000  0.476330000

  ion indices of the primitive-cell ions
   primitive index   ion index
                 1           1
                 2           2
                 3           3
                 4           4
                 5           5
                 6           6
                 7           7
                 8           8
                 9           9
                10          10
                11          11
                12          12
                13          13
                14          14

----------------------------------------------------------------------------------------

 
 
 KPOINTS: k-points                                

Automatic generation of k-mesh.
 Grid dimensions read from file:
 generate k-points for:   15   21   14

 Generating k-lattice:

  Cartesian coordinates                     Fractional coordinates (reciprocal lattice)
     0.011702065  0.000000000  0.000000000     0.066666667  0.000000000  0.000000000
     0.000000000  0.011763889  0.000000000     0.000000000  0.047619048  0.000000000
     0.000000000  0.000000000  0.011512938     0.000000000  0.000000000  0.071428571

  Length of vectors
     0.011702065  0.011763889  0.011512938

  Shift w.r.t. Gamma in fractional coordinates (k-lattice)
     0.000000000  0.000000000  0.500000000

 
 Subroutine IBZKPT returns following result:
 ===========================================
 
 Found    616 irreducible k-points:
 
 Following reciprocal coordinates:
            Coordinates               Weight
  0.000000  0.000000  0.035714      2.000000
  0.066667  0.000000  0.035714      4.000000
  0.133333  0.000000  0.035714      4.000000
  0.200000  0.000000  0.035714      4.000000
  0.266667  0.000000  0.035714      4.000000
  0.333333  0.000000  0.035714      4.000000
  0.400000  0.000000  0.035714      4.000000
  0.466667  0.000000  0.035714      4.000000
  0.000000  0.047619  0.035714      4.000000
  0.066667  0.047619  0.035714      8.000000
  0.133333  0.047619  0.035714      8.000000
  0.200000  0.047619  0.035714      8.000000
  0.266667  0.047619  0.035714      8.000000
  0.333333  0.047619  0.035714      8.000000
  0.400000  0.047619  0.035714      8.000000
  0.466667  0.047619  0.035714      8.000000
  0.000000  0.095238  0.035714      4.000000
  0.066667  0.095238  0.035714      8.000000
  0.133333  0.095238  0.035714      8.000000
  0.200000  0.095238  0.035714      8.000000
  0.266667  0.095238  0.035714      8.000000
  0.333333  0.095238  0.035714      8.000000
  0.400000  0.095238  0.035714      8.000000
  0.466667  0.095238  0.035714      8.000000
  0.000000  0.142857  0.035714      4.000000
  0.066667  0.142857  0.035714      8.000000
  0.133333  0.142857  0.035714      8.000000
  0.200000  0.142857  0.035714      8.000000
  0.266667  0.142857  0.035714      8.000000
  0.333333  0.142857  0.035714      8.000000
  0.400000  0.142857  0.035714      8.000000
  0.466667  0.142857  0.035714      8.000000
  0.000000  0.190476  0.035714      4.000000
  0.066667  0.190476  0.035714      8.000000
  0.133333  0.190476  0.035714      8.000000
  0.200000  0.190476  0.035714      8.000000
  0.266667  0.190476  0.035714      8.000000
  0.333333  0.190476  0.035714      8.000000
  0.400000  0.190476  0.035714      8.000000
  0.466667  0.190476  0.035714      8.000000
  0.000000  0.238095  0.035714      4.000000
  0.066667  0.238095  0.035714      8.000000
  0.133333  0.238095  0.035714      8.000000
  0.200000  0.238095  0.035714      8.000000
  0.266667  0.238095  0.035714      8.000000
  0.333333  0.238095  0.035714      8.000000
  0.400000  0.238095  0.035714      8.000000
  0.466667  0.238095  0.035714      8.000000
  0.000000  0.285714  0.035714      4.000000
  0.066667  0.285714  0.035714      8.000000
  0.133333  0.285714  0.035714      8.000000
  0.200000  0.285714  0.035714      8.000000
  0.266667  0.285714  0.035714      8.000000
  0.333333  0.285714  0.035714      8.000000
  0.400000  0.285714  0.035714      8.000000
  0.466667  0.285714  0.035714      8.000000
  0.000000  0.333333  0.035714      4.000000
  0.066667  0.333333  0.035714      8.000000
  0.133333  0.333333  0.035714      8.000000
  0.200000  0.333333  0.035714      8.000000
  0.266667  0.333333  0.035714      8.000000
  0.333333  0.333333  0.035714      8.000000
  0.400000  0.333333  0.035714      8.000000
  0.466667  0.333333  0.035714      8.000000
  0.000000  0.380952  0.035714      4.000000
  0.066667  0.380952  0.035714      8.000000
  0.133333  0.380952  0.035714      8.000000
  0.200000  0.380952  0.035714      8.000000
  0.266667  0.380952  0.035714      8.000000
  0.333333  0.380952  0.035714      8.000000
  0.400000  0.380952  0.035714      8.000000
  0.466667  0.380952  0.035714      8.000000
  0.000000  0.428571  0.035714      4.000000
  0.066667  0.428571  0.035714      8.000000
  0.133333  0.428571  0.035714      8.000000
  0.200000  0.428571  0.035714      8.000000
  0.266667  0.428571  0.035714      8.000000
  0.333333  0.428571  0.035714      8.000000
  0.400000  0.428571  0.035714      8.000000
  0.466667  0.428571  0.035714      8.000000
  0.000000  0.476190  0.035714      4.000000
  0.066667  0.476190  0.035714      8.000000
  0.133333  0.476190  0.035714      8.000000
  0.200000  0.476190  0.035714      8.000000
  0.266667  0.476190  0.035714      8.000000
  0.333333  0.476190  0.035714      8.000000
  0.400000  0.476190  0.035714      8.000000
  0.466667  0.476190  0.035714      8.000000
  0.000000  0.000000  0.107143      2.000000
  0.066667  0.000000  0.107143      4.000000
  0.133333  0.000000  0.107143      4.000000
  0.200000  0.000000  0.107143      4.000000
  0.266667  0.000000  0.107143      4.000000
  0.333333  0.000000  0.107143      4.000000
  0.400000  0.000000  0.107143      4.000000
  0.466667  0.000000  0.107143      4.000000
  0.000000  0.047619  0.107143      4.000000
  0.066667  0.047619  0.107143      8.000000
  0.133333  0.047619  0.107143      8.000000
  0.200000  0.047619  0.107143      8.000000
  0.266667  0.047619  0.107143      8.000000
  0.333333  0.047619  0.107143      8.000000
  0.400000  0.047619  0.107143      8.000000
  0.466667  0.047619  0.107143      8.000000
  0.000000  0.095238  0.107143      4.000000
  0.066667  0.095238  0.107143      8.000000
  0.133333  0.095238  0.107143      8.000000
  0.200000  0.095238  0.107143      8.000000
  0.266667  0.095238  0.107143      8.000000
  0.333333  0.095238  0.107143      8.000000
  0.400000  0.095238  0.107143      8.000000
  0.466667  0.095238  0.107143      8.000000
  0.000000  0.142857  0.107143      4.000000
  0.066667  0.142857  0.107143      8.000000
  0.133333  0.142857  0.107143      8.000000
  0.200000  0.142857  0.107143      8.000000
  0.266667  0.142857  0.107143      8.000000
  0.333333  0.142857  0.107143      8.000000
  0.400000  0.142857  0.107143      8.000000
  0.466667  0.142857  0.107143      8.000000
  0.000000  0.190476  0.107143      4.000000
  0.066667  0.190476  0.107143      8.000000
  0.133333  0.190476  0.107143      8.000000
  0.200000  0.190476  0.107143      8.000000
  0.266667  0.190476  0.107143      8.000000
  0.333333  0.190476  0.107143      8.000000
  0.400000  0.190476  0.107143      8.000000
  0.466667  0.190476  0.107143      8.000000
  0.000000  0.238095  0.107143      4.000000
  0.066667  0.238095  0.107143      8.000000
  0.133333  0.238095  0.107143      8.000000
  0.200000  0.238095  0.107143      8.000000
  0.266667  0.238095  0.107143      8.000000
  0.333333  0.238095  0.107143      8.000000
  0.400000  0.238095  0.107143      8.000000
  0.466667  0.238095  0.107143      8.000000
  0.000000  0.285714  0.107143      4.000000
  0.066667  0.285714  0.107143      8.000000
  0.133333  0.285714  0.107143      8.000000
  0.200000  0.285714  0.107143      8.000000
  0.266667  0.285714  0.107143      8.000000
  0.333333  0.285714  0.107143      8.000000
  0.400000  0.285714  0.107143      8.000000
  0.466667  0.285714  0.107143      8.000000
  0.000000  0.333333  0.107143      4.000000
  0.066667  0.333333  0.107143      8.000000
  0.133333  0.333333  0.107143      8.000000
  0.200000  0.333333  0.107143      8.000000
  0.266667  0.333333  0.107143      8.000000
  0.333333  0.333333  0.107143      8.000000
  0.400000  0.333333  0.107143      8.000000
  0.466667  0.333333  0.107143      8.000000
  0.000000  0.380952  0.107143      4.000000
  0.066667  0.380952  0.107143      8.000000
  0.133333  0.380952  0.107143      8.000000
  0.200000  0.380952  0.107143      8.000000
  0.266667  0.380952  0.107143      8.000000
  0.333333  0.380952  0.107143      8.000000
  0.400000  0.380952  0.107143      8.000000
  0.466667  0.380952  0.107143      8.000000
  0.000000  0.428571  0.107143      4.000000
  0.066667  0.428571  0.107143      8.000000
  0.133333  0.428571  0.107143      8.000000
  0.200000  0.428571  0.107143      8.000000
  0.266667  0.428571  0.107143      8.000000
  0.333333  0.428571  0.107143      8.000000
  0.400000  0.428571  0.107143      8.000000
  0.466667  0.428571  0.107143      8.000000
  0.000000  0.476190  0.107143      4.000000
  0.066667  0.476190  0.107143      8.000000
  0.133333  0.476190  0.107143      8.000000
  0.200000  0.476190  0.107143      8.000000
  0.266667  0.476190  0.107143      8.000000
  0.333333  0.476190  0.107143      8.000000
  0.400000  0.476190  0.107143      8.000000
  0.466667  0.476190  0.107143      8.000000
  0.000000  0.000000  0.178571      2.000000
  0.066667  0.000000  0.178571      4.000000
  0.133333  0.000000  0.178571      4.000000
  0.200000  0.000000  0.178571      4.000000
  0.266667  0.000000  0.178571      4.000000
  0.333333  0.000000  0.178571      4.000000
  0.400000  0.000000  0.178571      4.000000
  0.466667  0.000000  0.178571      4.000000
  0.000000  0.047619  0.178571      4.000000
  0.066667  0.047619  0.178571      8.000000
  0.133333  0.047619  0.178571      8.000000
  0.200000  0.047619  0.178571      8.000000
  0.266667  0.047619  0.178571      8.000000
  0.333333  0.047619  0.178571      8.000000
  0.400000  0.047619  0.178571      8.000000
  0.466667  0.047619  0.178571      8.000000
  0.000000  0.095238  0.178571      4.000000
  0.066667  0.095238  0.178571      8.000000
  0.133333  0.095238  0.178571      8.000000
  0.200000  0.095238  0.178571      8.000000
  0.266667  0.095238  0.178571      8.000000
  0.333333  0.095238  0.178571      8.000000
  0.400000  0.095238  0.178571      8.000000
  0.466667  0.095238  0.178571      8.000000
  0.000000  0.142857  0.178571      4.000000
  0.066667  0.142857  0.178571      8.000000
  0.133333  0.142857  0.178571      8.000000
  0.200000  0.142857  0.178571      8.000000
  0.266667  0.142857  0.178571      8.000000
  0.333333  0.142857  0.178571      8.000000
  0.400000  0.142857  0.178571      8.000000
  0.466667  0.142857  0.178571      8.000000
  0.000000  0.190476  0.178571      4.000000
  0.066667  0.190476  0.178571      8.000000
  0.133333  0.190476  0.178571      8.000000
  0.200000  0.190476  0.178571      8.000000
  0.266667  0.190476  0.178571      8.000000
  0.333333  0.190476  0.178571      8.000000
  0.400000  0.190476  0.178571      8.000000
  0.466667  0.190476  0.178571      8.000000
  0.000000  0.238095  0.178571      4.000000
  0.066667  0.238095  0.178571      8.000000
  0.133333  0.238095  0.178571      8.000000
  0.200000  0.238095  0.178571      8.000000
  0.266667  0.238095  0.178571      8.000000
  0.333333  0.238095  0.178571      8.000000
  0.400000  0.238095  0.178571      8.000000
  0.466667  0.238095  0.178571      8.000000
  0.000000  0.285714  0.178571      4.000000
  0.066667  0.285714  0.178571      8.000000
  0.133333  0.285714  0.178571      8.000000
  0.200000  0.285714  0.178571      8.000000
  0.266667  0.285714  0.178571      8.000000
  0.333333  0.285714  0.178571      8.000000
  0.400000  0.285714  0.178571      8.000000
  0.466667  0.285714  0.178571      8.000000
  0.000000  0.333333  0.178571      4.000000
  0.066667  0.333333  0.178571      8.000000
  0.133333  0.333333  0.178571      8.000000
  0.200000  0.333333  0.178571      8.000000
  0.266667  0.333333  0.178571      8.000000
  0.333333  0.333333  0.178571      8.000000
  0.400000  0.333333  0.178571      8.000000
  0.466667  0.333333  0.178571      8.000000
  0.000000  0.380952  0.178571      4.000000
  0.066667  0.380952  0.178571      8.000000
  0.133333  0.380952  0.178571      8.000000
  0.200000  0.380952  0.178571      8.000000
  0.266667  0.380952  0.178571      8.000000
  0.333333  0.380952  0.178571      8.000000
  0.400000  0.380952  0.178571      8.000000
  0.466667  0.380952  0.178571      8.000000
  0.000000  0.428571  0.178571      4.000000
  0.066667  0.428571  0.178571      8.000000
  0.133333  0.428571  0.178571      8.000000
  0.200000  0.428571  0.178571      8.000000
  0.266667  0.428571  0.178571      8.000000
  0.333333  0.428571  0.178571      8.000000
  0.400000  0.428571  0.178571      8.000000
  0.466667  0.428571  0.178571      8.000000
  0.000000  0.476190  0.178571      4.000000
  0.066667  0.476190  0.178571      8.000000
  0.133333  0.476190  0.178571      8.000000
  0.200000  0.476190  0.178571      8.000000
  0.266667  0.476190  0.178571      8.000000
  0.333333  0.476190  0.178571      8.000000
  0.400000  0.476190  0.178571      8.000000
  0.466667  0.476190  0.178571      8.000000
  0.000000  0.000000  0.250000      2.000000
  0.066667  0.000000  0.250000      4.000000
  0.133333  0.000000  0.250000      4.000000
  0.200000  0.000000  0.250000      4.000000
  0.266667  0.000000  0.250000      4.000000
  0.333333  0.000000  0.250000      4.000000
  0.400000  0.000000  0.250000      4.000000
  0.466667  0.000000  0.250000      4.000000
  0.000000  0.047619  0.250000      4.000000
  0.066667  0.047619  0.250000      8.000000
  0.133333  0.047619  0.250000      8.000000
  0.200000  0.047619  0.250000      8.000000
  0.266667  0.047619  0.250000      8.000000
  0.333333  0.047619  0.250000      8.000000
  0.400000  0.047619  0.250000      8.000000
  0.466667  0.047619  0.250000      8.000000
  0.000000  0.095238  0.250000      4.000000
  0.066667  0.095238  0.250000      8.000000
  0.133333  0.095238  0.250000      8.000000
  0.200000  0.095238  0.250000      8.000000
  0.266667  0.095238  0.250000      8.000000
  0.333333  0.095238  0.250000      8.000000
  0.400000  0.095238  0.250000      8.000000
  0.466667  0.095238  0.250000      8.000000
  0.000000  0.142857  0.250000      4.000000
  0.066667  0.142857  0.250000      8.000000
  0.133333  0.142857  0.250000      8.000000
  0.200000  0.142857  0.250000      8.000000
  0.266667  0.142857  0.250000      8.000000
  0.333333  0.142857  0.250000      8.000000
  0.400000  0.142857  0.250000      8.000000
  0.466667  0.142857  0.250000      8.000000
  0.000000  0.190476  0.250000      4.000000
  0.066667  0.190476  0.250000      8.000000
  0.133333  0.190476  0.250000      8.000000
  0.200000  0.190476  0.250000      8.000000
  0.266667  0.190476  0.250000      8.000000
  0.333333  0.190476  0.250000      8.000000
  0.400000  0.190476  0.250000      8.000000
  0.466667  0.190476  0.250000      8.000000
  0.000000  0.238095  0.250000      4.000000
  0.066667  0.238095  0.250000      8.000000
  0.133333  0.238095  0.250000      8.000000
  0.200000  0.238095  0.250000      8.000000
  0.266667  0.238095  0.250000      8.000000
  0.333333  0.238095  0.250000      8.000000
  0.400000  0.238095  0.250000      8.000000
  0.466667  0.238095  0.250000      8.000000
  0.000000  0.285714  0.250000      4.000000
  0.066667  0.285714  0.250000      8.000000
  0.133333  0.285714  0.250000      8.000000
  0.200000  0.285714  0.250000      8.000000
  0.266667  0.285714  0.250000      8.000000
  0.333333  0.285714  0.250000      8.000000
  0.400000  0.285714  0.250000      8.000000
  0.466667  0.285714  0.250000      8.000000
  0.000000  0.333333  0.250000      4.000000
  0.066667  0.333333  0.250000      8.000000
  0.133333  0.333333  0.250000      8.000000
  0.200000  0.333333  0.250000      8.000000
  0.266667  0.333333  0.250000      8.000000
  0.333333  0.333333  0.250000      8.000000
  0.400000  0.333333  0.250000      8.000000
  0.466667  0.333333  0.250000      8.000000
  0.000000  0.380952  0.250000      4.000000
  0.066667  0.380952  0.250000      8.000000
  0.133333  0.380952  0.250000      8.000000
  0.200000  0.380952  0.250000      8.000000
  0.266667  0.380952  0.250000      8.000000
  0.333333  0.380952  0.250000      8.000000
  0.400000  0.380952  0.250000      8.000000
  0.466667  0.380952  0.250000      8.000000
  0.000000  0.428571  0.250000      4.000000
  0.066667  0.428571  0.250000      8.000000
  0.133333  0.428571  0.250000      8.000000
  0.200000  0.428571  0.250000      8.000000
  0.266667  0.428571  0.250000      8.000000
  0.333333  0.428571  0.250000      8.000000
  0.400000  0.428571  0.250000      8.000000
  0.466667  0.428571  0.250000      8.000000
  0.000000  0.476190  0.250000      4.000000
  0.066667  0.476190  0.250000      8.000000
  0.133333  0.476190  0.250000      8.000000
  0.200000  0.476190  0.250000      8.000000
  0.266667  0.476190  0.250000      8.000000
  0.333333  0.476190  0.250000      8.000000
  0.400000  0.476190  0.250000      8.000000
  0.466667  0.476190  0.250000      8.000000
  0.000000  0.000000  0.321429      2.000000
  0.066667  0.000000  0.321429      4.000000
  0.133333  0.000000  0.321429      4.000000
  0.200000  0.000000  0.321429      4.000000
  0.266667  0.000000  0.321429      4.000000
  0.333333  0.000000  0.321429      4.000000
  0.400000  0.000000  0.321429      4.000000
  0.466667  0.000000  0.321429      4.000000
  0.000000  0.047619  0.321429      4.000000
  0.066667  0.047619  0.321429      8.000000
  0.133333  0.047619  0.321429      8.000000
  0.200000  0.047619  0.321429      8.000000
  0.266667  0.047619  0.321429      8.000000
  0.333333  0.047619  0.321429      8.000000
  0.400000  0.047619  0.321429      8.000000
  0.466667  0.047619  0.321429      8.000000
  0.000000  0.095238  0.321429      4.000000
  0.066667  0.095238  0.321429      8.000000
  0.133333  0.095238  0.321429      8.000000
  0.200000  0.095238  0.321429      8.000000
  0.266667  0.095238  0.321429      8.000000
  0.333333  0.095238  0.321429      8.000000
  0.400000  0.095238  0.321429      8.000000
  0.466667  0.095238  0.321429      8.000000
  0.000000  0.142857  0.321429      4.000000
  0.066667  0.142857  0.321429      8.000000
  0.133333  0.142857  0.321429      8.000000
  0.200000  0.142857  0.321429      8.000000
  0.266667  0.142857  0.321429      8.000000
  0.333333  0.142857  0.321429      8.000000
  0.400000  0.142857  0.321429      8.000000
  0.466667  0.142857  0.321429      8.000000
  0.000000  0.190476  0.321429      4.000000
  0.066667  0.190476  0.321429      8.000000
  0.133333  0.190476  0.321429      8.000000
  0.200000  0.190476  0.321429      8.000000
  0.266667  0.190476  0.321429      8.000000
  0.333333  0.190476  0.321429      8.000000
  0.400000  0.190476  0.321429      8.000000
  0.466667  0.190476  0.321429      8.000000
  0.000000  0.238095  0.321429      4.000000
  0.066667  0.238095  0.321429      8.000000
  0.133333  0.238095  0.321429      8.000000
  0.200000  0.238095  0.321429      8.000000
  0.266667  0.238095  0.321429      8.000000
  0.333333  0.238095  0.321429      8.000000
  0.400000  0.238095  0.321429      8.000000
  0.466667  0.238095  0.321429      8.000000
  0.000000  0.285714  0.321429      4.000000
  0.066667  0.285714  0.321429      8.000000
  0.133333  0.285714  0.321429      8.000000
  0.200000  0.285714  0.321429      8.000000
  0.266667  0.285714  0.321429      8.000000
  0.333333  0.285714  0.321429      8.000000
  0.400000  0.285714  0.321429      8.000000
  0.466667  0.285714  0.321429      8.000000
  0.000000  0.333333  0.321429      4.000000
  0.066667  0.333333  0.321429      8.000000
  0.133333  0.333333  0.321429      8.000000
  0.200000  0.333333  0.321429      8.000000
  0.266667  0.333333  0.321429      8.000000
  0.333333  0.333333  0.321429      8.000000
  0.400000  0.333333  0.321429      8.000000
  0.466667  0.333333  0.321429      8.000000
  0.000000  0.380952  0.321429      4.000000
  0.066667  0.380952  0.321429      8.000000
  0.133333  0.380952  0.321429      8.000000
  0.200000  0.380952  0.321429      8.000000
  0.266667  0.380952  0.321429      8.000000
  0.333333  0.380952  0.321429      8.000000
  0.400000  0.380952  0.321429      8.000000
  0.466667  0.380952  0.321429      8.000000
  0.000000  0.428571  0.321429      4.000000
  0.066667  0.428571  0.321429      8.000000
  0.133333  0.428571  0.321429      8.000000
  0.200000  0.428571  0.321429      8.000000
  0.266667  0.428571  0.321429      8.000000
  0.333333  0.428571  0.321429      8.000000
  0.400000  0.428571  0.321429      8.000000
  0.466667  0.428571  0.321429      8.000000
  0.000000  0.476190  0.321429      4.000000
  0.066667  0.476190  0.321429      8.000000
  0.133333  0.476190  0.321429      8.000000
  0.200000  0.476190  0.321429      8.000000
  0.266667  0.476190  0.321429      8.000000
  0.333333  0.476190  0.321429      8.000000
  0.400000  0.476190  0.321429      8.000000
  0.466667  0.476190  0.321429      8.000000
  0.000000  0.000000  0.392857      2.000000
  0.066667  0.000000  0.392857      4.000000
  0.133333  0.000000  0.392857      4.000000
  0.200000  0.000000  0.392857      4.000000
  0.266667  0.000000  0.392857      4.000000
  0.333333  0.000000  0.392857      4.000000
  0.400000  0.000000  0.392857      4.000000
  0.466667  0.000000  0.392857      4.000000
  0.000000  0.047619  0.392857      4.000000
  0.066667  0.047619  0.392857      8.000000
  0.133333  0.047619  0.392857      8.000000
  0.200000  0.047619  0.392857      8.000000
  0.266667  0.047619  0.392857      8.000000
  0.333333  0.047619  0.392857      8.000000
  0.400000  0.047619  0.392857      8.000000
  0.466667  0.047619  0.392857      8.000000
  0.000000  0.095238  0.392857      4.000000
  0.066667  0.095238  0.392857      8.000000
  0.133333  0.095238  0.392857      8.000000
  0.200000  0.095238  0.392857      8.000000
  0.266667  0.095238  0.392857      8.000000
  0.333333  0.095238  0.392857      8.000000
  0.400000  0.095238  0.392857      8.000000
  0.466667  0.095238  0.392857      8.000000
  0.000000  0.142857  0.392857      4.000000
  0.066667  0.142857  0.392857      8.000000
  0.133333  0.142857  0.392857      8.000000
  0.200000  0.142857  0.392857      8.000000
  0.266667  0.142857  0.392857      8.000000
  0.333333  0.142857  0.392857      8.000000
  0.400000  0.142857  0.392857      8.000000
  0.466667  0.142857  0.392857      8.000000
  0.000000  0.190476  0.392857      4.000000
  0.066667  0.190476  0.392857      8.000000
  0.133333  0.190476  0.392857      8.000000
  0.200000  0.190476  0.392857      8.000000
  0.266667  0.190476  0.392857      8.000000
  0.333333  0.190476  0.392857      8.000000
  0.400000  0.190476  0.392857      8.000000
  0.466667  0.190476  0.392857      8.000000
  0.000000  0.238095  0.392857      4.000000
  0.066667  0.238095  0.392857      8.000000
  0.133333  0.238095  0.392857      8.000000
  0.200000  0.238095  0.392857      8.000000
  0.266667  0.238095  0.392857      8.000000
  0.333333  0.238095  0.392857      8.000000
  0.400000  0.238095  0.392857      8.000000
  0.466667  0.238095  0.392857      8.000000
  0.000000  0.285714  0.392857      4.000000
  0.066667  0.285714  0.392857      8.000000
  0.133333  0.285714  0.392857      8.000000
  0.200000  0.285714  0.392857      8.000000
  0.266667  0.285714  0.392857      8.000000
  0.333333  0.285714  0.392857      8.000000
  0.400000  0.285714  0.392857      8.000000
  0.466667  0.285714  0.392857      8.000000
  0.000000  0.333333  0.392857      4.000000
  0.066667  0.333333  0.392857      8.000000
  0.133333  0.333333  0.392857      8.000000
  0.200000  0.333333  0.392857      8.000000
  0.266667  0.333333  0.392857      8.000000
  0.333333  0.333333  0.392857      8.000000
  0.400000  0.333333  0.392857      8.000000
  0.466667  0.333333  0.392857      8.000000
  0.000000  0.380952  0.392857      4.000000
  0.066667  0.380952  0.392857      8.000000
  0.133333  0.380952  0.392857      8.000000
  0.200000  0.380952  0.392857      8.000000
  0.266667  0.380952  0.392857      8.000000
  0.333333  0.380952  0.392857      8.000000
  0.400000  0.380952  0.392857      8.000000
  0.466667  0.380952  0.392857      8.000000
  0.000000  0.428571  0.392857      4.000000
  0.066667  0.428571  0.392857      8.000000
  0.133333  0.428571  0.392857      8.000000
  0.200000  0.428571  0.392857      8.000000
  0.266667  0.428571  0.392857      8.000000
  0.333333  0.428571  0.392857      8.000000
  0.400000  0.428571  0.392857      8.000000
  0.466667  0.428571  0.392857      8.000000
  0.000000  0.476190  0.392857      4.000000
  0.066667  0.476190  0.392857      8.000000
  0.133333  0.476190  0.392857      8.000000
  0.200000  0.476190  0.392857      8.000000
  0.266667  0.476190  0.392857      8.000000
  0.333333  0.476190  0.392857      8.000000
  0.400000  0.476190  0.392857      8.000000
  0.466667  0.476190  0.392857      8.000000
  0.000000  0.000000  0.464286      2.000000
  0.066667  0.000000  0.464286      4.000000
  0.133333  0.000000  0.464286      4.000000
  0.200000  0.000000  0.464286      4.000000
  0.266667  0.000000  0.464286      4.000000
  0.333333  0.000000  0.464286      4.000000
  0.400000  0.000000  0.464286      4.000000
  0.466667  0.000000  0.464286      4.000000
  0.000000  0.047619  0.464286      4.000000
  0.066667  0.047619  0.464286      8.000000
  0.133333  0.047619  0.464286      8.000000
  0.200000  0.047619  0.464286      8.000000
  0.266667  0.047619  0.464286      8.000000
  0.333333  0.047619  0.464286      8.000000
  0.400000  0.047619  0.464286      8.000000
  0.466667  0.047619  0.464286      8.000000
  0.000000  0.095238  0.464286      4.000000
  0.066667  0.095238  0.464286      8.000000
  0.133333  0.095238  0.464286      8.000000
  0.200000  0.095238  0.464286      8.000000
  0.266667  0.095238  0.464286      8.000000
  0.333333  0.095238  0.464286      8.000000
  0.400000  0.095238  0.464286      8.000000
  0.466667  0.095238  0.464286      8.000000
  0.000000  0.142857  0.464286      4.000000
  0.066667  0.142857  0.464286      8.000000
  0.133333  0.142857  0.464286      8.000000
  0.200000  0.142857  0.464286      8.000000
  0.266667  0.142857  0.464286      8.000000
  0.333333  0.142857  0.464286      8.000000
  0.400000  0.142857  0.464286      8.000000
  0.466667  0.142857  0.464286      8.000000
  0.000000  0.190476  0.464286      4.000000
  0.066667  0.190476  0.464286      8.000000
  0.133333  0.190476  0.464286      8.000000
  0.200000  0.190476  0.464286      8.000000
  0.266667  0.190476  0.464286      8.000000
  0.333333  0.190476  0.464286      8.000000
  0.400000  0.190476  0.464286      8.000000
  0.466667  0.190476  0.464286      8.000000
  0.000000  0.238095  0.464286      4.000000
  0.066667  0.238095  0.464286      8.000000
  0.133333  0.238095  0.464286      8.000000
  0.200000  0.238095  0.464286      8.000000
  0.266667  0.238095  0.464286      8.000000
  0.333333  0.238095  0.464286      8.000000
  0.400000  0.238095  0.464286      8.000000
  0.466667  0.238095  0.464286      8.000000
  0.000000  0.285714  0.464286      4.000000
  0.066667  0.285714  0.464286      8.000000
  0.133333  0.285714  0.464286      8.000000
  0.200000  0.285714  0.464286      8.000000
  0.266667  0.285714  0.464286      8.000000
  0.333333  0.285714  0.464286      8.000000
  0.400000  0.285714  0.464286      8.000000
  0.466667  0.285714  0.464286      8.000000
  0.000000  0.333333  0.464286      4.000000
  0.066667  0.333333  0.464286      8.000000
  0.133333  0.333333  0.464286      8.000000
  0.200000  0.333333  0.464286      8.000000
  0.266667  0.333333  0.464286      8.000000
  0.333333  0.333333  0.464286      8.000000
  0.400000  0.333333  0.464286      8.000000
  0.466667  0.333333  0.464286      8.000000
  0.000000  0.380952  0.464286      4.000000
  0.066667  0.380952  0.464286      8.000000
  0.133333  0.380952  0.464286      8.000000
  0.200000  0.380952  0.464286      8.000000
  0.266667  0.380952  0.464286      8.000000
  0.333333  0.380952  0.464286      8.000000
  0.400000  0.380952  0.464286      8.000000
  0.466667  0.380952  0.464286      8.000000
  0.000000  0.428571  0.464286      4.000000
  0.066667  0.428571  0.464286      8.000000
  0.133333  0.428571  0.464286      8.000000
  0.200000  0.428571  0.464286      8.000000
  0.266667  0.428571  0.464286      8.000000
  0.333333  0.428571  0.464286      8.000000
  0.400000  0.428571  0.464286      8.000000
  0.466667  0.428571  0.464286      8.000000
  0.000000  0.476190  0.464286      4.000000
  0.066667  0.476190  0.464286      8.000000
  0.133333  0.476190  0.464286      8.000000
  0.200000  0.476190  0.464286      8.000000
  0.266667  0.476190  0.464286      8.000000
  0.333333  0.476190  0.464286      8.000000
  0.400000  0.476190  0.464286      8.000000
  0.466667  0.476190  0.464286      8.000000
 
 Following cartesian coordinates:
            Coordinates               Weight
  0.000000  0.000000  0.005756      2.000000
  0.011702  0.000000  0.005756      4.000000
  0.023404  0.000000  0.005756      4.000000
  0.035106  0.000000  0.005756      4.000000
  0.046808  0.000000  0.005756      4.000000
  0.058510  0.000000  0.005756      4.000000
  0.070212  0.000000  0.005756      4.000000
  0.081914  0.000000  0.005756      4.000000
  0.000000  0.011764  0.005756      4.000000
  0.011702  0.011764  0.005756      8.000000
  0.023404  0.011764  0.005756      8.000000
  0.035106  0.011764  0.005756      8.000000
  0.046808  0.011764  0.005756      8.000000
  0.058510  0.011764  0.005756      8.000000
  0.070212  0.011764  0.005756      8.000000
  0.081914  0.011764  0.005756      8.000000
  0.000000  0.023528  0.005756      4.000000
  0.011702  0.023528  0.005756      8.000000
  0.023404  0.023528  0.005756      8.000000
  0.035106  0.023528  0.005756      8.000000
  0.046808  0.023528  0.005756      8.000000
  0.058510  0.023528  0.005756      8.000000
  0.070212  0.023528  0.005756      8.000000
  0.081914  0.023528  0.005756      8.000000
  0.000000  0.035292  0.005756      4.000000
  0.011702  0.035292  0.005756      8.000000
  0.023404  0.035292  0.005756      8.000000
  0.035106  0.035292  0.005756      8.000000
  0.046808  0.035292  0.005756      8.000000
  0.058510  0.035292  0.005756      8.000000
  0.070212  0.035292  0.005756      8.000000
  0.081914  0.035292  0.005756      8.000000
  0.000000  0.047056  0.005756      4.000000
  0.011702  0.047056  0.005756      8.000000
  0.023404  0.047056  0.005756      8.000000
  0.035106  0.047056  0.005756      8.000000
  0.046808  0.047056  0.005756      8.000000
  0.058510  0.047056  0.005756      8.000000
  0.070212  0.047056  0.005756      8.000000
  0.081914  0.047056  0.005756      8.000000
  0.000000  0.058819  0.005756      4.000000
  0.011702  0.058819  0.005756      8.000000
  0.023404  0.058819  0.005756      8.000000
  0.035106  0.058819  0.005756      8.000000
  0.046808  0.058819  0.005756      8.000000
  0.058510  0.058819  0.005756      8.000000
  0.070212  0.058819  0.005756      8.000000
  0.081914  0.058819  0.005756      8.000000
  0.000000  0.070583  0.005756      4.000000
  0.011702  0.070583  0.005756      8.000000
  0.023404  0.070583  0.005756      8.000000
  0.035106  0.070583  0.005756      8.000000
  0.046808  0.070583  0.005756      8.000000
  0.058510  0.070583  0.005756      8.000000
  0.070212  0.070583  0.005756      8.000000
  0.081914  0.070583  0.005756      8.000000
  0.000000  0.082347  0.005756      4.000000
  0.011702  0.082347  0.005756      8.000000
  0.023404  0.082347  0.005756      8.000000
  0.035106  0.082347  0.005756      8.000000
  0.046808  0.082347  0.005756      8.000000
  0.058510  0.082347  0.005756      8.000000
  0.070212  0.082347  0.005756      8.000000
  0.081914  0.082347  0.005756      8.000000
  0.000000  0.094111  0.005756      4.000000
  0.011702  0.094111  0.005756      8.000000
  0.023404  0.094111  0.005756      8.000000
  0.035106  0.094111  0.005756      8.000000
  0.046808  0.094111  0.005756      8.000000
  0.058510  0.094111  0.005756      8.000000
  0.070212  0.094111  0.005756      8.000000
  0.081914  0.094111  0.005756      8.000000
  0.000000  0.105875  0.005756      4.000000
  0.011702  0.105875  0.005756      8.000000
  0.023404  0.105875  0.005756      8.000000
  0.035106  0.105875  0.005756      8.000000
  0.046808  0.105875  0.005756      8.000000
  0.058510  0.105875  0.005756      8.000000
  0.070212  0.105875  0.005756      8.000000
  0.081914  0.105875  0.005756      8.000000
  0.000000  0.117639  0.005756      4.000000
  0.011702  0.117639  0.005756      8.000000
  0.023404  0.117639  0.005756      8.000000
  0.035106  0.117639  0.005756      8.000000
  0.046808  0.117639  0.005756      8.000000
  0.058510  0.117639  0.005756      8.000000
  0.070212  0.117639  0.005756      8.000000
  0.081914  0.117639  0.005756      8.000000
  0.000000  0.000000  0.017269      2.000000
  0.011702  0.000000  0.017269      4.000000
  0.023404  0.000000  0.017269      4.000000
  0.035106  0.000000  0.017269      4.000000
  0.046808  0.000000  0.017269      4.000000
  0.058510  0.000000  0.017269      4.000000
  0.070212  0.000000  0.017269      4.000000
  0.081914  0.000000  0.017269      4.000000
  0.000000  0.011764  0.017269      4.000000
  0.011702  0.011764  0.017269      8.000000
  0.023404  0.011764  0.017269      8.000000
  0.035106  0.011764  0.017269      8.000000
  0.046808  0.011764  0.017269      8.000000
  0.058510  0.011764  0.017269      8.000000
  0.070212  0.011764  0.017269      8.000000
  0.081914  0.011764  0.017269      8.000000
  0.000000  0.023528  0.017269      4.000000
  0.011702  0.023528  0.017269      8.000000
  0.023404  0.023528  0.017269      8.000000
  0.035106  0.023528  0.017269      8.000000
  0.046808  0.023528  0.017269      8.000000
  0.058510  0.023528  0.017269      8.000000
  0.070212  0.023528  0.017269      8.000000
  0.081914  0.023528  0.017269      8.000000
  0.000000  0.035292  0.017269      4.000000
  0.011702  0.035292  0.017269      8.000000
  0.023404  0.035292  0.017269      8.000000
  0.035106  0.035292  0.017269      8.000000
  0.046808  0.035292  0.017269      8.000000
  0.058510  0.035292  0.017269      8.000000
  0.070212  0.035292  0.017269      8.000000
  0.081914  0.035292  0.017269      8.000000
  0.000000  0.047056  0.017269      4.000000
  0.011702  0.047056  0.017269      8.000000
  0.023404  0.047056  0.017269      8.000000
  0.035106  0.047056  0.017269      8.000000
  0.046808  0.047056  0.017269      8.000000
  0.058510  0.047056  0.017269      8.000000
  0.070212  0.047056  0.017269      8.000000
  0.081914  0.047056  0.017269      8.000000
  0.000000  0.058819  0.017269      4.000000
  0.011702  0.058819  0.017269      8.000000
  0.023404  0.058819  0.017269      8.000000
  0.035106  0.058819  0.017269      8.000000
  0.046808  0.058819  0.017269      8.000000
  0.058510  0.058819  0.017269      8.000000
  0.070212  0.058819  0.017269      8.000000
  0.081914  0.058819  0.017269      8.000000
  0.000000  0.070583  0.017269      4.000000
  0.011702  0.070583  0.017269      8.000000
  0.023404  0.070583  0.017269      8.000000
  0.035106  0.070583  0.017269      8.000000
  0.046808  0.070583  0.017269      8.000000
  0.058510  0.070583  0.017269      8.000000
  0.070212  0.070583  0.017269      8.000000
  0.081914  0.070583  0.017269      8.000000
  0.000000  0.082347  0.017269      4.000000
  0.011702  0.082347  0.017269      8.000000
  0.023404  0.082347  0.017269      8.000000
  0.035106  0.082347  0.017269      8.000000
  0.046808  0.082347  0.017269      8.000000
  0.058510  0.082347  0.017269      8.000000
  0.070212  0.082347  0.017269      8.000000
  0.081914  0.082347  0.017269      8.000000
  0.000000  0.094111  0.017269      4.000000
  0.011702  0.094111  0.017269      8.000000
  0.023404  0.094111  0.017269      8.000000
  0.035106  0.094111  0.017269      8.000000
  0.046808  0.094111  0.017269      8.000000
  0.058510  0.094111  0.017269      8.000000
  0.070212  0.094111  0.017269      8.000000
  0.081914  0.094111  0.017269      8.000000
  0.000000  0.105875  0.017269      4.000000
  0.011702  0.105875  0.017269      8.000000
  0.023404  0.105875  0.017269      8.000000
  0.035106  0.105875  0.017269      8.000000
  0.046808  0.105875  0.017269      8.000000
  0.058510  0.105875  0.017269      8.000000
  0.070212  0.105875  0.017269      8.000000
  0.081914  0.105875  0.017269      8.000000
  0.000000  0.117639  0.017269      4.000000
  0.011702  0.117639  0.017269      8.000000
  0.023404  0.117639  0.017269      8.000000
  0.035106  0.117639  0.017269      8.000000
  0.046808  0.117639  0.017269      8.000000
  0.058510  0.117639  0.017269      8.000000
  0.070212  0.117639  0.017269      8.000000
  0.081914  0.117639  0.017269      8.000000
  0.000000  0.000000  0.028782      2.000000
  0.011702  0.000000  0.028782      4.000000
  0.023404  0.000000  0.028782      4.000000
  0.035106  0.000000  0.028782      4.000000
  0.046808  0.000000  0.028782      4.000000
  0.058510  0.000000  0.028782      4.000000
  0.070212  0.000000  0.028782      4.000000
  0.081914  0.000000  0.028782      4.000000
  0.000000  0.011764  0.028782      4.000000
  0.011702  0.011764  0.028782      8.000000
  0.023404  0.011764  0.028782      8.000000
  0.035106  0.011764  0.028782      8.000000
  0.046808  0.011764  0.028782      8.000000
  0.058510  0.011764  0.028782      8.000000
  0.070212  0.011764  0.028782      8.000000
  0.081914  0.011764  0.028782      8.000000
  0.000000  0.023528  0.028782      4.000000
  0.011702  0.023528  0.028782      8.000000
  0.023404  0.023528  0.028782      8.000000
  0.035106  0.023528  0.028782      8.000000
  0.046808  0.023528  0.028782      8.000000
  0.058510  0.023528  0.028782      8.000000
  0.070212  0.023528  0.028782      8.000000
  0.081914  0.023528  0.028782      8.000000
  0.000000  0.035292  0.028782      4.000000
  0.011702  0.035292  0.028782      8.000000
  0.023404  0.035292  0.028782      8.000000
  0.035106  0.035292  0.028782      8.000000
  0.046808  0.035292  0.028782      8.000000
  0.058510  0.035292  0.028782      8.000000
  0.070212  0.035292  0.028782      8.000000
  0.081914  0.035292  0.028782      8.000000
  0.000000  0.047056  0.028782      4.000000
  0.011702  0.047056  0.028782      8.000000
  0.023404  0.047056  0.028782      8.000000
  0.035106  0.047056  0.028782      8.000000
  0.046808  0.047056  0.028782      8.000000
  0.058510  0.047056  0.028782      8.000000
  0.070212  0.047056  0.028782      8.000000
  0.081914  0.047056  0.028782      8.000000
  0.000000  0.058819  0.028782      4.000000
  0.011702  0.058819  0.028782      8.000000
  0.023404  0.058819  0.028782      8.000000
  0.035106  0.058819  0.028782      8.000000
  0.046808  0.058819  0.028782      8.000000
  0.058510  0.058819  0.028782      8.000000
  0.070212  0.058819  0.028782      8.000000
  0.081914  0.058819  0.028782      8.000000
  0.000000  0.070583  0.028782      4.000000
  0.011702  0.070583  0.028782      8.000000
  0.023404  0.070583  0.028782      8.000000
  0.035106  0.070583  0.028782      8.000000
  0.046808  0.070583  0.028782      8.000000
  0.058510  0.070583  0.028782      8.000000
  0.070212  0.070583  0.028782      8.000000
  0.081914  0.070583  0.028782      8.000000
  0.000000  0.082347  0.028782      4.000000
  0.011702  0.082347  0.028782      8.000000
  0.023404  0.082347  0.028782      8.000000
  0.035106  0.082347  0.028782      8.000000
  0.046808  0.082347  0.028782      8.000000
  0.058510  0.082347  0.028782      8.000000
  0.070212  0.082347  0.028782      8.000000
  0.081914  0.082347  0.028782      8.000000
  0.000000  0.094111  0.028782      4.000000
  0.011702  0.094111  0.028782      8.000000
  0.023404  0.094111  0.028782      8.000000
  0.035106  0.094111  0.028782      8.000000
  0.046808  0.094111  0.028782      8.000000
  0.058510  0.094111  0.028782      8.000000
  0.070212  0.094111  0.028782      8.000000
  0.081914  0.094111  0.028782      8.000000
  0.000000  0.105875  0.028782      4.000000
  0.011702  0.105875  0.028782      8.000000
  0.023404  0.105875  0.028782      8.000000
  0.035106  0.105875  0.028782      8.000000
  0.046808  0.105875  0.028782      8.000000
  0.058510  0.105875  0.028782      8.000000
  0.070212  0.105875  0.028782      8.000000
  0.081914  0.105875  0.028782      8.000000
  0.000000  0.117639  0.028782      4.000000
  0.011702  0.117639  0.028782      8.000000
  0.023404  0.117639  0.028782      8.000000
  0.035106  0.117639  0.028782      8.000000
  0.046808  0.117639  0.028782      8.000000
  0.058510  0.117639  0.028782      8.000000
  0.070212  0.117639  0.028782      8.000000
  0.081914  0.117639  0.028782      8.000000
  0.000000  0.000000  0.040295      2.000000
  0.011702  0.000000  0.040295      4.000000
  0.023404  0.000000  0.040295      4.000000
  0.035106  0.000000  0.040295      4.000000
  0.046808  0.000000  0.040295      4.000000
  0.058510  0.000000  0.040295      4.000000
  0.070212  0.000000  0.040295      4.000000
  0.081914  0.000000  0.040295      4.000000
  0.000000  0.011764  0.040295      4.000000
  0.011702  0.011764  0.040295      8.000000
  0.023404  0.011764  0.040295      8.000000
  0.035106  0.011764  0.040295      8.000000
  0.046808  0.011764  0.040295      8.000000
  0.058510  0.011764  0.040295      8.000000
  0.070212  0.011764  0.040295      8.000000
  0.081914  0.011764  0.040295      8.000000
  0.000000  0.023528  0.040295      4.000000
  0.011702  0.023528  0.040295      8.000000
  0.023404  0.023528  0.040295      8.000000
  0.035106  0.023528  0.040295      8.000000
  0.046808  0.023528  0.040295      8.000000
  0.058510  0.023528  0.040295      8.000000
  0.070212  0.023528  0.040295      8.000000
  0.081914  0.023528  0.040295      8.000000
  0.000000  0.035292  0.040295      4.000000
  0.011702  0.035292  0.040295      8.000000
  0.023404  0.035292  0.040295      8.000000
  0.035106  0.035292  0.040295      8.000000
  0.046808  0.035292  0.040295      8.000000
  0.058510  0.035292  0.040295      8.000000
  0.070212  0.035292  0.040295      8.000000
  0.081914  0.035292  0.040295      8.000000
  0.000000  0.047056  0.040295      4.000000
  0.011702  0.047056  0.040295      8.000000
  0.023404  0.047056  0.040295      8.000000
  0.035106  0.047056  0.040295      8.000000
  0.046808  0.047056  0.040295      8.000000
  0.058510  0.047056  0.040295      8.000000
  0.070212  0.047056  0.040295      8.000000
  0.081914  0.047056  0.040295      8.000000
  0.000000  0.058819  0.040295      4.000000
  0.011702  0.058819  0.040295      8.000000
  0.023404  0.058819  0.040295      8.000000
  0.035106  0.058819  0.040295      8.000000
  0.046808  0.058819  0.040295      8.000000
  0.058510  0.058819  0.040295      8.000000
  0.070212  0.058819  0.040295      8.000000
  0.081914  0.058819  0.040295      8.000000
  0.000000  0.070583  0.040295      4.000000
  0.011702  0.070583  0.040295      8.000000
  0.023404  0.070583  0.040295      8.000000
  0.035106  0.070583  0.040295      8.000000
  0.046808  0.070583  0.040295      8.000000
  0.058510  0.070583  0.040295      8.000000
  0.070212  0.070583  0.040295      8.000000
  0.081914  0.070583  0.040295      8.000000
  0.000000  0.082347  0.040295      4.000000
  0.011702  0.082347  0.040295      8.000000
  0.023404  0.082347  0.040295      8.000000
  0.035106  0.082347  0.040295      8.000000
  0.046808  0.082347  0.040295      8.000000
  0.058510  0.082347  0.040295      8.000000
  0.070212  0.082347  0.040295      8.000000
  0.081914  0.082347  0.040295      8.000000
  0.000000  0.094111  0.040295      4.000000
  0.011702  0.094111  0.040295      8.000000
  0.023404  0.094111  0.040295      8.000000
  0.035106  0.094111  0.040295      8.000000
  0.046808  0.094111  0.040295      8.000000
  0.058510  0.094111  0.040295      8.000000
  0.070212  0.094111  0.040295      8.000000
  0.081914  0.094111  0.040295      8.000000
  0.000000  0.105875  0.040295      4.000000
  0.011702  0.105875  0.040295      8.000000
  0.023404  0.105875  0.040295      8.000000
  0.035106  0.105875  0.040295      8.000000
  0.046808  0.105875  0.040295      8.000000
  0.058510  0.105875  0.040295      8.000000
  0.070212  0.105875  0.040295      8.000000
  0.081914  0.105875  0.040295      8.000000
  0.000000  0.117639  0.040295      4.000000
  0.011702  0.117639  0.040295      8.000000
  0.023404  0.117639  0.040295      8.000000
  0.035106  0.117639  0.040295      8.000000
  0.046808  0.117639  0.040295      8.000000
  0.058510  0.117639  0.040295      8.000000
  0.070212  0.117639  0.040295      8.000000
  0.081914  0.117639  0.040295      8.000000
  0.000000  0.000000  0.051808      2.000000
  0.011702  0.000000  0.051808      4.000000
  0.023404  0.000000  0.051808      4.000000
  0.035106  0.000000  0.051808      4.000000
  0.046808  0.000000  0.051808      4.000000
  0.058510  0.000000  0.051808      4.000000
  0.070212  0.000000  0.051808      4.000000
  0.081914  0.000000  0.051808      4.000000
  0.000000  0.011764  0.051808      4.000000
  0.011702  0.011764  0.051808      8.000000
  0.023404  0.011764  0.051808      8.000000
  0.035106  0.011764  0.051808      8.000000
  0.046808  0.011764  0.051808      8.000000
  0.058510  0.011764  0.051808      8.000000
  0.070212  0.011764  0.051808      8.000000
  0.081914  0.011764  0.051808      8.000000
  0.000000  0.023528  0.051808      4.000000
  0.011702  0.023528  0.051808      8.000000
  0.023404  0.023528  0.051808      8.000000
  0.035106  0.023528  0.051808      8.000000
  0.046808  0.023528  0.051808      8.000000
  0.058510  0.023528  0.051808      8.000000
  0.070212  0.023528  0.051808      8.000000
  0.081914  0.023528  0.051808      8.000000
  0.000000  0.035292  0.051808      4.000000
  0.011702  0.035292  0.051808      8.000000
  0.023404  0.035292  0.051808      8.000000
  0.035106  0.035292  0.051808      8.000000
  0.046808  0.035292  0.051808      8.000000
  0.058510  0.035292  0.051808      8.000000
  0.070212  0.035292  0.051808      8.000000
  0.081914  0.035292  0.051808      8.000000
  0.000000  0.047056  0.051808      4.000000
  0.011702  0.047056  0.051808      8.000000
  0.023404  0.047056  0.051808      8.000000
  0.035106  0.047056  0.051808      8.000000
  0.046808  0.047056  0.051808      8.000000
  0.058510  0.047056  0.051808      8.000000
  0.070212  0.047056  0.051808      8.000000
  0.081914  0.047056  0.051808      8.000000
  0.000000  0.058819  0.051808      4.000000
  0.011702  0.058819  0.051808      8.000000
  0.023404  0.058819  0.051808      8.000000
  0.035106  0.058819  0.051808      8.000000
  0.046808  0.058819  0.051808      8.000000
  0.058510  0.058819  0.051808      8.000000
  0.070212  0.058819  0.051808      8.000000
  0.081914  0.058819  0.051808      8.000000
  0.000000  0.070583  0.051808      4.000000
  0.011702  0.070583  0.051808      8.000000
  0.023404  0.070583  0.051808      8.000000
  0.035106  0.070583  0.051808      8.000000
  0.046808  0.070583  0.051808      8.000000
  0.058510  0.070583  0.051808      8.000000
  0.070212  0.070583  0.051808      8.000000
  0.081914  0.070583  0.051808      8.000000
  0.000000  0.082347  0.051808      4.000000
  0.011702  0.082347  0.051808      8.000000
  0.023404  0.082347  0.051808      8.000000
  0.035106  0.082347  0.051808      8.000000
  0.046808  0.082347  0.051808      8.000000
  0.058510  0.082347  0.051808      8.000000
  0.070212  0.082347  0.051808      8.000000
  0.081914  0.082347  0.051808      8.000000
  0.000000  0.094111  0.051808      4.000000
  0.011702  0.094111  0.051808      8.000000
  0.023404  0.094111  0.051808      8.000000
  0.035106  0.094111  0.051808      8.000000
  0.046808  0.094111  0.051808      8.000000
  0.058510  0.094111  0.051808      8.000000
  0.070212  0.094111  0.051808      8.000000
  0.081914  0.094111  0.051808      8.000000
  0.000000  0.105875  0.051808      4.000000
  0.011702  0.105875  0.051808      8.000000
  0.023404  0.105875  0.051808      8.000000
  0.035106  0.105875  0.051808      8.000000
  0.046808  0.105875  0.051808      8.000000
  0.058510  0.105875  0.051808      8.000000
  0.070212  0.105875  0.051808      8.000000
  0.081914  0.105875  0.051808      8.000000
  0.000000  0.117639  0.051808      4.000000
  0.011702  0.117639  0.051808      8.000000
  0.023404  0.117639  0.051808      8.000000
  0.035106  0.117639  0.051808      8.000000
  0.046808  0.117639  0.051808      8.000000
  0.058510  0.117639  0.051808      8.000000
  0.070212  0.117639  0.051808      8.000000
  0.081914  0.117639  0.051808      8.000000
  0.000000  0.000000  0.063321      2.000000
  0.011702  0.000000  0.063321      4.000000
  0.023404  0.000000  0.063321      4.000000
  0.035106  0.000000  0.063321      4.000000
  0.046808  0.000000  0.063321      4.000000
  0.058510  0.000000  0.063321      4.000000
  0.070212  0.000000  0.063321      4.000000
  0.081914  0.000000  0.063321      4.000000
  0.000000  0.011764  0.063321      4.000000
  0.011702  0.011764  0.063321      8.000000
  0.023404  0.011764  0.063321      8.000000
  0.035106  0.011764  0.063321      8.000000
  0.046808  0.011764  0.063321      8.000000
  0.058510  0.011764  0.063321      8.000000
  0.070212  0.011764  0.063321      8.000000
  0.081914  0.011764  0.063321      8.000000
  0.000000  0.023528  0.063321      4.000000
  0.011702  0.023528  0.063321      8.000000
  0.023404  0.023528  0.063321      8.000000
  0.035106  0.023528  0.063321      8.000000
  0.046808  0.023528  0.063321      8.000000
  0.058510  0.023528  0.063321      8.000000
  0.070212  0.023528  0.063321      8.000000
  0.081914  0.023528  0.063321      8.000000
  0.000000  0.035292  0.063321      4.000000
  0.011702  0.035292  0.063321      8.000000
  0.023404  0.035292  0.063321      8.000000
  0.035106  0.035292  0.063321      8.000000
  0.046808  0.035292  0.063321      8.000000
  0.058510  0.035292  0.063321      8.000000
  0.070212  0.035292  0.063321      8.000000
  0.081914  0.035292  0.063321      8.000000
  0.000000  0.047056  0.063321      4.000000
  0.011702  0.047056  0.063321      8.000000
  0.023404  0.047056  0.063321      8.000000
  0.035106  0.047056  0.063321      8.000000
  0.046808  0.047056  0.063321      8.000000
  0.058510  0.047056  0.063321      8.000000
  0.070212  0.047056  0.063321      8.000000
  0.081914  0.047056  0.063321      8.000000
  0.000000  0.058819  0.063321      4.000000
  0.011702  0.058819  0.063321      8.000000
  0.023404  0.058819  0.063321      8.000000
  0.035106  0.058819  0.063321      8.000000
  0.046808  0.058819  0.063321      8.000000
  0.058510  0.058819  0.063321      8.000000
  0.070212  0.058819  0.063321      8.000000
  0.081914  0.058819  0.063321      8.000000
  0.000000  0.070583  0.063321      4.000000
  0.011702  0.070583  0.063321      8.000000
  0.023404  0.070583  0.063321      8.000000
  0.035106  0.070583  0.063321      8.000000
  0.046808  0.070583  0.063321      8.000000
  0.058510  0.070583  0.063321      8.000000
  0.070212  0.070583  0.063321      8.000000
  0.081914  0.070583  0.063321      8.000000
  0.000000  0.082347  0.063321      4.000000
  0.011702  0.082347  0.063321      8.000000
  0.023404  0.082347  0.063321      8.000000
  0.035106  0.082347  0.063321      8.000000
  0.046808  0.082347  0.063321      8.000000
  0.058510  0.082347  0.063321      8.000000
  0.070212  0.082347  0.063321      8.000000
  0.081914  0.082347  0.063321      8.000000
  0.000000  0.094111  0.063321      4.000000
  0.011702  0.094111  0.063321      8.000000
  0.023404  0.094111  0.063321      8.000000
  0.035106  0.094111  0.063321      8.000000
  0.046808  0.094111  0.063321      8.000000
  0.058510  0.094111  0.063321      8.000000
  0.070212  0.094111  0.063321      8.000000
  0.081914  0.094111  0.063321      8.000000
  0.000000  0.105875  0.063321      4.000000
  0.011702  0.105875  0.063321      8.000000
  0.023404  0.105875  0.063321      8.000000
  0.035106  0.105875  0.063321      8.000000
  0.046808  0.105875  0.063321      8.000000
  0.058510  0.105875  0.063321      8.000000
  0.070212  0.105875  0.063321      8.000000
  0.081914  0.105875  0.063321      8.000000
  0.000000  0.117639  0.063321      4.000000
  0.011702  0.117639  0.063321      8.000000
  0.023404  0.117639  0.063321      8.000000
  0.035106  0.117639  0.063321      8.000000
  0.046808  0.117639  0.063321      8.000000
  0.058510  0.117639  0.063321      8.000000
  0.070212  0.117639  0.063321      8.000000
  0.081914  0.117639  0.063321      8.000000
  0.000000  0.000000  0.074834      2.000000
  0.011702  0.000000  0.074834      4.000000
  0.023404  0.000000  0.074834      4.000000
  0.035106  0.000000  0.074834      4.000000
  0.046808  0.000000  0.074834      4.000000
  0.058510  0.000000  0.074834      4.000000
  0.070212  0.000000  0.074834      4.000000
  0.081914  0.000000  0.074834      4.000000
  0.000000  0.011764  0.074834      4.000000
  0.011702  0.011764  0.074834      8.000000
  0.023404  0.011764  0.074834      8.000000
  0.035106  0.011764  0.074834      8.000000
  0.046808  0.011764  0.074834      8.000000
  0.058510  0.011764  0.074834      8.000000
  0.070212  0.011764  0.074834      8.000000
  0.081914  0.011764  0.074834      8.000000
  0.000000  0.023528  0.074834      4.000000
  0.011702  0.023528  0.074834      8.000000
  0.023404  0.023528  0.074834      8.000000
  0.035106  0.023528  0.074834      8.000000
  0.046808  0.023528  0.074834      8.000000
  0.058510  0.023528  0.074834      8.000000
  0.070212  0.023528  0.074834      8.000000
  0.081914  0.023528  0.074834      8.000000
  0.000000  0.035292  0.074834      4.000000
  0.011702  0.035292  0.074834      8.000000
  0.023404  0.035292  0.074834      8.000000
  0.035106  0.035292  0.074834      8.000000
  0.046808  0.035292  0.074834      8.000000
  0.058510  0.035292  0.074834      8.000000
  0.070212  0.035292  0.074834      8.000000
  0.081914  0.035292  0.074834      8.000000
  0.000000  0.047056  0.074834      4.000000
  0.011702  0.047056  0.074834      8.000000
  0.023404  0.047056  0.074834      8.000000
  0.035106  0.047056  0.074834      8.000000
  0.046808  0.047056  0.074834      8.000000
  0.058510  0.047056  0.074834      8.000000
  0.070212  0.047056  0.074834      8.000000
  0.081914  0.047056  0.074834      8.000000
  0.000000  0.058819  0.074834      4.000000
  0.011702  0.058819  0.074834      8.000000
  0.023404  0.058819  0.074834      8.000000
  0.035106  0.058819  0.074834      8.000000
  0.046808  0.058819  0.074834      8.000000
  0.058510  0.058819  0.074834      8.000000
  0.070212  0.058819  0.074834      8.000000
  0.081914  0.058819  0.074834      8.000000
  0.000000  0.070583  0.074834      4.000000
  0.011702  0.070583  0.074834      8.000000
  0.023404  0.070583  0.074834      8.000000
  0.035106  0.070583  0.074834      8.000000
  0.046808  0.070583  0.074834      8.000000
  0.058510  0.070583  0.074834      8.000000
  0.070212  0.070583  0.074834      8.000000
  0.081914  0.070583  0.074834      8.000000
  0.000000  0.082347  0.074834      4.000000
  0.011702  0.082347  0.074834      8.000000
  0.023404  0.082347  0.074834      8.000000
  0.035106  0.082347  0.074834      8.000000
  0.046808  0.082347  0.074834      8.000000
  0.058510  0.082347  0.074834      8.000000
  0.070212  0.082347  0.074834      8.000000
  0.081914  0.082347  0.074834      8.000000
  0.000000  0.094111  0.074834      4.000000
  0.011702  0.094111  0.074834      8.000000
  0.023404  0.094111  0.074834      8.000000
  0.035106  0.094111  0.074834      8.000000
  0.046808  0.094111  0.074834      8.000000
  0.058510  0.094111  0.074834      8.000000
  0.070212  0.094111  0.074834      8.000000
  0.081914  0.094111  0.074834      8.000000
  0.000000  0.105875  0.074834      4.000000
  0.011702  0.105875  0.074834      8.000000
  0.023404  0.105875  0.074834      8.000000
  0.035106  0.105875  0.074834      8.000000
  0.046808  0.105875  0.074834      8.000000
  0.058510  0.105875  0.074834      8.000000
  0.070212  0.105875  0.074834      8.000000
  0.081914  0.105875  0.074834      8.000000
  0.000000  0.117639  0.074834      4.000000
  0.011702  0.117639  0.074834      8.000000
  0.023404  0.117639  0.074834      8.000000
  0.035106  0.117639  0.074834      8.000000
  0.046808  0.117639  0.074834      8.000000
  0.058510  0.117639  0.074834      8.000000
  0.070212  0.117639  0.074834      8.000000
  0.081914  0.117639  0.074834      8.000000
 


--------------------------------------------------------------------------------------------------------




 Dimension of arrays:
   k-points           NKPTS =    616   k-points in BZ     NKDIM =    616   number of bands    NBANDS=     48
   number of dos      NEDOS =    301   number of ions     NIONS =     14
   non local maximal  LDIM  =      4   non local SUM 2l+1 LMDIM =      8
   total plane-waves  NPLWV =  60480
   max r-space proj   IRMAX =      1   max aug-charges    IRDMAX=   6791
   dimension x,y,z NGX =    42 NGY =   30 NGZ =   48
   dimension x,y,z NGXF=    84 NGYF=   60 NGZF=   96
   support grid    NGXF=    84 NGYF=   60 NGZF=   96
   ions per type =              14
   NGX,Y,Z   is equivalent  to a cutoff of  12.26, 12.32, 12.86 a.u.
   NGXF,Y,Z  is equivalent  to a cutoff of  24.51, 24.64, 25.72 a.u.

 SYSTEM =  Kpoints                                 
 POSCAR =  o-B14                                   

 Startparameter for this run:
   NWRITE =      2    write-flag & timer
   PREC   = accura    normal or accurate (medium, high low for compatibility)
   ISTART =      0    job   : 0-new  1-cont  2-samecut
   ICHARG =      2    charge: 1-file 2-atom 10-const
   ISPIN  =      1    spin polarized calculation?
   LNONCOLLINEAR =      F non collinear calculations
   LSORBIT =      F    spin-orbit coupling
   INIWAV =      1    electr: 0-lowe 1-rand  2-diag
   LASPH  =      F    aspherical Exc in radial PAW
 Electronic Relaxation 1
   ENCUT  =  480.0 eV  35.28 Ry    5.94 a.u.  10.18  7.23 11.08*2*pi/ulx,y,z
   ENINI  =  480.0     initial cutoff
   ENAUG  =  535.5 eV  augmentation charge cutoff
   NELM   =    100;   NELMIN=  2; NELMDL= -5     # of ELM steps 
   EDIFF  = 0.1E-05   stopping-criterion for ELM
   LREAL  =      F    real-space projection
   NLSPLINE    = F    spline interpolate recip. space projectors
   LCOMPAT=      F    compatible to vasp.4.4
   GGA_COMPAT  = T    GGA compatible to vasp.4.4-vasp.4.6
   LMAXPAW     = -100 max onsite density
   LMAXMIX     =    2 max onsite mixed and CHGCAR
   VOSKOWN=      0    Vosko Wilk Nusair interpolation
   ROPT   =    0.00000
 Ionic relaxation
   EDIFFG = -.1E-02   stopping-criterion for IOM
   NSW    =      0    number of steps for IOM
   NBLOCK =      1;   KBLOCK =      1    inner block; outer block 
   IBRION =     -1    ionic relax: 0-MD 1-quasi-New 2-CG
   NFREE  =      0    steps in history (QN), initial steepest desc. (CG)
   ISIF   =      2    stress and relaxation
   IWAVPR =     10    prediction:  0-non 1-charg 2-wave 3-comb
   ISYM   =      2    0-nonsym 1-usesym 2-fastsym
   LCORR  =      T    Harris-Foulkes like correction to forces

   POTIM  = 0.5000    time-step for ionic-motion
   TEIN   =    0.0    initial temperature
   TEBEG  =    0.0;   TEEND  =   0.0 temperature during run
   SMASS  =  -3.00    Nose mass-parameter (am)
   estimated Nose-frequenzy (Omega)   =  0.10E-29 period in steps = 0.13E+47 mass=  -0.742E-27a.u.
   SCALEE = 1.0000    scale energy and forces
   NPACO  =    256;   APACO  = 10.0  distance and # of slots for P.C.
   PSTRESS=    0.0 pullay stress

  Mass of Ions in am
   POMASS =  10.81
  Ionic Valenz
   ZVAL   =   3.00
  Atomic Wigner-Seitz radii
   RWIGS  =  -1.00
  virtual crystal weights 
   VCA    =   1.00
   NELECT =      42.0000    total number of electrons
   NUPDOWN=      -1.0000    fix difference up-down

 DOS related values:
   EMIN   =  10.00;   EMAX   =-10.00  energy-range for DOS
   EFERMI =   0.00;   METHOD = LEGACY      
   ISMEAR =     0;   SIGMA  =   0.05  broadening in eV -4-tet -1-fermi 0-gaus

 Electronic relaxation 2 (details)
   IALGO  =     38    algorithm
   LDIAG  =      T    sub-space diagonalisation (order eigenvalues)
   LSUBROT=      F    optimize rotation matrix (better conditioning)
   TURBO    =      0    0=normal 1=particle mesh
   IRESTART =      0    0=no restart 2=restart with 2 vectors
   NREBOOT  =      0    no. of reboots
   NMIN     =      0    reboot dimension
   EREF     =   0.00    reference energy to select bands
   IMIX   =      4    mixing-type and parameters
     AMIX     =   0.40;   BMIX     =  1.00
     AMIX_MAG =   1.60;   BMIX_MAG =  1.00
     AMIN     =   0.10
     WC   =   100.;   INIMIX=   1;  MIXPRE=   1;  MAXMIX= -45

 Intra band minimization:
   WEIMIN = 0.0000     energy-eigenvalue tresh-hold
   EBREAK =  0.52E-08  absolut break condition
   DEPER  =   0.30     relativ break condition  

   TIME   =   0.40     timestep for ELM

  volume/ion in A,a.u.               =      10.22        68.97
  Fermi-wavevector in a.u.,A,eV,Ry     =   1.088021  2.056062 16.106441  1.183790
  Thomas-Fermi vector in A             =   2.224193
 
 Write flags
   LWAVE        =      F    write WAVECAR
   LDOWNSAMPLE  =      F    k-point downsampling of WAVECAR
   LCHARG       =      F    write CHGCAR
   LVTOT        =      F    write LOCPOT, total local potential
   LVHAR        =      F    write LOCPOT, Hartree potential only
   WRT_POTENTIAL= false  ! write potential to hdf5 file
   LELF         =      F    write electronic localiz. function (ELF)
   LORBIT       =      0    0 simple, 1 ext, 2 COOP (PROOUT), +10 PAW based schemes


 Dipole corrections
   LMONO      =      F    monopole corrections only (constant potential shift)
   LDIPOL     =      F    correct potential (dipole corrections)
   IDIPOL     =      0    1-x, 2-y, 3-z, 4-all directions 
   EPSILON    =  1.0000000 bulk dielectric constant
   LVACPOTAV  =      F  vacuum potentials using an averaging scheme for the charge density
   VACPOTFLAT =  0.1000000 required flatness to determine vacuum potential
 Exchange correlation treatment:
   GGA     = PE    functional components
   XC_C    = 1    coefficients multiplying the functional components
   LIBXC   =     F    Libxc                    
   VOSKOWN =     0    Vosko Wilk Nusair interpolation
   LHFCALC =     F    Hartree Fock is set to
   LHFONE  =     F    Hartree Fock one center treatment
   AEXX    =    0.0000 exact exchange contribution

 Parameters of functionals:
   PE:
     No parameter
 
 Van der Waals corrections
   IVDW    =     0    specifies the selected vdW correction

 Linear response parameters
   LEPSILON=     F    determine dielectric tensor
   LRPA    =     F    only Hartree local field effects (RPA)
   LNABLA  =     F    use nabla operator in PAW spheres
   LVEL    =     F    velocity operator in full k-point grid
   CSHIFT  =0.1000    complex shift for real part using Kramers Kronig
   OMEGAMAX=  -1.0    maximum frequency
   DEG_THRESHOLD= 0.2000000E-02 threshold for treating states as degnerate
   RTIME   =   -0.100 relaxation time in fs
  (WPLASMAI=    0.000 imaginary part of plasma frequency in eV, 0.658/RTIME)
   DFIELD  = 0.0000000 0.0000000 0.0000000 field for delta impulse in time
 
  Optional k-point grid parameters
   LKPOINTS_OPT  =     F    use optional k-point grid
   KPOINTS_OPT_MODE=     1    mode for optional k-point grid
 
 Orbital magnetization related:
   ORBITALMAG=     F  switch on orbital magnetization
   LCHIMAG   =     F  perturbation theory with respect to B field
   DQ        =  0.001000  dq finite difference perturbation B field
   LLRAUG    =     F  two centre corrections for induced B field
   LBONE     =     F  B-component reconstruction in AE one-centre
   LVGVCALC  =     T  calculate vGv susceptibility
   LVGVAPPL  =     F  apply vGv susceptibility instead of pGv for G=0

 Random number generation:
   RANDOM_GENERATOR = DEFAULT
   PCG_SEED         = not used


--------------------------------------------------------------------------------------------------------


 Static calculation
 charge density and potential will be updated during run
 non-spin polarized calculation
 Variant of blocked Davidson
 Davidson routine will perform the subspace rotation
 perform sub-space diagonalisation
    after iterative eigenvector-optimisation
 modified Broyden-mixing scheme, WC =      100.0
 initial mixing is a Kerker type mixing with AMIX =  0.4000 and BMIX =      1.0000
 Hartree-type preconditioning will be used
 using additional bands           27
 reciprocal scheme for non local part
 use partial core corrections
 calculate Harris-corrections to forces 
   (improved forces if not selfconsistent)
 use gradient corrections 
 use of overlap-Matrix (Vanderbilt PP)
 Gauss-broadening in eV      SIGMA  =   0.05


--------------------------------------------------------------------------------------------------------


  energy-cutoff  :      480.00
  volume of cell :      143.07
      direct lattice vectors                 reciprocal lattice vectors
     5.697000000  0.000000000  0.000000000     0.175530981  0.000000000  0.000000000
     0.000000000  4.047900000  0.000000000     0.000000000  0.247041676  0.000000000
     0.000000000  0.000000000  6.204200000     0.000000000  0.000000000  0.161181135

  length of vectors
     5.697000000  4.047900000  6.204200000     0.175530981  0.247041676  0.161181135


 
 k-points in units of 2pi/SCALE and weight: k-points                                
   0.00000000  0.00000000  0.00575647       0.000
   0.01170207  0.00000000  0.00575647       0.001
   0.02340413  0.00000000  0.00575647       0.001
   0.03510620  0.00000000  0.00575647       0.001
   0.04680826  0.00000000  0.00575647       0.001
   0.05851033  0.00000000  0.00575647       0.001
   0.07021239  0.00000000  0.00575647       0.001
   0.08191446  0.00000000  0.00575647       0.001
   0.00000000  0.01176389  0.00575647       0.001
   0.01170207  0.01176389  0.00575647       0.002
   0.02340413  0.01176389  0.00575647       0.002
   0.03510620  0.01176389  0.00575647       0.002
   0.04680826  0.01176389  0.00575647       0.002
   0.05851033  0.01176389  0.00575647       0.002
   0.07021239  0.01176389  0.00575647       0.002
   0.08191446  0.01176389  0.00575647       0.002
   0.00000000  0.02352778  0.00575647       0.001
   0.01170207  0.02352778  0.00575647       0.002
   0.02340413  0.02352778  0.00575647       0.002
   0.03510620  0.02352778  0.00575647       0.002
   0.04680826  0.02352778  0.00575647       0.002
   0.05851033  0.02352778  0.00575647       0.002
   0.07021239  0.02352778  0.00575647       0.002
   0.08191446  0.02352778  0.00575647       0.002
   0.00000000  0.03529167  0.00575647       0.001
   0.01170207  0.03529167  0.00575647       0.002
   0.02340413  0.03529167  0.00575647       0.002
   0.03510620  0.03529167  0.00575647       0.002
   0.04680826  0.03529167  0.00575647       0.002
   0.05851033  0.03529167  0.00575647       0.002
   0.07021239  0.03529167  0.00575647       0.002
   0.08191446  0.03529167  0.00575647       0.002
   0.00000000  0.04705556  0.00575647       0.001
   0.01170207  0.04705556  0.00575647       0.002
   0.02340413  0.04705556  0.00575647       0.002
   0.03510620  0.04705556  0.00575647       0.002
   0.04680826  0.04705556  0.00575647       0.002
   0.05851033  0.04705556  0.00575647       0.002
   0.07021239  0.04705556  0.00575647       0.002
   0.08191446  0.04705556  0.00575647       0.002
   0.00000000  0.05881945  0.00575647       0.001
   0.01170207  0.05881945  0.00575647       0.002
   0.02340413  0.05881945  0.00575647       0.002
   0.03510620  0.05881945  0.00575647       0.002
   0.04680826  0.05881945  0.00575647       0.002
   0.05851033  0.05881945  0.00575647       0.002
   0.07021239  0.05881945  0.00575647       0.002
   0.08191446  0.05881945  0.00575647       0.002
   0.00000000  0.07058334  0.00575647       0.001
   0.01170207  0.07058334  0.00575647       0.002
   0.02340413  0.07058334  0.00575647       0.002
   0.03510620  0.07058334  0.00575647       0.002
   0.04680826  0.07058334  0.00575647       0.002
   0.05851033  0.07058334  0.00575647       0.002
   0.07021239  0.07058334  0.00575647       0.002
   0.08191446  0.07058334  0.00575647       0.002
   0.00000000  0.08234723  0.00575647       0.001
   0.01170207  0.08234723  0.00575647       0.002
   0.02340413  0.08234723  0.00575647       0.002
   0.03510620  0.08234723  0.00575647       0.002
   0.04680826  0.08234723  0.00575647       0.002
   0.05851033  0.08234723  0.00575647       0.002
   0.07021239  0.08234723  0.00575647       0.002
   0.08191446  0.08234723  0.00575647       0.002
   0.00000000  0.09411111  0.00575647       0.001
   0.01170207  0.09411111  0.00575647       0.002
   0.02340413  0.09411111  0.00575647       0.002
   0.03510620  0.09411111  0.00575647       0.002
   0.04680826  0.09411111  0.00575647       0.002
   0.05851033  0.09411111  0.00575647       0.002
   0.07021239  0.09411111  0.00575647       0.002
   0.08191446  0.09411111  0.00575647       0.002
   0.00000000  0.10587500  0.00575647       0.001
   0.01170207  0.10587500  0.00575647       0.002
   0.02340413  0.10587500  0.00575647       0.002
[...]
 k-point   326 :   0.3333 0.3333 0.2500  plane waves:    3425
 k-point   327 :   0.4000 0.3333 0.2500  plane waves:    3422
 k-point   328 :   0.4667 0.3333 0.2500  plane waves:    3429
 k-point   329 :   0.0000 0.3810 0.2500  plane waves:    3414
 k-point   330 :   0.0667 0.3810 0.2500  plane waves:    3414
 k-point   331 :   0.1333 0.3810 0.2500  plane waves:    3413
 k-point   332 :   0.2000 0.3810 0.2500  plane waves:    3416
 k-point   333 :   0.2667 0.3810 0.2500  plane waves:    3428
 k-point   334 :   0.3333 0.3810 0.2500  plane waves:    3425
 k-point   335 :   0.4000 0.3810 0.2500  plane waves:    3426
 k-point   336 :   0.4667 0.3810 0.2500  plane waves:    3429
 k-point   337 :   0.0000 0.4286 0.2500  plane waves:    3410
 k-point   338 :   0.0667 0.4286 0.2500  plane waves:    3412
 k-point   339 :   0.1333 0.4286 0.2500  plane waves:    3420
 k-point   340 :   0.2000 0.4286 0.2500  plane waves:    3419
 k-point   341 :   0.2667 0.4286 0.2500  plane waves:    3424
 k-point   342 :   0.3333 0.4286 0.2500  plane waves:    3429
 k-point   343 :   0.4000 0.4286 0.2500  plane waves:    3426
 k-point   344 :   0.4667 0.4286 0.2500  plane waves:    3419
 k-point   345 :   0.0000 0.4762 0.2500  plane waves:    3404
 k-point   346 :   0.0667 0.4762 0.2500  plane waves:    3412
 k-point   347 :   0.1333 0.4762 0.2500  plane waves:    3424
 k-point   348 :   0.2000 0.4762 0.2500  plane waves:    3423
 k-point   349 :   0.2667 0.4762 0.2500  plane waves:    3421
 k-point   350 :   0.3333 0.4762 0.2500  plane waves:    3429
 k-point   351 :   0.4000 0.4762 0.2500  plane waves:    3411
 k-point   352 :   0.4667 0.4762 0.2500  plane waves:    3413
 k-point   353 :   0.0000 0.0000 0.3214  plane waves:    3428
 k-point   354 :   0.0667 0.0000 0.3214  plane waves:    3425
 k-point   355 :   0.1333 0.0000 0.3214  plane waves:    3421
 k-point   356 :   0.2000 0.0000 0.3214  plane waves:    3411
 k-point   357 :   0.2667 0.0000 0.3214  plane waves:    3403
 k-point   358 :   0.3333 0.0000 0.3214  plane waves:    3416
 k-point   359 :   0.4000 0.0000 0.3214  plane waves:    3421
 k-point   360 :   0.4667 0.0000 0.3214  plane waves:    3421
 k-point   361 :   0.0000 0.0476 0.3214  plane waves:    3417
 k-point   362 :   0.0667 0.0476 0.3214  plane waves:    3423
 k-point   363 :   0.1333 0.0476 0.3214  plane waves:    3416
 k-point   364 :   0.2000 0.0476 0.3214  plane waves:    3413
 k-point   365 :   0.2667 0.0476 0.3214  plane waves:    3415
 k-point   366 :   0.3333 0.0476 0.3214  plane waves:    3415
 k-point   367 :   0.4000 0.0476 0.3214  plane waves:    3419
 k-point   368 :   0.4667 0.0476 0.3214  plane waves:    3416
 k-point   369 :   0.0000 0.0952 0.3214  plane waves:    3425
 k-point   370 :   0.0667 0.0952 0.3214  plane waves:    3420
 k-point   371 :   0.1333 0.0952 0.3214  plane waves:    3418
 k-point   372 :   0.2000 0.0952 0.3214  plane waves:    3422
 k-point   373 :   0.2667 0.0952 0.3214  plane waves:    3420
 k-point   374 :   0.3333 0.0952 0.3214  plane waves:    3417
 k-point   375 :   0.4000 0.0952 0.3214  plane waves:    3412
 k-point   376 :   0.4667 0.0952 0.3214  plane waves:    3421
 k-point   377 :   0.0000 0.1429 0.3214  plane waves:    3424
 k-point   378 :   0.0667 0.1429 0.3214  plane waves:    3426
 k-point   379 :   0.1333 0.1429 0.3214  plane waves:    3425
 k-point   380 :   0.2000 0.1429 0.3214  plane waves:    3423
 k-point   381 :   0.2667 0.1429 0.3214  plane waves:    3415
 k-point   382 :   0.3333 0.1429 0.3214  plane waves:    3419
 k-point   383 :   0.4000 0.1429 0.3214  plane waves:    3413
 k-point   384 :   0.4667 0.1429 0.3214  plane waves:    3407
 k-point   385 :   0.0000 0.1905 0.3214  plane waves:    3429
 k-point   386 :   0.0667 0.1905 0.3214  plane waves:    3418
 k-point   387 :   0.1333 0.1905 0.3214  plane waves:    3416
 k-point   388 :   0.2000 0.1905 0.3214  plane waves:    3418
 k-point   389 :   0.2667 0.1905 0.3214  plane waves:    3409
 k-point   390 :   0.3333 0.1905 0.3214  plane waves:    3415
 k-point   391 :   0.4000 0.1905 0.3214  plane waves:    3410
 k-point   392 :   0.4667 0.1905 0.3214  plane waves:    3420
 k-point   393 :   0.0000 0.2381 0.3214  plane waves:    3421
 k-point   394 :   0.0667 0.2381 0.3214  plane waves:    3418
 k-point   395 :   0.1333 0.2381 0.3214  plane waves:    3414
 k-point   396 :   0.2000 0.2381 0.3214  plane waves:    3409
 k-point   397 :   0.2667 0.2381 0.3214  plane waves:    3408
 k-point   398 :   0.3333 0.2381 0.3214  plane waves:    3415
 k-point   399 :   0.4000 0.2381 0.3214  plane waves:    3416
 k-point   400 :   0.4667 0.2381 0.3214  plane waves:    3425
 k-point   401 :   0.0000 0.2857 0.3214  plane waves:    3415
 k-point   402 :   0.0667 0.2857 0.3214  plane waves:    3413
 k-point   403 :   0.1333 0.2857 0.3214  plane waves:    3416
 k-point   404 :   0.2000 0.2857 0.3214  plane waves:    3411
 k-point   405 :   0.2667 0.2857 0.3214  plane waves:    3409
 k-point   406 :   0.3333 0.2857 0.3214  plane waves:    3419
 k-point   407 :   0.4000 0.2857 0.3214  plane waves:    3429
 k-point   408 :   0.4667 0.2857 0.3214  plane waves:    3429
 k-point   409 :   0.0000 0.3333 0.3214  plane waves:    3413
 k-point   410 :   0.0667 0.3333 0.3214  plane waves:    3407
 k-point   411 :   0.1333 0.3333 0.3214  plane waves:    3415
 k-point   412 :   0.2000 0.3333 0.3214  plane waves:    3416
 k-point   413 :   0.2667 0.3333 0.3214  plane waves:    3420
 k-point   414 :   0.3333 0.3333 0.3214  plane waves:    3422
 k-point   415 :   0.4000 0.3333 0.3214  plane waves:    3429
 k-point   416 :   0.4667 0.3333 0.3214  plane waves:    3431
 k-point   417 :   0.0000 0.3810 0.3214  plane waves:    3416
 k-point   418 :   0.0667 0.3810 0.3214  plane waves:    3414
 k-point   419 :   0.1333 0.3810 0.3214  plane waves:    3413
 k-point   420 :   0.2000 0.3810 0.3214  plane waves:    3415
 k-point   421 :   0.2667 0.3810 0.3214  plane waves:    3426
 k-point   422 :   0.3333 0.3810 0.3214  plane waves:    3429
 k-point   423 :   0.4000 0.3810 0.3214  plane waves:    3427
 k-point   424 :   0.4667 0.3810 0.3214  plane waves:    3424
 k-point   425 :   0.0000 0.4286 0.3214  plane waves:    3412
 k-point   426 :   0.0667 0.4286 0.3214  plane waves:    3415
 k-point   427 :   0.1333 0.4286 0.3214  plane waves:    3416
 k-point   428 :   0.2000 0.4286 0.3214  plane waves:    3423
 k-point   429 :   0.2667 0.4286 0.3214  plane waves:    3421
 k-point   430 :   0.3333 0.4286 0.3214  plane waves:    3424
 k-point   431 :   0.4000 0.4286 0.3214  plane waves:    3421
 k-point   432 :   0.4667 0.4286 0.3214  plane waves:    3420
 k-point   433 :   0.0000 0.4762 0.3214  plane waves:    3412
 k-point   434 :   0.0667 0.4762 0.3214  plane waves:    3418
 k-point   435 :   0.1333 0.4762 0.3214  plane waves:    3422
 k-point   436 :   0.2000 0.4762 0.3214  plane waves:    3428
 k-point   437 :   0.2667 0.4762 0.3214  plane waves:    3420
 k-point   438 :   0.3333 0.4762 0.3214  plane waves:    3421
 k-point   439 :   0.4000 0.4762 0.3214  plane waves:    3421
 k-point   440 :   0.4667 0.4762 0.3214  plane waves:    3421
 k-point   441 :   0.0000 0.0000 0.3929  plane waves:    3432
 k-point   442 :   0.0667 0.0000 0.3929  plane waves:    3436
 k-point   443 :   0.1333 0.0000 0.3929  plane waves:    3435
 k-point   444 :   0.2000 0.0000 0.3929  plane waves:    3430
 k-point   445 :   0.2667 0.0000 0.3929  plane waves:    3418
 k-point   446 :   0.3333 0.0000 0.3929  plane waves:    3418
 k-point   447 :   0.4000 0.0000 0.3929  plane waves:    3417
 k-point   448 :   0.4667 0.0000 0.3929  plane waves:    3414
 k-point   449 :   0.0000 0.0476 0.3929  plane waves:    3431
 k-point   450 :   0.0667 0.0476 0.3929  plane waves:    3432
 k-point   451 :   0.1333 0.0476 0.3929  plane waves:    3429
 k-point   452 :   0.2000 0.0476 0.3929  plane waves:    3420
 k-point   453 :   0.2667 0.0476 0.3929  plane waves:    3417
 k-point   454 :   0.3333 0.0476 0.3929  plane waves:    3415
 k-point   455 :   0.4000 0.0476 0.3929  plane waves:    3420
 k-point   456 :   0.4667 0.0476 0.3929  plane waves:    3415
 k-point   457 :   0.0000 0.0952 0.3929  plane waves:    3423
 k-point   458 :   0.0667 0.0952 0.3929  plane waves:    3428
 k-point   459 :   0.1333 0.0952 0.3929  plane waves:    3423
 k-point   460 :   0.2000 0.0952 0.3929  plane waves:    3425
 k-point   461 :   0.2667 0.0952 0.3929  plane waves:    3419
 k-point   462 :   0.3333 0.0952 0.3929  plane waves:    3412
 k-point   463 :   0.4000 0.0952 0.3929  plane waves:    3416
 k-point   464 :   0.4667 0.0952 0.3929  plane waves:    3408
 k-point   465 :   0.0000 0.1429 0.3929  plane waves:    3427
 k-point   466 :   0.0667 0.1429 0.3929  plane waves:    3431
 k-point   467 :   0.1333 0.1429 0.3929  plane waves:    3424
 k-point   468 :   0.2000 0.1429 0.3929  plane waves:    3426
 k-point   469 :   0.2667 0.1429 0.3929  plane waves:    3418
 k-point   470 :   0.3333 0.1429 0.3929  plane waves:    3414
 k-point   471 :   0.4000 0.1429 0.3929  plane waves:    3408
 k-point   472 :   0.4667 0.1429 0.3929  plane waves:    3416
 k-point   473 :   0.0000 0.1905 0.3929  plane waves:    3427
 k-point   474 :   0.0667 0.1905 0.3929  plane waves:    3426
 k-point   475 :   0.1333 0.1905 0.3929  plane waves:    3420
 k-point   476 :   0.2000 0.1905 0.3929  plane waves:    3412
 k-point   477 :   0.2667 0.1905 0.3929  plane waves:    3414
 k-point   478 :   0.3333 0.1905 0.3929  plane waves:    3417
 k-point   479 :   0.4000 0.1905 0.3929  plane waves:    3413
 k-point   480 :   0.4667 0.1905 0.3929  plane waves:    3416
 k-point   481 :   0.0000 0.2381 0.3929  plane waves:    3415
 k-point   482 :   0.0667 0.2381 0.3929  plane waves:    3415
 k-point   483 :   0.1333 0.2381 0.3929  plane waves:    3414
 k-point   484 :   0.2000 0.2381 0.3929  plane waves:    3405
 k-point   485 :   0.2667 0.2381 0.3929  plane waves:    3416
 k-point   486 :   0.3333 0.2381 0.3929  plane waves:    3416
 k-point   487 :   0.4000 0.2381 0.3929  plane waves:    3414
 k-point   488 :   0.4667 0.2381 0.3929  plane waves:    3424
 k-point   489 :   0.0000 0.2857 0.3929  plane waves:    3419
 k-point   490 :   0.0667 0.2857 0.3929  plane waves:    3410
 k-point   491 :   0.1333 0.2857 0.3929  plane waves:    3411
 k-point   492 :   0.2000 0.2857 0.3929  plane waves:    3407
 k-point   493 :   0.2667 0.2857 0.3929  plane waves:    3422
 k-point   494 :   0.3333 0.2857 0.3929  plane waves:    3424
 k-point   495 :   0.4000 0.2857 0.3929  plane waves:    3417
 k-point   496 :   0.4667 0.2857 0.3929  plane waves:    3418
 k-point   497 :   0.0000 0.3333 0.3929  plane waves:    3408
 k-point   498 :   0.0667 0.3333 0.3929  plane waves:    3407
 k-point   499 :   0.1333 0.3333 0.3929  plane waves:    3410
 k-point   500 :   0.2000 0.3333 0.3929  plane waves:    3411
 k-point   501 :   0.2667 0.3333 0.3929  plane waves:    3421
 k-point   502 :   0.3333 0.3333 0.3929  plane waves:    3424
 k-point   503 :   0.4000 0.3333 0.3929  plane waves:    3425
 k-point   504 :   0.4667 0.3333 0.3929  plane waves:    3420
 k-point   505 :   0.0000 0.3810 0.3929  plane waves:    3409
 k-point   506 :   0.0667 0.3810 0.3929  plane waves:    3412
 k-point   507 :   0.1333 0.3810 0.3929  plane waves:    3416
 k-point   508 :   0.2000 0.3810 0.3929  plane waves:    3421
 k-point   509 :   0.2667 0.3810 0.3929  plane waves:    3421
 k-point   510 :   0.3333 0.3810 0.3929  plane waves:    3425
 k-point   511 :   0.4000 0.3810 0.3929  plane waves:    3420
 k-point   512 :   0.4667 0.3810 0.3929  plane waves:    3421
 k-point   513 :   0.0000 0.4286 0.3929  plane waves:    3414
 k-point   514 :   0.0667 0.4286 0.3929  plane waves:    3414
 k-point   515 :   0.1333 0.4286 0.3929  plane waves:    3424
 k-point   516 :   0.2000 0.4286 0.3929  plane waves:    3426
 k-point   517 :   0.2667 0.4286 0.3929  plane waves:    3426
 k-point   518 :   0.3333 0.4286 0.3929  plane waves:    3417
 k-point   519 :   0.4000 0.4286 0.3929  plane waves:    3420
 k-point   520 :   0.4667 0.4286 0.3929  plane waves:    3425
 k-point   521 :   0.0000 0.4762 0.3929  plane waves:    3431
 k-point   522 :   0.0667 0.4762 0.3929  plane waves:    3424
 k-point   523 :   0.1333 0.4762 0.3929  plane waves:    3425
 k-point   524 :   0.2000 0.4762 0.3929  plane waves:    3428
 k-point   525 :   0.2667 0.4762 0.3929  plane waves:    3428
 k-point   526 :   0.3333 0.4762 0.3929  plane waves:    3420
 k-point   527 :   0.4000 0.4762 0.3929  plane waves:    3418
 k-point   528 :   0.4667 0.4762 0.3929  plane waves:    3425
 k-point   529 :   0.0000 0.0000 0.4643  plane waves:    3430
 k-point   530 :   0.0667 0.0000 0.4643  plane waves:    3438
 k-point   531 :   0.1333 0.0000 0.4643  plane waves:    3434
 k-point   532 :   0.2000 0.0000 0.4643  plane waves:    3430
 k-point   533 :   0.2667 0.0000 0.4643  plane waves:    3421
 k-point   534 :   0.3333 0.0000 0.4643  plane waves:    3424
 k-point   535 :   0.4000 0.0000 0.4643  plane waves:    3410
 k-point   536 :   0.4667 0.0000 0.4643  plane waves:    3410
 k-point   537 :   0.0000 0.0476 0.4643  plane waves:    3431
 k-point   538 :   0.0667 0.0476 0.4643  plane waves:    3433
 k-point   539 :   0.1333 0.0476 0.4643  plane waves:    3427
 k-point   540 :   0.2000 0.0476 0.4643  plane waves:    3424
 k-point   541 :   0.2667 0.0476 0.4643  plane waves:    3431
 k-point   542 :   0.3333 0.0476 0.4643  plane waves:    3419
 k-point   543 :   0.4000 0.0476 0.4643  plane waves:    3413
 k-point   544 :   0.4667 0.0476 0.4643  plane waves:    3407
 k-point   545 :   0.0000 0.0952 0.4643  plane waves:    3428
 k-point   546 :   0.0667 0.0952 0.4643  plane waves:    3427
 k-point   547 :   0.1333 0.0952 0.4643  plane waves:    3426
 k-point   548 :   0.2000 0.0952 0.4643  plane waves:    3426
 k-point   549 :   0.2667 0.0952 0.4643  plane waves:    3421
 k-point   550 :   0.3333 0.0952 0.4643  plane waves:    3420
 k-point   551 :   0.4000 0.0952 0.4643  plane waves:    3412
 k-point   552 :   0.4667 0.0952 0.4643  plane waves:    3406
 k-point   553 :   0.0000 0.1429 0.4643  plane waves:    3428
 k-point   554 :   0.0667 0.1429 0.4643  plane waves:    3423
 k-point   555 :   0.1333 0.1429 0.4643  plane waves:    3423
 k-point   556 :   0.2000 0.1429 0.4643  plane waves:    3421
 k-point   557 :   0.2667 0.1429 0.4643  plane waves:    3422
 k-point   558 :   0.3333 0.1429 0.4643  plane waves:    3414
 k-point   559 :   0.4000 0.1429 0.4643  plane waves:    3412
 k-point   560 :   0.4667 0.1429 0.4643  plane waves:    3414
 k-point   561 :   0.0000 0.1905 0.4643  plane waves:    3432
 k-point   562 :   0.0667 0.1905 0.4643  plane waves:    3429
 k-point   563 :   0.1333 0.1905 0.4643  plane waves:    3426
 k-point   564 :   0.2000 0.1905 0.4643  plane waves:    3416
 k-point   565 :   0.2667 0.1905 0.4643  plane waves:    3418
 k-point   566 :   0.3333 0.1905 0.4643  plane waves:    3410
 k-point   567 :   0.4000 0.1905 0.4643  plane waves:    3411
 k-point   568 :   0.4667 0.1905 0.4643  plane waves:    3422
 k-point   569 :   0.0000 0.2381 0.4643  plane waves:    3419
 k-point   570 :   0.0667 0.2381 0.4643  plane waves:    3423
 k-point   571 :   0.1333 0.2381 0.4643  plane waves:    3411
 k-point   572 :   0.2000 0.2381 0.4643  plane waves:    3411
 k-point   573 :   0.2667 0.2381 0.4643  plane waves:    3410
 k-point   574 :   0.3333 0.2381 0.4643  plane waves:    3409
 k-point   575 :   0.4000 0.2381 0.4643  plane waves:    3416
 k-point   576 :   0.4667 0.2381 0.4643  plane waves:    3427
 k-point   577 :   0.0000 0.2857 0.4643  plane waves:    3415
 k-point   578 :   0.0667 0.2857 0.4643  plane waves:    3408
 k-point   579 :   0.1333 0.2857 0.4643  plane waves:    3403
 k-point   580 :   0.2000 0.2857 0.4643  plane waves:    3413
 k-point   581 :   0.2667 0.2857 0.4643  plane waves:    3414
 k-point   582 :   0.3333 0.2857 0.4643  plane waves:    3418
 k-point   583 :   0.4000 0.2857 0.4643  plane waves:    3421
 k-point   584 :   0.4667 0.2857 0.4643  plane waves:    3426
 k-point   585 :   0.0000 0.3333 0.4643  plane waves:    3423
 k-point   586 :   0.0667 0.3333 0.4643  plane waves:    3411
 k-point   587 :   0.1333 0.3333 0.4643  plane waves:    3417
 k-point   588 :   0.2000 0.3333 0.4643  plane waves:    3411
 k-point   589 :   0.2667 0.3333 0.4643  plane waves:    3415
 k-point   590 :   0.3333 0.3333 0.4643  plane waves:    3419
 k-point   591 :   0.4000 0.3333 0.4643  plane waves:    3421
 k-point   592 :   0.4667 0.3333 0.4643  plane waves:    3411
 k-point   593 :   0.0000 0.3810 0.4643  plane waves:    3418
 k-point   594 :   0.0667 0.3810 0.4643  plane waves:    3421
 k-point   595 :   0.1333 0.3810 0.4643  plane waves:    3420
 k-point   596 :   0.2000 0.3810 0.4643  plane waves:    3415
 k-point   597 :   0.2667 0.3810 0.4643  plane waves:    3415
 k-point   598 :   0.3333 0.3810 0.4643  plane waves:    3415
 k-point   599 :   0.4000 0.3810 0.4643  plane waves:    3415
 k-point   600 :   0.4667 0.3810 0.4643  plane waves:    3411
 k-point   601 :   0.0000 0.4286 0.4643  plane waves:    3434
 k-point   602 :   0.0667 0.4286 0.4643  plane waves:    3423
 k-point   603 :   0.1333 0.4286 0.4643  plane waves:    3425
 k-point   604 :   0.2000 0.4286 0.4643  plane waves:    3426
 k-point   605 :   0.2667 0.4286 0.4643  plane waves:    3415
 k-point   606 :   0.3333 0.4286 0.4643  plane waves:    3417
 k-point   607 :   0.4000 0.4286 0.4643  plane waves:    3422
 k-point   608 :   0.4667 0.4286 0.4643  plane waves:    3422
 k-point   609 :   0.0000 0.4762 0.4643  plane waves:    3422
 k-point   610 :   0.0667 0.4762 0.4643  plane waves:    3424
 k-point   611 :   0.1333 0.4762 0.4643  plane waves:    3435
 k-point   612 :   0.2000 0.4762 0.4643  plane waves:    3431
 k-point   613 :   0.2667 0.4762 0.4643  plane waves:    3423
 k-point   614 :   0.3333 0.4762 0.4643  plane waves:    3413
 k-point   615 :   0.4000 0.4762 0.4643  plane waves:    3425
 k-point   616 :   0.4667 0.4762 0.4643  plane waves:    3428

 maximum and minimum number of plane-waves per node :      3438     3392

 maximum number of plane-waves:      3438
 maximum index in each direction: 
   IXMAX=   10   IYMAX=    7   IZMAX=   11
   IXMIN=  -10   IYMIN=   -7   IZMIN=  -11


 serial   3D FFT for wavefunctions
 parallel 3D FFT for charge:
    minimum data exchange during FFTs selected (reduces bandwidth)


 total amount of memory used by VASP MPI-rank0   242135. kBytes
=======================================================================

   base      :      30000. kBytes
   nonl-proj :     137023. kBytes
   fftplans  :       1019. kBytes
   grid      :       3560. kBytes
   one-center:         43. kBytes
   wavefun   :      70490. kBytes
 
     INWAV:  cpu time      0.0000: real time      0.0000
 Broyden mixing: mesh for mixing (old mesh)
   NGX = 21   NGY = 15   NGZ = 23
  (NGX  = 84   NGY  = 60   NGZ  = 96)
  gives a total of   7245 points

 initial charge density was supplied:
 charge density of overlapping atoms calculated
 number of electron      42.0000000 magnetization 
 keeping initial charge density in first step


--------------------------------------------------------------------------------------------------------


 Maximum index for augmentation-charges          566 (set IRDMAX)


--------------------------------------------------------------------------------------------------------


 First call to EWALD:  gamma=   0.339
 Maximum number of real-space cells 3x 3x 2
 Maximum number of reciprocal cells 3x 2x 3

    FEWALD:  cpu time      0.0027: real time      0.0027


--------------------------------------- Ionic step        1  -------------------------------------------




--------------------------------------- Iteration      1(   1)  ---------------------------------------


    POTLOK:  cpu time      0.0230: real time      0.0237
    SETDIJ:  cpu time      0.0028: real time      0.0028
