       N       E                     dE             d eps       ncg     rms          rms(c)
DAV:   1     0.477335863354E+02    0.47734E+02   -0.17002E+04 31104   0.688E+02
DAV:   2    -0.931524990875E+02   -0.14089E+03   -0.13279E+03 43344   0.146E+02
DAV:   3    -0.975826964911E+02   -0.44302E+01   -0.44108E+01 45168   0.232E+01
DAV:   4    -0.976082742161E+02   -0.25578E-01   -0.25576E-01 38616   0.201E+00
DAV:   5    -0.976085695747E+02   -0.29536E-03   -0.29535E-03 45144   0.209E-01    0.123E+01
DAV:   6    -0.921957359026E+02    0.54128E+01   -0.39865E+00 45048   0.658E+00    0.677E+00
DAV:   7    -0.905504927066E+02    0.16452E+01   -0.31599E+00 46512   0.580E+00    0.176E+00
DAV:   8    -0.905567870892E+02   -0.62944E-02   -0.22029E-01 34872   0.159E+00    0.849E-01
DAV:   9    -0.905719370951E+02   -0.15150E-01   -0.20663E-02 43176   0.507E-01    0.220E-01
DAV:  10    -0.905767169042E+02   -0.47798E-02   -0.34529E-03 35184   0.205E-01    0.817E-02
DAV:  11    -0.905781926495E+02   -0.14757E-02   -0.85196E-04 40152   0.101E-01    0.335E-02
DAV:  12    -0.905783047112E+02   -0.11206E-03   -0.77691E-05 40944   0.336E-02    0.783E-03
DAV:  13    -0.905783206824E+02   -0.15971E-04   -0.13521E-05 41040   0.136E-02    0.221E-03
DAV:  14    -0.905783216834E+02   -0.10010E-05   -0.75175E-07 41088   0.362E-03    0.863E-04
DAV:  15    -0.905783219439E+02   -0.26051E-06   -0.16571E-07 36336   0.167E-03
   1 F= -.90578322E+02 E0= -.90576320E+02  d E =-.400427E-02
