 vasp.6.4.3 19Mar24 (build May 31 2024 16:31:43) complex                        
  
 executed on             LinuxIFC date 2024.10.31  00:22:41
 running   24 mpi-ranks, with    1 threads/rank, on    1 nodes
 distrk:  each k-point on   24 cores,    1 groups
 distr:  one band on NCORE=   1 cores,   24 groups


--------------------------------------------------------------------------------------------------------


 INCAR:
   SYSTEM = Kpoints
   ISTART = 0
   ICHARG = 2
   PREC = Accurate
   ENCUT = 480
   LCHARG = .FALSE.
   LWAVE = .FALSE.
   ALGO = Normal
   NELM = 100
   EDIFF = 1E-6
   EDIFFG = -1E-3
   SIGMA = 0.05
   ISMEAR = 0
   ISPIN = 1
   NSW = 0
   IBRION = -1
   POTIM = .5
   ISIF = 2
   GGA = PE

 POTCAR:    PAW_PBE B 06Sep2000                   
 POTCAR:    PAW_PBE B 06Sep2000                   
   SHA256 =  a32ced30f5ae56fd4d10b4325ff17eb3e4e38ee0f4288bc219fb012fddfa6e97 B/POTCAR              
   COPYR  = (c) Copyright 06Sep2000 Georg Kresse                                                    
   COPYR  = This file is part of the software VASP. Any use, copying, and all other rights are regul
   COPYR  = If you do not have a valid VASP license, you may not use, copy or distribute this file. 
   VRHFIN =B: s2p1                                                                                  
   LEXCH  = PE                                                                                      
   EATOM  =    71.1703 eV,    5.2309 Ry                                                             
                                                                                                    
   TITEL  = PAW_PBE B 06Sep2000                                                                     
   LULTRA =        F    use ultrasoft PP ?                                                          
   IUNSCR =        1    unscreen: 0-lin 1-nonlin 2-no                                               
   RPACOR =    1.200    partial core radius                                                         
   POMASS =   10.811; ZVAL   =    3.000    mass and valenz                                          
   RCORE  =    1.700    outmost cutoff radius                                                       
   RWIGS  =    1.710; RWIGS  =    0.905    wigner-seitz radius (au A)                               
   ENMAX  =  318.614; ENMIN  =  238.960 eV                                                          
   ICORE  =        2    local potential                                                             
   LCOR   =        T    correct aug charges                                                         
   LPAW   =        T    paw PP                                                                      
   EAUG   =  535.514                                                                                
   DEXC   =    0.000                                                                                
   RMAX   =    1.732    core radius for proj-oper                                                   
   RAUG   =    1.300    factor for augmentation sphere                                              
   RDEP   =    1.757    radius for radial grids                                                     
   RDEPT  =    1.436    core radius for aug-charge                                                  
                                                                                                    
   Atomic configuration                                                                             
    4 entries                                                                                       
     n  l   j            E        occ.                                                              
     1  0  0.50      -180.5896   2.0000                                                             
     2  0  0.50        -9.4431   2.0000                                                             
     2  1  0.50        -3.6068   1.0000                                                             
     3  2  1.50        -4.0817   0.0000                                                             
   Description                                                                                      
     l       E           TYP  RCUT    TYP  RCUT                                                     
     0     -9.4430752     23  1.500                                                                 
     0      0.8675899     23  1.500                                                                 
     1     -3.6067955     23  1.700                                                                 
     1      6.1086146     23  1.700                                                                 
     2     -4.0817478      7  1.700                                                                 
  local pseudopotential read in
  partial core-charges read in
  partial kinetic energy density read in
  atomic valenz-charges read in
  non local Contribution for L=           0  read in
    real space projection operators read in
  non local Contribution for L=           0  read in
    real space projection operators read in
  non local Contribution for L=           1  read in
    real space projection operators read in
  non local Contribution for L=           1  read in
    real space projection operators read in
    PAW grid and wavefunctions read in
 
   number of l-projection  operators is LMAX  =           4
   number of lm-projection operators is LMMAX =           8
 
  PAW_PBE B 06Sep2000                   :
 energy of atom  1       EATOM=  -71.1703
 kinetic energy error for atom=    0.0013 (will be added to EATOM!!)
 
 
 POSCAR: o-B14
  positions in direct lattice
  No initial velocities read in


 exchange-correlation table for PE
   RHO(1)=    0.500       N(1)  =     2000
   RHO(2)=  100.500       N(2)  =     4000
 


--------------------------------------------------------------------------------------------------------


 ion  position               nearest neighbor table
   1  0.521  0.500  0.638-  14 1.64   5 1.69  13 1.70   2 1.73   9 1.85  11 1.85
   2  0.479  0.500  0.362-  13 1.64   6 1.69  14 1.70   1 1.73  10 1.85  12 1.85
   3  0.979  0.500  0.638-  14 1.64   7 1.69  13 1.70   4 1.73   9 1.85  11 1.85
   4  0.021  0.500  0.362-  13 1.64   8 1.69  14 1.70   3 1.73  10 1.85  12 1.85
   5  0.601  0.500  0.900-   1 1.69   6 1.69   7 1.70   9 1.80  11 1.80
   6  0.399  0.500  0.100-   2 1.69   5 1.69   8 1.70  10 1.80  12 1.80
   7  0.899  0.500  0.900-   3 1.69   8 1.69   5 1.70   9 1.80  11 1.80
   8  0.101  0.500  0.100-   4 1.69   7 1.69   6 1.70  10 1.80  12 1.80
   9  0.750  0.792  0.730-  11 1.69   7 1.80   5 1.80   3 1.85   1 1.85  14 1.97
  10  0.250  0.208  0.270-  12 1.69   8 1.80   6 1.80   4 1.85   2 1.85  13 1.97
  11  0.750  0.208  0.730-   9 1.69   7 1.80   5 1.80   3 1.85   1 1.85  14 1.97
  12  0.250  0.792  0.270-  10 1.69   8 1.80   6 1.80   4 1.85   2 1.85  13 1.97
  13  0.250  0.500  0.524-   2 1.64   4 1.64   3 1.70   1 1.70  10 1.97  12 1.97
  14  0.750  0.500  0.476-   1 1.64   3 1.64   2 1.70   4 1.70   9 1.97  11 1.97
 
  LATTYP: Found a simple orthorhombic cell.
 ALAT       =     4.0479000000
 B/A-ratio  =     1.4073964278
 C/A-ratio  =     1.5326959658
  
  Lattice vectors:
  
 A1 = (   0.0000000000,  -4.0479000000,   0.0000000000)
 A2 = (   5.6970000000,   0.0000000000,   0.0000000000)
 A3 = (   0.0000000000,   0.0000000000,   6.2042000000)


Analysis of symmetry for initial positions (statically):
=====================================================================
 Subroutine PRICEL returns:
 Original cell was already a primitive cell.
 

 Routine SETGRP: Setting up the symmetry group for a 
 simple orthorhombic supercell.


 Subroutine GETGRP returns: Found  8 space group operations
 (whereof  4 operations were pure point group operations)
 out of a pool of  8 trial point group operations.


The static configuration has the point symmetry C_2h.
 The point group associated with its full space group is D_2h.


Analysis of symmetry for dynamics (positions and initial velocities):
=====================================================================
 Subroutine PRICEL returns:
 Original cell was already a primitive cell.
 

 Routine SETGRP: Setting up the symmetry group for a 
 simple orthorhombic supercell.


 Subroutine GETGRP returns: Found  8 space group operations
 (whereof  4 operations were pure point group operations)
 out of a pool of  8 trial point group operations.


The dynamic configuration has the point symmetry C_2h.
 The point group associated with its full space group is D_2h.


 Subroutine INISYM returns: Found  8 space group operations
 (whereof  4 operations are pure point group operations),
 and found     1 'primitive' translations


----------------------------------------------------------------------------------------

                                     Primitive cell                                     

  volume of cell :     143.0744

  direct lattice vectors                    reciprocal lattice vectors
     5.697000000  0.000000000  0.000000000     0.175530981  0.000000000  0.000000000
     0.000000000  4.047900000  0.000000000     0.000000000  0.247041676  0.000000000
     0.000000000  0.000000000  6.204200000     0.000000000  0.000000000  0.161181135

  length of vectors
     5.697000000  4.047900000  6.204200000     0.175530981  0.247041676  0.161181135

  position of ions in fractional coordinates (direct lattice)
     0.521230000  0.500000000  0.637960000
     0.478770000  0.500000000  0.362040000
     0.978770000  0.500000000  0.637960000
     0.021230000  0.500000000  0.362040000
     0.600900000  0.500000000  0.899910000
     0.399100000  0.500000000  0.100090000
     0.899100000  0.500000000  0.899910000
     0.100900000  0.500000000  0.100090000
     0.750000000  0.791710000  0.729730000
     0.250000000  0.208290000  0.270270000
     0.750000000  0.208290000  0.729730000
     0.250000000  0.791710000  0.270270000
     0.250000000  0.500000000  0.523670000
     0.750000000  0.500000000  0.476330000

  ion indices of the primitive-cell ions
   primitive index   ion index
                 1           1
                 2           2
                 3           3
                 4           4
                 5           5
                 6           6
                 7           7
                 8           8
                 9           9
                10          10
                11          11
                12          12
                13          13
                14          14

----------------------------------------------------------------------------------------

 
 
 KPOINTS: k-points                                

Automatic generation of k-mesh.
 Grid dimensions read from file:
 generate k-points for:   12   17   11

 Generating k-lattice:

  Cartesian coordinates                     Fractional coordinates (reciprocal lattice)
     0.014627582  0.000000000  0.000000000     0.083333333  0.000000000  0.000000000
     0.000000000  0.014531863  0.000000000     0.000000000  0.058823529  0.000000000
     0.000000000  0.000000000  0.014652830     0.000000000  0.000000000  0.090909091

  Length of vectors
     0.014627582  0.014531863  0.014652830

  Shift w.r.t. Gamma in fractional coordinates (k-lattice)
     0.500000000  0.000000000  0.000000000

 
 Subroutine IBZKPT returns following result:
 ===========================================
 
 Found    324 irreducible k-points:
 
 Following reciprocal coordinates:
            Coordinates               Weight
  0.041667  0.000000  0.000000      2.000000
  0.125000  0.000000  0.000000      2.000000
  0.208333  0.000000  0.000000      2.000000
  0.291667  0.000000  0.000000      2.000000
  0.375000  0.000000  0.000000      2.000000
  0.458333  0.000000  0.000000      2.000000
  0.041667  0.058824  0.000000      4.000000
  0.125000  0.058824  0.000000      4.000000
  0.208333  0.058824  0.000000      4.000000
  0.291667  0.058824  0.000000      4.000000
  0.375000  0.058824  0.000000      4.000000
  0.458333  0.058824  0.000000      4.000000
  0.041667  0.117647  0.000000      4.000000
  0.125000  0.117647  0.000000      4.000000
  0.208333  0.117647  0.000000      4.000000
  0.291667  0.117647  0.000000      4.000000
  0.375000  0.117647  0.000000      4.000000
  0.458333  0.117647  0.000000      4.000000
  0.041667  0.176471  0.000000      4.000000
  0.125000  0.176471  0.000000      4.000000
  0.208333  0.176471  0.000000      4.000000
  0.291667  0.176471  0.000000      4.000000
  0.375000  0.176471  0.000000      4.000000
  0.458333  0.176471  0.000000      4.000000
  0.041667  0.235294  0.000000      4.000000
  0.125000  0.235294  0.000000      4.000000
  0.208333  0.235294  0.000000      4.000000
  0.291667  0.235294  0.000000      4.000000
  0.375000  0.235294  0.000000      4.000000
  0.458333  0.235294  0.000000      4.000000
  0.041667  0.294118  0.000000      4.000000
  0.125000  0.294118  0.000000      4.000000
  0.208333  0.294118  0.000000      4.000000
  0.291667  0.294118  0.000000      4.000000
  0.375000  0.294118  0.000000      4.000000
  0.458333  0.294118  0.000000      4.000000
  0.041667  0.352941  0.000000      4.000000
  0.125000  0.352941  0.000000      4.000000
  0.208333  0.352941  0.000000      4.000000
  0.291667  0.352941  0.000000      4.000000
  0.375000  0.352941  0.000000      4.000000
  0.458333  0.352941  0.000000      4.000000
  0.041667  0.411765  0.000000      4.000000
  0.125000  0.411765  0.000000      4.000000
  0.208333  0.411765  0.000000      4.000000
  0.291667  0.411765  0.000000      4.000000
  0.375000  0.411765  0.000000      4.000000
  0.458333  0.411765  0.000000      4.000000
  0.041667  0.470588  0.000000      4.000000
  0.125000  0.470588  0.000000      4.000000
  0.208333  0.470588  0.000000      4.000000
  0.291667  0.470588  0.000000      4.000000
  0.375000  0.470588  0.000000      4.000000
  0.458333  0.470588  0.000000      4.000000
  0.041667  0.000000  0.090909      4.000000
  0.125000  0.000000  0.090909      4.000000
  0.208333  0.000000  0.090909      4.000000
  0.291667  0.000000  0.090909      4.000000
  0.375000  0.000000  0.090909      4.000000
  0.458333  0.000000  0.090909      4.000000
  0.041667  0.058824  0.090909      8.000000
  0.125000  0.058824  0.090909      8.000000
  0.208333  0.058824  0.090909      8.000000
  0.291667  0.058824  0.090909      8.000000
  0.375000  0.058824  0.090909      8.000000
  0.458333  0.058824  0.090909      8.000000
  0.041667  0.117647  0.090909      8.000000
  0.125000  0.117647  0.090909      8.000000
  0.208333  0.117647  0.090909      8.000000
  0.291667  0.117647  0.090909      8.000000
  0.375000  0.117647  0.090909      8.000000
  0.458333  0.117647  0.090909      8.000000
  0.041667  0.176471  0.090909      8.000000
  0.125000  0.176471  0.090909      8.000000
  0.208333  0.176471  0.090909      8.000000
  0.291667  0.176471  0.090909      8.000000
  0.375000  0.176471  0.090909      8.000000
  0.458333  0.176471  0.090909      8.000000
  0.041667  0.235294  0.090909      8.000000
  0.125000  0.235294  0.090909      8.000000
  0.208333  0.235294  0.090909      8.000000
  0.291667  0.235294  0.090909      8.000000
  0.375000  0.235294  0.090909      8.000000
  0.458333  0.235294  0.090909      8.000000
  0.041667  0.294118  0.090909      8.000000
  0.125000  0.294118  0.090909      8.000000
  0.208333  0.294118  0.090909      8.000000
  0.291667  0.294118  0.090909      8.000000
  0.375000  0.294118  0.090909      8.000000
  0.458333  0.294118  0.090909      8.000000
  0.041667  0.352941  0.090909      8.000000
  0.125000  0.352941  0.090909      8.000000
  0.208333  0.352941  0.090909      8.000000
  0.291667  0.352941  0.090909      8.000000
  0.375000  0.352941  0.090909      8.000000
  0.458333  0.352941  0.090909      8.000000
  0.041667  0.411765  0.090909      8.000000
  0.125000  0.411765  0.090909      8.000000
  0.208333  0.411765  0.090909      8.000000
  0.291667  0.411765  0.090909      8.000000
  0.375000  0.411765  0.090909      8.000000
  0.458333  0.411765  0.090909      8.000000
  0.041667  0.470588  0.090909      8.000000
  0.125000  0.470588  0.090909      8.000000
  0.208333  0.470588  0.090909      8.000000
  0.291667  0.470588  0.090909      8.000000
  0.375000  0.470588  0.090909      8.000000
  0.458333  0.470588  0.090909      8.000000
  0.041667  0.000000  0.181818      4.000000
  0.125000  0.000000  0.181818      4.000000
  0.208333  0.000000  0.181818      4.000000
  0.291667  0.000000  0.181818      4.000000
  0.375000  0.000000  0.181818      4.000000
  0.458333  0.000000  0.181818      4.000000
  0.041667  0.058824  0.181818      8.000000
  0.125000  0.058824  0.181818      8.000000
  0.208333  0.058824  0.181818      8.000000
  0.291667  0.058824  0.181818      8.000000
  0.375000  0.058824  0.181818      8.000000
  0.458333  0.058824  0.181818      8.000000
  0.041667  0.117647  0.181818      8.000000
  0.125000  0.117647  0.181818      8.000000
  0.208333  0.117647  0.181818      8.000000
  0.291667  0.117647  0.181818      8.000000
  0.375000  0.117647  0.181818      8.000000
  0.458333  0.117647  0.181818      8.000000
  0.041667  0.176471  0.181818      8.000000
  0.125000  0.176471  0.181818      8.000000
  0.208333  0.176471  0.181818      8.000000
  0.291667  0.176471  0.181818      8.000000
  0.375000  0.176471  0.181818      8.000000
  0.458333  0.176471  0.181818      8.000000
  0.041667  0.235294  0.181818      8.000000
  0.125000  0.235294  0.181818      8.000000
  0.208333  0.235294  0.181818      8.000000
  0.291667  0.235294  0.181818      8.000000
  0.375000  0.235294  0.181818      8.000000
  0.458333  0.235294  0.181818      8.000000
  0.041667  0.294118  0.181818      8.000000
  0.125000  0.294118  0.181818      8.000000
  0.208333  0.294118  0.181818      8.000000
  0.291667  0.294118  0.181818      8.000000
  0.375000  0.294118  0.181818      8.000000
  0.458333  0.294118  0.181818      8.000000
  0.041667  0.352941  0.181818      8.000000
  0.125000  0.352941  0.181818      8.000000
  0.208333  0.352941  0.181818      8.000000
  0.291667  0.352941  0.181818      8.000000
  0.375000  0.352941  0.181818      8.000000
  0.458333  0.352941  0.181818      8.000000
  0.041667  0.411765  0.181818      8.000000
  0.125000  0.411765  0.181818      8.000000
  0.208333  0.411765  0.181818      8.000000
  0.291667  0.411765  0.181818      8.000000
  0.375000  0.411765  0.181818      8.000000
  0.458333  0.411765  0.181818      8.000000
  0.041667  0.470588  0.181818      8.000000
  0.125000  0.470588  0.181818      8.000000
  0.208333  0.470588  0.181818      8.000000
  0.291667  0.470588  0.181818      8.000000
  0.375000  0.470588  0.181818      8.000000
  0.458333  0.470588  0.181818      8.000000
  0.041667  0.000000  0.272727      4.000000
  0.125000  0.000000  0.272727      4.000000
  0.208333  0.000000  0.272727      4.000000
  0.291667  0.000000  0.272727      4.000000
  0.375000  0.000000  0.272727      4.000000
  0.458333  0.000000  0.272727      4.000000
  0.041667  0.058824  0.272727      8.000000
  0.125000  0.058824  0.272727      8.000000
  0.208333  0.058824  0.272727      8.000000
  0.291667  0.058824  0.272727      8.000000
  0.375000  0.058824  0.272727      8.000000
  0.458333  0.058824  0.272727      8.000000
  0.041667  0.117647  0.272727      8.000000
  0.125000  0.117647  0.272727      8.000000
  0.208333  0.117647  0.272727      8.000000
  0.291667  0.117647  0.272727      8.000000
  0.375000  0.117647  0.272727      8.000000
  0.458333  0.117647  0.272727      8.000000
  0.041667  0.176471  0.272727      8.000000
  0.125000  0.176471  0.272727      8.000000
  0.208333  0.176471  0.272727      8.000000
  0.291667  0.176471  0.272727      8.000000
  0.375000  0.176471  0.272727      8.000000
  0.458333  0.176471  0.272727      8.000000
  0.041667  0.235294  0.272727      8.000000
  0.125000  0.235294  0.272727      8.000000
  0.208333  0.235294  0.272727      8.000000
  0.291667  0.235294  0.272727      8.000000
  0.375000  0.235294  0.272727      8.000000
  0.458333  0.235294  0.272727      8.000000
  0.041667  0.294118  0.272727      8.000000
  0.125000  0.294118  0.272727      8.000000
  0.208333  0.294118  0.272727      8.000000
  0.291667  0.294118  0.272727      8.000000
  0.375000  0.294118  0.272727      8.000000
  0.458333  0.294118  0.272727      8.000000
  0.041667  0.352941  0.272727      8.000000
  0.125000  0.352941  0.272727      8.000000
  0.208333  0.352941  0.272727      8.000000
  0.291667  0.352941  0.272727      8.000000
  0.375000  0.352941  0.272727      8.000000
  0.458333  0.352941  0.272727      8.000000
  0.041667  0.411765  0.272727      8.000000
  0.125000  0.411765  0.272727      8.000000
  0.208333  0.411765  0.272727      8.000000
  0.291667  0.411765  0.272727      8.000000
  0.375000  0.411765  0.272727      8.000000
  0.458333  0.411765  0.272727      8.000000
  0.041667  0.470588  0.272727      8.000000
  0.125000  0.470588  0.272727      8.000000
  0.208333  0.470588  0.272727      8.000000
  0.291667  0.470588  0.272727      8.000000
  0.375000  0.470588  0.272727      8.000000
  0.458333  0.470588  0.272727      8.000000
  0.041667  0.000000  0.363636      4.000000
  0.125000  0.000000  0.363636      4.000000
  0.208333  0.000000  0.363636      4.000000
  0.291667  0.000000  0.363636      4.000000
  0.375000  0.000000  0.363636      4.000000
  0.458333  0.000000  0.363636      4.000000
  0.041667  0.058824  0.363636      8.000000
  0.125000  0.058824  0.363636      8.000000
  0.208333  0.058824  0.363636      8.000000
  0.291667  0.058824  0.363636      8.000000
  0.375000  0.058824  0.363636      8.000000
  0.458333  0.058824  0.363636      8.000000
  0.041667  0.117647  0.363636      8.000000
  0.125000  0.117647  0.363636      8.000000
  0.208333  0.117647  0.363636      8.000000
  0.291667  0.117647  0.363636      8.000000
  0.375000  0.117647  0.363636      8.000000
  0.458333  0.117647  0.363636      8.000000
  0.041667  0.176471  0.363636      8.000000
  0.125000  0.176471  0.363636      8.000000
  0.208333  0.176471  0.363636      8.000000
  0.291667  0.176471  0.363636      8.000000
  0.375000  0.176471  0.363636      8.000000
  0.458333  0.176471  0.363636      8.000000
  0.041667  0.235294  0.363636      8.000000
  0.125000  0.235294  0.363636      8.000000
  0.208333  0.235294  0.363636      8.000000
  0.291667  0.235294  0.363636      8.000000
  0.375000  0.235294  0.363636      8.000000
  0.458333  0.235294  0.363636      8.000000
  0.041667  0.294118  0.363636      8.000000
  0.125000  0.294118  0.363636      8.000000
  0.208333  0.294118  0.363636      8.000000
  0.291667  0.294118  0.363636      8.000000
  0.375000  0.294118  0.363636      8.000000
  0.458333  0.294118  0.363636      8.000000
  0.041667  0.352941  0.363636      8.000000
  0.125000  0.352941  0.363636      8.000000
  0.208333  0.352941  0.363636      8.000000
  0.291667  0.352941  0.363636      8.000000
  0.375000  0.352941  0.363636      8.000000
  0.458333  0.352941  0.363636      8.000000
  0.041667  0.411765  0.363636      8.000000
  0.125000  0.411765  0.363636      8.000000
  0.208333  0.411765  0.363636      8.000000
  0.291667  0.411765  0.363636      8.000000
  0.375000  0.411765  0.363636      8.000000
  0.458333  0.411765  0.363636      8.000000
  0.041667  0.470588  0.363636      8.000000
  0.125000  0.470588  0.363636      8.000000
  0.208333  0.470588  0.363636      8.000000
  0.291667  0.470588  0.363636      8.000000
  0.375000  0.470588  0.363636      8.000000
  0.458333  0.470588  0.363636      8.000000
  0.041667  0.000000  0.454545      4.000000
  0.125000  0.000000  0.454545      4.000000
  0.208333  0.000000  0.454545      4.000000
  0.291667  0.000000  0.454545      4.000000
  0.375000  0.000000  0.454545      4.000000
  0.458333  0.000000  0.454545      4.000000
  0.041667  0.058824  0.454545      8.000000
  0.125000  0.058824  0.454545      8.000000
  0.208333  0.058824  0.454545      8.000000
  0.291667  0.058824  0.454545      8.000000
  0.375000  0.058824  0.454545      8.000000
  0.458333  0.058824  0.454545      8.000000
  0.041667  0.117647  0.454545      8.000000
  0.125000  0.117647  0.454545      8.000000
  0.208333  0.117647  0.454545      8.000000
  0.291667  0.117647  0.454545      8.000000
  0.375000  0.117647  0.454545      8.000000
  0.458333  0.117647  0.454545      8.000000
  0.041667  0.176471  0.454545      8.000000
  0.125000  0.176471  0.454545      8.000000
  0.208333  0.176471  0.454545      8.000000
  0.291667  0.176471  0.454545      8.000000
  0.375000  0.176471  0.454545      8.000000
  0.458333  0.176471  0.454545      8.000000
  0.041667  0.235294  0.454545      8.000000
  0.125000  0.235294  0.454545      8.000000
  0.208333  0.235294  0.454545      8.000000
  0.291667  0.235294  0.454545      8.000000
  0.375000  0.235294  0.454545      8.000000
  0.458333  0.235294  0.454545      8.000000
  0.041667  0.294118  0.454545      8.000000
  0.125000  0.294118  0.454545      8.000000
  0.208333  0.294118  0.454545      8.000000
  0.291667  0.294118  0.454545      8.000000
  0.375000  0.294118  0.454545      8.000000
  0.458333  0.294118  0.454545      8.000000
  0.041667  0.352941  0.454545      8.000000
  0.125000  0.352941  0.454545      8.000000
  0.208333  0.352941  0.454545      8.000000
  0.291667  0.352941  0.454545      8.000000
  0.375000  0.352941  0.454545      8.000000
  0.458333  0.352941  0.454545      8.000000
  0.041667  0.411765  0.454545      8.000000
  0.125000  0.411765  0.454545      8.000000
  0.208333  0.411765  0.454545      8.000000
  0.291667  0.411765  0.454545      8.000000
  0.375000  0.411765  0.454545      8.000000
  0.458333  0.411765  0.454545      8.000000
  0.041667  0.470588  0.454545      8.000000
  0.125000  0.470588  0.454545      8.000000
  0.208333  0.470588  0.454545      8.000000
  0.291667  0.470588  0.454545      8.000000
  0.375000  0.470588  0.454545      8.000000
  0.458333  0.470588  0.454545      8.000000
 
 Following cartesian coordinates:
            Coordinates               Weight
  0.007314  0.000000  0.000000      2.000000
  0.021941  0.000000  0.000000      2.000000
  0.036569  0.000000  0.000000      2.000000
  0.051197  0.000000  0.000000      2.000000
  0.065824  0.000000  0.000000      2.000000
  0.080452  0.000000  0.000000      2.000000
  0.007314  0.014532  0.000000      4.000000
  0.021941  0.014532  0.000000      4.000000
  0.036569  0.014532  0.000000      4.000000
  0.051197  0.014532  0.000000      4.000000
  0.065824  0.014532  0.000000      4.000000
  0.080452  0.014532  0.000000      4.000000
  0.007314  0.029064  0.000000      4.000000
  0.021941  0.029064  0.000000      4.000000
  0.036569  0.029064  0.000000      4.000000
  0.051197  0.029064  0.000000      4.000000
  0.065824  0.029064  0.000000      4.000000
  0.080452  0.029064  0.000000      4.000000
  0.007314  0.043596  0.000000      4.000000
  0.021941  0.043596  0.000000      4.000000
  0.036569  0.043596  0.000000      4.000000
  0.051197  0.043596  0.000000      4.000000
  0.065824  0.043596  0.000000      4.000000
  0.080452  0.043596  0.000000      4.000000
  0.007314  0.058127  0.000000      4.000000
  0.021941  0.058127  0.000000      4.000000
  0.036569  0.058127  0.000000      4.000000
  0.051197  0.058127  0.000000      4.000000
  0.065824  0.058127  0.000000      4.000000
  0.080452  0.058127  0.000000      4.000000
  0.007314  0.072659  0.000000      4.000000
  0.021941  0.072659  0.000000      4.000000
  0.036569  0.072659  0.000000      4.000000
  0.051197  0.072659  0.000000      4.000000
  0.065824  0.072659  0.000000      4.000000
  0.080452  0.072659  0.000000      4.000000
  0.007314  0.087191  0.000000      4.000000
  0.021941  0.087191  0.000000      4.000000
  0.036569  0.087191  0.000000      4.000000
  0.051197  0.087191  0.000000      4.000000
  0.065824  0.087191  0.000000      4.000000
  0.080452  0.087191  0.000000      4.000000
  0.007314  0.101723  0.000000      4.000000
  0.021941  0.101723  0.000000      4.000000
  0.036569  0.101723  0.000000      4.000000
  0.051197  0.101723  0.000000      4.000000
  0.065824  0.101723  0.000000      4.000000
  0.080452  0.101723  0.000000      4.000000
  0.007314  0.116255  0.000000      4.000000
  0.021941  0.116255  0.000000      4.000000
  0.036569  0.116255  0.000000      4.000000
  0.051197  0.116255  0.000000      4.000000
  0.065824  0.116255  0.000000      4.000000
  0.080452  0.116255  0.000000      4.000000
  0.007314  0.000000  0.014653      4.000000
  0.021941  0.000000  0.014653      4.000000
  0.036569  0.000000  0.014653      4.000000
  0.051197  0.000000  0.014653      4.000000
  0.065824  0.000000  0.014653      4.000000
  0.080452  0.000000  0.014653      4.000000
  0.007314  0.014532  0.014653      8.000000
  0.021941  0.014532  0.014653      8.000000
  0.036569  0.014532  0.014653      8.000000
  0.051197  0.014532  0.014653      8.000000
  0.065824  0.014532  0.014653      8.000000
  0.080452  0.014532  0.014653      8.000000
  0.007314  0.029064  0.014653      8.000000
  0.021941  0.029064  0.014653      8.000000
  0.036569  0.029064  0.014653      8.000000
  0.051197  0.029064  0.014653      8.000000
  0.065824  0.029064  0.014653      8.000000
  0.080452  0.029064  0.014653      8.000000
  0.007314  0.043596  0.014653      8.000000
  0.021941  0.043596  0.014653      8.000000
  0.036569  0.043596  0.014653      8.000000
  0.051197  0.043596  0.014653      8.000000
  0.065824  0.043596  0.014653      8.000000
  0.080452  0.043596  0.014653      8.000000
  0.007314  0.058127  0.014653      8.000000
  0.021941  0.058127  0.014653      8.000000
  0.036569  0.058127  0.014653      8.000000
  0.051197  0.058127  0.014653      8.000000
  0.065824  0.058127  0.014653      8.000000
  0.080452  0.058127  0.014653      8.000000
  0.007314  0.072659  0.014653      8.000000
  0.021941  0.072659  0.014653      8.000000
  0.036569  0.072659  0.014653      8.000000
  0.051197  0.072659  0.014653      8.000000
  0.065824  0.072659  0.014653      8.000000
  0.080452  0.072659  0.014653      8.000000
  0.007314  0.087191  0.014653      8.000000
  0.021941  0.087191  0.014653      8.000000
  0.036569  0.087191  0.014653      8.000000
  0.051197  0.087191  0.014653      8.000000
  0.065824  0.087191  0.014653      8.000000
  0.080452  0.087191  0.014653      8.000000
  0.007314  0.101723  0.014653      8.000000
  0.021941  0.101723  0.014653      8.000000
  0.036569  0.101723  0.014653      8.000000
  0.051197  0.101723  0.014653      8.000000
  0.065824  0.101723  0.014653      8.000000
  0.080452  0.101723  0.014653      8.000000
  0.007314  0.116255  0.014653      8.000000
  0.021941  0.116255  0.014653      8.000000
  0.036569  0.116255  0.014653      8.000000
  0.051197  0.116255  0.014653      8.000000
  0.065824  0.116255  0.014653      8.000000
  0.080452  0.116255  0.014653      8.000000
  0.007314  0.000000  0.029306      4.000000
  0.021941  0.000000  0.029306      4.000000
  0.036569  0.000000  0.029306      4.000000
  0.051197  0.000000  0.029306      4.000000
  0.065824  0.000000  0.029306      4.000000
  0.080452  0.000000  0.029306      4.000000
  0.007314  0.014532  0.029306      8.000000
  0.021941  0.014532  0.029306      8.000000
  0.036569  0.014532  0.029306      8.000000
  0.051197  0.014532  0.029306      8.000000
  0.065824  0.014532  0.029306      8.000000
  0.080452  0.014532  0.029306      8.000000
  0.007314  0.029064  0.029306      8.000000
  0.021941  0.029064  0.029306      8.000000
  0.036569  0.029064  0.029306      8.000000
  0.051197  0.029064  0.029306      8.000000
  0.065824  0.029064  0.029306      8.000000
  0.080452  0.029064  0.029306      8.000000
  0.007314  0.043596  0.029306      8.000000
  0.021941  0.043596  0.029306      8.000000
  0.036569  0.043596  0.029306      8.000000
  0.051197  0.043596  0.029306      8.000000
  0.065824  0.043596  0.029306      8.000000
  0.080452  0.043596  0.029306      8.000000
  0.007314  0.058127  0.029306      8.000000
  0.021941  0.058127  0.029306      8.000000
  0.036569  0.058127  0.029306      8.000000
  0.051197  0.058127  0.029306      8.000000
  0.065824  0.058127  0.029306      8.000000
  0.080452  0.058127  0.029306      8.000000
  0.007314  0.072659  0.029306      8.000000
  0.021941  0.072659  0.029306      8.000000
  0.036569  0.072659  0.029306      8.000000
  0.051197  0.072659  0.029306      8.000000
  0.065824  0.072659  0.029306      8.000000
  0.080452  0.072659  0.029306      8.000000
  0.007314  0.087191  0.029306      8.000000
  0.021941  0.087191  0.029306      8.000000
  0.036569  0.087191  0.029306      8.000000
  0.051197  0.087191  0.029306      8.000000
  0.065824  0.087191  0.029306      8.000000
  0.080452  0.087191  0.029306      8.000000
  0.007314  0.101723  0.029306      8.000000
  0.021941  0.101723  0.029306      8.000000
  0.036569  0.101723  0.029306      8.000000
  0.051197  0.101723  0.029306      8.000000
  0.065824  0.101723  0.029306      8.000000
  0.080452  0.101723  0.029306      8.000000
  0.007314  0.116255  0.029306      8.000000
  0.021941  0.116255  0.029306      8.000000
  0.036569  0.116255  0.029306      8.000000
  0.051197  0.116255  0.029306      8.000000
  0.065824  0.116255  0.029306      8.000000
  0.080452  0.116255  0.029306      8.000000
  0.007314  0.000000  0.043958      4.000000
  0.021941  0.000000  0.043958      4.000000
  0.036569  0.000000  0.043958      4.000000
  0.051197  0.000000  0.043958      4.000000
  0.065824  0.000000  0.043958      4.000000
  0.080452  0.000000  0.043958      4.000000
  0.007314  0.014532  0.043958      8.000000
  0.021941  0.014532  0.043958      8.000000
  0.036569  0.014532  0.043958      8.000000
  0.051197  0.014532  0.043958      8.000000
  0.065824  0.014532  0.043958      8.000000
  0.080452  0.014532  0.043958      8.000000
  0.007314  0.029064  0.043958      8.000000
  0.021941  0.029064  0.043958      8.000000
  0.036569  0.029064  0.043958      8.000000
  0.051197  0.029064  0.043958      8.000000
  0.065824  0.029064  0.043958      8.000000
  0.080452  0.029064  0.043958      8.000000
  0.007314  0.043596  0.043958      8.000000
  0.021941  0.043596  0.043958      8.000000
  0.036569  0.043596  0.043958      8.000000
  0.051197  0.043596  0.043958      8.000000
  0.065824  0.043596  0.043958      8.000000
  0.080452  0.043596  0.043958      8.000000
  0.007314  0.058127  0.043958      8.000000
  0.021941  0.058127  0.043958      8.000000
  0.036569  0.058127  0.043958      8.000000
  0.051197  0.058127  0.043958      8.000000
  0.065824  0.058127  0.043958      8.000000
  0.080452  0.058127  0.043958      8.000000
  0.007314  0.072659  0.043958      8.000000
  0.021941  0.072659  0.043958      8.000000
  0.036569  0.072659  0.043958      8.000000
  0.051197  0.072659  0.043958      8.000000
  0.065824  0.072659  0.043958      8.000000
  0.080452  0.072659  0.043958      8.000000
  0.007314  0.087191  0.043958      8.000000
  0.021941  0.087191  0.043958      8.000000
  0.036569  0.087191  0.043958      8.000000
  0.051197  0.087191  0.043958      8.000000
  0.065824  0.087191  0.043958      8.000000
  0.080452  0.087191  0.043958      8.000000
  0.007314  0.101723  0.043958      8.000000
  0.021941  0.101723  0.043958      8.000000
  0.036569  0.101723  0.043958      8.000000
  0.051197  0.101723  0.043958      8.000000
  0.065824  0.101723  0.043958      8.000000
  0.080452  0.101723  0.043958      8.000000
  0.007314  0.116255  0.043958      8.000000
  0.021941  0.116255  0.043958      8.000000
  0.036569  0.116255  0.043958      8.000000
  0.051197  0.116255  0.043958      8.000000
  0.065824  0.116255  0.043958      8.000000
  0.080452  0.116255  0.043958      8.000000
  0.007314  0.000000  0.058611      4.000000
  0.021941  0.000000  0.058611      4.000000
  0.036569  0.000000  0.058611      4.000000
  0.051197  0.000000  0.058611      4.000000
  0.065824  0.000000  0.058611      4.000000
  0.080452  0.000000  0.058611      4.000000
  0.007314  0.014532  0.058611      8.000000
  0.021941  0.014532  0.058611      8.000000
  0.036569  0.014532  0.058611      8.000000
  0.051197  0.014532  0.058611      8.000000
  0.065824  0.014532  0.058611      8.000000
  0.080452  0.014532  0.058611      8.000000
  0.007314  0.029064  0.058611      8.000000
  0.021941  0.029064  0.058611      8.000000
  0.036569  0.029064  0.058611      8.000000
  0.051197  0.029064  0.058611      8.000000
  0.065824  0.029064  0.058611      8.000000
  0.080452  0.029064  0.058611      8.000000
  0.007314  0.043596  0.058611      8.000000
  0.021941  0.043596  0.058611      8.000000
  0.036569  0.043596  0.058611      8.000000
  0.051197  0.043596  0.058611      8.000000
  0.065824  0.043596  0.058611      8.000000
  0.080452  0.043596  0.058611      8.000000
  0.007314  0.058127  0.058611      8.000000
  0.021941  0.058127  0.058611      8.000000
  0.036569  0.058127  0.058611      8.000000
  0.051197  0.058127  0.058611      8.000000
  0.065824  0.058127  0.058611      8.000000
  0.080452  0.058127  0.058611      8.000000
  0.007314  0.072659  0.058611      8.000000
  0.021941  0.072659  0.058611      8.000000
  0.036569  0.072659  0.058611      8.000000
  0.051197  0.072659  0.058611      8.000000
  0.065824  0.072659  0.058611      8.000000
  0.080452  0.072659  0.058611      8.000000
  0.007314  0.087191  0.058611      8.000000
  0.021941  0.087191  0.058611      8.000000
  0.036569  0.087191  0.058611      8.000000
  0.051197  0.087191  0.058611      8.000000
  0.065824  0.087191  0.058611      8.000000
  0.080452  0.087191  0.058611      8.000000
  0.007314  0.101723  0.058611      8.000000
  0.021941  0.101723  0.058611      8.000000
  0.036569  0.101723  0.058611      8.000000
  0.051197  0.101723  0.058611      8.000000
  0.065824  0.101723  0.058611      8.000000
  0.080452  0.101723  0.058611      8.000000
  0.007314  0.116255  0.058611      8.000000
  0.021941  0.116255  0.058611      8.000000
  0.036569  0.116255  0.058611      8.000000
  0.051197  0.116255  0.058611      8.000000
  0.065824  0.116255  0.058611      8.000000
  0.080452  0.116255  0.058611      8.000000
  0.007314  0.000000  0.073264      4.000000
  0.021941  0.000000  0.073264      4.000000
  0.036569  0.000000  0.073264      4.000000
  0.051197  0.000000  0.073264      4.000000
  0.065824  0.000000  0.073264      4.000000
  0.080452  0.000000  0.073264      4.000000
  0.007314  0.014532  0.073264      8.000000
  0.021941  0.014532  0.073264      8.000000
  0.036569  0.014532  0.073264      8.000000
  0.051197  0.014532  0.073264      8.000000
  0.065824  0.014532  0.073264      8.000000
  0.080452  0.014532  0.073264      8.000000
  0.007314  0.029064  0.073264      8.000000
  0.021941  0.029064  0.073264      8.000000
  0.036569  0.029064  0.073264      8.000000
  0.051197  0.029064  0.073264      8.000000
  0.065824  0.029064  0.073264      8.000000
  0.080452  0.029064  0.073264      8.000000
  0.007314  0.043596  0.073264      8.000000
  0.021941  0.043596  0.073264      8.000000
  0.036569  0.043596  0.073264      8.000000
  0.051197  0.043596  0.073264      8.000000
  0.065824  0.043596  0.073264      8.000000
  0.080452  0.043596  0.073264      8.000000
  0.007314  0.058127  0.073264      8.000000
  0.021941  0.058127  0.073264      8.000000
  0.036569  0.058127  0.073264      8.000000
  0.051197  0.058127  0.073264      8.000000
  0.065824  0.058127  0.073264      8.000000
  0.080452  0.058127  0.073264      8.000000
  0.007314  0.072659  0.073264      8.000000
  0.021941  0.072659  0.073264      8.000000
  0.036569  0.072659  0.073264      8.000000
  0.051197  0.072659  0.073264      8.000000
  0.065824  0.072659  0.073264      8.000000
  0.080452  0.072659  0.073264      8.000000
  0.007314  0.087191  0.073264      8.000000
  0.021941  0.087191  0.073264      8.000000
  0.036569  0.087191  0.073264      8.000000
  0.051197  0.087191  0.073264      8.000000
  0.065824  0.087191  0.073264      8.000000
  0.080452  0.087191  0.073264      8.000000
  0.007314  0.101723  0.073264      8.000000
  0.021941  0.101723  0.073264      8.000000
  0.036569  0.101723  0.073264      8.000000
  0.051197  0.101723  0.073264      8.000000
  0.065824  0.101723  0.073264      8.000000
  0.080452  0.101723  0.073264      8.000000
  0.007314  0.116255  0.073264      8.000000
  0.021941  0.116255  0.073264      8.000000
  0.036569  0.116255  0.073264      8.000000
  0.051197  0.116255  0.073264      8.000000
  0.065824  0.116255  0.073264      8.000000
  0.080452  0.116255  0.073264      8.000000
 


--------------------------------------------------------------------------------------------------------




 Dimension of arrays:
   k-points           NKPTS =    324   k-points in BZ     NKDIM =    324   number of bands    NBANDS=     48
   number of dos      NEDOS =    301   number of ions     NIONS =     14
   non local maximal  LDIM  =      4   non local SUM 2l+1 LMDIM =      8
   total plane-waves  NPLWV =  60480
   max r-space proj   IRMAX =      1   max aug-charges    IRDMAX=   6791
   dimension x,y,z NGX =    42 NGY =   30 NGZ =   48
   dimension x,y,z NGXF=    84 NGYF=   60 NGZF=   96
   support grid    NGXF=    84 NGYF=   60 NGZF=   96
   ions per type =              14
   NGX,Y,Z   is equivalent  to a cutoff of  12.26, 12.32, 12.86 a.u.
   NGXF,Y,Z  is equivalent  to a cutoff of  24.51, 24.64, 25.72 a.u.

 SYSTEM =  Kpoints                                 
 POSCAR =  o-B14                                   

 Startparameter for this run:
   NWRITE =      2    write-flag & timer
   PREC   = accura    normal or accurate (medium, high low for compatibility)
   ISTART =      0    job   : 0-new  1-cont  2-samecut
   ICHARG =      2    charge: 1-file 2-atom 10-const
   ISPIN  =      1    spin polarized calculation?
   LNONCOLLINEAR =      F non collinear calculations
   LSORBIT =      F    spin-orbit coupling
   INIWAV =      1    electr: 0-lowe 1-rand  2-diag
   LASPH  =      F    aspherical Exc in radial PAW
 Electronic Relaxation 1
   ENCUT  =  480.0 eV  35.28 Ry    5.94 a.u.  10.18  7.23 11.08*2*pi/ulx,y,z
   ENINI  =  480.0     initial cutoff
   ENAUG  =  535.5 eV  augmentation charge cutoff
   NELM   =    100;   NELMIN=  2; NELMDL= -5     # of ELM steps 
   EDIFF  = 0.1E-05   stopping-criterion for ELM
   LREAL  =      F    real-space projection
   NLSPLINE    = F    spline interpolate recip. space projectors
   LCOMPAT=      F    compatible to vasp.4.4
   GGA_COMPAT  = T    GGA compatible to vasp.4.4-vasp.4.6
   LMAXPAW     = -100 max onsite density
   LMAXMIX     =    2 max onsite mixed and CHGCAR
   VOSKOWN=      0    Vosko Wilk Nusair interpolation
   ROPT   =    0.00000
 Ionic relaxation
   EDIFFG = -.1E-02   stopping-criterion for IOM
   NSW    =      0    number of steps for IOM
   NBLOCK =      1;   KBLOCK =      1    inner block; outer block 
   IBRION =     -1    ionic relax: 0-MD 1-quasi-New 2-CG
   NFREE  =      0    steps in history (QN), initial steepest desc. (CG)
   ISIF   =      2    stress and relaxation
   IWAVPR =     10    prediction:  0-non 1-charg 2-wave 3-comb
   ISYM   =      2    0-nonsym 1-usesym 2-fastsym
   LCORR  =      T    Harris-Foulkes like correction to forces

   POTIM  = 0.5000    time-step for ionic-motion
   TEIN   =    0.0    initial temperature
   TEBEG  =    0.0;   TEEND  =   0.0 temperature during run
   SMASS  =  -3.00    Nose mass-parameter (am)
   estimated Nose-frequenzy (Omega)   =  0.10E-29 period in steps = 0.13E+47 mass=  -0.742E-27a.u.
   SCALEE = 1.0000    scale energy and forces
   NPACO  =    256;   APACO  = 10.0  distance and # of slots for P.C.
   PSTRESS=    0.0 pullay stress

  Mass of Ions in am
   POMASS =  10.81
  Ionic Valenz
   ZVAL   =   3.00
  Atomic Wigner-Seitz radii
   RWIGS  =  -1.00
  virtual crystal weights 
   VCA    =   1.00
   NELECT =      42.0000    total number of electrons
   NUPDOWN=      -1.0000    fix difference up-down

 DOS related values:
   EMIN   =  10.00;   EMAX   =-10.00  energy-range for DOS
   EFERMI =   0.00;   METHOD = LEGACY      
   ISMEAR =     0;   SIGMA  =   0.05  broadening in eV -4-tet -1-fermi 0-gaus

 Electronic relaxation 2 (details)
   IALGO  =     38    algorithm
   LDIAG  =      T    sub-space diagonalisation (order eigenvalues)
   LSUBROT=      F    optimize rotation matrix (better conditioning)
   TURBO    =      0    0=normal 1=particle mesh
   IRESTART =      0    0=no restart 2=restart with 2 vectors
   NREBOOT  =      0    no. of reboots
   NMIN     =      0    reboot dimension
   EREF     =   0.00    reference energy to select bands
   IMIX   =      4    mixing-type and parameters
     AMIX     =   0.40;   BMIX     =  1.00
     AMIX_MAG =   1.60;   BMIX_MAG =  1.00
     AMIN     =   0.10
     WC   =   100.;   INIMIX=   1;  MIXPRE=   1;  MAXMIX= -45

 Intra band minimization:
   WEIMIN = 0.0000     energy-eigenvalue tresh-hold
   EBREAK =  0.52E-08  absolut break condition
   DEPER  =   0.30     relativ break condition  

   TIME   =   0.40     timestep for ELM

  volume/ion in A,a.u.               =      10.22        68.97
  Fermi-wavevector in a.u.,A,eV,Ry     =   1.088021  2.056062 16.106441  1.183790
  Thomas-Fermi vector in A             =   2.224193
 
 Write flags
   LWAVE        =      F    write WAVECAR
   LDOWNSAMPLE  =      F    k-point downsampling of WAVECAR
   LCHARG       =      F    write CHGCAR
   LVTOT        =      F    write LOCPOT, total local potential
   LVHAR        =      F    write LOCPOT, Hartree potential only
   WRT_POTENTIAL= false  ! write potential to hdf5 file
   LELF         =      F    write electronic localiz. function (ELF)
   LORBIT       =      0    0 simple, 1 ext, 2 COOP (PROOUT), +10 PAW based schemes


 Dipole corrections
   LMONO      =      F    monopole corrections only (constant potential shift)
   LDIPOL     =      F    correct potential (dipole corrections)
   IDIPOL     =      0    1-x, 2-y, 3-z, 4-all directions 
   EPSILON    =  1.0000000 bulk dielectric constant
   LVACPOTAV  =      F  vacuum potentials using an averaging scheme for the charge density
   VACPOTFLAT =  0.1000000 required flatness to determine vacuum potential
 Exchange correlation treatment:
   GGA     = PE    functional components
   XC_C    = 1    coefficients multiplying the functional components
   LIBXC   =     F    Libxc                    
   VOSKOWN =     0    Vosko Wilk Nusair interpolation
   LHFCALC =     F    Hartree Fock is set to
   LHFONE  =     F    Hartree Fock one center treatment
   AEXX    =    0.0000 exact exchange contribution

 Parameters of functionals:
   PE:
     No parameter
 
 Van der Waals corrections
   IVDW    =     0    specifies the selected vdW correction

 Linear response parameters
   LEPSILON=     F    determine dielectric tensor
   LRPA    =     F    only Hartree local field effects (RPA)
   LNABLA  =     F    use nabla operator in PAW spheres
   LVEL    =     F    velocity operator in full k-point grid
   CSHIFT  =0.1000    complex shift for real part using Kramers Kronig
   OMEGAMAX=  -1.0    maximum frequency
   DEG_THRESHOLD= 0.2000000E-02 threshold for treating states as degnerate
   RTIME   =   -0.100 relaxation time in fs
  (WPLASMAI=    0.000 imaginary part of plasma frequency in eV, 0.658/RTIME)
   DFIELD  = 0.0000000 0.0000000 0.0000000 field for delta impulse in time
 
  Optional k-point grid parameters
   LKPOINTS_OPT  =     F    use optional k-point grid
   KPOINTS_OPT_MODE=     1    mode for optional k-point grid
 
 Orbital magnetization related:
   ORBITALMAG=     F  switch on orbital magnetization
   LCHIMAG   =     F  perturbation theory with respect to B field
   DQ        =  0.001000  dq finite difference perturbation B field
   LLRAUG    =     F  two centre corrections for induced B field
   LBONE     =     F  B-component reconstruction in AE one-centre
   LVGVCALC  =     T  calculate vGv susceptibility
   LVGVAPPL  =     F  apply vGv susceptibility instead of pGv for G=0

 Random number generation:
   RANDOM_GENERATOR = DEFAULT
   PCG_SEED         = not used


--------------------------------------------------------------------------------------------------------


 Static calculation
 charge density and potential will be updated during run
 non-spin polarized calculation
 Variant of blocked Davidson
 Davidson routine will perform the subspace rotation
 perform sub-space diagonalisation
    after iterative eigenvector-optimisation
 modified Broyden-mixing scheme, WC =      100.0
 initial mixing is a Kerker type mixing with AMIX =  0.4000 and BMIX =      1.0000
 Hartree-type preconditioning will be used
 using additional bands           27
 reciprocal scheme for non local part
 use partial core corrections
 calculate Harris-corrections to forces 
   (improved forces if not selfconsistent)
 use gradient corrections 
 use of overlap-Matrix (Vanderbilt PP)
 Gauss-broadening in eV      SIGMA  =   0.05


--------------------------------------------------------------------------------------------------------


  energy-cutoff  :      480.00
  volume of cell :      143.07
      direct lattice vectors                 reciprocal lattice vectors
     5.697000000  0.000000000  0.000000000     0.175530981  0.000000000  0.000000000
     0.000000000  4.047900000  0.000000000     0.000000000  0.247041676  0.000000000
     0.000000000  0.000000000  6.204200000     0.000000000  0.000000000  0.161181135

  length of vectors
     5.697000000  4.047900000  6.204200000     0.175530981  0.247041676  0.161181135


 
 k-points in units of 2pi/SCALE and weight: k-points                                
   0.00731379  0.00000000  0.00000000       0.001
   0.02194137  0.00000000  0.00000000       0.001
   0.03656895  0.00000000  0.00000000       0.001
   0.05119654  0.00000000  0.00000000       0.001
   0.06582412  0.00000000  0.00000000       0.001
   0.08045170  0.00000000  0.00000000       0.001
   0.00731379  0.01453186  0.00000000       0.002
   0.02194137  0.01453186  0.00000000       0.002
   0.03656895  0.01453186  0.00000000       0.002
   0.05119654  0.01453186  0.00000000       0.002
   0.06582412  0.01453186  0.00000000       0.002
   0.08045170  0.01453186  0.00000000       0.002
   0.00731379  0.02906373  0.00000000       0.002
   0.02194137  0.02906373  0.00000000       0.002
   0.03656895  0.02906373  0.00000000       0.002
   0.05119654  0.02906373  0.00000000       0.002
   0.06582412  0.02906373  0.00000000       0.002
   0.08045170  0.02906373  0.00000000       0.002
   0.00731379  0.04359559  0.00000000       0.002
   0.02194137  0.04359559  0.00000000       0.002
   0.03656895  0.04359559  0.00000000       0.002
   0.05119654  0.04359559  0.00000000       0.002
   0.06582412  0.04359559  0.00000000       0.002
   0.08045170  0.04359559  0.00000000       0.002
   0.00731379  0.05812745  0.00000000       0.002
   0.02194137  0.05812745  0.00000000       0.002
   0.03656895  0.05812745  0.00000000       0.002
   0.05119654  0.05812745  0.00000000       0.002
   0.06582412  0.05812745  0.00000000       0.002
   0.08045170  0.05812745  0.00000000       0.002
   0.00731379  0.07265932  0.00000000       0.002
   0.02194137  0.07265932  0.00000000       0.002
   0.03656895  0.07265932  0.00000000       0.002
   0.05119654  0.07265932  0.00000000       0.002
   0.06582412  0.07265932  0.00000000       0.002
   0.08045170  0.07265932  0.00000000       0.002
   0.00731379  0.08719118  0.00000000       0.002
   0.02194137  0.08719118  0.00000000       0.002
   0.03656895  0.08719118  0.00000000       0.002
   0.05119654  0.08719118  0.00000000       0.002
   0.06582412  0.08719118  0.00000000       0.002
   0.08045170  0.08719118  0.00000000       0.002
   0.00731379  0.10172304  0.00000000       0.002
   0.02194137  0.10172304  0.00000000       0.002
   0.03656895  0.10172304  0.00000000       0.002
   0.05119654  0.10172304  0.00000000       0.002
   0.06582412  0.10172304  0.00000000       0.002
   0.08045170  0.10172304  0.00000000       0.002
   0.00731379  0.11625491  0.00000000       0.002
   0.02194137  0.11625491  0.00000000       0.002
   0.03656895  0.11625491  0.00000000       0.002
   0.05119654  0.11625491  0.00000000       0.002
   0.06582412  0.11625491  0.00000000       0.002
   0.08045170  0.11625491  0.00000000       0.002
   0.00731379  0.00000000  0.01465283       0.002
   0.02194137  0.00000000  0.01465283       0.002
   0.03656895  0.00000000  0.01465283       0.002
   0.05119654  0.00000000  0.01465283       0.002
   0.06582412  0.00000000  0.01465283       0.002
   0.08045170  0.00000000  0.01465283       0.002
   0.00731379  0.01453186  0.01465283       0.004
   0.02194137  0.01453186  0.01465283       0.004
   0.03656895  0.01453186  0.01465283       0.004
   0.05119654  0.01453186  0.01465283       0.004
   0.06582412  0.01453186  0.01465283       0.004
   0.08045170  0.01453186  0.01465283       0.004
   0.00731379  0.02906373  0.01465283       0.004
   0.02194137  0.02906373  0.01465283       0.004
   0.03656895  0.02906373  0.01465283       0.004
   0.05119654  0.02906373  0.01465283       0.004
   0.06582412  0.02906373  0.01465283       0.004
   0.08045170  0.02906373  0.01465283       0.004
   0.00731379  0.04359559  0.01465283       0.004
   0.02194137  0.04359559  0.01465283       0.004
   0.03656895  0.04359559  0.01465283       0.004
   0.05119654  0.04359559  0.01465283       0.004
   0.06582412  0.04359559  0.01465283       0.004
   0.08045170  0.04359559  0.01465283       0.004
   0.00731379  0.05812745  0.01465283       0.004
   0.02194137  0.05812745  0.01465283       0.004
   0.03656895  0.05812745  0.01465283       0.004
   0.05119654  0.05812745  0.01465283       0.004
   0.06582412  0.05812745  0.01465283       0.004
   0.08045170  0.05812745  0.01465283       0.004
   0.00731379  0.07265932  0.01465283       0.004
   0.02194137  0.07265932  0.01465283       0.004
   0.03656895  0.07265932  0.01465283       0.004
   0.05119654  0.07265932  0.01465283       0.004
   0.06582412  0.07265932  0.01465283       0.004
   0.08045170  0.07265932  0.01465283       0.004
   0.00731379  0.08719118  0.01465283       0.004
   0.02194137  0.08719118  0.01465283       0.004
   0.03656895  0.08719118  0.01465283       0.004
   0.05119654  0.08719118  0.01465283       0.004
   0.06582412  0.08719118  0.01465283       0.004
   0.08045170  0.08719118  0.01465283       0.004
   0.00731379  0.10172304  0.01465283       0.004
   0.02194137  0.10172304  0.01465283       0.004
   0.03656895  0.10172304  0.01465283       0.004
   0.05119654  0.10172304  0.01465283       0.004
   0.06582412  0.10172304  0.01465283       0.004
   0.08045170  0.10172304  0.01465283       0.004
   0.00731379  0.11625491  0.01465283       0.004
   0.02194137  0.11625491  0.01465283       0.004
   0.03656895  0.11625491  0.01465283       0.004
   0.05119654  0.11625491  0.01465283       0.004
   0.06582412  0.11625491  0.01465283       0.004
   0.08045170  0.11625491  0.01465283       0.004
   0.00731379  0.00000000  0.02930566       0.002
   0.02194137  0.00000000  0.02930566       0.002
   0.03656895  0.00000000  0.02930566       0.002
   0.05119654  0.00000000  0.02930566       0.002
   0.06582412  0.00000000  0.02930566       0.002
   0.08045170  0.00000000  0.02930566       0.002
   0.00731379  0.01453186  0.02930566       0.004
   0.02194137  0.01453186  0.02930566       0.004
   0.03656895  0.01453186  0.02930566       0.004
   0.05119654  0.01453186  0.02930566       0.004
   0.06582412  0.01453186  0.02930566       0.004
   0.08045170  0.01453186  0.02930566       0.004
   0.00731379  0.02906373  0.02930566       0.004
   0.02194137  0.02906373  0.02930566       0.004
   0.03656895  0.02906373  0.02930566       0.004
   0.05119654  0.02906373  0.02930566       0.004
   0.06582412  0.02906373  0.02930566       0.004
   0.08045170  0.02906373  0.02930566       0.004
   0.00731379  0.04359559  0.02930566       0.004
   0.02194137  0.04359559  0.02930566       0.004
   0.03656895  0.04359559  0.02930566       0.004
   0.05119654  0.04359559  0.02930566       0.004
   0.06582412  0.04359559  0.02930566       0.004
   0.08045170  0.04359559  0.02930566       0.004
   0.00731379  0.05812745  0.02930566       0.004
   0.02194137  0.05812745  0.02930566       0.004
   0.03656895  0.05812745  0.02930566       0.004
   0.05119654  0.05812745  0.02930566       0.004
   0.06582412  0.05812745  0.02930566       0.004
   0.08045170  0.05812745  0.02930566       0.004
   0.00731379  0.07265932  0.02930566       0.004
   0.02194137  0.07265932  0.02930566       0.004
   0.03656895  0.07265932  0.02930566       0.004
   0.05119654  0.07265932  0.02930566       0.004
   0.06582412  0.07265932  0.02930566       0.004
   0.08045170  0.07265932  0.02930566       0.004
   0.00731379  0.08719118  0.02930566       0.004
   0.02194137  0.08719118  0.02930566       0.004
   0.03656895  0.08719118  0.02930566       0.004
   0.05119654  0.08719118  0.02930566       0.004
   0.06582412  0.08719118  0.02930566       0.004
   0.08045170  0.08719118  0.02930566       0.004
   0.00731379  0.10172304  0.02930566       0.004
   0.02194137  0.10172304  0.02930566       0.004
   0.03656895  0.10172304  0.02930566       0.004
   0.05119654  0.10172304  0.02930566       0.004
   0.06582412  0.10172304  0.02930566       0.004
   0.08045170  0.10172304  0.02930566       0.004
   0.00731379  0.11625491  0.02930566       0.004
   0.02194137  0.11625491  0.02930566       0.004
   0.03656895  0.11625491  0.02930566       0.004
   0.05119654  0.11625491  0.02930566       0.004
   0.06582412  0.11625491  0.02930566       0.004
   0.08045170  0.11625491  0.02930566       0.004
   0.00731379  0.00000000  0.04395849       0.002
   0.02194137  0.00000000  0.04395849       0.002
   0.03656895  0.00000000  0.04395849       0.002
   0.05119654  0.00000000  0.04395849       0.002
   0.06582412  0.00000000  0.04395849       0.002
   0.08045170  0.00000000  0.04395849       0.002
   0.00731379  0.01453186  0.04395849       0.004
   0.02194137  0.01453186  0.04395849       0.004
   0.03656895  0.01453186  0.04395849       0.004
   0.05119654  0.01453186  0.04395849       0.004
   0.06582412  0.01453186  0.04395849       0.004
   0.08045170  0.01453186  0.04395849       0.004
   0.00731379  0.02906373  0.04395849       0.004
   0.02194137  0.02906373  0.04395849       0.004
   0.03656895  0.02906373  0.04395849       0.004
   0.05119654  0.02906373  0.04395849       0.004
   0.06582412  0.02906373  0.04395849       0.004
   0.08045170  0.02906373  0.04395849       0.004
   0.00731379  0.04359559  0.04395849       0.004
   0.02194137  0.04359559  0.04395849       0.004
   0.03656895  0.04359559  0.04395849       0.004
   0.05119654  0.04359559  0.04395849       0.004
   0.06582412  0.04359559  0.04395849       0.004
   0.08045170  0.04359559  0.04395849       0.004
   0.00731379  0.05812745  0.04395849       0.004
   0.02194137  0.05812745  0.04395849       0.004
   0.03656895  0.05812745  0.04395849       0.004
   0.05119654  0.05812745  0.04395849       0.004
   0.06582412  0.05812745  0.04395849       0.004
   0.08045170  0.05812745  0.04395849       0.004
   0.00731379  0.07265932  0.04395849       0.004
   0.02194137  0.07265932  0.04395849       0.004
   0.03656895  0.07265932  0.04395849       0.004
   0.05119654  0.07265932  0.04395849       0.004
   0.06582412  0.07265932  0.04395849       0.004
   0.08045170  0.07265932  0.04395849       0.004
   0.00731379  0.08719118  0.04395849       0.004
   0.02194137  0.08719118  0.04395849       0.004
   0.03656895  0.08719118  0.04395849       0.004
   0.05119654  0.08719118  0.04395849       0.004
   0.06582412  0.08719118  0.04395849       0.004
   0.08045170  0.08719118  0.04395849       0.004
   0.00731379  0.10172304  0.04395849       0.004
   0.02194137  0.10172304  0.04395849       0.004
   0.03656895  0.10172304  0.04395849       0.004
   0.05119654  0.10172304  0.04395849       0.004
   0.06582412  0.10172304  0.04395849       0.004
   0.08045170  0.10172304  0.04395849       0.004
   0.00731379  0.11625491  0.04395849       0.004
   0.02194137  0.11625491  0.04395849       0.004
   0.03656895  0.11625491  0.04395849       0.004
   0.05119654  0.11625491  0.04395849       0.004
   0.06582412  0.11625491  0.04395849       0.004
   0.08045170  0.11625491  0.04395849       0.004
   0.00731379  0.00000000  0.05861132       0.002
   0.02194137  0.00000000  0.05861132       0.002
   0.03656895  0.00000000  0.05861132       0.002
   0.05119654  0.00000000  0.05861132       0.002
   0.06582412  0.00000000  0.05861132       0.002
   0.08045170  0.00000000  0.05861132       0.002
   0.00731379  0.01453186  0.05861132       0.004
   0.02194137  0.01453186  0.05861132       0.004
   0.03656895  0.01453186  0.05861132       0.004
   0.05119654  0.01453186  0.05861132       0.004
   0.06582412  0.01453186  0.05861132       0.004
   0.08045170  0.01453186  0.05861132       0.004
   0.00731379  0.02906373  0.05861132       0.004
   0.02194137  0.02906373  0.05861132       0.004
   0.03656895  0.02906373  0.05861132       0.004
   0.05119654  0.02906373  0.05861132       0.004
   0.06582412  0.02906373  0.05861132       0.004
   0.08045170  0.02906373  0.05861132       0.004
   0.00731379  0.04359559  0.05861132       0.004
   0.02194137  0.04359559  0.05861132       0.004
   0.03656895  0.04359559  0.05861132       0.004
   0.05119654  0.04359559  0.05861132       0.004
   0.06582412  0.04359559  0.05861132       0.004
   0.08045170  0.04359559  0.05861132       0.004
   0.00731379  0.05812745  0.05861132       0.004
   0.02194137  0.05812745  0.05861132       0.004
   0.03656895  0.05812745  0.05861132       0.004
   0.05119654  0.05812745  0.05861132       0.004
   0.06582412  0.05812745  0.05861132       0.004
   0.08045170  0.05812745  0.05861132       0.004
   0.00731379  0.07265932  0.05861132       0.004
   0.02194137  0.07265932  0.05861132       0.004
   0.03656895  0.07265932  0.05861132       0.004
   0.05119654  0.07265932  0.05861132       0.004
   0.06582412  0.07265932  0.05861132       0.004
   0.08045170  0.07265932  0.05861132       0.004
   0.00731379  0.08719118  0.05861132       0.004
   0.02194137  0.08719118  0.05861132       0.004
   0.03656895  0.08719118  0.05861132       0.004
   0.05119654  0.08719118  0.05861132       0.004
   0.06582412  0.08719118  0.05861132       0.004
   0.08045170  0.08719118  0.05861132       0.004
   0.00731379  0.10172304  0.05861132       0.004
   0.02194137  0.10172304  0.05861132       0.004
   0.03656895  0.10172304  0.05861132       0.004
   0.05119654  0.10172304  0.05861132       0.004
   0.06582412  0.10172304  0.05861132       0.004
   0.08045170  0.10172304  0.05861132       0.004
   0.00731379  0.11625491  0.05861132       0.004
   0.02194137  0.11625491  0.05861132       0.004
   0.03656895  0.11625491  0.05861132       0.004
   0.05119654  0.11625491  0.05861132       0.004
   0.06582412  0.11625491  0.05861132       0.004
   0.08045170  0.11625491  0.05861132       0.004
   0.00731379  0.00000000  0.07326415       0.002
   0.02194137  0.00000000  0.07326415       0.002
   0.03656895  0.00000000  0.07326415       0.002
   0.05119654  0.00000000  0.07326415       0.002
   0.06582412  0.00000000  0.07326415       0.002
   0.08045170  0.00000000  0.07326415       0.002
   0.00731379  0.01453186  0.07326415       0.004
   0.02194137  0.01453186  0.07326415       0.004
   0.03656895  0.01453186  0.07326415       0.004
   0.05119654  0.01453186  0.07326415       0.004
   0.06582412  0.01453186  0.07326415       0.004
   0.08045170  0.01453186  0.07326415       0.004
   0.00731379  0.02906373  0.07326415       0.004
   0.02194137  0.02906373  0.07326415       0.004
   0.03656895  0.02906373  0.07326415       0.004
   0.05119654  0.02906373  0.07326415       0.004
   0.06582412  0.02906373  0.07326415       0.004
   0.08045170  0.02906373  0.07326415       0.004
   0.00731379  0.04359559  0.07326415       0.004
   0.02194137  0.04359559  0.07326415       0.004
   0.03656895  0.04359559  0.07326415       0.004
   0.05119654  0.04359559  0.07326415       0.004
   0.06582412  0.04359559  0.07326415       0.004
   0.08045170  0.04359559  0.07326415       0.004
   0.00731379  0.05812745  0.07326415       0.004
   0.02194137  0.05812745  0.07326415       0.004
   0.03656895  0.05812745  0.07326415       0.004
   0.05119654  0.05812745  0.07326415       0.004
   0.06582412  0.05812745  0.07326415       0.004
   0.08045170  0.05812745  0.07326415       0.004
   0.00731379  0.07265932  0.07326415       0.004
   0.02194137  0.07265932  0.07326415       0.004
   0.03656895  0.07265932  0.07326415       0.004
   0.05119654  0.07265932  0.07326415       0.004
   0.06582412  0.07265932  0.07326415       0.004
   0.08045170  0.07265932  0.07326415       0.004
   0.00731379  0.08719118  0.07326415       0.004
   0.02194137  0.08719118  0.07326415       0.004
   0.03656895  0.08719118  0.07326415       0.004
   0.05119654  0.08719118  0.07326415       0.004
   0.06582412  0.08719118  0.07326415       0.004
   0.08045170  0.08719118  0.07326415       0.004
   0.00731379  0.10172304  0.07326415       0.004
   0.02194137  0.10172304  0.07326415       0.004
   0.03656895  0.10172304  0.07326415       0.004
   0.05119654  0.10172304  0.07326415       0.004
   0.06582412  0.10172304  0.07326415       0.004
   0.08045170  0.10172304  0.07326415       0.004
   0.00731379  0.11625491  0.07326415       0.004
   0.02194137  0.11625491  0.07326415       0.004
   0.03656895  0.11625491  0.07326415       0.004
   0.05119654  0.11625491  0.07326415       0.004
   0.06582412  0.11625491  0.07326415       0.004
   0.08045170  0.11625491  0.07326415       0.004
 
 k-points in reciprocal lattice and weights: k-points                                
   0.04166667  0.00000000  0.00000000       0.001
   0.12500000  0.00000000  0.00000000       0.001
   0.20833333  0.00000000  0.00000000       0.001
   0.29166667  0.00000000  0.00000000       0.001
   0.37500000  0.00000000  0.00000000       0.001
   0.45833333  0.00000000  0.00000000       0.001
   0.04166667  0.05882353  0.00000000       0.002
   0.12500000  0.05882353  0.00000000       0.002
   0.20833333  0.05882353  0.00000000       0.002
   0.29166667  0.05882353  0.00000000       0.002
   0.37500000  0.05882353  0.00000000       0.002
   0.45833333  0.05882353  0.00000000       0.002
   0.04166667  0.11764706  0.00000000       0.002
   0.12500000  0.11764706  0.00000000       0.002
   0.20833333  0.11764706  0.00000000       0.002
   0.29166667  0.11764706  0.00000000       0.002
   0.37500000  0.11764706  0.00000000       0.002
   0.45833333  0.11764706  0.00000000       0.002
   0.04166667  0.17647059  0.00000000       0.002
   0.12500000  0.17647059  0.00000000       0.002
   0.20833333  0.17647059  0.00000000       0.002
   0.29166667  0.17647059  0.00000000       0.002
   0.37500000  0.17647059  0.00000000       0.002
   0.45833333  0.17647059  0.00000000       0.002
   0.04166667  0.23529412  0.00000000       0.002
   0.12500000  0.23529412  0.00000000       0.002
   0.20833333  0.23529412  0.00000000       0.002
   0.29166667  0.23529412  0.00000000       0.002
   0.37500000  0.23529412  0.00000000       0.002
   0.45833333  0.23529412  0.00000000       0.002
   0.04166667  0.29411765  0.00000000       0.002
   0.12500000  0.29411765  0.00000000       0.002
   0.20833333  0.29411765  0.00000000       0.002
   0.29166667  0.29411765  0.00000000       0.002
   0.37500000  0.29411765  0.00000000       0.002
   0.45833333  0.29411765  0.00000000       0.002
   0.04166667  0.35294118  0.00000000       0.002
   0.12500000  0.35294118  0.00000000       0.002
   0.20833333  0.35294118  0.00000000       0.002
   0.29166667  0.35294118  0.00000000       0.002
   0.37500000  0.35294118  0.00000000       0.002
   0.45833333  0.35294118  0.00000000       0.002
   0.04166667  0.41176471  0.00000000       0.002
   0.12500000  0.41176471  0.00000000       0.002
   0.20833333  0.41176471  0.00000000       0.002
   0.29166667  0.41176471  0.00000000       0.002
   0.37500000  0.41176471  0.00000000       0.002
   0.45833333  0.41176471  0.00000000       0.002
   0.04166667  0.47058824  0.00000000       0.002
   0.12500000  0.47058824  0.00000000       0.002
   0.20833333  0.47058824  0.00000000       0.002
   0.29166667  0.47058824  0.00000000       0.002
   0.37500000  0.47058824  0.00000000       0.002
   0.45833333  0.47058824  0.00000000       0.002
   0.04166667  0.00000000  0.09090909       0.002
   0.12500000  0.00000000  0.09090909       0.002
   0.20833333  0.00000000  0.09090909       0.002
   0.29166667  0.00000000  0.09090909       0.002
   0.37500000  0.00000000  0.09090909       0.002
   0.45833333  0.00000000  0.09090909       0.002
   0.04166667  0.05882353  0.09090909       0.004
   0.12500000  0.05882353  0.09090909       0.004
   0.20833333  0.05882353  0.09090909       0.004
   0.29166667  0.05882353  0.09090909       0.004
   0.37500000  0.05882353  0.09090909       0.004
   0.45833333  0.05882353  0.09090909       0.004
   0.04166667  0.11764706  0.09090909       0.004
   0.12500000  0.11764706  0.09090909       0.004
   0.20833333  0.11764706  0.09090909       0.004
   0.29166667  0.11764706  0.09090909       0.004
   0.37500000  0.11764706  0.09090909       0.004
   0.45833333  0.11764706  0.09090909       0.004
   0.04166667  0.17647059  0.09090909       0.004
   0.12500000  0.17647059  0.09090909       0.004
   0.20833333  0.17647059  0.09090909       0.004
   0.29166667  0.17647059  0.09090909       0.004
   0.37500000  0.17647059  0.09090909       0.004
   0.45833333  0.17647059  0.09090909       0.004
   0.04166667  0.23529412  0.09090909       0.004
   0.12500000  0.23529412  0.09090909       0.004
   0.20833333  0.23529412  0.09090909       0.004
   0.29166667  0.23529412  0.09090909       0.004
   0.37500000  0.23529412  0.09090909       0.004
   0.45833333  0.23529412  0.09090909       0.004
   0.04166667  0.29411765  0.09090909       0.004
   0.12500000  0.29411765  0.09090909       0.004
   0.20833333  0.29411765  0.09090909       0.004
   0.29166667  0.29411765  0.09090909       0.004
   0.37500000  0.29411765  0.09090909       0.004
   0.45833333  0.29411765  0.09090909       0.004
   0.04166667  0.35294118  0.09090909       0.004
   0.12500000  0.35294118  0.09090909       0.004
   0.20833333  0.35294118  0.09090909       0.004
   0.29166667  0.35294118  0.09090909       0.004
   0.37500000  0.35294118  0.09090909       0.004
   0.45833333  0.35294118  0.09090909       0.004
   0.04166667  0.41176471  0.09090909       0.004
   0.12500000  0.41176471  0.09090909       0.004
   0.20833333  0.41176471  0.09090909       0.004
   0.29166667  0.41176471  0.09090909       0.004
   0.37500000  0.41176471  0.09090909       0.004
   0.45833333  0.41176471  0.09090909       0.004
   0.04166667  0.47058824  0.09090909       0.004
   0.12500000  0.47058824  0.09090909       0.004
   0.20833333  0.47058824  0.09090909       0.004
   0.29166667  0.47058824  0.09090909       0.004
   0.37500000  0.47058824  0.09090909       0.004
   0.45833333  0.47058824  0.09090909       0.004
   0.04166667  0.00000000  0.18181818       0.002
   0.12500000  0.00000000  0.18181818       0.002
   0.20833333  0.00000000  0.18181818       0.002
   0.29166667  0.00000000  0.18181818       0.002
   0.37500000  0.00000000  0.18181818       0.002
   0.45833333  0.00000000  0.18181818       0.002
   0.04166667  0.05882353  0.18181818       0.004
   0.12500000  0.05882353  0.18181818       0.004
   0.20833333  0.05882353  0.18181818       0.004
   0.29166667  0.05882353  0.18181818       0.004
   0.37500000  0.05882353  0.18181818       0.004
   0.45833333  0.05882353  0.18181818       0.004
   0.04166667  0.11764706  0.18181818       0.004
   0.12500000  0.11764706  0.18181818       0.004
   0.20833333  0.11764706  0.18181818       0.004
   0.29166667  0.11764706  0.18181818       0.004
   0.37500000  0.11764706  0.18181818       0.004
   0.45833333  0.11764706  0.18181818       0.004
   0.04166667  0.17647059  0.18181818       0.004
   0.12500000  0.17647059  0.18181818       0.004
   0.20833333  0.17647059  0.18181818       0.004
   0.29166667  0.17647059  0.18181818       0.004
   0.37500000  0.17647059  0.18181818       0.004
   0.45833333  0.17647059  0.18181818       0.004
   0.04166667  0.23529412  0.18181818       0.004
   0.12500000  0.23529412  0.18181818       0.004
   0.20833333  0.23529412  0.18181818       0.004
   0.29166667  0.23529412  0.18181818       0.004
   0.37500000  0.23529412  0.18181818       0.004
   0.45833333  0.23529412  0.18181818       0.004
   0.04166667  0.29411765  0.18181818       0.004
   0.12500000  0.29411765  0.18181818       0.004
   0.20833333  0.29411765  0.18181818       0.004
   0.29166667  0.29411765  0.18181818       0.004
   0.37500000  0.29411765  0.18181818       0.004
   0.45833333  0.29411765  0.18181818       0.004
   0.04166667  0.35294118  0.18181818       0.004
   0.12500000  0.35294118  0.18181818       0.004
   0.20833333  0.35294118  0.18181818       0.004
   0.29166667  0.35294118  0.18181818       0.004
   0.37500000  0.35294118  0.18181818       0.004
   0.45833333  0.35294118  0.18181818       0.004
   0.04166667  0.41176471  0.18181818       0.004
   0.12500000  0.41176471  0.18181818       0.004
   0.20833333  0.41176471  0.18181818       0.004
   0.29166667  0.41176471  0.18181818       0.004
   0.37500000  0.41176471  0.18181818       0.004
   0.45833333  0.41176471  0.18181818       0.004
   0.04166667  0.47058824  0.18181818       0.004
   0.12500000  0.47058824  0.18181818       0.004
   0.20833333  0.47058824  0.18181818       0.004
   0.29166667  0.47058824  0.18181818       0.004
   0.37500000  0.47058824  0.18181818       0.004
   0.45833333  0.47058824  0.18181818       0.004
   0.04166667  0.00000000  0.27272727       0.002
   0.12500000  0.00000000  0.27272727       0.002
   0.20833333  0.00000000  0.27272727       0.002
   0.29166667  0.00000000  0.27272727       0.002
   0.37500000  0.00000000  0.27272727       0.002
   0.45833333  0.00000000  0.27272727       0.002
   0.04166667  0.05882353  0.27272727       0.004
   0.12500000  0.05882353  0.27272727       0.004
   0.20833333  0.05882353  0.27272727       0.004
   0.29166667  0.05882353  0.27272727       0.004
   0.37500000  0.05882353  0.27272727       0.004
   0.45833333  0.05882353  0.27272727       0.004
   0.04166667  0.11764706  0.27272727       0.004
   0.12500000  0.11764706  0.27272727       0.004
   0.20833333  0.11764706  0.27272727       0.004
   0.29166667  0.11764706  0.27272727       0.004
   0.37500000  0.11764706  0.27272727       0.004
   0.45833333  0.11764706  0.27272727       0.004
   0.04166667  0.17647059  0.27272727       0.004
   0.12500000  0.17647059  0.27272727       0.004
   0.20833333  0.17647059  0.27272727       0.004
   0.29166667  0.17647059  0.27272727       0.004
   0.37500000  0.17647059  0.27272727       0.004
   0.45833333  0.17647059  0.27272727       0.004
   0.04166667  0.23529412  0.27272727       0.004
   0.12500000  0.23529412  0.27272727       0.004
   0.20833333  0.23529412  0.27272727       0.004
   0.29166667  0.23529412  0.27272727       0.004
   0.37500000  0.23529412  0.27272727       0.004
   0.45833333  0.23529412  0.27272727       0.004
   0.04166667  0.29411765  0.27272727       0.004
   0.12500000  0.29411765  0.27272727       0.004
   0.20833333  0.29411765  0.27272727       0.004
   0.29166667  0.29411765  0.27272727       0.004
   0.37500000  0.29411765  0.27272727       0.004
   0.45833333  0.29411765  0.27272727       0.004
   0.04166667  0.35294118  0.27272727       0.004
   0.12500000  0.35294118  0.27272727       0.004
   0.20833333  0.35294118  0.27272727       0.004
   0.29166667  0.35294118  0.27272727       0.004
   0.37500000  0.35294118  0.27272727       0.004
   0.45833333  0.35294118  0.27272727       0.004
   0.04166667  0.41176471  0.27272727       0.004
   0.12500000  0.41176471  0.27272727       0.004
   0.20833333  0.41176471  0.27272727       0.004
   0.29166667  0.41176471  0.27272727       0.004
   0.37500000  0.41176471  0.27272727       0.004
   0.45833333  0.41176471  0.27272727       0.004
   0.04166667  0.47058824  0.27272727       0.004
   0.12500000  0.47058824  0.27272727       0.004
   0.20833333  0.47058824  0.27272727       0.004
   0.29166667  0.47058824  0.27272727       0.004
   0.37500000  0.47058824  0.27272727       0.004
   0.45833333  0.47058824  0.27272727       0.004
   0.04166667  0.00000000  0.36363636       0.002
   0.12500000  0.00000000  0.36363636       0.002
   0.20833333  0.00000000  0.36363636       0.002
   0.29166667  0.00000000  0.36363636       0.002
   0.37500000  0.00000000  0.36363636       0.002
   0.45833333  0.00000000  0.36363636       0.002
   0.04166667  0.05882353  0.36363636       0.004
   0.12500000  0.05882353  0.36363636       0.004
   0.20833333  0.05882353  0.36363636       0.004
   0.29166667  0.05882353  0.36363636       0.004
   0.37500000  0.05882353  0.36363636       0.004
   0.45833333  0.05882353  0.36363636       0.004
   0.04166667  0.11764706  0.36363636       0.004
   0.12500000  0.11764706  0.36363636       0.004
   0.20833333  0.11764706  0.36363636       0.004
   0.29166667  0.11764706  0.36363636       0.004
   0.37500000  0.11764706  0.36363636       0.004
   0.45833333  0.11764706  0.36363636       0.004
   0.04166667  0.17647059  0.36363636       0.004
   0.12500000  0.17647059  0.36363636       0.004
   0.20833333  0.17647059  0.36363636       0.004
   0.29166667  0.17647059  0.36363636       0.004
   0.37500000  0.17647059  0.36363636       0.004
   0.45833333  0.17647059  0.36363636       0.004
   0.04166667  0.23529412  0.36363636       0.004
   0.12500000  0.23529412  0.36363636       0.004
   0.20833333  0.23529412  0.36363636       0.004
   0.29166667  0.23529412  0.36363636       0.004
   0.37500000  0.23529412  0.36363636       0.004
   0.45833333  0.23529412  0.36363636       0.004
   0.04166667  0.29411765  0.36363636       0.004
   0.12500000  0.29411765  0.36363636       0.004
   0.20833333  0.29411765  0.36363636       0.004
   0.29166667  0.29411765  0.36363636       0.004
   0.37500000  0.29411765  0.36363636       0.004
   0.45833333  0.29411765  0.36363636       0.004
   0.04166667  0.35294118  0.36363636       0.004
   0.12500000  0.35294118  0.36363636       0.004
   0.20833333  0.35294118  0.36363636       0.004
   0.29166667  0.35294118  0.36363636       0.004
   0.37500000  0.35294118  0.36363636       0.004
   0.45833333  0.35294118  0.36363636       0.004
   0.04166667  0.41176471  0.36363636       0.004
   0.12500000  0.41176471  0.36363636       0.004
   0.20833333  0.41176471  0.36363636       0.004
   0.29166667  0.41176471  0.36363636       0.004
   0.37500000  0.41176471  0.36363636       0.004
   0.45833333  0.41176471  0.36363636       0.004
   0.04166667  0.47058824  0.36363636       0.004
   0.12500000  0.47058824  0.36363636       0.004
   0.20833333  0.47058824  0.36363636       0.004
   0.29166667  0.47058824  0.36363636       0.004
   0.37500000  0.47058824  0.36363636       0.004
   0.45833333  0.47058824  0.36363636       0.004
   0.04166667  0.00000000  0.45454545       0.002
   0.12500000  0.00000000  0.45454545       0.002
   0.20833333  0.00000000  0.45454545       0.002
   0.29166667  0.00000000  0.45454545       0.002
   0.37500000  0.00000000  0.45454545       0.002
[...]
 k-point   124 :   0.2917 0.1176 0.1818  plane waves:    3413
 k-point   125 :   0.3750 0.1176 0.1818  plane waves:    3421
 k-point   126 :   0.4583 0.1176 0.1818  plane waves:    3423
 k-point   127 :   0.0417 0.1765 0.1818  plane waves:    3417
 k-point   128 :   0.1250 0.1765 0.1818  plane waves:    3412
 k-point   129 :   0.2083 0.1765 0.1818  plane waves:    3411
 k-point   130 :   0.2917 0.1765 0.1818  plane waves:    3404
 k-point   131 :   0.3750 0.1765 0.1818  plane waves:    3413
 k-point   132 :   0.4583 0.1765 0.1818  plane waves:    3422
 k-point   133 :   0.0417 0.2353 0.1818  plane waves:    3418
 k-point   134 :   0.1250 0.2353 0.1818  plane waves:    3412
 k-point   135 :   0.2083 0.2353 0.1818  plane waves:    3407
 k-point   136 :   0.2917 0.2353 0.1818  plane waves:    3410
 k-point   137 :   0.3750 0.2353 0.1818  plane waves:    3416
 k-point   138 :   0.4583 0.2353 0.1818  plane waves:    3414
 k-point   139 :   0.0417 0.2941 0.1818  plane waves:    3415
 k-point   140 :   0.1250 0.2941 0.1818  plane waves:    3415
 k-point   141 :   0.2083 0.2941 0.1818  plane waves:    3417
 k-point   142 :   0.2917 0.2941 0.1818  plane waves:    3409
 k-point   143 :   0.3750 0.2941 0.1818  plane waves:    3417
 k-point   144 :   0.4583 0.2941 0.1818  plane waves:    3417
 k-point   145 :   0.0417 0.3529 0.1818  plane waves:    3414
 k-point   146 :   0.1250 0.3529 0.1818  plane waves:    3410
 k-point   147 :   0.2083 0.3529 0.1818  plane waves:    3415
 k-point   148 :   0.2917 0.3529 0.1818  plane waves:    3420
 k-point   149 :   0.3750 0.3529 0.1818  plane waves:    3425
 k-point   150 :   0.4583 0.3529 0.1818  plane waves:    3426
 k-point   151 :   0.0417 0.4118 0.1818  plane waves:    3408
 k-point   152 :   0.1250 0.4118 0.1818  plane waves:    3412
 k-point   153 :   0.2083 0.4118 0.1818  plane waves:    3411
 k-point   154 :   0.2917 0.4118 0.1818  plane waves:    3414
 k-point   155 :   0.3750 0.4118 0.1818  plane waves:    3428
 k-point   156 :   0.4583 0.4118 0.1818  plane waves:    3421
 k-point   157 :   0.0417 0.4706 0.1818  plane waves:    3397
 k-point   158 :   0.1250 0.4706 0.1818  plane waves:    3414
 k-point   159 :   0.2083 0.4706 0.1818  plane waves:    3416
 k-point   160 :   0.2917 0.4706 0.1818  plane waves:    3426
 k-point   161 :   0.3750 0.4706 0.1818  plane waves:    3428
 k-point   162 :   0.4583 0.4706 0.1818  plane waves:    3419
 k-point   163 :   0.0417 0.0000 0.2727  plane waves:    3423
 k-point   164 :   0.1250 0.0000 0.2727  plane waves:    3422
 k-point   165 :   0.2083 0.0000 0.2727  plane waves:    3411
 k-point   166 :   0.2917 0.0000 0.2727  plane waves:    3407
 k-point   167 :   0.3750 0.0000 0.2727  plane waves:    3415
 k-point   168 :   0.4583 0.0000 0.2727  plane waves:    3426
 k-point   169 :   0.0417 0.0588 0.2727  plane waves:    3418
 k-point   170 :   0.1250 0.0588 0.2727  plane waves:    3418
 k-point   171 :   0.2083 0.0588 0.2727  plane waves:    3413
 k-point   172 :   0.2917 0.0588 0.2727  plane waves:    3415
 k-point   173 :   0.3750 0.0588 0.2727  plane waves:    3417
 k-point   174 :   0.4583 0.0588 0.2727  plane waves:    3425
 k-point   175 :   0.0417 0.1176 0.2727  plane waves:    3427
 k-point   176 :   0.1250 0.1176 0.2727  plane waves:    3409
 k-point   177 :   0.2083 0.1176 0.2727  plane waves:    3420
 k-point   178 :   0.2917 0.1176 0.2727  plane waves:    3425
 k-point   179 :   0.3750 0.1176 0.2727  plane waves:    3419
 k-point   180 :   0.4583 0.1176 0.2727  plane waves:    3410
 k-point   181 :   0.0417 0.1765 0.2727  plane waves:    3418
 k-point   182 :   0.1250 0.1765 0.2727  plane waves:    3414
 k-point   183 :   0.2083 0.1765 0.2727  plane waves:    3417
 k-point   184 :   0.2917 0.1765 0.2727  plane waves:    3409
 k-point   185 :   0.3750 0.1765 0.2727  plane waves:    3413
 k-point   186 :   0.4583 0.1765 0.2727  plane waves:    3417
 k-point   187 :   0.0417 0.2353 0.2727  plane waves:    3413
 k-point   188 :   0.1250 0.2353 0.2727  plane waves:    3410
 k-point   189 :   0.2083 0.2353 0.2727  plane waves:    3407
 k-point   190 :   0.2917 0.2353 0.2727  plane waves:    3411
 k-point   191 :   0.3750 0.2353 0.2727  plane waves:    3413
 k-point   192 :   0.4583 0.2353 0.2727  plane waves:    3424
 k-point   193 :   0.0417 0.2941 0.2727  plane waves:    3413
 k-point   194 :   0.1250 0.2941 0.2727  plane waves:    3414
 k-point   195 :   0.2083 0.2941 0.2727  plane waves:    3417
 k-point   196 :   0.2917 0.2941 0.2727  plane waves:    3417
 k-point   197 :   0.3750 0.2941 0.2727  plane waves:    3426
 k-point   198 :   0.4583 0.2941 0.2727  plane waves:    3428
 k-point   199 :   0.0417 0.3529 0.2727  plane waves:    3414
 k-point   200 :   0.1250 0.3529 0.2727  plane waves:    3414
 k-point   201 :   0.2083 0.3529 0.2727  plane waves:    3415
 k-point   202 :   0.2917 0.3529 0.2727  plane waves:    3428
 k-point   203 :   0.3750 0.3529 0.2727  plane waves:    3430
 k-point   204 :   0.4583 0.3529 0.2727  plane waves:    3428
 k-point   205 :   0.0417 0.4118 0.2727  plane waves:    3411
 k-point   206 :   0.1250 0.4118 0.2727  plane waves:    3414
 k-point   207 :   0.2083 0.4118 0.2727  plane waves:    3421
 k-point   208 :   0.2917 0.4118 0.2727  plane waves:    3423
 k-point   209 :   0.3750 0.4118 0.2727  plane waves:    3427
 k-point   210 :   0.4583 0.4118 0.2727  plane waves:    3425
 k-point   211 :   0.0417 0.4706 0.2727  plane waves:    3408
 k-point   212 :   0.1250 0.4706 0.2727  plane waves:    3425
 k-point   213 :   0.2083 0.4706 0.2727  plane waves:    3426
 k-point   214 :   0.2917 0.4706 0.2727  plane waves:    3422
 k-point   215 :   0.3750 0.4706 0.2727  plane waves:    3419
 k-point   216 :   0.4583 0.4706 0.2727  plane waves:    3409
 k-point   217 :   0.0417 0.0000 0.3636  plane waves:    3433
 k-point   218 :   0.1250 0.0000 0.3636  plane waves:    3432
 k-point   219 :   0.2083 0.0000 0.3636  plane waves:    3424
 k-point   220 :   0.2917 0.0000 0.3636  plane waves:    3416
 k-point   221 :   0.3750 0.0000 0.3636  plane waves:    3416
 k-point   222 :   0.4583 0.0000 0.3636  plane waves:    3416
 k-point   223 :   0.0417 0.0588 0.3636  plane waves:    3425
 k-point   224 :   0.1250 0.0588 0.3636  plane waves:    3416
 k-point   225 :   0.2083 0.0588 0.3636  plane waves:    3424
 k-point   226 :   0.2917 0.0588 0.3636  plane waves:    3411
 k-point   227 :   0.3750 0.0588 0.3636  plane waves:    3415
 k-point   228 :   0.4583 0.0588 0.3636  plane waves:    3415
 k-point   229 :   0.0417 0.1176 0.3636  plane waves:    3426
 k-point   230 :   0.1250 0.1176 0.3636  plane waves:    3421
 k-point   231 :   0.2083 0.1176 0.3636  plane waves:    3424
 k-point   232 :   0.2917 0.1176 0.3636  plane waves:    3417
 k-point   233 :   0.3750 0.1176 0.3636  plane waves:    3412
 k-point   234 :   0.4583 0.1176 0.3636  plane waves:    3412
 k-point   235 :   0.0417 0.1765 0.3636  plane waves:    3429
 k-point   236 :   0.1250 0.1765 0.3636  plane waves:    3422
 k-point   237 :   0.2083 0.1765 0.3636  plane waves:    3418
 k-point   238 :   0.2917 0.1765 0.3636  plane waves:    3412
 k-point   239 :   0.3750 0.1765 0.3636  plane waves:    3404
 k-point   240 :   0.4583 0.1765 0.3636  plane waves:    3412
 k-point   241 :   0.0417 0.2353 0.3636  plane waves:    3413
 k-point   242 :   0.1250 0.2353 0.3636  plane waves:    3419
 k-point   243 :   0.2083 0.2353 0.3636  plane waves:    3408
 k-point   244 :   0.2917 0.2353 0.3636  plane waves:    3412
 k-point   245 :   0.3750 0.2353 0.3636  plane waves:    3413
 k-point   246 :   0.4583 0.2353 0.3636  plane waves:    3422
 k-point   247 :   0.0417 0.2941 0.3636  plane waves:    3410
 k-point   248 :   0.1250 0.2941 0.3636  plane waves:    3415
 k-point   249 :   0.2083 0.2941 0.3636  plane waves:    3414
 k-point   250 :   0.2917 0.2941 0.3636  plane waves:    3422
 k-point   251 :   0.3750 0.2941 0.3636  plane waves:    3425
 k-point   252 :   0.4583 0.2941 0.3636  plane waves:    3428
 k-point   253 :   0.0417 0.3529 0.3636  plane waves:    3412
 k-point   254 :   0.1250 0.3529 0.3636  plane waves:    3408
 k-point   255 :   0.2083 0.3529 0.3636  plane waves:    3415
 k-point   256 :   0.2917 0.3529 0.3636  plane waves:    3424
 k-point   257 :   0.3750 0.3529 0.3636  plane waves:    3426
 k-point   258 :   0.4583 0.3529 0.3636  plane waves:    3426
 k-point   259 :   0.0417 0.4118 0.3636  plane waves:    3418
 k-point   260 :   0.1250 0.4118 0.3636  plane waves:    3417
 k-point   261 :   0.2083 0.4118 0.3636  plane waves:    3420
 k-point   262 :   0.2917 0.4118 0.3636  plane waves:    3421
 k-point   263 :   0.3750 0.4118 0.3636  plane waves:    3421
 k-point   264 :   0.4583 0.4118 0.3636  plane waves:    3424
 k-point   265 :   0.0417 0.4706 0.3636  plane waves:    3424
 k-point   266 :   0.1250 0.4706 0.3636  plane waves:    3422
 k-point   267 :   0.2083 0.4706 0.3636  plane waves:    3425
 k-point   268 :   0.2917 0.4706 0.3636  plane waves:    3425
 k-point   269 :   0.3750 0.4706 0.3636  plane waves:    3421
 k-point   270 :   0.4583 0.4706 0.3636  plane waves:    3426
 k-point   271 :   0.0417 0.0000 0.4545  plane waves:    3446
 k-point   272 :   0.1250 0.0000 0.4545  plane waves:    3434
 k-point   273 :   0.2083 0.0000 0.4545  plane waves:    3432
 k-point   274 :   0.2917 0.0000 0.4545  plane waves:    3421
 k-point   275 :   0.3750 0.0000 0.4545  plane waves:    3419
 k-point   276 :   0.4583 0.0000 0.4545  plane waves:    3408
 k-point   277 :   0.0417 0.0588 0.4545  plane waves:    3433
 k-point   278 :   0.1250 0.0588 0.4545  plane waves:    3425
 k-point   279 :   0.2083 0.0588 0.4545  plane waves:    3420
 k-point   280 :   0.2917 0.0588 0.4545  plane waves:    3425
 k-point   281 :   0.3750 0.0588 0.4545  plane waves:    3420
 k-point   282 :   0.4583 0.0588 0.4545  plane waves:    3406
 k-point   283 :   0.0417 0.1176 0.4545  plane waves:    3431
 k-point   284 :   0.1250 0.1176 0.4545  plane waves:    3427
 k-point   285 :   0.2083 0.1176 0.4545  plane waves:    3418
 k-point   286 :   0.2917 0.1176 0.4545  plane waves:    3418
 k-point   287 :   0.3750 0.1176 0.4545  plane waves:    3414
 k-point   288 :   0.4583 0.1176 0.4545  plane waves:    3412
 k-point   289 :   0.0417 0.1765 0.4545  plane waves:    3430
 k-point   290 :   0.1250 0.1765 0.4545  plane waves:    3424
 k-point   291 :   0.2083 0.1765 0.4545  plane waves:    3418
 k-point   292 :   0.2917 0.1765 0.4545  plane waves:    3415
 k-point   293 :   0.3750 0.1765 0.4545  plane waves:    3407
 k-point   294 :   0.4583 0.1765 0.4545  plane waves:    3417
 k-point   295 :   0.0417 0.2353 0.4545  plane waves:    3418
 k-point   296 :   0.1250 0.2353 0.4545  plane waves:    3416
 k-point   297 :   0.2083 0.2353 0.4545  plane waves:    3414
 k-point   298 :   0.2917 0.2353 0.4545  plane waves:    3410
 k-point   299 :   0.3750 0.2353 0.4545  plane waves:    3413
 k-point   300 :   0.4583 0.2353 0.4545  plane waves:    3425
 k-point   301 :   0.0417 0.2941 0.4545  plane waves:    3415
 k-point   302 :   0.1250 0.2941 0.4545  plane waves:    3405
 k-point   303 :   0.2083 0.2941 0.4545  plane waves:    3413
 k-point   304 :   0.2917 0.2941 0.4545  plane waves:    3420
 k-point   305 :   0.3750 0.2941 0.4545  plane waves:    3416
 k-point   306 :   0.4583 0.2941 0.4545  plane waves:    3423
 k-point   307 :   0.0417 0.3529 0.4545  plane waves:    3417
 k-point   308 :   0.1250 0.3529 0.4545  plane waves:    3412
 k-point   309 :   0.2083 0.3529 0.4545  plane waves:    3411
 k-point   310 :   0.2917 0.3529 0.4545  plane waves:    3419
 k-point   311 :   0.3750 0.3529 0.4545  plane waves:    3424
 k-point   312 :   0.4583 0.3529 0.4545  plane waves:    3415
 k-point   313 :   0.0417 0.4118 0.4545  plane waves:    3427
 k-point   314 :   0.1250 0.4118 0.4545  plane waves:    3426
 k-point   315 :   0.2083 0.4118 0.4545  plane waves:    3421
 k-point   316 :   0.2917 0.4118 0.4545  plane waves:    3417
 k-point   317 :   0.3750 0.4118 0.4545  plane waves:    3422
 k-point   318 :   0.4583 0.4118 0.4545  plane waves:    3418
 k-point   319 :   0.0417 0.4706 0.4545  plane waves:    3424
 k-point   320 :   0.1250 0.4706 0.4545  plane waves:    3433
 k-point   321 :   0.2083 0.4706 0.4545  plane waves:    3433
 k-point   322 :   0.2917 0.4706 0.4545  plane waves:    3414
 k-point   323 :   0.3750 0.4706 0.4545  plane waves:    3418
 k-point   324 :   0.4583 0.4706 0.4545  plane waves:    3427

 maximum and minimum number of plane-waves per node :      3446     3384

 maximum number of plane-waves:      3446
 maximum index in each direction: 
   IXMAX=   10   IYMAX=    7   IZMAX=   11
   IXMIN=  -10   IYMIN=   -7   IZMIN=  -11


 serial   3D FFT for wavefunctions
 parallel 3D FFT for charge:
    minimum data exchange during FFTs selected (reduces bandwidth)


 total amount of memory used by VASP MPI-rank0   144134. kBytes
=======================================================================

   base      :      30000. kBytes
   nonl-proj :      72437. kBytes
   fftplans  :       1019. kBytes
   grid      :       3560. kBytes
   one-center:         43. kBytes
   wavefun   :      37075. kBytes
 
     INWAV:  cpu time      0.0001: real time      0.0003
 Broyden mixing: mesh for mixing (old mesh)
   NGX = 21   NGY = 15   NGZ = 23
  (NGX  = 84   NGY  = 60   NGZ  = 96)
  gives a total of   7245 points

 initial charge density was supplied:
 charge density of overlapping atoms calculated
 number of electron      42.0000000 magnetization 
 keeping initial charge density in first step


--------------------------------------------------------------------------------------------------------


 Maximum index for augmentation-charges          566 (set IRDMAX)


--------------------------------------------------------------------------------------------------------


 First call to EWALD:  gamma=   0.339
 Maximum number of real-space cells 3x 3x 2
 Maximum number of reciprocal cells 3x 2x 3

    FEWALD:  cpu time      0.0024: real time      0.0025


--------------------------------------- Ionic step        1  -------------------------------------------




--------------------------------------- Iteration      1(   1)  ---------------------------------------


    POTLOK:  cpu time      0.0172: real time      0.0198
    SETDIJ:  cpu time      0.0022: real time      0.0026
     EDDAV:  cpu time     14.9939: real time     15.1676
       DOS:  cpu time      0.0028: real time      0.0046
    --------------------------------------------
      LOOP:  cpu time     15.0162: real time     15.1946

 eigenvalue-minimisations  : 31104
 total energy-change (2. order) : 0.5354394E+02  (-0.1763521E+04)
 number of electron      42.0000000 magnetization 
 augmentation part       42.0000000 magnetization 

 Free energy of the ion-electron system (eV)
  ---------------------------------------------------
  alpha Z        PSCENC =        94.24357992
  Ewald energy   TEWEN  =      -795.76658092
  -Hartree energ DENC   =      -271.33601302
  -exchange      EXHF   =         0.00000000
  -V(xc)+E(xc)   XCENC  =        97.50108136
  PAW double counting   =       608.99811708     -597.02363782
  entropy T*S    EENTRO =        -0.00155821
  eigenvalues    EBANDS =       -79.43717873
  atomic energy  EATOM  =       996.36613177
  Solvation  Ediel_sol  =         0.00000000
  ---------------------------------------------------
  free energy    TOTEN  =        53.54394143 eV

  energy without entropy =       53.54549964  energy(sigma->0) =       53.54472054


--------------------------------------------------------------------------------------------------------




--------------------------------------- Iteration      1(   2)  ---------------------------------------


     EDDAV:  cpu time     17.9660: real time     18.0671
       DOS:  cpu time      0.0083: real time      0.0113
    --------------------------------------------
      LOOP:  cpu time     17.9743: real time     18.0783

 eigenvalue-minimisations  : 43536
 total energy-change (2. order) :-0.1464499E+03  (-0.1377864E+03)
 number of electron      42.0000000 magnetization 
 augmentation part       42.0000000 magnetization 

 Free energy of the ion-electron system (eV)
  ---------------------------------------------------
  alpha Z        PSCENC =        94.24357992
  Ewald energy   TEWEN  =      -795.76658092
  -Hartree energ DENC   =      -271.33601302
  -exchange      EXHF   =         0.00000000
  -V(xc)+E(xc)   XCENC  =        97.50108136
  PAW double counting   =       608.99811708     -597.02363782
  entropy T*S    EENTRO =        -0.00438631
  eigenvalues    EBANDS =      -225.88428964
  atomic energy  EATOM  =       996.36613177
  Solvation  Ediel_sol  =         0.00000000
  ---------------------------------------------------
  free energy    TOTEN  =       -92.90599758 eV

  energy without entropy =      -92.90161127  energy(sigma->0) =      -92.90380443


--------------------------------------------------------------------------------------------------------




--------------------------------------- Iteration      1(   3)  ---------------------------------------


     EDDAV:  cpu time     18.4905: real time     18.5782
       DOS:  cpu time      0.0036: real time      0.0050
    --------------------------------------------
      LOOP:  cpu time     18.4941: real time     18.5833

 eigenvalue-minimisations  : 45216
 total energy-change (2. order) :-0.4677229E+01  (-0.4654587E+01)
 number of electron      42.0000000 magnetization 
 augmentation part       42.0000000 magnetization 

 Free energy of the ion-electron system (eV)
  ---------------------------------------------------
  alpha Z        PSCENC =        94.24357992
  Ewald energy   TEWEN  =      -795.76658092
  -Hartree energ DENC   =      -271.33601302
  -exchange      EXHF   =         0.00000000
  -V(xc)+E(xc)   XCENC  =        97.50108136
  PAW double counting   =       608.99811708     -597.02363782
  entropy T*S    EENTRO =        -0.00540598
  eigenvalues    EBANDS =      -230.56049886
  atomic energy  EATOM  =       996.36613177
  Solvation  Ediel_sol  =         0.00000000
  ---------------------------------------------------
  free energy    TOTEN  =       -97.58322647 eV

  energy without entropy =      -97.57782049  energy(sigma->0) =      -97.58052348


--------------------------------------------------------------------------------------------------------




--------------------------------------- Iteration      1(   4)  ---------------------------------------


     EDDAV:  cpu time     17.2775: real time     17.3593
       DOS:  cpu time      0.0041: real time      0.0065
    --------------------------------------------
      LOOP:  cpu time     17.2817: real time     17.3659

 eigenvalue-minimisations  : 38640
 total energy-change (2. order) :-0.2720562E-01  (-0.2720384E-01)
 number of electron      42.0000000 magnetization 
 augmentation part       42.0000000 magnetization 

 Free energy of the ion-electron system (eV)
  ---------------------------------------------------
  alpha Z        PSCENC =        94.24357992
  Ewald energy   TEWEN  =      -795.76658092
  -Hartree energ DENC   =      -271.33601302
  -exchange      EXHF   =         0.00000000
  -V(xc)+E(xc)   XCENC  =        97.50108136
  PAW double counting   =       608.99811708     -597.02363782
  entropy T*S    EENTRO =        -0.00540392
  eigenvalues    EBANDS =      -230.58770654
  atomic energy  EATOM  =       996.36613177
  Solvation  Ediel_sol  =         0.00000000
  ---------------------------------------------------
  free energy    TOTEN  =       -97.61043210 eV

  energy without entropy =      -97.60502817  energy(sigma->0) =      -97.60773013


--------------------------------------------------------------------------------------------------------




--------------------------------------- Iteration      1(   5)  ---------------------------------------


