<?xml version="1.0" encoding="ISO-8859-1"?>
<modeling>
 <generator>
  <i name="program" type="string">vasp </i>
  <i name="version" type="string">6.4.3  </i>
  <i name="subversion" type="string">19Mar24 (build May 31 2024 16:31:43) complex                          parallel </i>
  <i name="platform" type="string">LinuxIFC </i>
  <i name="date" type="string">2024 10 29 </i>
  <i name="time" type="string">14:13:59 </i>
 </generator>
 <incar>
  <i type="string" name="SYSTEM">Kpoints</i>
  <i type="int" name="ISTART">     0</i>
  <i type="string" name="PREC">Accurate</i>
  <i type="string" name="ALGO">Normal</i>
  <i type="int" name="ISPIN">     1</i>
  <i type="int" name="ICHARG">     2</i>
  <i type="int" name="NELM">   100</i>
  <i type="int" name="IBRION">    -1</i>
  <i name="EDIFF">      0.00000100</i>
  <i name="EDIFFG">     -0.00100000</i>
  <i type="int" name="NSW">     0</i>
  <i type="int" name="ISIF">     2</i>
  <i name="ENCUT">    450.00000000</i>
  <i name="POTIM">      0.50000000</i>
  <i type="int" name="ISMEAR">     0</i>
  <i name="SIGMA">      0.05000000</i>
  <i type="logical" name="LWAVE"> F  </i>
  <i type="logical" name="LCHARG"> F  </i>
  <i type="string" name="GGA">PE</i>
 </incar>
 <primitive_cell>
  <structure name="primitive_cell" >
   <crystal>
    <varray name="basis" >
     <v>       5.69700000       0.00000000       0.00000000 </v>
     <v>       0.00000000       4.04790000       0.00000000 </v>
     <v>       0.00000000       0.00000000       6.20420000 </v>
    </varray>
    <i name="volume">    143.07435078 </i>
    <varray name="rec_basis" >
     <v>       0.17553098       0.00000000       0.00000000 </v>
     <v>       0.00000000       0.24704168       0.00000000 </v>
     <v>       0.00000000       0.00000000       0.16118114 </v>
    </varray>
   </crystal>
   <varray name="positions" >
    <v>       0.52123000       0.50000000       0.63796000 </v>
    <v>       0.47877000       0.50000000       0.36204000 </v>
    <v>       0.97877000       0.50000000       0.63796000 </v>
    <v>       0.02123000       0.50000000       0.36204000 </v>
    <v>       0.60090000       0.50000000       0.89991000 </v>
    <v>       0.39910000       0.50000000       0.10009000 </v>
    <v>       0.89910000       0.50000000       0.89991000 </v>
    <v>       0.10090000       0.50000000       0.10009000 </v>
    <v>       0.75000000       0.79171000       0.72973000 </v>
    <v>       0.25000000       0.20829000       0.27027000 </v>
    <v>       0.75000000       0.20829000       0.72973000 </v>
    <v>       0.25000000       0.79171000       0.27027000 </v>
    <v>       0.25000000       0.50000000       0.52367000 </v>
    <v>       0.75000000       0.50000000       0.47633000 </v>
   </varray>
  </structure>
  <varray name="primitive_index" >
   <v type="int" >        1 </v>
   <v type="int" >        2 </v>
   <v type="int" >        3 </v>
   <v type="int" >        4 </v>
   <v type="int" >        5 </v>
   <v type="int" >        6 </v>
   <v type="int" >        7 </v>
   <v type="int" >        8 </v>
   <v type="int" >        9 </v>
   <v type="int" >       10 </v>
   <v type="int" >       11 </v>
   <v type="int" >       12 </v>
   <v type="int" >       13 </v>
   <v type="int" >       14 </v>
  </varray>
 </primitive_cell>
 <kpoints>
  <generation param="Monkhorst-Pack">
   <v type="int" name="divisions">      12       17       11 </v>
   <v name="usershift">      0.00000000       0.00000000       0.00000000 </v>
   <v name="genvec1">      0.08333333       0.00000000       0.00000000 </v>
   <v name="genvec2">      0.00000000       0.05882353       0.00000000 </v>
   <v name="genvec3">      0.00000000       0.00000000       0.09090909 </v>
   <v name="shift">      0.50000000       0.00000000       0.00000000 </v>
  </generation>
  <varray name="kpointlist" >
   <v>       0.04166667       0.00000000       0.00000000 </v>
   <v>       0.12500000       0.00000000       0.00000000 </v>
   <v>       0.20833333       0.00000000       0.00000000 </v>
   <v>       0.29166667       0.00000000       0.00000000 </v>
   <v>       0.37500000       0.00000000       0.00000000 </v>
   <v>       0.45833333       0.00000000       0.00000000 </v>
   <v>       0.04166667       0.05882353       0.00000000 </v>
   <v>       0.12500000       0.05882353       0.00000000 </v>
   <v>       0.20833333       0.05882353       0.00000000 </v>
   <v>       0.29166667       0.05882353       0.00000000 </v>
   <v>       0.37500000       0.05882353       0.00000000 </v>
   <v>       0.45833333       0.05882353       0.00000000 </v>
   <v>       0.04166667       0.11764706       0.00000000 </v>
   <v>       0.12500000       0.11764706       0.00000000 </v>
   <v>       0.20833333       0.11764706       0.00000000 </v>
   <v>       0.29166667       0.11764706       0.00000000 </v>
   <v>       0.37500000       0.11764706       0.00000000 </v>
   <v>       0.45833333       0.11764706       0.00000000 </v>
   <v>       0.04166667       0.17647059       0.00000000 </v>
   <v>       0.12500000       0.17647059       0.00000000 </v>
   <v>       0.20833333       0.17647059       0.00000000 </v>
   <v>       0.29166667       0.17647059       0.00000000 </v>
   <v>       0.37500000       0.17647059       0.00000000 </v>
   <v>       0.45833333       0.17647059       0.00000000 </v>
   <v>       0.04166667       0.23529412       0.00000000 </v>
   <v>       0.12500000       0.23529412       0.00000000 </v>
   <v>       0.20833333       0.23529412       0.00000000 </v>
   <v>       0.29166667       0.23529412       0.00000000 </v>
   <v>       0.37500000       0.23529412       0.00000000 </v>
   <v>       0.45833333       0.23529412       0.00000000 </v>
   <v>       0.04166667       0.29411765       0.00000000 </v>
   <v>       0.12500000       0.29411765       0.00000000 </v>
   <v>       0.20833333       0.29411765       0.00000000 </v>
   <v>       0.29166667       0.29411765       0.00000000 </v>
   <v>       0.37500000       0.29411765       0.00000000 </v>
   <v>       0.45833333       0.29411765       0.00000000 </v>
   <v>       0.04166667       0.35294118       0.00000000 </v>
   <v>       0.12500000       0.35294118       0.00000000 </v>
   <v>       0.20833333       0.35294118       0.00000000 </v>
   <v>       0.29166667       0.35294118       0.00000000 </v>
   <v>       0.37500000       0.35294118       0.00000000 </v>
   <v>       0.45833333       0.35294118       0.00000000 </v>
   <v>       0.04166667       0.41176471       0.00000000 </v>
   <v>       0.12500000       0.41176471       0.00000000 </v>
   <v>       0.20833333       0.41176471       0.00000000 </v>
   <v>       0.29166667       0.41176471       0.00000000 </v>
   <v>       0.37500000       0.41176471       0.00000000 </v>
   <v>       0.45833333       0.41176471       0.00000000 </v>
   <v>       0.04166667       0.47058824       0.00000000 </v>
   <v>       0.12500000       0.47058824       0.00000000 </v>
   <v>       0.20833333       0.47058824       0.00000000 </v>
   <v>       0.29166667       0.47058824       0.00000000 </v>
   <v>       0.37500000       0.47058824       0.00000000 </v>
   <v>       0.45833333       0.47058824       0.00000000 </v>
   <v>       0.04166667       0.00000000       0.09090909 </v>
   <v>       0.12500000       0.00000000       0.09090909 </v>
   <v>       0.20833333       0.00000000       0.09090909 </v>
   <v>       0.29166667       0.00000000       0.09090909 </v>
   <v>       0.37500000       0.00000000       0.09090909 </v>
   <v>       0.45833333       0.00000000       0.09090909 </v>
   <v>       0.04166667       0.05882353       0.09090909 </v>
   <v>       0.12500000       0.05882353       0.09090909 </v>
   <v>       0.20833333       0.05882353       0.09090909 </v>
   <v>       0.29166667       0.05882353       0.09090909 </v>
   <v>       0.37500000       0.05882353       0.09090909 </v>
   <v>       0.45833333       0.05882353       0.09090909 </v>
   <v>       0.04166667       0.11764706       0.09090909 </v>
   <v>       0.12500000       0.11764706       0.09090909 </v>
   <v>       0.20833333       0.11764706       0.09090909 </v>
   <v>       0.29166667       0.11764706       0.09090909 </v>
   <v>       0.37500000       0.11764706       0.09090909 </v>
   <v>       0.45833333       0.11764706       0.09090909 </v>
   <v>       0.04166667       0.17647059       0.09090909 </v>
   <v>       0.12500000       0.17647059       0.09090909 </v>
   <v>       0.20833333       0.17647059       0.09090909 </v>
   <v>       0.29166667       0.17647059       0.09090909 </v>
   <v>       0.37500000       0.17647059       0.09090909 </v>
   <v>       0.45833333       0.17647059       0.09090909 </v>
   <v>       0.04166667       0.23529412       0.09090909 </v>
   <v>       0.12500000       0.23529412       0.09090909 </v>
   <v>       0.20833333       0.23529412       0.09090909 </v>
   <v>       0.29166667       0.23529412       0.09090909 </v>
   <v>       0.37500000       0.23529412       0.09090909 </v>
   <v>       0.45833333       0.23529412       0.09090909 </v>
   <v>       0.04166667       0.29411765       0.09090909 </v>
   <v>       0.12500000       0.29411765       0.09090909 </v>
   <v>       0.20833333       0.29411765       0.09090909 </v>
   <v>       0.29166667       0.29411765       0.09090909 </v>
   <v>       0.37500000       0.29411765       0.09090909 </v>
   <v>       0.45833333       0.29411765       0.09090909 </v>
   <v>       0.04166667       0.35294118       0.09090909 </v>
   <v>       0.12500000       0.35294118       0.09090909 </v>
   <v>       0.20833333       0.35294118       0.09090909 </v>
   <v>       0.29166667       0.35294118       0.09090909 </v>
   <v>       0.37500000       0.35294118       0.09090909 </v>
   <v>       0.45833333       0.35294118       0.09090909 </v>
   <v>       0.04166667       0.41176471       0.09090909 </v>
   <v>       0.12500000       0.41176471       0.09090909 </v>
   <v>       0.20833333       0.41176471       0.09090909 </v>
   <v>       0.29166667       0.41176471       0.09090909 </v>
   <v>       0.37500000       0.41176471       0.09090909 </v>
   <v>       0.45833333       0.41176471       0.09090909 </v>
   <v>       0.04166667       0.47058824       0.09090909 </v>
   <v>       0.12500000       0.47058824       0.09090909 </v>
   <v>       0.20833333       0.47058824       0.09090909 </v>
   <v>       0.29166667       0.47058824       0.09090909 </v>
   <v>       0.37500000       0.47058824       0.09090909 </v>
   <v>       0.45833333       0.47058824       0.09090909 </v>
   <v>       0.04166667       0.00000000       0.18181818 </v>
   <v>       0.12500000       0.00000000       0.18181818 </v>
   <v>       0.20833333       0.00000000       0.18181818 </v>
   <v>       0.29166667       0.00000000       0.18181818 </v>
   <v>       0.37500000       0.00000000       0.18181818 </v>
   <v>       0.45833333       0.00000000       0.18181818 </v>
   <v>       0.04166667       0.05882353       0.18181818 </v>
   <v>       0.12500000       0.05882353       0.18181818 </v>
   <v>       0.20833333       0.05882353       0.18181818 </v>
   <v>       0.29166667       0.05882353       0.18181818 </v>
   <v>       0.37500000       0.05882353       0.18181818 </v>
   <v>       0.45833333       0.05882353       0.18181818 </v>
   <v>       0.04166667       0.11764706       0.18181818 </v>
   <v>       0.12500000       0.11764706       0.18181818 </v>
   <v>       0.20833333       0.11764706       0.18181818 </v>
   <v>       0.29166667       0.11764706       0.18181818 </v>
   <v>       0.37500000       0.11764706       0.18181818 </v>
   <v>       0.45833333       0.11764706       0.18181818 </v>
   <v>       0.04166667       0.17647059       0.18181818 </v>
   <v>       0.12500000       0.17647059       0.18181818 </v>
   <v>       0.20833333       0.17647059       0.18181818 </v>
   <v>       0.29166667       0.17647059       0.18181818 </v>
   <v>       0.37500000       0.17647059       0.18181818 </v>
   <v>       0.45833333       0.17647059       0.18181818 </v>
   <v>       0.04166667       0.23529412       0.18181818 </v>
   <v>       0.12500000       0.23529412       0.18181818 </v>
   <v>       0.20833333       0.23529412       0.18181818 </v>
   <v>       0.29166667       0.23529412       0.18181818 </v>
   <v>       0.37500000       0.23529412       0.18181818 </v>
   <v>       0.45833333       0.23529412       0.18181818 </v>
   <v>       0.04166667       0.29411765       0.18181818 </v>
   <v>       0.12500000       0.29411765       0.18181818 </v>
   <v>       0.20833333       0.29411765       0.18181818 </v>
   <v>       0.29166667       0.29411765       0.18181818 </v>
   <v>       0.37500000       0.29411765       0.18181818 </v>
   <v>       0.45833333       0.29411765       0.18181818 </v>
   <v>       0.04166667       0.35294118       0.18181818 </v>
   <v>       0.12500000       0.35294118       0.18181818 </v>
   <v>       0.20833333       0.35294118       0.18181818 </v>
   <v>       0.29166667       0.35294118       0.18181818 </v>
   <v>       0.37500000       0.35294118       0.18181818 </v>
   <v>       0.45833333       0.35294118       0.18181818 </v>
   <v>       0.04166667       0.41176471       0.18181818 </v>
   <v>       0.12500000       0.41176471       0.18181818 </v>
   <v>       0.20833333       0.41176471       0.18181818 </v>
   <v>       0.29166667       0.41176471       0.18181818 </v>
   <v>       0.37500000       0.41176471       0.18181818 </v>
   <v>       0.45833333       0.41176471       0.18181818 </v>
   <v>       0.04166667       0.47058824       0.18181818 </v>
   <v>       0.12500000       0.47058824       0.18181818 </v>
   <v>       0.20833333       0.47058824       0.18181818 </v>
   <v>       0.29166667       0.47058824       0.18181818 </v>
   <v>       0.37500000       0.47058824       0.18181818 </v>
   <v>       0.45833333       0.47058824       0.18181818 </v>
   <v>       0.04166667       0.00000000       0.27272727 </v>
   <v>       0.12500000       0.00000000       0.27272727 </v>
   <v>       0.20833333       0.00000000       0.27272727 </v>
   <v>       0.29166667       0.00000000       0.27272727 </v>
   <v>       0.37500000       0.00000000       0.27272727 </v>
   <v>       0.45833333       0.00000000       0.27272727 </v>
   <v>       0.04166667       0.05882353       0.27272727 </v>
   <v>       0.12500000       0.05882353       0.27272727 </v>
   <v>       0.20833333       0.05882353       0.27272727 </v>
   <v>       0.29166667       0.05882353       0.27272727 </v>
   <v>       0.37500000       0.05882353       0.27272727 </v>
   <v>       0.45833333       0.05882353       0.27272727 </v>
   <v>       0.04166667       0.11764706       0.27272727 </v>
   <v>       0.12500000       0.11764706       0.27272727 </v>
   <v>       0.20833333       0.11764706       0.27272727 </v>
   <v>       0.29166667       0.11764706       0.27272727 </v>
   <v>       0.37500000       0.11764706       0.27272727 </v>
   <v>       0.45833333       0.11764706       0.27272727 </v>
   <v>       0.04166667       0.17647059       0.27272727 </v>
   <v>       0.12500000       0.17647059       0.27272727 </v>
   <v>       0.20833333       0.17647059       0.27272727 </v>
   <v>       0.29166667       0.17647059       0.27272727 </v>
   <v>       0.37500000       0.17647059       0.27272727 </v>
   <v>       0.45833333       0.17647059       0.27272727 </v>
   <v>       0.04166667       0.23529412       0.27272727 </v>
   <v>       0.12500000       0.23529412       0.27272727 </v>
   <v>       0.20833333       0.23529412       0.27272727 </v>
   <v>       0.29166667       0.23529412       0.27272727 </v>
   <v>       0.37500000       0.23529412       0.27272727 </v>
   <v>       0.45833333       0.23529412       0.27272727 </v>
   <v>       0.04166667       0.29411765       0.27272727 </v>
   <v>       0.12500000       0.29411765       0.27272727 </v>
   <v>       0.20833333       0.29411765       0.27272727 </v>
   <v>       0.29166667       0.29411765       0.27272727 </v>
   <v>       0.37500000       0.29411765       0.27272727 </v>
   <v>       0.45833333       0.29411765       0.27272727 </v>
   <v>       0.04166667       0.35294118       0.27272727 </v>
   <v>       0.12500000       0.35294118       0.27272727 </v>
   <v>       0.20833333       0.35294118       0.27272727 </v>
   <v>       0.29166667       0.35294118       0.27272727 </v>
   <v>       0.37500000       0.35294118       0.27272727 </v>
   <v>       0.45833333       0.35294118       0.27272727 </v>
   <v>       0.04166667       0.41176471       0.27272727 </v>
   <v>       0.12500000       0.41176471       0.27272727 </v>
   <v>       0.20833333       0.41176471       0.27272727 </v>
   <v>       0.29166667       0.41176471       0.27272727 </v>
   <v>       0.37500000       0.41176471       0.27272727 </v>
   <v>       0.45833333       0.41176471       0.27272727 </v>
   <v>       0.04166667       0.47058824       0.27272727 </v>
   <v>       0.12500000       0.47058824       0.27272727 </v>
   <v>       0.20833333       0.47058824       0.27272727 </v>
   <v>       0.29166667       0.47058824       0.27272727 </v>
   <v>       0.37500000       0.47058824       0.27272727 </v>
   <v>       0.45833333       0.47058824       0.27272727 </v>
   <v>       0.04166667       0.00000000       0.36363636 </v>
   <v>       0.12500000       0.00000000       0.36363636 </v>
   <v>       0.20833333       0.00000000       0.36363636 </v>
   <v>       0.29166667       0.00000000       0.36363636 </v>
   <v>       0.37500000       0.00000000       0.36363636 </v>
   <v>       0.45833333       0.00000000       0.36363636 </v>
   <v>       0.04166667       0.05882353       0.36363636 </v>
   <v>       0.12500000       0.05882353       0.36363636 </v>
   <v>       0.20833333       0.05882353       0.36363636 </v>
   <v>       0.29166667       0.05882353       0.36363636 </v>
   <v>       0.37500000       0.05882353       0.36363636 </v>
   <v>       0.45833333       0.05882353       0.36363636 </v>
   <v>       0.04166667       0.11764706       0.36363636 </v>
   <v>       0.12500000       0.11764706       0.36363636 </v>
   <v>       0.20833333       0.11764706       0.36363636 </v>
   <v>       0.29166667       0.11764706       0.36363636 </v>
   <v>       0.37500000       0.11764706       0.36363636 </v>
   <v>       0.45833333       0.11764706       0.36363636 </v>
   <v>       0.04166667       0.17647059       0.36363636 </v>
   <v>       0.12500000       0.17647059       0.36363636 </v>
   <v>       0.20833333       0.17647059       0.36363636 </v>
   <v>       0.29166667       0.17647059       0.36363636 </v>
   <v>       0.37500000       0.17647059       0.36363636 </v>
   <v>       0.45833333       0.17647059       0.36363636 </v>
   <v>       0.04166667       0.23529412       0.36363636 </v>
   <v>       0.12500000       0.23529412       0.36363636 </v>
   <v>       0.20833333       0.23529412       0.36363636 </v>
   <v>       0.29166667       0.23529412       0.36363636 </v>
   <v>       0.37500000       0.23529412       0.36363636 </v>
   <v>       0.45833333       0.23529412       0.36363636 </v>
   <v>       0.04166667       0.29411765       0.36363636 </v>
   <v>       0.12500000       0.29411765       0.36363636 </v>
   <v>       0.20833333       0.29411765       0.36363636 </v>
   <v>       0.29166667       0.29411765       0.36363636 </v>
   <v>       0.37500000       0.29411765       0.36363636 </v>
   <v>       0.45833333       0.29411765       0.36363636 </v>
   <v>       0.04166667       0.35294118       0.36363636 </v>
   <v>       0.12500000       0.35294118       0.36363636 </v>
   <v>       0.20833333       0.35294118       0.36363636 </v>
   <v>       0.29166667       0.35294118       0.36363636 </v>
   <v>       0.37500000       0.35294118       0.36363636 </v>
   <v>       0.45833333       0.35294118       0.36363636 </v>
   <v>       0.04166667       0.41176471       0.36363636 </v>
   <v>       0.12500000       0.41176471       0.36363636 </v>
   <v>       0.20833333       0.41176471       0.36363636 </v>
   <v>       0.29166667       0.41176471       0.36363636 </v>
   <v>       0.37500000       0.41176471       0.36363636 </v>
   <v>       0.45833333       0.41176471       0.36363636 </v>
   <v>       0.04166667       0.47058824       0.36363636 </v>
   <v>       0.12500000       0.47058824       0.36363636 </v>
   <v>       0.20833333       0.47058824       0.36363636 </v>
   <v>       0.29166667       0.47058824       0.36363636 </v>
   <v>       0.37500000       0.47058824       0.36363636 </v>
   <v>       0.45833333       0.47058824       0.36363636 </v>
   <v>       0.04166667       0.00000000       0.45454545 </v>
   <v>       0.12500000       0.00000000       0.45454545 </v>
   <v>       0.20833333       0.00000000       0.45454545 </v>
   <v>       0.29166667       0.00000000       0.45454545 </v>
   <v>       0.37500000       0.00000000       0.45454545 </v>
   <v>       0.45833333       0.00000000       0.45454545 </v>
   <v>       0.04166667       0.05882353       0.45454545 </v>
   <v>       0.12500000       0.05882353       0.45454545 </v>
   <v>       0.20833333       0.05882353       0.45454545 </v>
   <v>       0.29166667       0.05882353       0.45454545 </v>
   <v>       0.37500000       0.05882353       0.45454545 </v>
   <v>       0.45833333       0.05882353       0.45454545 </v>
   <v>       0.04166667       0.11764706       0.45454545 </v>
   <v>       0.12500000       0.11764706       0.45454545 </v>
   <v>       0.20833333       0.11764706       0.45454545 </v>
   <v>       0.29166667       0.11764706       0.45454545 </v>
   <v>       0.37500000       0.11764706       0.45454545 </v>
   <v>       0.45833333       0.11764706       0.45454545 </v>
   <v>       0.04166667       0.17647059       0.45454545 </v>
   <v>       0.12500000       0.17647059       0.45454545 </v>
   <v>       0.20833333       0.17647059       0.45454545 </v>
   <v>       0.29166667       0.17647059       0.45454545 </v>
   <v>       0.37500000       0.17647059       0.45454545 </v>
   <v>       0.45833333       0.17647059       0.45454545 </v>
   <v>       0.04166667       0.23529412       0.45454545 </v>
   <v>       0.12500000       0.23529412       0.45454545 </v>
   <v>       0.20833333       0.23529412       0.45454545 </v>
   <v>       0.29166667       0.23529412       0.45454545 </v>
   <v>       0.37500000       0.23529412       0.45454545 </v>
   <v>       0.45833333       0.23529412       0.45454545 </v>
   <v>       0.04166667       0.29411765       0.45454545 </v>
   <v>       0.12500000       0.29411765       0.45454545 </v>
   <v>       0.20833333       0.29411765       0.45454545 </v>
   <v>       0.29166667       0.29411765       0.45454545 </v>
   <v>       0.37500000       0.29411765       0.45454545 </v>
   <v>       0.45833333       0.29411765       0.45454545 </v>
   <v>       0.04166667       0.35294118       0.45454545 </v>
   <v>       0.12500000       0.35294118       0.45454545 </v>
   <v>       0.20833333       0.35294118       0.45454545 </v>
   <v>       0.29166667       0.35294118       0.45454545 </v>
   <v>       0.37500000       0.35294118       0.45454545 </v>
   <v>       0.45833333       0.35294118       0.45454545 </v>
   <v>       0.04166667       0.41176471       0.45454545 </v>
   <v>       0.12500000       0.41176471       0.45454545 </v>
   <v>       0.20833333       0.41176471       0.45454545 </v>
   <v>       0.29166667       0.41176471       0.45454545 </v>
   <v>       0.37500000       0.41176471       0.45454545 </v>
   <v>       0.45833333       0.41176471       0.45454545 </v>
   <v>       0.04166667       0.47058824       0.45454545 </v>
   <v>       0.12500000       0.47058824       0.45454545 </v>
   <v>       0.20833333       0.47058824       0.45454545 </v>
   <v>       0.29166667       0.47058824       0.45454545 </v>
   <v>       0.37500000       0.47058824       0.45454545 </v>
   <v>       0.45833333       0.47058824       0.45454545 </v>
  </varray>
  <varray name="weights" >
   <v>       0.00089127 </v>
   <v>       0.00089127 </v>
   <v>       0.00089127 </v>
   <v>       0.00089127 </v>
   <v>       0.00089127 </v>
   <v>       0.00089127 </v>
   <v>       0.00178253 </v>
   <v>       0.00178253 </v>
   <v>       0.00178253 </v>
   <v>       0.00178253 </v>
   <v>       0.00178253 </v>
   <v>       0.00178253 </v>
   <v>       0.00178253 </v>
   <v>       0.00178253 </v>
   <v>       0.00178253 </v>
   <v>       0.00178253 </v>
   <v>       0.00178253 </v>
   <v>       0.00178253 </v>
   <v>       0.00178253 </v>
   <v>       0.00178253 </v>
   <v>       0.00178253 </v>
   <v>       0.00178253 </v>
   <v>       0.00178253 </v>
   <v>       0.00178253 </v>
   <v>       0.00178253 </v>
   <v>       0.00178253 </v>
   <v>       0.00178253 </v>
   <v>       0.00178253 </v>
   <v>       0.00178253 </v>
   <v>       0.00178253 </v>
   <v>       0.00178253 </v>
   <v>       0.00178253 </v>
   <v>       0.00178253 </v>
   <v>       0.00178253 </v>
   <v>       0.00178253 </v>
   <v>       0.00178253 </v>
   <v>       0.00178253 </v>
   <v>       0.00178253 </v>
   <v>       0.00178253 </v>
   <v>       0.00178253 </v>
   <v>       0.00178253 </v>
   <v>       0.00178253 </v>
   <v>       0.00178253 </v>
   <v>       0.00178253 </v>
   <v>       0.00178253 </v>
   <v>       0.00178253 </v>
   <v>       0.00178253 </v>
   <v>       0.00178253 </v>
   <v>       0.00178253 </v>
   <v>       0.00178253 </v>
   <v>       0.00178253 </v>
   <v>       0.00178253 </v>
   <v>       0.00178253 </v>
   <v>       0.00178253 </v>
   <v>       0.00178253 </v>
   <v>       0.00178253 </v>
   <v>       0.00178253 </v>
   <v>       0.00178253 </v>
   <v>       0.00178253 </v>
   <v>       0.00178253 </v>
   <v>       0.00356506 </v>
   <v>       0.00356506 </v>
   <v>       0.00356506 </v>
   <v>       0.00356506 </v>
   <v>       0.00356506 </v>
   <v>       0.00356506 </v>
   <v>       0.00356506 </v>
   <v>       0.00356506 </v>
   <v>       0.00356506 </v>
   <v>       0.00356506 </v>
   <v>       0.00356506 </v>
   <v>       0.00356506 </v>
   <v>       0.00356506 </v>
   <v>       0.00356506 </v>
   <v>       0.00356506 </v>
   <v>       0.00356506 </v>
   <v>       0.00356506 </v>
   <v>       0.00356506 </v>
   <v>       0.00356506 </v>
   <v>       0.00356506 </v>
   <v>       0.00356506 </v>
   <v>       0.00356506 </v>
   <v>       0.00356506 </v>
   <v>       0.00356506 </v>
   <v>       0.00356506 </v>
   <v>       0.00356506 </v>
   <v>       0.00356506 </v>
   <v>       0.00356506 </v>
   <v>       0.00356506 </v>
   <v>       0.00356506 </v>
   <v>       0.00356506 </v>
   <v>       0.00356506 </v>
   <v>       0.00356506 </v>
   <v>       0.00356506 </v>
   <v>       0.00356506 </v>
   <v>       0.00356506 </v>
   <v>       0.00356506 </v>
   <v>       0.00356506 </v>
   <v>       0.00356506 </v>
   <v>       0.00356506 </v>
   <v>       0.00356506 </v>
   <v>       0.00356506 </v>
   <v>       0.00356506 </v>
   <v>       0.00356506 </v>
   <v>       0.00356506 </v>
   <v>       0.00356506 </v>
   <v>       0.00356506 </v>
   <v>       0.00356506 </v>
   <v>       0.00178253 </v>
   <v>       0.00178253 </v>
   <v>       0.00178253 </v>
   <v>       0.00178253 </v>
   <v>       0.00178253 </v>
   <v>       0.00178253 </v>
   <v>       0.00356506 </v>
   <v>       0.00356506 </v>
   <v>       0.00356506 </v>
   <v>       0.00356506 </v>
   <v>       0.00356506 </v>
   <v>       0.00356506 </v>
   <v>       0.00356506 </v>
   <v>       0.00356506 </v>
   <v>       0.00356506 </v>
   <v>       0.00356506 </v>
   <v>       0.00356506 </v>
   <v>       0.00356506 </v>
   <v>       0.00356506 </v>
   <v>       0.00356506 </v>
   <v>       0.00356506 </v>
   <v>       0.00356506 </v>
   <v>       0.00356506 </v>
   <v>       0.00356506 </v>
   <v>       0.00356506 </v>
   <v>       0.00356506 </v>
   <v>       0.00356506 </v>
   <v>       0.00356506 </v>
   <v>       0.00356506 </v>
   <v>       0.00356506 </v>
   <v>       0.00356506 </v>
   <v>       0.00356506 </v>
   <v>       0.00356506 </v>
   <v>       0.00356506 </v>
   <v>       0.00356506 </v>
   <v>       0.00356506 </v>
   <v>       0.00356506 </v>
   <v>       0.00356506 </v>
   <v>       0.00356506 </v>
   <v>       0.00356506 </v>
   <v>       0.00356506 </v>
   <v>       0.00356506 </v>
   <v>       0.00356506 </v>
   <v>       0.00356506 </v>
   <v>       0.00356506 </v>
   <v>       0.00356506 </v>
   <v>       0.00356506 </v>
   <v>       0.00356506 </v>
   <v>       0.00356506 </v>
   <v>       0.00356506 </v>
   <v>       0.00356506 </v>
   <v>       0.00356506 </v>
   <v>       0.00356506 </v>
   <v>       0.00356506 </v>
   <v>       0.00178253 </v>
   <v>       0.00178253 </v>
   <v>       0.00178253 </v>
   <v>       0.00178253 </v>
   <v>       0.00178253 </v>
   <v>       0.00178253 </v>
   <v>       0.00356506 </v>
   <v>       0.00356506 </v>
   <v>       0.00356506 </v>
   <v>       0.00356506 </v>
   <v>       0.00356506 </v>
   <v>       0.00356506 </v>
   <v>       0.00356506 </v>
   <v>       0.00356506 </v>
   <v>       0.00356506 </v>
   <v>       0.00356506 </v>
   <v>       0.00356506 </v>
   <v>       0.00356506 </v>
   <v>       0.00356506 </v>
   <v>       0.00356506 </v>
   <v>       0.00356506 </v>
   <v>       0.00356506 </v>
   <v>       0.00356506 </v>
   <v>       0.00356506 </v>
   <v>       0.00356506 </v>
   <v>       0.00356506 </v>
   <v>       0.00356506 </v>
   <v>       0.00356506 </v>
   <v>       0.00356506 </v>
   <v>       0.00356506 </v>
   <v>       0.00356506 </v>
   <v>       0.00356506 </v>
   <v>       0.00356506 </v>
   <v>       0.00356506 </v>
   <v>       0.00356506 </v>
   <v>       0.00356506 </v>
   <v>       0.00356506 </v>
   <v>       0.00356506 </v>
   <v>       0.00356506 </v>
   <v>       0.00356506 </v>
   <v>       0.00356506 </v>
   <v>       0.00356506 </v>
   <v>       0.00356506 </v>
   <v>       0.00356506 </v>
   <v>       0.00356506 </v>
   <v>       0.00356506 </v>
   <v>       0.00356506 </v>
   <v>       0.00356506 </v>
   <v>       0.00356506 </v>
   <v>       0.00356506 </v>
   <v>       0.00356506 </v>
   <v>       0.00356506 </v>
   <v>       0.00356506 </v>
   <v>       0.00356506 </v>
   <v>       0.00178253 </v>
   <v>       0.00178253 </v>
   <v>       0.00178253 </v>
   <v>       0.00178253 </v>
   <v>       0.00178253 </v>
   <v>       0.00178253 </v>
   <v>       0.00356506 </v>
   <v>       0.00356506 </v>
   <v>       0.00356506 </v>
   <v>       0.00356506 </v>
   <v>       0.00356506 </v>
   <v>       0.00356506 </v>
   <v>       0.00356506 </v>
   <v>       0.00356506 </v>
   <v>       0.00356506 </v>
   <v>       0.00356506 </v>
   <v>       0.00356506 </v>
   <v>       0.00356506 </v>
   <v>       0.00356506 </v>
   <v>       0.00356506 </v>
   <v>       0.00356506 </v>
   <v>       0.00356506 </v>
   <v>       0.00356506 </v>
   <v>       0.00356506 </v>
   <v>       0.00356506 </v>
   <v>       0.00356506 </v>
   <v>       0.00356506 </v>
   <v>       0.00356506 </v>
   <v>       0.00356506 </v>
   <v>       0.00356506 </v>
   <v>       0.00356506 </v>
   <v>       0.00356506 </v>
   <v>       0.00356506 </v>
   <v>       0.00356506 </v>
   <v>       0.00356506 </v>
   <v>       0.00356506 </v>
   <v>       0.00356506 </v>
   <v>       0.00356506 </v>
   <v>       0.00356506 </v>
   <v>       0.00356506 </v>
   <v>       0.00356506 </v>
   <v>       0.00356506 </v>
   <v>       0.00356506 </v>
   <v>       0.00356506 </v>
   <v>       0.00356506 </v>
   <v>       0.00356506 </v>
   <v>       0.00356506 </v>
   <v>       0.00356506 </v>
   <v>       0.00356506 </v>
   <v>       0.00356506 </v>
   <v>       0.00356506 </v>
   <v>       0.00356506 </v>
   <v>       0.00356506 </v>
   <v>       0.00356506 </v>
   <v>       0.00178253 </v>
   <v>       0.00178253 </v>
   <v>       0.00178253 </v>
   <v>       0.00178253 </v>
   <v>       0.00178253 </v>
   <v>       0.00178253 </v>
   <v>       0.00356506 </v>
   <v>       0.00356506 </v>
   <v>       0.00356506 </v>
   <v>       0.00356506 </v>
   <v>       0.00356506 </v>
   <v>       0.00356506 </v>
   <v>       0.00356506 </v>
   <v>       0.00356506 </v>
   <v>       0.00356506 </v>
   <v>       0.00356506 </v>
   <v>       0.00356506 </v>
   <v>       0.00356506 </v>
   <v>       0.00356506 </v>
   <v>       0.00356506 </v>
   <v>       0.00356506 </v>
   <v>       0.00356506 </v>
   <v>       0.00356506 </v>
   <v>       0.00356506 </v>
   <v>       0.00356506 </v>
   <v>       0.00356506 </v>
   <v>       0.00356506 </v>
   <v>       0.00356506 </v>
   <v>       0.00356506 </v>
   <v>       0.00356506 </v>
   <v>       0.00356506 </v>
   <v>       0.00356506 </v>
   <v>       0.00356506 </v>
   <v>       0.00356506 </v>
   <v>       0.00356506 </v>
   <v>       0.00356506 </v>
   <v>       0.00356506 </v>
   <v>       0.00356506 </v>
   <v>       0.00356506 </v>
   <v>       0.00356506 </v>
   <v>       0.00356506 </v>
   <v>       0.00356506 </v>
   <v>       0.00356506 </v>
   <v>       0.00356506 </v>
   <v>       0.00356506 </v>
   <v>       0.00356506 </v>
   <v>       0.00356506 </v>
   <v>       0.00356506 </v>
   <v>       0.00356506 </v>
   <v>       0.00356506 </v>
   <v>       0.00356506 </v>
   <v>       0.00356506 </v>
   <v>       0.00356506 </v>
   <v>       0.00356506 </v>
  </varray>
 </kpoints>
 <parameters>
  <separator name="general" >
   <i type="string" name="SYSTEM">Kpoints</i>
   <i type="logical" name="LCOMPAT"> F  </i>
  </separator>
  <separator name="electronic" >
   <i type="string" name="PREC">accura</i>
   <i name="ENMAX">    450.00000000</i>
   <i name="ENAUG">    535.51400000</i>
   <i name="EDIFF">      0.00000100</i>
   <i type="int" name="IALGO">    38</i>
   <i type="int" name="IWAVPR">    10</i>
   <i type="int" name="NBANDS">    48</i>
   <i type="int" name="NBANDSLOW">    -1</i>
   <i type="int" name="NBANDSHIGH">    -1</i>
   <i name="NELECT">     42.00000000</i>
   <i type="int" name="TURBO">     0</i>
   <i type="int" name="IRESTART">     0</i>
   <i type="int" name="NREBOOT">     0</i>
   <i type="int" name="NMIN">     0</i>
   <i name="EREF">      0.00000000</i>
   <separator name="electronic smearing" >
    <i type="int" name="ISMEAR">     0</i>
    <i name="SIGMA">      0.05000000</i>
    <i name="KSPACING">      0.50000000</i>
    <i type="logical" name="KGAMMA"> T  </i>
    <i type="logical" name="KBLOWUP"> T  </i>
   </separator>
   <separator name="electronic projectors" >
    <i type="logical" name="LREAL"> F  </i>
    <v name="ROPT">      0.00000000</v>
    <i type="int" name="LMAXPAW">  -100</i>
    <i type="int" name="LMAXMIX">     2</i>
    <i type="logical" name="NLSPLINE"> F  </i>
   </separator>
   <separator name="electronic startup" >
    <i type="int" name="ISTART">     0</i>
    <i type="int" name="ICHARG">     2</i>
    <i type="int" name="INIWAV">     1</i>
   </separator>
   <separator name="electronic spin" >
    <i type="int" name="ISPIN">     1</i>
    <i type="logical" name="LNONCOLLINEAR"> F  </i>
    <v name="MAGMOM">      1.00000000      1.00000000      1.00000000      1.00000000      1.00000000      1.00000000      1.00000000      1.00000000      1.00000000      1.00000000      1.00000000      1.00000000      1.00000000      1.00000000</v>
    <i name="NUPDOWN">     -1.00000000</i>
    <i type="logical" name="LSORBIT"> F  </i>
    <v name="SAXIS">      0.00000000      0.00000000      1.00000000</v>
    <i type="logical" name="LSPIRAL"> F  </i>
    <v name="QSPIRAL">      0.00000000      0.00000000      0.00000000</v>
    <i type="logical" name="LZEROZ"> F  </i>
   </separator>
   <separator name="electronic exchange-correlation" >
    <i type="logical" name="LASPH"> F  </i>
   </separator>
   <separator name="electronic convergence" >
    <i type="int" name="NELM">   100</i>
    <i type="int" name="NELMDL">    -5</i>
    <i type="int" name="NELMIN">     2</i>
    <i name="ENINI">    450.00000000</i>
    <separator name="electronic convergence detail" >
     <i type="logical" name="LDIAG"> T  </i>
     <i type="logical" name="LSUBROT"> F  </i>
     <i name="WEIMIN">      0.00000000</i>
     <i name="EBREAK">      0.00000001</i>
     <i name="DEPER">      0.30000000</i>
     <i type="int" name="NRMM">     4</i>
     <i name="TIME">      0.40000000</i>
    </separator>
   </separator>
   <separator name="electronic mixer" >
    <i name="AMIX">      0.40000000</i>
    <i name="BMIX">      1.00000000</i>
    <i name="AMIN">      0.10000000</i>
    <i name="AMIX_MAG">      1.60000000</i>
    <i name="BMIX_MAG">      1.00000000</i>
    <separator name="electronic mixer details" >
     <i type="int" name="IMIX">     4</i>
     <i type="logical" name="MIXFIRST"> F  </i>
     <i type="int" name="MAXMIX">   -45</i>
     <i name="WC">    100.00000000</i>
     <i type="int" name="INIMIX">     1</i>
     <i type="int" name="MIXPRE">     1</i>
     <i type="int" name="MREMOVE">     5</i>
    </separator>
   </separator>
   <separator name="electronic dipolcorrection" >
    <i type="logical" name="LDIPOL"> F  </i>
    <i type="logical" name="LMONO"> F  </i>
    <i type="int" name="IDIPOL">     0</i>
    <i name="EPSILON">      1.00000000</i>
    <v name="DIPOL">   -100.00000000   -100.00000000   -100.00000000</v>
    <i name="EFIELD">      0.00000000</i>
    <i type="logical" name="LVACPOTAV"> F  </i>
   </separator>
  </separator>
  <separator name="grids" >
   <i type="int" name="NGX">    40</i>
   <i type="int" name="NGY">    28</i>
   <i type="int" name="NGZ">    48</i>
   <i type="int" name="NGXF">    80</i>
   <i type="int" name="NGYF">    56</i>
   <i type="int" name="NGZF">    96</i>
   <i type="logical" name="ADDGRID"> F  </i>
  </separator>
  <separator name="ionic" >
   <i type="int" name="NSW">     0</i>
   <i type="int" name="IBRION">    -1</i>
   <i type="int" name="MDALGO">     0</i>
   <i type="int" name="ISIF">     2</i>
   <i name="PSTRESS">      0.00000000</i>
   <i name="EDIFFG">     -0.00100000</i>
   <i type="int" name="NFREE">     0</i>
   <i name="POTIM">      0.50000000</i>
   <i name="SMASS">     -3.00000000</i>
   <i name="SCALEE">      1.00000000</i>
  </separator>
  <separator name="ionic md" >
   <i name="TEBEG">      0.00010000</i>
   <i name="TEEND">      0.00010000</i>
   <i type="int" name="NBLOCK">     1</i>
   <i type="int" name="KBLOCK">     1</i>
   <i type="int" name="NPACO">   256</i>
   <i name="APACO">     10.00000000</i>
  </separator>
  <separator name="symmetry" >
   <i type="int" name="ISYM">     2</i>
   <i name="SYMPREC">      0.00001000</i>
  </separator>
  <separator name="dos" >
   <i type="int" name="LORBIT">     0</i>
   <v name="RWIGS">     -1.00000000</v>
   <i type="int" name="NEDOS">   301</i>
   <i name="EMIN">     10.00000000</i>
   <i name="EMAX">    -10.00000000</i>
   <i name="EFERMI">      0.00000000</i>
  </separator>
  <separator name="writing" >
   <i type="int" name="NWRITE">     2</i>
   <i type="logical" name="LWAVE"> F  </i>
   <i type="logical" name="LDOWNSAMPLE"> F  </i>
   <i type="logical" name="LCHARG"> F  </i>
   <i type="logical" name="LPARD"> F  </i>
   <i type="logical" name="LVTOT"> F  </i>
   <i type="logical" name="LVHAR"> F  </i>
   <i type="logical" name="LELF"> F  </i>
   <i type="logical" name="LOPTICS"> F  </i>
   <v name="STM">      0.00000000      0.00000000      0.00000000      0.00000000      0.00000000      0.00000000      0.00000000</v>
  </separator>
  <separator name="performance" >
   <i type="int" name="NPAR">    24</i>
   <i type="int" name="NSIM">     4</i>
   <i type="int" name="NBLK">    -1</i>
   <i type="logical" name="LPLANE"> T  </i>
   <i type="logical" name="LSCALAPACK"> T  </i>
   <i type="logical" name="LSCAAWARE"> F  </i>
   <i type="logical" name="LSCALU"> F  </i>
   <i type="logical" name="LASYNC"> F  </i>
   <i type="logical" name="LORBITALREAL"> F  </i>
  </separator>
  <separator name="miscellaneous" >
   <i type="int" name="IDIOT">     3</i>
   <i type="int" name="PHON_NSTRUCT">    -1</i>
   <i type="logical" name="LMUSIC"> F  </i>
   <v name="POMASS">     10.81100000</v>
   <v name="DARWINR">      0.00000000</v>
   <v name="DARWINV">      1.00000000</v>
   <i type="logical" name="LCORR"> T  </i>
  </separator>
  <i type="logical" name="GGA_COMPAT"> T  </i>
  <i type="logical" name="LBERRY"> F  </i>
  <i type="int" name="ICORELEVEL">     0</i>
  <i type="logical" name="LDAU"> F  </i>
  <i type="int" name="I_CONSTRAINED_M">     0</i>
  <separator name="electronic exchange-correlation" >
   <i type="string" name="GGA    ">PE</i>
   <i type="string" name="XC_C">1</i>
   <i type="int" name="VOSKOWN">     0</i>
   <i type="logical" name="LHFCALC"> F  </i>
   <i type="string" name="PRECFOCK"></i>
   <i type="logical" name="LSYMGRAD"> F  </i>
   <i type="logical" name="LHFONE"> F  </i>
   <i type="logical" name="LRHFCALC"> F  </i>
   <i type="logical" name="LTHOMAS"> F  </i>
   <i type="logical" name="LMODELHF"> F  </i>
   <i type="logical" name="LFOCKACE"> F  </i>
   <i name="ENCUT4O">     -1.00000000</i>
   <i type="int" name="EXXOEP">     0</i>
   <i type="int" name="FOURORBIT">     0</i>
   <i name="AEXX">      0.00000000</i>
   <i name="HFALPHA">      0.00000000</i>
   <i name="MCALPHA">      0.00000000</i>
   <i name="ALDAX">      1.00000000</i>
   <i name="AGGAX">      1.00000000</i>
   <i name="AMGGAX">      1.00000000</i>
   <i name="ALDAC">      1.00000000</i>
   <i name="AGGAC">      1.00000000</i>
   <i name="AMGGAC">      1.00000000</i>
   <i type="int" name="NKREDX">     1</i>
   <i type="int" name="NKREDY">     1</i>
   <i type="int" name="NKREDZ">     1</i>
   <i type="logical" name="SHIFTRED"> F  </i>
   <i type="logical" name="ODDONLY"> F  </i>
   <i type="logical" name="EVENONLY"> F  </i>
   <i type="int" name="LMAXFOCK">     0</i>
   <i type="int" name="NMAXFOCKAE">     0</i>
   <i type="logical" name="LFOCKAEDFT"> F  </i>
   <i name="HFSCREEN">      0.00000000</i>
   <i name="HFSCREENC">      0.00000000</i>
   <i type="int" name="NBANDSGWLOW">     0</i>
  </separator>
  <separator name="vdW DFT" >
   <i type="logical" name="LUSE_VDW"> F  </i>
   <i type="int" name="IVDW_NL">    -1</i>
   <i type="logical" name="LSPIN_VDW"> F  </i>
   <i name="ZAB_VDW">     -0.84910000</i>
   <i name="GAMMA_VDW">      1.39626340</i>
   <i name="ALPHA_VDW">      0.00000000</i>
   <i name="PARAM1">      0.12340000</i>
   <i name="PARAM2">      1.00000000</i>
   <i name="BPARAM">      6.30000000</i>
   <i name="CPARAM">      0.00930000</i>
  </separator>
  <separator name="model GW" >
   <i type="int" name="MODEL_GW">     0</i>
   <i name="MODEL_EPS0">      6.13175789</i>
   <i name="MODEL_ALPHA">      1.00000000</i>
  </separator>
  <separator name="linear response parameters" >
   <i type="logical" name="LEPSILON"> F  </i>
   <i type="logical" name="LRPA"> F  </i>
   <i type="logical" name="LNABLA"> F  </i>
   <i type="logical" name="LVEL"> F  </i>
   <i name="CSHIFT">      0.10000000</i>
   <i name="OMEGAMAX">     -1.00000000</i>
   <i name="DEG_THRESHOLD">      0.00200000</i>
   <i name="RTIME">     -0.10000000</i>
   <i name="WPLASMAI">      0.00000000</i>
   <v name="DFIELD">      0.00000000      0.00000000      0.00000000</v>
   <v name="WPLASMA">      0.00000000      0.00000000      0.00000000      0.00000000      0.00000000      0.00000000      0.00000000      0.00000000      0.00000000</v>
  </separator>
  <separator name="orbital magnetization" >
   <i type="logical" name="NUCIND"> F  </i>
   <v name="MAGPOS">      0.00000000      0.00000000      0.00000000</v>
   <i type="logical" name="LNICSALL"> T  </i>
   <i type="logical" name="ORBITALMAG"> F  </i>
   <i type="logical" name="LMAGBLOCH"> F  </i>
   <i type="logical" name="LCHIMAG"> F  </i>
   <i type="logical" name="LGAUGE"> T  </i>
   <i type="int" name="MAGATOM">     0</i>
   <v name="MAGDIPOL">      0.00000000      0.00000000      0.00000000</v>
   <v name="AVECCONST">      0.00000000      0.00000000      0.00000000</v>
  </separator>
  <separator name="response functions" >
   <i type="logical" name="LALL_IN_ONE"> F  </i>
   <i type="int" name="IALL_IN_ONE">    -1</i>
   <i type="int" name="NBANDS_WAVE">    -1</i>
   <i type="logical" name="LFINITE_TEMPERATURE"> F  </i>
   <i type="logical" name="LADDER"> F  </i>
   <i type="logical" name="LRPAFORCE"> F  </i>
   <i type="logical" name="LFXC"> F  </i>
   <i type="logical" name="LHARTREE"> T  </i>
   <i type="int" name="IBSE">     0</i>
   <v type="int" name="KPOINT">    -1     0     0     0</v>
   <i type="logical" name="LTCTC"> F  </i>
   <i type="logical" name="LTCTE"> F  </i>
   <i type="logical" name="LTETE"> F  </i>
   <i type="logical" name="LTRIPLET"> F  </i>
   <i type="logical" name="LFXCEPS"> F  </i>
   <i type="logical" name="LFXHEG"> F  </i>
   <i type="int" name="NATURALO">     2</i>
   <i type="logical" name="LHOLEGF"> F  </i>
   <i type="logical" name="L2ORDER"> F  </i>
   <i type="logical" name="LDMP1"> F  </i>
   <i type="logical" name="LMP2LT"> F  </i>
   <i type="logical" name="LSMP2LT"> F  </i>
   <i type="logical" name="LGWLF"> F  </i>
   <i name="ENCUTGW">     -1.60000002</i>
   <i name="ENCUTGWSOFT">     -1.60000002</i>
   <i name="ENCUTLF">     -1.00000000</i>
   <i type="logical" name="ESF_SPLINES"> F  </i>
   <i name="ESF_CONV">      0.01000000</i>
   <i type="int" name="ESF_NINTER">    15</i>
   <i type="int" name="LMAXMP2">    -1</i>
   <i name="SCISSOR">      0.00000000</i>
   <i type="int" name="NOMEGA">     0</i>
   <i type="int" name="NOMEGAR">     0</i>
   <i type="int" name="NBANDSGW">    -1</i>
   <i type="int" name="NBANDSO">    -1</i>
   <i type="int" name="NBANDSV">    -1</i>
   <i type="int" name="NELMGW">     1</i>
   <i type="int" name="NELMHF">     1</i>
   <i type="int" name="DIM">     3</i>
   <i type="int" name="IESPILON">     4</i>
   <i type="int" name="ANTIRES">     0</i>
   <i name="OMEGAMAX">    -30.00000000</i>
   <i name="OMEGAMIN">    -30.00000000</i>
   <i name="OMEGATL">   -200.00000000</i>
   <i type="int" name="OMEGAGRID">     0</i>
   <i name="CSHIFT">     -0.10000000</i>
   <i type="logical" name="LSELFENERGY"> F  </i>
   <i type="logical" name="LSPECTRAL"> F  </i>
   <i type="logical" name="LSPECTRALGW"> F  </i>
   <i type="logical" name="LSINGLES"> F  </i>
   <i type="logical" name="LFERMIGW"> F  </i>
   <i type="logical" name="ODDONLYGW"> F  </i>
   <i type="logical" name="EVENONLYGW"> F  </i>
   <i type="int" name="NKREDLFX">     1</i>
   <i type="int" name="NKREDLFY">     1</i>
   <i type="int" name="NKREDLFZ">     1</i>
   <i type="int" name="MAXMEM">  2800</i>
   <i type="int" name="TELESCOPE">     0</i>
   <i type="int" name="NTAUPAR">    -1</i>
   <i type="int" name="NOMEGAPAR">    -1</i>
   <i name="DAMP_NEWTON">      0.80000001</i>
   <i name="LAMBDA">      1.00000000</i>
  </separator>
  <separator name="External order field" >
   <i name="OFIELD_KAPPA">      0.00000000</i>
   <v name="OFIELD_K">      0.00000000      0.00000000      0.00000000</v>
   <i name="OFIELD_Q6_NEAR">      0.00000000</i>
   <i name="OFIELD_Q6_FAR">      0.00000000</i>
   <i name="OFIELD_A">      0.00000000</i>
  </separator>
  <separator name="optional k-points parameters" >
   <i type="int" name="KPOINTS_OPT_MODE">     1</i>
   <i type="logical" name="LKPOINTS_OPT"> F  </i>
  </separator>
 </parameters>
 <atominfo>
  <atoms>      14 </atoms>
  <types>       1 </types>
  <array name="atoms" >
   <dimension dim="1">ion</dimension>
   <field type="string">element</field>
   <field type="int">atomtype</field>
   <set>
    <rc><c>B </c><c>   1</c></rc>
    <rc><c>B </c><c>   1</c></rc>
    <rc><c>B </c><c>   1</c></rc>
    <rc><c>B </c><c>   1</c></rc>
    <rc><c>B </c><c>   1</c></rc>
    <rc><c>B </c><c>   1</c></rc>
    <rc><c>B </c><c>   1</c></rc>
    <rc><c>B </c><c>   1</c></rc>
    <rc><c>B </c><c>   1</c></rc>
    <rc><c>B </c><c>   1</c></rc>
    <rc><c>B </c><c>   1</c></rc>
    <rc><c>B </c><c>   1</c></rc>
    <rc><c>B </c><c>   1</c></rc>
    <rc><c>B </c><c>   1</c></rc>
   </set>
  </array>
  <array name="atomtypes" >
   <dimension dim="1">type</dimension>
   <field type="int">atomspertype</field>
   <field type="string">element</field>
   <field>mass</field>
   <field>valence</field>
   <field type="string">pseudopotential</field>
   <set>
    <rc><c>  14</c><c>B </c><c>     10.81100000</c><c>      3.00000000</c><c>  PAW_PBE B 06Sep2000                   </c></rc>
   </set>
  </array>
 </atominfo>
 <structure name="initialpos" >
  <crystal>
   <varray name="basis" >
    <v>       5.69700000       0.00000000       0.00000000 </v>
    <v>       0.00000000       4.04790000       0.00000000 </v>
    <v>       0.00000000       0.00000000       6.20420000 </v>
   </varray>
   <i name="volume">    143.07435078 </i>
   <varray name="rec_basis" >
    <v>       0.17553098       0.00000000       0.00000000 </v>
    <v>       0.00000000       0.24704168       0.00000000 </v>
    <v>       0.00000000       0.00000000       0.16118114 </v>
   </varray>
  </crystal>
  <varray name="positions" >
   <v>       0.52123000       0.50000000       0.63796000 </v>
   <v>       0.47877000       0.50000000       0.36204000 </v>
   <v>       0.97877000       0.50000000       0.63796000 </v>
   <v>       0.02123000       0.50000000       0.36204000 </v>
   <v>       0.60090000       0.50000000       0.89991000 </v>
   <v>       0.39910000       0.50000000       0.10009000 </v>
   <v>       0.89910000       0.50000000       0.89991000 </v>
   <v>       0.10090000       0.50000000       0.10009000 </v>
   <v>       0.75000000       0.79171000       0.72973000 </v>
   <v>       0.25000000       0.20829000       0.27027000 </v>
   <v>       0.75000000       0.20829000       0.72973000 </v>
   <v>       0.25000000       0.79171000       0.27027000 </v>
   <v>       0.25000000       0.50000000       0.52367000 </v>
   <v>       0.75000000       0.50000000       0.47633000 </v>
  </varray>
 </structure>
 <calculation>
  <scstep>
   <time name="dav">    7.76    7.90</time>
   <time name="total">    7.78    7.93</time>
   <energy>
    <i name="alphaZ">     94.24357992 </i>
    <i name="ewald">   -795.76658092 </i>
    <i name="hartreedc">   -271.33601302 </i>
    <i name="XCdc">     97.50108175 </i>
    <i name="pawpsdc">    608.99811708 </i>
    <i name="pawaedc">   -597.02363782 </i>
    <i name="eentropy">     -0.00188837 </i>
    <i name="bandstr">    -85.24447264 </i>
    <i name="atom">    996.36340036 </i>
    <i name="e_fr_energy">     47.73358634 </i>
    <i name="e_wo_entrp">     47.73547471 </i>
    <i name="e_0_energy">     47.73453052 </i>
   </energy>
  </scstep>
  <scstep>
   <time name="dav">   10.33   10.40</time>
   <time name="total">   10.34   10.41</time>
   <energy>
    <i name="e_fr_energy">    -93.15249909 </i>
    <i name="e_wo_entrp">    -93.14778312 </i>
    <i name="e_0_energy">    -93.15014110 </i>
   </energy>
  </scstep>
  <scstep>
   <time name="dav">   10.77   10.84</time>
   <time name="total">   10.77   10.85</time>
   <energy>
    <i name="e_fr_energy">    -97.58269649 </i>
    <i name="e_wo_entrp">    -97.57729337 </i>
    <i name="e_0_energy">    -97.57999493 </i>
   </energy>
  </scstep>
  <scstep>
   <time name="dav">    9.19    9.25</time>
   <time name="total">    9.19    9.25</time>
   <energy>
    <i name="e_fr_energy">    -97.60827422 </i>
    <i name="e_wo_entrp">    -97.60287037 </i>
    <i name="e_0_energy">    -97.60557229 </i>
   </energy>
  </scstep>
  <scstep>
   <time name="dav">   10.76   10.82</time>
   <time name="total">   10.88   10.95</time>
   <energy>
    <i name="e_fr_energy">    -97.60856957 </i>
    <i name="e_wo_entrp">    -97.60316568 </i>
    <i name="e_0_energy">    -97.60586763 </i>
   </energy>
  </scstep>
  <scstep>
   <time name="dav">   10.92   10.98</time>
   <time name="total">   11.07   11.13</time>
   <energy>
    <i name="e_fr_energy">    -92.19573590 </i>
    <i name="e_wo_entrp">    -92.19029383 </i>
    <i name="e_0_energy">    -92.19301487 </i>
   </energy>
  </scstep>
  <scstep>
   <time name="dav">   11.01   11.07</time>
   <time name="total">   11.14   11.20</time>
   <energy>
    <i name="e_fr_energy">    -90.55049271 </i>
    <i name="e_wo_entrp">    -90.54653921 </i>
    <i name="e_0_energy">    -90.54851596 </i>
   </energy>
  </scstep>
  <scstep>
   <time name="dav">    8.32    8.38</time>
   <time name="total">    8.45    8.51</time>
   <energy>
    <i name="e_fr_energy">    -90.55678709 </i>
    <i name="e_wo_entrp">    -90.55279701 </i>
    <i name="e_0_energy">    -90.55479205 </i>
   </energy>
  </scstep>
  <scstep>
   <time name="dav">   10.20   10.26</time>
   <time name="total">   10.33   10.40</time>
   <energy>
    <i name="e_fr_energy">    -90.57193710 </i>
    <i name="e_wo_entrp">    -90.56792355 </i>
    <i name="e_0_energy">    -90.56993032 </i>
   </energy>
  </scstep>
  <scstep>
   <time name="dav">    8.51    8.56</time>
   <time name="total">    8.66    8.72</time>
   <energy>
    <i name="e_fr_energy">    -90.57671690 </i>
    <i name="e_wo_entrp">    -90.57270916 </i>
    <i name="e_0_energy">    -90.57471303 </i>
   </energy>
  </scstep>
  <scstep>
   <time name="dav">    9.54    9.60</time>
   <time name="total">    9.70    9.76</time>
   <energy>
    <i name="e_fr_energy">    -90.57819265 </i>
    <i name="e_wo_entrp">    -90.57418717 </i>
    <i name="e_0_energy">    -90.57618991 </i>
   </energy>
  </scstep>
  <scstep>
   <time name="dav">    9.78    9.83</time>
   <time name="total">    9.91    9.97</time>
   <energy>
    <i name="e_fr_energy">    -90.57830471 </i>
    <i name="e_wo_entrp">    -90.57430016 </i>
    <i name="e_0_energy">    -90.57630244 </i>
   </energy>
  </scstep>
  <scstep>
   <time name="dav">    9.75    9.81</time>
   <time name="total">    9.88    9.94</time>
   <energy>
    <i name="e_fr_energy">    -90.57832068 </i>
    <i name="e_wo_entrp">    -90.57431654 </i>
    <i name="e_0_energy">    -90.57631861 </i>
   </energy>
  </scstep>
  <scstep>
   <time name="dav">    9.78   10.08</time>
   <time name="total">    9.91   10.21</time>
   <energy>
    <i name="e_fr_energy">    -90.57832168 </i>
    <i name="e_wo_entrp">    -90.57431735 </i>
    <i name="e_0_energy">    -90.57631952 </i>
   </energy>
  </scstep>
  <scstep>
   <time name="dav">    8.89    9.31</time>
   <time name="total">    8.90    9.32</time>
   <energy>
    <i name="alphaZ">     94.24357992 </i>
    <i name="ewald">   -795.76658092 </i>
    <i name="hartreedc">   -349.06595764 </i>
    <i name="XCdc">    101.58488284 </i>
    <i name="pawpsdc">   3715.54045375 </i>
    <i name="pawaedc">  -3704.73384942 </i>
    <i name="eentropy">     -0.00400427 </i>
    <i name="bandstr">   -148.74024656 </i>
    <i name="atom">    996.36340036 </i>
    <i name="e_fr_energy">    -90.57832194 </i>
    <i name="e_wo_entrp">    -90.57431767 </i>
    <i name="e_0_energy">    -90.57631981 </i>
   </energy>
  </scstep>
  <structure>
   <crystal>
    <varray name="basis" >
     <v>       5.69700000       0.00000000       0.00000000 </v>
     <v>       0.00000000       4.04790000       0.00000000 </v>
     <v>       0.00000000       0.00000000       6.20420000 </v>
    </varray>
    <i name="volume">    143.07435078 </i>
    <varray name="rec_basis" >
     <v>       0.17553098       0.00000000       0.00000000 </v>
     <v>       0.00000000       0.24704168       0.00000000 </v>
     <v>       0.00000000       0.00000000       0.16118114 </v>
    </varray>
   </crystal>
   <varray name="positions" >
    <v>       0.52123000       0.50000000       0.63796000 </v>
    <v>       0.47877000       0.50000000       0.36204000 </v>
    <v>       0.97877000       0.50000000       0.63796000 </v>
    <v>       0.02123000       0.50000000       0.36204000 </v>
    <v>       0.60090000       0.50000000       0.89991000 </v>
    <v>       0.39910000       0.50000000       0.10009000 </v>
    <v>       0.89910000       0.50000000       0.89991000 </v>
    <v>       0.10090000       0.50000000       0.10009000 </v>
    <v>       0.75000000       0.79171000       0.72973000 </v>
    <v>       0.25000000       0.20829000       0.27027000 </v>
    <v>       0.75000000       0.20829000       0.72973000 </v>
    <v>       0.25000000       0.79171000       0.27027000 </v>
    <v>       0.25000000       0.50000000       0.52367000 </v>
    <v>       0.75000000       0.50000000       0.47633000 </v>
   </varray>
  </structure>
  <varray name="forces" >
   <v>       0.00655119       0.00000000       0.03940523 </v>
   <v>      -0.00655119      -0.00000000      -0.03940523 </v>
   <v>      -0.00655119       0.00000000       0.03940523 </v>
   <v>       0.00655119       0.00000000      -0.03940523 </v>
   <v>      -0.82323433      -0.00000000       0.28443735 </v>
   <v>       0.82323433       0.00000000      -0.28443735 </v>
   <v>       0.82323433       0.00000000       0.28443735 </v>
   <v>      -0.82323433      -0.00000000      -0.28443735 </v>
   <v>       0.00000000       0.05746474      -0.07649934 </v>
   <v>       0.00000000      -0.05746474       0.07649934 </v>
   <v>       0.00000000      -0.05746474      -0.07649934 </v>
   <v>       0.00000000       0.05746474       0.07649934 </v>
   <v>       0.00000000       0.00000000       0.04506823 </v>
   <v>       0.00000000      -0.00000000      -0.04506823 </v>
  </varray>
  <varray name="stress" >
   <v>      13.73419023       0.00000000       0.00000000 </v>
   <v>       0.00000000       2.53904537       0.00000000 </v>
   <v>       0.00000000       0.00000000      -5.85001222 </v>
  </varray>
  <energy>
   <i name="e_fr_energy">    -90.57832194 </i>
   <i name="e_wo_entrp">    -90.57431767 </i>
   <i name="e_0_energy">    -90.57631981 </i>
  </energy>
  <time name="totalsc">  152.69  154.39</time>
  <eigenvalues>
   <array>
    <dimension dim="1">band</dimension>
    <dimension dim="2">kpoint</dimension>
    <dimension dim="3">spin</dimension>
    <field>eigene</field>
    <field>occ</field>
    <set>
     <set comment="spin 1">
      <set comment="kpoint 1">
       <r>  -12.7300    1.0000 </r>
       <r>  -11.5826    1.0000 </r>
       <r>   -8.6625    1.0000 </r>
       <r>   -8.4251    1.0000 </r>
       <r>   -6.0719    1.0000 </r>
       <r>   -5.1150    1.0000 </r>
       <r>   -4.6623    1.0000 </r>
       <r>   -4.2908    1.0000 </r>
       <r>   -3.9654    1.0000 </r>
       <r>   -3.5656    1.0000 </r>
       <r>   -2.4109    1.0000 </r>
       <r>   -2.2336    1.0000 </r>
       <r>   -2.1916    1.0000 </r>
       <r>   -1.0868    1.0000 </r>
       <r>   -0.0309    1.0000 </r>
       <r>    0.0052    1.0000 </r>
       <r>    0.1488    1.0000 </r>
       <r>    0.1589    1.0000 </r>
       <r>    0.5533    1.0000 </r>
       <r>    2.0752    0.0000 </r>
       <r>    2.1220    0.0000 </r>
       <r>    2.1993    0.0000 </r>
       <r>    5.4231    0.0000 </r>
       <r>    5.7949    0.0000 </r>
       <r>    5.8007    0.0000 </r>
       <r>    5.9652    0.0000 </r>
       <r>    6.7799    0.0000 </r>
       <r>    7.5415    0.0000 </r>
       <r>    7.8200    0.0000 </r>
       <r>    8.6489    0.0000 </r>
       <r>    8.7854    0.0000 </r>
       <r>    8.8759    0.0000 </r>
       <r>    9.0425    0.0000 </r>
       <r>   10.0432    0.0000 </r>
       <r>   11.1505    0.0000 </r>
       <r>   11.3625    0.0000 </r>
       <r>   11.7029    0.0000 </r>
       <r>   11.7769    0.0000 </r>
       <r>   11.9178    0.0000 </r>
       <r>   12.3660    0.0000 </r>
       <r>   12.8473    0.0000 </r>
       <r>   13.4692    0.0000 </r>
       <r>   13.5432    0.0000 </r>
       <r>   15.4213    0.0000 </r>
       <r>   15.5901    0.0000 </r>
       <r>   16.0423    0.0000 </r>
       <r>   16.3717    0.0000 </r>
       <r>   16.4037    0.0000 </r>
      </set>
      <set comment="kpoint 2">
       <r>  -12.6995    1.0000 </r>
       <r>  -11.6345    1.0000 </r>
       <r>   -8.6480    1.0000 </r>
       <r>   -8.4167    1.0000 </r>
       <r>   -6.0184    1.0000 </r>
       <r>   -5.3871    1.0000 </r>
       <r>   -4.7684    1.0000 </r>
       <r>   -3.9453    1.0000 </r>
       <r>   -3.9227    1.0000 </r>
       <r>   -3.3142    1.0000 </r>
       <r>   -2.3976    1.0000 </r>
       <r>   -2.2875    1.0000 </r>
       <r>   -2.2421    1.0000 </r>
       <r>   -1.3056    1.0000 </r>
       <r>   -0.0008    1.0000 </r>
       <r>    0.0530    1.0000 </r>
       <r>    0.0667    1.0000 </r>
       <r>    0.1800    1.0000 </r>
       <r>    0.4842    1.0000 </r>
       <r>    2.0130    0.0009 </r>
       <r>    2.0667    0.0000 </r>
       <r>    2.1163    0.0000 </r>
       <r>    5.4868    0.0000 </r>
       <r>    5.7594    0.0000 </r>
       <r>    5.8369    0.0000 </r>
       <r>    6.2316    0.0000 </r>
       <r>    6.7181    0.0000 </r>
       <r>    7.2318    0.0000 </r>
       <r>    8.0106    0.0000 </r>
       <r>    8.7440    0.0000 </r>
       <r>    9.0275    0.0000 </r>
       <r>    9.0308    0.0000 </r>
       <r>    9.0718    0.0000 </r>
       <r>   10.1373    0.0000 </r>
       <r>   11.0811    0.0000 </r>
       <r>   11.2028    0.0000 </r>
       <r>   11.2960    0.0000 </r>
       <r>   11.6865    0.0000 </r>
       <r>   12.0744    0.0000 </r>
       <r>   12.4268    0.0000 </r>
       <r>   13.0751    0.0000 </r>
       <r>   13.2820    0.0000 </r>
       <r>   13.8987    0.0000 </r>
       <r>   14.9554    0.0000 </r>
       <r>   15.7423    0.0000 </r>
       <r>   15.9559    0.0000 </r>
       <r>   16.2898    0.0000 </r>
       <r>   16.4475    0.0000 </r>
      </set>
      <set comment="kpoint 3">
       <r>  -12.6394    1.0000 </r>
       <r>  -11.7311    1.0000 </r>
       <r>   -8.6179    1.0000 </r>
       <r>   -8.4040    1.0000 </r>
       <r>   -5.9734    1.0000 </r>
       <r>   -5.6765    1.0000 </r>
       <r>   -4.8017    1.0000 </r>
       <r>   -3.8381    1.0000 </r>
       <r>   -3.5160    1.0000 </r>
       <r>   -2.9442    1.0000 </r>
       <r>   -2.4577    1.0000 </r>
       <r>   -2.3699    1.0000 </r>
       <r>   -2.2585    1.0000 </r>
       <r>   -1.6864    1.0000 </r>
       <r>   -0.1075    1.0000 </r>
       <r>    0.0563    1.0000 </r>
       <r>    0.1322    1.0000 </r>
       <r>    0.1726    1.0000 </r>
       <r>    0.4084    1.0000 </r>
       <r>    1.9037    0.4849 </r>
       <r>    1.9520    0.0800 </r>
       <r>    1.9677    0.0322 </r>
       <r>    5.5848    0.0000 </r>
       <r>    5.7104    0.0000 </r>
       <r>    6.0380    0.0000 </r>
       <r>    6.6119    0.0000 </r>
       <r>    6.6178    0.0000 </r>
       <r>    6.9606    0.0000 </r>
       <r>    8.1485    0.0000 </r>
       <r>    8.8859    0.0000 </r>
       <r>    8.9978    0.0000 </r>
       <r>    9.3801    0.0000 </r>
       <r>    9.3968    0.0000 </r>
       <r>   10.3530    0.0000 </r>
       <r>   10.6000    0.0000 </r>
       <r>   10.7870    0.0000 </r>
       <r>   11.3019    0.0000 </r>
       <r>   11.7203    0.0000 </r>
       <r>   12.2981    0.0000 </r>
       <r>   12.5962    0.0000 </r>
       <r>   12.8572    0.0000 </r>
       <r>   13.0840    0.0000 </r>
       <r>   14.4760    0.0000 </r>
       <r>   14.7469    0.0000 </r>
       <r>   15.4600    0.0000 </r>
       <r>   15.9725    0.0000 </r>
       <r>   16.2263    0.0000 </r>
       <r>   16.5025    0.0000 </r>
      </set>
      <set comment="kpoint 4">
       <r>  -12.5516    1.0000 </r>
       <r>  -11.8600    1.0000 </r>
       <r>   -8.5729    1.0000 </r>
       <r>   -8.3947    1.0000 </r>
       <r>   -6.0041    1.0000 </r>
       <r>   -5.9142    1.0000 </r>
       <r>   -4.6422    1.0000 </r>
       <r>   -3.7136    1.0000 </r>
       <r>   -3.1020    1.0000 </r>
       <r>   -2.6731    1.0000 </r>
       <r>   -2.5422    1.0000 </r>
       <r>   -2.3380    1.0000 </r>
       <r>   -2.2779    1.0000 </r>
       <r>   -2.1293    1.0000 </r>
       <r>   -0.3431    1.0000 </r>
       <r>   -0.0320    1.0000 </r>
       <r>    0.1332    1.0000 </r>
       <r>    0.2191    1.0000 </r>
       <r>    0.4914    1.0000 </r>
       <r>    1.7185    1.0000 </r>
       <r>    1.7762    0.9998 </r>
       <r>    1.8452    0.9469 </r>
       <r>    5.6769    0.0000 </r>
       <r>    5.6771    0.0000 </r>
       <r>    6.3954    0.0000 </r>
       <r>    6.5150    0.0000 </r>
       <r>    6.7518    0.0000 </r>
       <r>    7.0728    0.0000 </r>
       <r>    8.2632    0.0000 </r>
       <r>    8.8839    0.0000 </r>
       <r>    8.9200    0.0000 </r>
       <r>    9.7659    0.0000 </r>
       <r>    9.8139    0.0000 </r>
       <r>   10.0037    0.0000 </r>
       <r>   10.4322    0.0000 </r>
       <r>   10.7451    0.0000 </r>
       <r>   11.3935    0.0000 </r>
       <r>   11.9347    0.0000 </r>
       <r>   12.3523    0.0000 </r>
       <r>   12.4280    0.0000 </r>
       <r>   12.6636    0.0000 </r>
       <r>   12.9657    0.0000 </r>
       <r>   14.9033    0.0000 </r>
       <r>   14.9726    0.0000 </r>
       <r>   15.0773    0.0000 </r>
       <r>   15.8067    0.0000 </r>
       <r>   15.8306    0.0000 </r>
       <r>   16.2220    0.0000 </r>
      </set>
      <set comment="kpoint 5">
       <r>  -12.4391    1.0000 </r>
       <r>  -12.0071    1.0000 </r>
       <r>   -8.5183    1.0000 </r>
       <r>   -8.3980    1.0000 </r>
       <r>   -6.0850    1.0000 </r>
       <r>   -6.0768    1.0000 </r>
       <r>   -4.3042    1.0000 </r>
       <r>   -3.5524    1.0000 </r>
       <r>   -2.9356    1.0000 </r>
       <r>   -2.9074    1.0000 </r>
       <r>   -2.5295    1.0000 </r>
       <r>   -2.3405    1.0000 </r>
       <r>   -2.1626    1.0000 </r>
       <r>   -2.1320    1.0000 </r>
       <r>   -0.5964    1.0000 </r>
       <r>   -0.3361    1.0000 </r>
       <r>    0.2164    1.0000 </r>
       <r>    0.2877    1.0000 </r>
       <r>    0.6667    1.0000 </r>
       <r>    1.4429    1.0000 </r>
       <r>    1.6682    1.0000 </r>
       <r>    1.7255    1.0000 </r>
       <r>    5.6754    0.0000 </r>
       <r>    5.7300    0.0000 </r>
       <r>    6.4482    0.0000 </r>
       <r>    6.6006    0.0000 </r>
       <r>    6.8802    0.0000 </r>
       <r>    7.5923    0.0000 </r>
       <r>    8.3637    0.0000 </r>
       <r>    8.6172    0.0000 </r>
       <r>    8.7320    0.0000 </r>
       <r>    9.3722    0.0000 </r>
       <r>   10.1737    0.0000 </r>
       <r>   10.2222    0.0000 </r>
       <r>   10.4700    0.0000 </r>
       <r>   11.3247    0.0000 </r>
       <r>   11.3806    0.0000 </r>
       <r>   11.8179    0.0000 </r>
       <r>   12.0832    0.0000 </r>
       <r>   12.2869    0.0000 </r>
       <r>   12.5157    0.0000 </r>
       <r>   13.3063    0.0000 </r>
       <r>   14.6025    0.0000 </r>
       <r>   15.0165    0.0000 </r>
       <r>   15.0854    0.0000 </r>
       <r>   15.2962    0.0000 </r>
       <r>   15.6493    0.0000 </r>
       <r>   16.4259    0.0000 </r>
      </set>
      <set comment="kpoint 6">
       <r>  -12.3063    1.0000 </r>
       <r>  -12.1595    1.0000 </r>
       <r>   -8.4639    1.0000 </r>
       <r>   -8.4211    1.0000 </r>
       <r>   -6.1540    1.0000 </r>
       <r>   -6.1497    1.0000 </r>
       <r>   -3.8562    1.0000 </r>
       <r>   -3.3592    1.0000 </r>
       <r>   -3.3567    1.0000 </r>
       <r>   -3.1409    1.0000 </r>
       <r>   -2.4520    1.0000 </r>
       <r>   -2.3799    1.0000 </r>
       <r>   -1.9673    1.0000 </r>
       <r>   -1.9040    1.0000 </r>
       <r>   -0.7492    1.0000 </r>
       <r>   -0.6310    1.0000 </r>
       <r>    0.2849    1.0000 </r>
       <r>    0.3132    1.0000 </r>
       <r>    0.8936    1.0000 </r>
       <r>    1.1585    1.0000 </r>
       <r>    1.6164    1.0000 </r>
       <r>    1.6394    1.0000 </r>
       <r>    5.7013    0.0000 </r>
       <r>    5.7311    0.0000 </r>
       <r>    6.4430    0.0000 </r>
       <r>    6.4976    0.0000 </r>
       <r>    7.4537    0.0000 </r>
       <r>    8.0641    0.0000 </r>
       <r>    8.1553    0.0000 </r>
       <r>    8.4652    0.0000 </r>
       <r>    8.5861    0.0000 </r>
       <r>    8.7513    0.0000 </r>
       <r>   10.5369    0.0000 </r>
       <r>   10.5384    0.0000 </r>
       <r>   10.8157    0.0000 </r>
       <r>   11.2916    0.0000 </r>
       <r>   11.3083    0.0000 </r>
       <r>   11.5451    0.0000 </r>
       <r>   11.9835    0.0000 </r>
       <r>   12.4360    0.0000 </r>
       <r>   12.7194    0.0000 </r>
       <r>   13.1824    0.0000 </r>
       <r>   14.5904    0.0000 </r>
       <r>   14.7348    0.0000 </r>
       <r>   14.8451    0.0000 </r>
       <r>   14.8951    0.0000 </r>
       <r>   16.1403    0.0000 </r>
       <r>   16.4399    0.0000 </r>
      </set>
      <set comment="kpoint 7">
       <r>  -12.7216    1.0000 </r>
       <r>  -11.5751    1.0000 </r>
       <r>   -8.6560    1.0000 </r>
       <r>   -8.4171    1.0000 </r>
       <r>   -6.0627    1.0000 </r>
       <r>   -5.1029    1.0000 </r>
       <r>   -4.6547    1.0000 </r>
       <r>   -4.3334    1.0000 </r>
       <r>   -4.1200    1.0000 </r>
       <r>   -3.5571    1.0000 </r>
       <r>   -2.8188    1.0000 </r>
       <r>   -2.1819    1.0000 </r>
       <r>   -1.5695    1.0000 </r>
       <r>   -1.0852    1.0000 </r>
       <r>   -0.1272    1.0000 </r>
       <r>   -0.1028    1.0000 </r>
       <r>    0.1545    1.0000 </r>
       <r>    0.2058    1.0000 </r>
       <r>    0.5903    1.0000 </r>
       <r>    1.9573    0.0602 </r>
       <r>    2.0299    0.0002 </r>
       <r>    2.2386    0.0000 </r>
       <r>    5.5127    0.0000 </r>
       <r>    5.7096    0.0000 </r>
       <r>    5.8546    0.0000 </r>
       <r>    5.9176    0.0000 </r>
       <r>    6.8854    0.0000 </r>
       <r>    7.6473    0.0000 </r>
       <r>    7.9235    0.0000 </r>
       <r>    8.3949    0.0000 </r>
       <r>    8.7860    0.0000 </r>
       <r>    8.9978    0.0000 </r>
       <r>    9.0661    0.0000 </r>
       <r>   10.2408    0.0000 </r>
       <r>   11.2325    0.0000 </r>
       <r>   11.3342    0.0000 </r>
       <r>   11.6780    0.0000 </r>
       <r>   11.8121    0.0000 </r>
       <r>   11.9541    0.0000 </r>
       <r>   12.4655    0.0000 </r>
       <r>   12.8511    0.0000 </r>
       <r>   13.3603    0.0000 </r>
       <r>   13.4285    0.0000 </r>
       <r>   15.4264    0.0000 </r>
       <r>   15.5150    0.0000 </r>
       <r>   16.0202    0.0000 </r>
       <r>   16.2694    0.0000 </r>
       <r>   16.3206    0.0000 </r>
      </set>
      <set comment="kpoint 8">
       <r>  -12.6912    1.0000 </r>
       <r>  -11.6270    1.0000 </r>
       <r>   -8.6414    1.0000 </r>
       <r>   -8.4088    1.0000 </r>
       <r>   -6.0088    1.0000 </r>
       <r>   -5.3764    1.0000 </r>
       <r>   -4.7612    1.0000 </r>
       <r>   -4.1689    1.0000 </r>
       <r>   -3.8962    1.0000 </r>
       <r>   -3.3071    1.0000 </r>
       <r>   -2.8654    1.0000 </r>
       <r>   -2.1674    1.0000 </r>
       <r>   -1.6321    1.0000 </r>
       <r>   -1.3039    1.0000 </r>
       <r>   -0.0996    1.0000 </r>
       <r>   -0.0703    1.0000 </r>
       <r>    0.1342    1.0000 </r>
       <r>    0.1890    1.0000 </r>
       <r>    0.5202    1.0000 </r>
       <r>    1.8977    0.5519 </r>
       <r>    1.9748    0.0202 </r>
       <r>    2.1517    0.0000 </r>
       <r>    5.5792    0.0000 </r>
       <r>    5.7358    0.0000 </r>
       <r>    5.8518    0.0000 </r>
       <r>    6.1578    0.0000 </r>
       <r>    6.8241    0.0000 </r>
       <r>    7.3465    0.0000 </r>
       <r>    8.1063    0.0000 </r>
       <r>    8.4957    0.0000 </r>
       <r>    9.0343    0.0000 </r>
       <r>    9.0760    0.0000 </r>
       <r>    9.1855    0.0000 </r>
       <r>   10.2884    0.0000 </r>
       <r>   11.0536    0.0000 </r>
       <r>   11.2669    0.0000 </r>
       <r>   11.2803    0.0000 </r>
       <r>   11.7360    0.0000 </r>
       <r>   12.1116    0.0000 </r>
       <r>   12.5240    0.0000 </r>
       <r>   13.0827    0.0000 </r>
       <r>   13.1704    0.0000 </r>
       <r>   13.7831    0.0000 </r>
       <r>   14.9956    0.0000 </r>
       <r>   15.6437    0.0000 </r>
       <r>   15.9402    0.0000 </r>
       <r>   16.1145    0.0000 </r>
       <r>   16.4726    0.0000 </r>
      </set>
      <set comment="kpoint 9">
       <r>  -12.6312    1.0000 </r>
       <r>  -11.7236    1.0000 </r>
       <r>   -8.6113    1.0000 </r>
       <r>   -8.3963    1.0000 </r>
       <r>   -5.9629    1.0000 </r>
       <r>   -5.6660    1.0000 </r>
       <r>   -4.7955    1.0000 </r>
       <r>   -4.0725    1.0000 </r>
       <r>   -3.4806    1.0000 </r>
       <r>   -2.9976    1.0000 </r>
       <r>   -2.8989    1.0000 </r>
       <r>   -2.1384    1.0000 </r>
       <r>   -1.7325    1.0000 </r>
       <r>   -1.6840    1.0000 </r>
       <r>   -0.1263    1.0000 </r>
       <r>   -0.0571    1.0000 </r>
       <r>    0.1018    1.0000 </r>
       <r>    0.2097    1.0000 </r>
       <r>    0.4304    1.0000 </r>
       <r>    1.7911    0.9992 </r>
       <r>    1.8762    0.7701 </r>
       <r>    1.9827    0.0115 </r>
       <r>    5.6805    0.0000 </r>
       <r>    5.7622    0.0000 </r>
       <r>    5.9806    0.0000 </r>
       <r>    6.5217    0.0000 </r>
       <r>    6.7247    0.0000 </r>
       <r>    7.0967    0.0000 </r>
       <r>    8.2384    0.0000 </r>
       <r>    8.6499    0.0000 </r>
       <r>    9.0641    0.0000 </r>
       <r>    9.3911    0.0000 </r>
       <r>    9.5161    0.0000 </r>
       <r>   10.3799    0.0000 </r>
       <r>   10.5906    0.0000 </r>
       <r>   10.7791    0.0000 </r>
       <r>   11.3692    0.0000 </r>
       <r>   11.8006    0.0000 </r>
       <r>   12.3446    0.0000 </r>
       <r>   12.6694    0.0000 </r>
       <r>   12.7641    0.0000 </r>
       <r>   13.0964    0.0000 </r>
       <r>   14.3005    0.0000 </r>
       <r>   14.8585    0.0000 </r>
       <r>   15.4706    0.0000 </r>
       <r>   15.8579    0.0000 </r>
       <r>   16.0479    0.0000 </r>
       <r>   16.5204    0.0000 </r>
      </set>
      <set comment="kpoint 10">
       <r>  -12.5434    1.0000 </r>
       <r>  -11.8523    1.0000 </r>
       <r>   -8.5663    1.0000 </r>
       <r>   -8.3872    1.0000 </r>
       <r>   -5.9930    1.0000 </r>
       <r>   -5.9036    1.0000 </r>
       <r>   -4.6368    1.0000 </r>
       <r>   -3.9554    1.0000 </r>
       <r>   -3.1082    1.0000 </r>
       <r>   -3.0593    1.0000 </r>
       <r>   -2.5165    1.0000 </r>
       <r>   -2.1672    1.0000 </r>
       <r>   -2.0665    1.0000 </r>
       <r>   -1.8439    1.0000 </r>
       <r>   -0.3376    1.0000 </r>
       <r>   -0.0908    1.0000 </r>
       <r>    0.1319    1.0000 </r>
       <r>    0.1692    1.0000 </r>
       <r>    0.4975    1.0000 </r>
       <r>    1.6569    1.0000 </r>
       <r>    1.7538    1.0000 </r>
       <r>    1.7543    1.0000 </r>
       <r>    5.7398    0.0000 </r>
       <r>    5.7734    0.0000 </r>
       <r>    6.3305    0.0000 </r>
       <r>    6.6236    0.0000 </r>
       <r>    6.7961    0.0000 </r>
       <r>    7.0804    0.0000 </r>
       <r>    8.3484    0.0000 </r>
       <r>    8.7264    0.0000 </r>
       <r>    8.9689    0.0000 </r>
       <r>    9.7789    0.0000 </r>
       <r>    9.8767    0.0000 </r>
       <r>    9.9787    0.0000 </r>
       <r>   10.3497    0.0000 </r>
       <r>   10.8191    0.0000 </r>
       <r>   11.4384    0.0000 </r>
       <r>   12.0417    0.0000 </r>
       <r>   12.2540    0.0000 </r>
       <r>   12.4954    0.0000 </r>
       <r>   12.6787    0.0000 </r>
       <r>   13.0397    0.0000 </r>
       <r>   14.7371    0.0000 </r>
       <r>   15.0249    0.0000 </r>
       <r>   15.1898    0.0000 </r>
       <r>   15.6967    0.0000 </r>
       <r>   15.7611    0.0000 </r>
       <r>   16.2913    0.0000 </r>
      </set>
      <set comment="kpoint 11">
       <r>  -12.4310    1.0000 </r>
       <r>  -11.9994    1.0000 </r>
       <r>   -8.5116    1.0000 </r>
       <r>   -8.3908    1.0000 </r>
       <r>   -6.0737    1.0000 </r>
       <r>   -6.0659    1.0000 </r>
       <r>   -4.2993    1.0000 </r>
       <r>   -3.8103    1.0000 </r>
       <r>   -3.2754    1.0000 </r>
       <r>   -2.9130    1.0000 </r>
       <r>   -2.4205    1.0000 </r>
       <r>   -2.1311    1.0000 </r>
       <r>   -2.0030    1.0000 </r>
       <r>   -1.9530    1.0000 </r>
       <r>   -0.5846    1.0000 </r>
       <r>   -0.3447    1.0000 </r>
       <r>    0.1689    1.0000 </r>
       <r>    0.2339    1.0000 </r>
       <r>    0.6703    1.0000 </r>
       <r>    1.4420    1.0000 </r>
       <r>    1.5835    1.0000 </r>
       <r>    1.6351    1.0000 </r>
       <r>    5.7448    0.0000 </r>
       <r>    5.8221    0.0000 </r>
       <r>    6.5598    0.0000 </r>
       <r>    6.7020    0.0000 </r>
       <r>    6.8139    0.0000 </r>
       <r>    7.5470    0.0000 </r>
       <r>    8.4432    0.0000 </r>
       <r>    8.5157    0.0000 </r>
       <r>    8.7879    0.0000 </r>
       <r>    9.3113    0.0000 </r>
       <r>   10.1895    0.0000 </r>
       <r>   10.2040    0.0000 </r>
       <r>   10.4682    0.0000 </r>
       <r>   11.3507    0.0000 </r>
       <r>   11.3692    0.0000 </r>
       <r>   11.7663    0.0000 </r>
       <r>   12.0983    0.0000 </r>
       <r>   12.4114    0.0000 </r>
       <r>   12.5896    0.0000 </r>
       <r>   13.3818    0.0000 </r>
       <r>   14.6698    0.0000 </r>
       <r>   14.9702    0.0000 </r>
       <r>   15.0347    0.0000 </r>
       <r>   15.2476    0.0000 </r>
       <r>   15.7371    0.0000 </r>
       <r>   16.4244    0.0000 </r>
      </set>
      <set comment="kpoint 12">
       <r>  -12.2984    1.0000 </r>
       <r>  -12.1517    1.0000 </r>
       <r>   -8.4570    1.0000 </r>
       <r>   -8.4141    1.0000 </r>
       <r>   -6.1429    1.0000 </r>
       <r>   -6.1385    1.0000 </r>
       <r>   -3.8519    1.0000 </r>
       <r>   -3.6425    1.0000 </r>
       <r>   -3.4583    1.0000 </r>
       <r>   -3.3500    1.0000 </r>
       <r>   -2.2232    1.0000 </r>
       <r>   -2.0683    1.0000 </r>
       <r>   -1.8892    1.0000 </r>
       <r>   -1.8775    1.0000 </r>
       <r>   -0.7379    1.0000 </r>
       <r>   -0.6275    1.0000 </r>
       <r>    0.2301    1.0000 </r>
       <r>    0.2579    1.0000 </r>
       <r>    0.8969    1.0000 </r>
       <r>    1.1617    1.0000 </r>
       <r>    1.5266    1.0000 </r>
       <r>    1.5493    1.0000 </r>
       <r>    5.7778    0.0000 </r>
       <r>    5.8155    0.0000 </r>
       <r>    6.5568    0.0000 </r>
       <r>    6.6093    0.0000 </r>
       <r>    7.3861    0.0000 </r>
       <r>    7.9910    0.0000 </r>
       <r>    8.1002    0.0000 </r>
       <r>    8.5377    0.0000 </r>
       <r>    8.6337    0.0000 </r>
       <r>    8.7068    0.0000 </r>
       <r>   10.4999    0.0000 </r>
       <r>   10.5562    0.0000 </r>
       <r>   10.7902    0.0000 </r>
       <r>   11.1014    0.0000 </r>
       <r>   11.4314    0.0000 </r>
       <r>   11.5721    0.0000 </r>
       <r>   12.0141    0.0000 </r>
       <r>   12.4965    0.0000 </r>
       <r>   12.8387    0.0000 </r>
       <r>   13.2758    0.0000 </r>
       <r>   14.6156    0.0000 </r>
       <r>   14.7426    0.0000 </r>
       <r>   14.8140    0.0000 </r>
       <r>   14.9385    0.0000 </r>
       <r>   16.1567    0.0000 </r>
       <r>   16.4318    0.0000 </r>
      </set>
      <set comment="kpoint 13">
       <r>  -12.6975    1.0000 </r>
       <r>  -11.5534    1.0000 </r>
       <r>   -8.6371    1.0000 </r>
       <r>   -8.3938    1.0000 </r>
       <r>   -6.0359    1.0000 </r>
       <r>   -5.0686    1.0000 </r>
       <r>   -4.6510    1.0000 </r>
[...]
       <r>   -2.2569    1.0000 </r>
       <r>   -2.1717    1.0000 </r>
       <r>   -2.0397    1.0000 </r>
       <r>   -1.5620    1.0000 </r>
       <r>   -0.6248    1.0000 </r>
       <r>   -0.1283    1.0000 </r>
       <r>    0.2484    1.0000 </r>
       <r>    0.4135    1.0000 </r>
       <r>    0.5189    1.0000 </r>
       <r>    1.3875    1.0000 </r>
       <r>    1.6300    1.0000 </r>
       <r>    1.8439    0.9507 </r>
       <r>    5.6104    0.0000 </r>
       <r>    6.1384    0.0000 </r>
       <r>    6.6568    0.0000 </r>
       <r>    7.2897    0.0000 </r>
       <r>    7.7037    0.0000 </r>
       <r>    8.0424    0.0000 </r>
       <r>    9.1165    0.0000 </r>
       <r>    9.3135    0.0000 </r>
       <r>    9.7315    0.0000 </r>
       <r>    9.9430    0.0000 </r>
       <r>   10.5576    0.0000 </r>
       <r>   11.0501    0.0000 </r>
       <r>   11.1391    0.0000 </r>
       <r>   11.4718    0.0000 </r>
       <r>   11.5605    0.0000 </r>
       <r>   11.8330    0.0000 </r>
       <r>   12.9051    0.0000 </r>
       <r>   13.2935    0.0000 </r>
       <r>   13.3157    0.0000 </r>
       <r>   13.8940    0.0000 </r>
       <r>   14.0249    0.0000 </r>
       <r>   14.2256    0.0000 </r>
       <r>   14.4628    0.0000 </r>
       <r>   14.9131    0.0000 </r>
       <r>   15.0862    0.0000 </r>
       <r>   15.3132    0.0000 </r>
      </set>
      <set comment="kpoint 324">
       <r>  -12.0083    1.0000 </r>
       <r>  -11.8925    1.0000 </r>
       <r>   -8.5428    1.0000 </r>
       <r>   -8.4491    1.0000 </r>
       <r>   -5.9181    1.0000 </r>
       <r>   -5.8303    1.0000 </r>
       <r>   -4.8217    1.0000 </r>
       <r>   -4.5615    1.0000 </r>
       <r>   -4.4127    1.0000 </r>
       <r>   -4.0552    1.0000 </r>
       <r>   -2.2031    1.0000 </r>
       <r>   -2.1547    1.0000 </r>
       <r>   -2.0393    1.0000 </r>
       <r>   -1.8030    1.0000 </r>
       <r>   -0.1905    1.0000 </r>
       <r>    0.0016    1.0000 </r>
       <r>    0.4131    1.0000 </r>
       <r>    0.4762    1.0000 </r>
       <r>    0.5555    1.0000 </r>
       <r>    0.8201    1.0000 </r>
       <r>    1.6487    1.0000 </r>
       <r>    1.7284    1.0000 </r>
       <r>    5.8756    0.0000 </r>
       <r>    6.0312    0.0000 </r>
       <r>    6.9046    0.0000 </r>
       <r>    7.4080    0.0000 </r>
       <r>    7.4316    0.0000 </r>
       <r>    7.5480    0.0000 </r>
       <r>    9.4402    0.0000 </r>
       <r>    9.6227    0.0000 </r>
       <r>    9.8093    0.0000 </r>
       <r>    9.9667    0.0000 </r>
       <r>   10.4719    0.0000 </r>
       <r>   10.7683    0.0000 </r>
       <r>   11.2497    0.0000 </r>
       <r>   11.4929    0.0000 </r>
       <r>   11.5064    0.0000 </r>
       <r>   11.5704    0.0000 </r>
       <r>   13.1003    0.0000 </r>
       <r>   13.1863    0.0000 </r>
       <r>   13.7920    0.0000 </r>
       <r>   14.1123    0.0000 </r>
       <r>   14.2257    0.0000 </r>
       <r>   14.2716    0.0000 </r>
       <r>   14.6314    0.0000 </r>
       <r>   14.7422    0.0000 </r>
       <r>   14.8683    0.0000 </r>
       <r>   15.0156    0.0000 </r>
      </set>
     </set>
    </set>
   </array>
  </eigenvalues>
  <separator name="orbital magnetization" >
   <v name="MAGDIPOLOUT">      0.00000000      0.00000000      0.00000000</v>
  </separator>
  <dos>
   <i name="efermi">      1.90232905 </i>
   <total>
    <array>
     <dimension dim="1">gridpoints</dimension>
     <dimension dim="2">spin</dimension>
     <field>energy</field>
     <field>total</field>
     <field>integrated</field>
     <set>
      <set comment="spin 1">
       <r>   -14.1925     0.0000     0.0000 </r>
       <r>   -14.0852     0.0000     0.0000 </r>
       <r>   -13.9780     0.0000     0.0000 </r>
       <r>   -13.8707     0.0000     0.0000 </r>
       <r>   -13.7635     0.0000     0.0000 </r>
       <r>   -13.6562     0.0000     0.0000 </r>
       <r>   -13.5490     0.0000     0.0000 </r>
       <r>   -13.4417     0.0000     0.0000 </r>
       <r>   -13.3345     0.0000     0.0000 </r>
       <r>   -13.2272     0.0000     0.0000 </r>
       <r>   -13.1200     0.0000     0.0000 </r>
       <r>   -13.0127     0.0000     0.0000 </r>
       <r>   -12.9055     0.0000     0.0000 </r>
       <r>   -12.7982     0.0027     0.0003 </r>
       <r>   -12.6910     0.4501     0.0486 </r>
       <r>   -12.5837     2.3109     0.2964 </r>
       <r>   -12.4765     3.5445     0.6766 </r>
       <r>   -12.3692     4.3615     1.1443 </r>
       <r>   -12.2620     3.5448     1.5245 </r>
       <r>   -12.1547     2.8181     1.8268 </r>
       <r>   -12.0475     2.6241     2.1082 </r>
       <r>   -11.9402     2.6035     2.3874 </r>
       <r>   -11.8329     2.7474     2.6821 </r>
       <r>   -11.7257     3.3540     3.0418 </r>
       <r>   -11.6184     3.6175     3.4298 </r>
       <r>   -11.5112     3.1121     3.7636 </r>
       <r>   -11.4039     1.7296     3.9491 </r>
       <r>   -11.2967     0.4652     3.9990 </r>
       <r>   -11.1894     0.0095     4.0000 </r>
       <r>   -11.0822     0.0000     4.0000 </r>
       <r>   -10.9749     0.0000     4.0000 </r>
       <r>   -10.8677     0.0000     4.0000 </r>
       <r>   -10.7604     0.0000     4.0000 </r>
       <r>   -10.6532     0.0000     4.0000 </r>
       <r>   -10.5459     0.0000     4.0000 </r>
       <r>   -10.4387     0.0000     4.0000 </r>
       <r>   -10.3314     0.0000     4.0000 </r>
       <r>   -10.2242     0.0000     4.0000 </r>
       <r>   -10.1169     0.0000     4.0000 </r>
       <r>   -10.0097     0.0000     4.0000 </r>
       <r>    -9.9024     0.0000     4.0000 </r>
       <r>    -9.7952     0.0000     4.0000 </r>
       <r>    -9.6879     0.0000     4.0000 </r>
       <r>    -9.5807     0.0000     4.0000 </r>
       <r>    -9.4734     0.0000     4.0000 </r>
       <r>    -9.3662     0.0000     4.0000 </r>
       <r>    -9.2589     0.0000     4.0000 </r>
       <r>    -9.1517     0.0000     4.0000 </r>
       <r>    -9.0444     0.0000     4.0000 </r>
       <r>    -8.9372     0.0005     4.0001 </r>
       <r>    -8.8299     0.2595     4.0279 </r>
       <r>    -8.7227     2.0518     4.2479 </r>
       <r>    -8.6154     5.2481     4.8108 </r>
       <r>    -8.5082     7.0222     5.5639 </r>
       <r>    -8.4009     6.2706     6.2365 </r>
       <r>    -8.2937     5.3119     6.8062 </r>
       <r>    -8.1864     4.8916     7.3308 </r>
       <r>    -8.0792     3.8577     7.7445 </r>
       <r>    -7.9719     1.7272     7.9298 </r>
       <r>    -7.8647     0.6002     7.9942 </r>
       <r>    -7.7574     0.0544     8.0000 </r>
       <r>    -7.6502     0.0000     8.0000 </r>
       <r>    -7.5429     0.0000     8.0000 </r>
       <r>    -7.4357     0.0000     8.0000 </r>
       <r>    -7.3284     0.0000     8.0000 </r>
       <r>    -7.2211     0.0000     8.0000 </r>
       <r>    -7.1139     0.0000     8.0000 </r>
       <r>    -7.0066     0.0011     8.0001 </r>
       <r>    -6.8994     0.1100     8.0119 </r>
       <r>    -6.7921     0.2439     8.0381 </r>
       <r>    -6.6849     0.4790     8.0894 </r>
       <r>    -6.5776     0.7117     8.1658 </r>
       <r>    -6.4704     0.8121     8.2529 </r>
       <r>    -6.3631     1.4147     8.4046 </r>
       <r>    -6.2559     2.1270     8.6327 </r>
       <r>    -6.1486     2.7202     8.9245 </r>
       <r>    -6.0414     4.0284     9.3565 </r>
       <r>    -5.9341     4.0053     9.7861 </r>
       <r>    -5.8269     3.8983    10.2042 </r>
       <r>    -5.7196     4.2633    10.6614 </r>
       <r>    -5.6124     3.9154    11.0814 </r>
       <r>    -5.5051     4.0164    11.5121 </r>
       <r>    -5.3979     4.4703    11.9916 </r>
       <r>    -5.2906     4.9086    12.5180 </r>
       <r>    -5.1834     4.3393    12.9834 </r>
       <r>    -5.0761     3.8886    13.4005 </r>
       <r>    -4.9689     3.4926    13.7751 </r>
       <r>    -4.8616     2.6054    14.0545 </r>
       <r>    -4.7544     2.3248    14.3038 </r>
       <r>    -4.6471     2.9768    14.6231 </r>
       <r>    -4.5399     3.5390    15.0027 </r>
       <r>    -4.4326     3.6394    15.3930 </r>
       <r>    -4.3254     2.8724    15.7011 </r>
       <r>    -4.2181     3.0890    16.0324 </r>
       <r>    -4.1109     3.1632    16.3716 </r>
       <r>    -4.0036     2.4901    16.6387 </r>
       <r>    -3.8964     3.1669    16.9783 </r>
       <r>    -3.7891     3.0697    17.3076 </r>
       <r>    -3.6819     3.0399    17.6336 </r>
       <r>    -3.5746     2.7432    17.9278 </r>
       <r>    -3.4674     2.6981    18.2172 </r>
       <r>    -3.3601     2.7123    18.5081 </r>
       <r>    -3.2529     2.9474    18.8242 </r>
       <r>    -3.1456     2.8714    19.1322 </r>
       <r>    -3.0384     2.7802    19.4303 </r>
       <r>    -2.9311     2.8503    19.7360 </r>
       <r>    -2.8239     3.0859    20.0670 </r>
       <r>    -2.7166     2.5186    20.3371 </r>
       <r>    -2.6094     2.4229    20.5970 </r>
       <r>    -2.5021     2.8412    20.9017 </r>
       <r>    -2.3948     3.3274    21.2586 </r>
       <r>    -2.2876     3.6795    21.6532 </r>
       <r>    -2.1803     3.0300    21.9782 </r>
       <r>    -2.0731     3.9320    22.3999 </r>
       <r>    -1.9658     3.6651    22.7930 </r>
       <r>    -1.8586     4.9118    23.3198 </r>
       <r>    -1.7513     4.8987    23.8452 </r>
       <r>    -1.6441     6.5056    24.5429 </r>
       <r>    -1.5368     6.0197    25.1885 </r>
       <r>    -1.4296     5.7686    25.8072 </r>
       <r>    -1.3223     5.9616    26.4466 </r>
       <r>    -1.2151     4.8193    26.9635 </r>
       <r>    -1.1078     5.7758    27.5829 </r>
       <r>    -1.0006     4.0887    28.0214 </r>
       <r>    -0.8933     2.5658    28.2966 </r>
       <r>    -0.7861     2.7300    28.5894 </r>
       <r>    -0.6788     3.0983    28.9217 </r>
       <r>    -0.5716     4.9563    29.4533 </r>
       <r>    -0.4643     5.5456    30.0480 </r>
       <r>    -0.3571     6.1653    30.7093 </r>
       <r>    -0.2498     6.8662    31.4457 </r>
       <r>    -0.1426     6.4515    32.1376 </r>
       <r>    -0.0353     6.5498    32.8401 </r>
       <r>     0.0719     6.6963    33.5583 </r>
       <r>     0.1792     6.7522    34.2825 </r>
       <r>     0.2864     7.9596    35.1361 </r>
       <r>     0.3937     8.4613    36.0436 </r>
       <r>     0.5009     9.0783    37.0173 </r>
       <r>     0.6082     4.8756    37.5402 </r>
       <r>     0.7154     3.4037    37.9053 </r>
       <r>     0.8227     2.7330    38.1984 </r>
       <r>     0.9299     3.2056    38.5422 </r>
       <r>     1.0372     3.1008    38.8747 </r>
       <r>     1.1444     4.2651    39.3322 </r>
       <r>     1.2517     3.7217    39.7313 </r>
       <r>     1.3589     3.1771    40.0721 </r>
       <r>     1.4662     4.0475    40.5062 </r>
       <r>     1.5734     4.5188    40.9908 </r>
       <r>     1.6807     3.5716    41.3739 </r>
       <r>     1.7879     2.7593    41.6698 </r>
       <r>     1.8952     2.8669    41.9773 </r>
       <r>     2.0024     3.2545    42.3263 </r>
       <r>     2.1097     3.1645    42.6657 </r>
       <r>     2.2170     2.0412    42.8847 </r>
       <r>     2.3242     1.6418    43.0608 </r>
       <r>     2.4315     1.4177    43.2128 </r>
       <r>     2.5387     1.1350    43.3345 </r>
       <r>     2.6460     1.0520    43.4474 </r>
       <r>     2.7532     0.8068    43.5339 </r>
       <r>     2.8605     0.4658    43.5839 </r>
       <r>     2.9677     0.3191    43.6181 </r>
       <r>     3.0750     0.4822    43.6698 </r>
       <r>     3.1822     0.3629    43.7087 </r>
       <r>     3.2895     0.5158    43.7640 </r>
       <r>     3.3967     0.6912    43.8382 </r>
       <r>     3.5040     0.3720    43.8781 </r>
       <r>     3.6112     0.0734    43.8859 </r>
       <r>     3.7185     0.2779    43.9157 </r>
       <r>     3.8257     0.3634    43.9547 </r>
       <r>     3.9330     0.3338    43.9905 </r>
       <r>     4.0402     0.0883    44.0000 </r>
       <r>     4.1475     0.0002    44.0000 </r>
       <r>     4.2547     0.0320    44.0034 </r>
       <r>     4.3620     0.2123    44.0262 </r>
       <r>     4.4692     0.3447    44.0632 </r>
       <r>     4.5765     0.4785    44.1145 </r>
       <r>     4.6837     0.7258    44.1923 </r>
       <r>     4.7910     0.7866    44.2767 </r>
       <r>     4.8982     0.8286    44.3656 </r>
       <r>     5.0055     0.9587    44.4684 </r>
       <r>     5.1127     1.2138    44.5986 </r>
       <r>     5.2200     1.2255    44.7300 </r>
       <r>     5.3272     1.6410    44.9060 </r>
       <r>     5.4345     2.0307    45.1238 </r>
       <r>     5.5417     2.4894    45.3908 </r>
       <r>     5.6490     3.0244    45.7152 </r>
       <r>     5.7562     3.3279    46.0721 </r>
       <r>     5.8635     3.1898    46.4142 </r>
       <r>     5.9707     4.2296    46.8678 </r>
       <r>     6.0780     4.5481    47.3556 </r>
       <r>     6.1852     4.8407    47.8748 </r>
       <r>     6.2925     3.9976    48.3035 </r>
       <r>     6.3997     3.9750    48.7299 </r>
       <r>     6.5070     4.5379    49.2166 </r>
       <r>     6.6142     4.0898    49.6552 </r>
       <r>     6.7215     3.5685    50.0379 </r>
       <r>     6.8288     3.7214    50.4370 </r>
       <r>     6.9360     4.5386    50.9238 </r>
       <r>     7.0433     4.6164    51.4189 </r>
       <r>     7.1505     4.7302    51.9262 </r>
       <r>     7.2578     5.3857    52.5039 </r>
       <r>     7.3650     4.7654    53.0150 </r>
       <r>     7.4723     4.5548    53.5035 </r>
       <r>     7.5795     3.8588    53.9173 </r>
       <r>     7.6868     3.8895    54.3345 </r>
       <r>     7.7940     3.0294    54.6594 </r>
       <r>     7.9013     3.0217    54.9835 </r>
       <r>     8.0085     3.3931    55.3474 </r>
       <r>     8.1158     3.7001    55.7442 </r>
       <r>     8.2230     3.7188    56.1431 </r>
       <r>     8.3303     3.9574    56.5675 </r>
       <r>     8.4375     4.1370    57.0112 </r>
       <r>     8.5448     4.0324    57.4437 </r>
       <r>     8.6520     4.3721    57.9126 </r>
       <r>     8.7593     4.5479    58.4004 </r>
       <r>     8.8665     4.9597    58.9323 </r>
       <r>     8.9738     5.3003    59.5008 </r>
       <r>     9.0810     5.4130    60.0813 </r>
       <r>     9.1883     4.8398    60.6004 </r>
       <r>     9.2955     4.5522    61.0886 </r>
       <r>     9.4028     4.8387    61.6076 </r>
       <r>     9.5100     5.2301    62.1685 </r>
       <r>     9.6173     4.6868    62.6712 </r>
       <r>     9.7245     4.6123    63.1659 </r>
       <r>     9.8318     5.0895    63.7117 </r>
       <r>     9.9390     4.9819    64.2460 </r>
       <r>    10.0463     4.8369    64.7648 </r>
       <r>    10.1535     3.7770    65.1699 </r>
       <r>    10.2608     4.0630    65.6056 </r>
       <r>    10.3680     4.9175    66.1331 </r>
       <r>    10.4753     5.6107    66.7348 </r>
       <r>    10.5825     5.4110    67.3151 </r>
       <r>    10.6898     4.3768    67.7846 </r>
       <r>    10.7970     4.2100    68.2361 </r>
       <r>    10.9043     3.3965    68.6004 </r>
       <r>    11.0115     3.9172    69.0205 </r>
       <r>    11.1188     5.5371    69.6144 </r>
       <r>    11.2260     6.0264    70.2607 </r>
       <r>    11.3333     6.2591    70.9320 </r>
       <r>    11.4406     5.1010    71.4791 </r>
       <r>    11.5478     4.4619    71.9576 </r>
       <r>    11.6551     5.0746    72.5019 </r>
       <r>    11.7623     4.6073    72.9960 </r>
       <r>    11.8696     4.4845    73.4770 </r>
       <r>    11.9768     5.7650    74.0953 </r>
       <r>    12.0841     6.8377    74.8286 </r>
       <r>    12.1913     5.4935    75.4178 </r>
       <r>    12.2986     5.1019    75.9650 </r>
       <r>    12.4058     5.3972    76.5439 </r>
       <r>    12.5131     6.2871    77.2182 </r>
       <r>    12.6203     5.5895    77.8176 </r>
       <r>    12.7276     5.4250    78.3995 </r>
       <r>    12.8348     6.3999    79.0859 </r>
       <r>    12.9421     6.0549    79.7353 </r>
       <r>    13.0493     5.7103    80.3477 </r>
       <r>    13.1566     6.0007    80.9913 </r>
       <r>    13.2638     6.1666    81.6527 </r>
       <r>    13.3711     6.1574    82.3131 </r>
       <r>    13.4783     5.4057    82.8928 </r>
       <r>    13.5856     5.1533    83.4455 </r>
       <r>    13.6928     5.4877    84.0341 </r>
       <r>    13.8001     5.4302    84.6165 </r>
       <r>    13.9073     5.5007    85.2064 </r>
       <r>    14.0146     5.9194    85.8413 </r>
       <r>    14.1218     5.2035    86.3994 </r>
       <r>    14.2291     4.6707    86.9003 </r>
       <r>    14.3363     5.3268    87.4716 </r>
       <r>    14.4436     4.5412    87.9586 </r>
       <r>    14.5508     5.0213    88.4972 </r>
       <r>    14.6581     5.7763    89.1167 </r>
       <r>    14.7653     4.5652    89.6063 </r>
       <r>    14.8726     3.6722    90.0002 </r>
       <r>    14.9798     5.7428    90.6161 </r>
       <r>    15.0871     6.1111    91.2715 </r>
       <r>    15.1943     5.3823    91.8488 </r>
       <r>    15.3016     6.1625    92.5097 </r>
       <r>    15.4088     5.8689    93.1392 </r>
       <r>    15.5161     5.9353    93.7757 </r>
       <r>    15.6233     5.4289    94.3580 </r>
       <r>    15.7306     4.1653    94.8047 </r>
       <r>    15.8378     3.7053    95.2021 </r>
       <r>    15.9451     2.0056    95.4172 </r>
       <r>    16.0523     1.3097    95.5577 </r>
       <r>    16.1596     1.5033    95.7189 </r>
       <r>    16.2669     0.9624    95.8221 </r>
       <r>    16.3741     0.8367    95.9119 </r>
       <r>    16.4814     0.6029    95.9765 </r>
       <r>    16.5886     0.2161    95.9997 </r>
       <r>    16.6959     0.0029    96.0000 </r>
       <r>    16.8031     0.0000    96.0000 </r>
       <r>    16.9104     0.0000    96.0000 </r>
       <r>    17.0176     0.0000    96.0000 </r>
       <r>    17.1249     0.0000    96.0000 </r>
       <r>    17.2321     0.0000    96.0000 </r>
       <r>    17.3394     0.0000    96.0000 </r>
       <r>    17.4466     0.0000    96.0000 </r>
       <r>    17.5539     0.0000    96.0000 </r>
       <r>    17.6611     0.0000    96.0000 </r>
       <r>    17.7684     0.0000    96.0000 </r>
       <r>    17.8756     0.0000    96.0000 </r>
       <r>    17.9829     0.0000    96.0000 </r>
      </set>
     </set>
    </array>
   </total>
  </dos>
 </calculation>
 <structure name="finalpos" >
  <crystal>
   <varray name="basis" >
    <v>       5.69700000       0.00000000       0.00000000 </v>
    <v>       0.00000000       4.04790000       0.00000000 </v>
    <v>       0.00000000       0.00000000       6.20420000 </v>
   </varray>
   <i name="volume">    143.07435078 </i>
   <varray name="rec_basis" >
    <v>       0.17553098       0.00000000       0.00000000 </v>
    <v>       0.00000000       0.24704168       0.00000000 </v>
    <v>       0.00000000       0.00000000       0.16118114 </v>
   </varray>
  </crystal>
  <varray name="positions" >
   <v>       0.52123000       0.50000000       0.63796000 </v>
   <v>       0.47877000       0.50000000       0.36204000 </v>
   <v>       0.97877000       0.50000000       0.63796000 </v>
   <v>       0.02123000       0.50000000       0.36204000 </v>
   <v>       0.60090000       0.50000000       0.89991000 </v>
   <v>       0.39910000       0.50000000       0.10009000 </v>
   <v>       0.89910000       0.50000000       0.89991000 </v>
   <v>       0.10090000       0.50000000       0.10009000 </v>
   <v>       0.75000000       0.79171000       0.72973000 </v>
   <v>       0.25000000       0.20829000       0.27027000 </v>
   <v>       0.75000000       0.20829000       0.72973000 </v>
   <v>       0.25000000       0.79171000       0.27027000 </v>
   <v>       0.25000000       0.50000000       0.52367000 </v>
   <v>       0.75000000       0.50000000       0.47633000 </v>
  </varray>
 </structure>
</modeling>
