Automatically generated mesh
    2112
Reciprocal lattice
    0.00000000000000    0.01562500000000    0.00000000000000             2
    0.04347826086956    0.01562500000000    0.00000000000000             4
    0.08695652173913    0.01562500000000    0.00000000000000             4
    0.13043478260870    0.01562500000000    0.00000000000000             4
    0.17391304347826    0.01562500000000    0.00000000000000             4
    0.21739130434783    0.01562500000000    0.00000000000000             4
    0.26086956521739    0.01562500000000    0.00000000000000             4
    0.30434782608695    0.01562500000000    0.00000000000000             4
    0.34782608695652    0.01562500000000    0.00000000000000             4
    0.39130434782609    0.01562500000000    0.00000000000000             4
    0.43478260869565    0.01562500000000    0.00000000000000             4
    0.47826086956522    0.01562500000000    0.00000000000000             4
    0.00000000000000    0.04687500000000    0.00000000000000             2
    0.04347826086956    0.04687500000000    0.00000000000000             4
    0.08695652173913    0.04687500000000    0.00000000000000             4
    0.13043478260870    0.04687500000000    0.00000000000000             4
    0.17391304347826    0.04687500000000    0.00000000000000             4
    0.21739130434783    0.04687500000000    0.00000000000000             4
    0.26086956521739    0.04687500000000    0.00000000000000             4
    0.30434782608695    0.04687500000000    0.00000000000000             4
    0.34782608695652    0.04687500000000    0.00000000000000             4
    0.39130434782609    0.04687500000000    0.00000000000000             4
    0.43478260869565    0.04687500000000    0.00000000000000             4
    0.47826086956522    0.04687500000000    0.00000000000000             4
    0.00000000000000    0.07812500000000    0.00000000000000             2
    0.04347826086956    0.07812500000000    0.00000000000000             4
    0.08695652173913    0.07812500000000    0.00000000000000             4
    0.13043478260870    0.07812500000000    0.00000000000000             4
    0.17391304347826    0.07812500000000    0.00000000000000             4
    0.21739130434783    0.07812500000000    0.00000000000000             4
    0.26086956521739    0.07812500000000    0.00000000000000             4
    0.30434782608695    0.07812500000000    0.00000000000000             4
    0.34782608695652    0.07812500000000    0.00000000000000             4
    0.39130434782609    0.07812500000000    0.00000000000000             4
    0.43478260869565    0.07812500000000    0.00000000000000             4
    0.47826086956522    0.07812500000000    0.00000000000000             4
    0.00000000000000    0.10937500000000    0.00000000000000             2
    0.04347826086956    0.10937500000000    0.00000000000000             4
    0.08695652173913    0.10937500000000    0.00000000000000             4
    0.13043478260870    0.10937500000000    0.00000000000000             4
    0.17391304347826    0.10937500000000    0.00000000000000             4
    0.21739130434783    0.10937500000000    0.00000000000000             4
    0.26086956521739    0.10937500000000    0.00000000000000             4
    0.30434782608695    0.10937500000000    0.00000000000000             4
    0.34782608695652    0.10937500000000    0.00000000000000             4
    0.39130434782609    0.10937500000000    0.00000000000000             4
    0.43478260869565    0.10937500000000    0.00000000000000             4
    0.47826086956522    0.10937500000000    0.00000000000000             4
    0.00000000000000    0.14062500000000    0.00000000000000             2
    0.04347826086956    0.14062500000000    0.00000000000000             4
    0.08695652173913    0.14062500000000    0.00000000000000             4
    0.13043478260870    0.14062500000000    0.00000000000000             4
    0.17391304347826    0.14062500000000    0.00000000000000             4
    0.21739130434783    0.14062500000000    0.00000000000000             4
    0.26086956521739    0.14062500000000    0.00000000000000             4
    0.30434782608695    0.14062500000000    0.00000000000000             4
    0.34782608695652    0.14062500000000    0.00000000000000             4
    0.39130434782609    0.14062500000000    0.00000000000000             4
    0.43478260869565    0.14062500000000    0.00000000000000             4
    0.47826086956522    0.14062500000000    0.00000000000000             4
    0.00000000000000    0.17187500000000    0.00000000000000             2
    0.04347826086956    0.17187500000000    0.00000000000000             4
    0.08695652173913    0.17187500000000    0.00000000000000             4
    0.13043478260870    0.17187500000000    0.00000000000000             4
    0.17391304347826    0.17187500000000    0.00000000000000             4
    0.21739130434783    0.17187500000000    0.00000000000000             4
    0.26086956521739    0.17187500000000    0.00000000000000             4
    0.30434782608695    0.17187500000000    0.00000000000000             4
    0.34782608695652    0.17187500000000    0.00000000000000             4
    0.39130434782609    0.17187500000000    0.00000000000000             4
    0.43478260869565    0.17187500000000    0.00000000000000             4
    0.47826086956522    0.17187500000000    0.00000000000000             4
    0.00000000000000    0.20312500000000    0.00000000000000             2
    0.04347826086956    0.20312500000000    0.00000000000000             4
    0.08695652173913    0.20312500000000    0.00000000000000             4
    0.13043478260870    0.20312500000000    0.00000000000000             4
    0.17391304347826    0.20312500000000    0.00000000000000             4
    0.21739130434783    0.20312500000000    0.00000000000000             4
    0.26086956521739    0.20312500000000    0.00000000000000             4
    0.30434782608695    0.20312500000000    0.00000000000000             4
    0.34782608695652    0.20312500000000    0.00000000000000             4
    0.39130434782609    0.20312500000000    0.00000000000000             4
    0.43478260869565    0.20312500000000    0.00000000000000             4
    0.47826086956522    0.20312500000000    0.00000000000000             4
    0.00000000000000    0.23437500000000    0.00000000000000             2
    0.04347826086956    0.23437500000000    0.00000000000000             4
    0.08695652173913    0.23437500000000    0.00000000000000             4
    0.13043478260870    0.23437500000000    0.00000000000000             4
    0.17391304347826    0.23437500000000    0.00000000000000             4
    0.21739130434783    0.23437500000000    0.00000000000000             4
    0.26086956521739    0.23437500000000    0.00000000000000             4
    0.30434782608695    0.23437500000000    0.00000000000000             4
    0.34782608695652    0.23437500000000    0.00000000000000             4
    0.39130434782609    0.23437500000000    0.00000000000000             4
    0.43478260869565    0.23437500000000    0.00000000000000             4
    0.47826086956522    0.23437500000000    0.00000000000000             4
    0.00000000000000    0.26562500000000    0.00000000000000             2
    0.04347826086956    0.26562500000000    0.00000000000000             4
    0.08695652173913    0.26562500000000    0.00000000000000             4
    0.13043478260870    0.26562500000000    0.00000000000000             4
    0.17391304347826    0.26562500000000    0.00000000000000             4
    0.21739130434783    0.26562500000000    0.00000000000000             4
    0.26086956521739    0.26562500000000    0.00000000000000             4
    0.30434782608695    0.26562500000000    0.00000000000000             4
    0.34782608695652    0.26562500000000    0.00000000000000             4
    0.39130434782609    0.26562500000000    0.00000000000000             4
    0.43478260869565    0.26562500000000    0.00000000000000             4
    0.47826086956522    0.26562500000000    0.00000000000000             4
    0.00000000000000    0.29687500000000    0.00000000000000             2
    0.04347826086956    0.29687500000000    0.00000000000000             4
    0.08695652173913    0.29687500000000    0.00000000000000             4
    0.13043478260870    0.29687500000000    0.00000000000000             4
    0.17391304347826    0.29687500000000    0.00000000000000             4
    0.21739130434783    0.29687500000000    0.00000000000000             4
    0.26086956521739    0.29687500000000    0.00000000000000             4
    0.30434782608695    0.29687500000000    0.00000000000000             4
    0.34782608695652    0.29687500000000    0.00000000000000             4
    0.39130434782609    0.29687500000000    0.00000000000000             4
    0.43478260869565    0.29687500000000    0.00000000000000             4
    0.47826086956522    0.29687500000000    0.00000000000000             4
    0.00000000000000    0.32812500000000    0.00000000000000             2
    0.04347826086956    0.32812500000000    0.00000000000000             4
    0.08695652173913    0.32812500000000    0.00000000000000             4
    0.13043478260870    0.32812500000000    0.00000000000000             4
    0.17391304347826    0.32812500000000    0.00000000000000             4
    0.21739130434783    0.32812500000000    0.00000000000000             4
    0.26086956521739    0.32812500000000    0.00000000000000             4
    0.30434782608695    0.32812500000000    0.00000000000000             4
    0.34782608695652    0.32812500000000    0.00000000000000             4
    0.39130434782609    0.32812500000000    0.00000000000000             4
    0.43478260869565    0.32812500000000    0.00000000000000             4
    0.47826086956522    0.32812500000000    0.00000000000000             4
    0.00000000000000    0.35937500000000    0.00000000000000             2
    0.04347826086956    0.35937500000000    0.00000000000000             4
    0.08695652173913    0.35937500000000    0.00000000000000             4
    0.13043478260870    0.35937500000000    0.00000000000000             4
    0.17391304347826    0.35937500000000    0.00000000000000             4
    0.21739130434783    0.35937500000000    0.00000000000000             4
    0.26086956521739    0.35937500000000    0.00000000000000             4
    0.30434782608695    0.35937500000000    0.00000000000000             4
    0.34782608695652    0.35937500000000    0.00000000000000             4
    0.39130434782609    0.35937500000000    0.00000000000000             4
    0.43478260869565    0.35937500000000    0.00000000000000             4
    0.47826086956522    0.35937500000000    0.00000000000000             4
    0.00000000000000    0.39062500000000    0.00000000000000             2
    0.04347826086956    0.39062500000000    0.00000000000000             4
    0.08695652173913    0.39062500000000    0.00000000000000             4
    0.13043478260870    0.39062500000000    0.00000000000000             4
    0.17391304347826    0.39062500000000    0.00000000000000             4
    0.21739130434783    0.39062500000000    0.00000000000000             4
    0.26086956521739    0.39062500000000    0.00000000000000             4
    0.30434782608695    0.39062500000000    0.00000000000000             4
    0.34782608695652    0.39062500000000    0.00000000000000             4
    0.39130434782609    0.39062500000000    0.00000000000000             4
    0.43478260869565    0.39062500000000    0.00000000000000             4
    0.47826086956522    0.39062500000000    0.00000000000000             4
    0.00000000000000    0.42187500000000    0.00000000000000             2
    0.04347826086956    0.42187500000000    0.00000000000000             4
    0.08695652173913    0.42187500000000    0.00000000000000             4
    0.13043478260870    0.42187500000000    0.00000000000000             4
    0.17391304347826    0.42187500000000    0.00000000000000             4
    0.21739130434783    0.42187500000000    0.00000000000000             4
    0.26086956521739    0.42187500000000    0.00000000000000             4
    0.30434782608695    0.42187500000000    0.00000000000000             4
    0.34782608695652    0.42187500000000    0.00000000000000             4
    0.39130434782609    0.42187500000000    0.00000000000000             4
    0.43478260869565    0.42187500000000    0.00000000000000             4
    0.47826086956522    0.42187500000000    0.00000000000000             4
    0.00000000000000    0.45312500000000    0.00000000000000             2
    0.04347826086956    0.45312500000000    0.00000000000000             4
    0.08695652173913    0.45312500000000    0.00000000000000             4
    0.13043478260870    0.45312500000000    0.00000000000000             4
    0.17391304347826    0.45312500000000    0.00000000000000             4
    0.21739130434783    0.45312500000000    0.00000000000000             4
    0.26086956521739    0.45312500000000    0.00000000000000             4
    0.30434782608695    0.45312500000000    0.00000000000000             4
    0.34782608695652    0.45312500000000    0.00000000000000             4
    0.39130434782609    0.45312500000000    0.00000000000000             4
    0.43478260869565    0.45312500000000    0.00000000000000             4
    0.47826086956522    0.45312500000000    0.00000000000000             4
    0.00000000000000    0.48437500000000    0.00000000000000             2
    0.04347826086956    0.48437500000000    0.00000000000000             4
    0.08695652173913    0.48437500000000    0.00000000000000             4
    0.13043478260870    0.48437500000000    0.00000000000000             4
    0.17391304347826    0.48437500000000    0.00000000000000             4
    0.21739130434783    0.48437500000000    0.00000000000000             4
    0.26086956521739    0.48437500000000    0.00000000000000             4
    0.30434782608695    0.48437500000000    0.00000000000000             4
    0.34782608695652    0.48437500000000    0.00000000000000             4
    0.39130434782609    0.48437500000000    0.00000000000000             4
    0.43478260869565    0.48437500000000    0.00000000000000             4
    0.47826086956522    0.48437500000000    0.00000000000000             4
    0.00000000000000    0.01562500000000    0.04761904761905             4
    0.04347826086956    0.01562500000000    0.04761904761905             8
    0.08695652173913    0.01562500000000    0.04761904761905             8
    0.13043478260870    0.01562500000000    0.04761904761905             8
    0.17391304347826    0.01562500000000    0.04761904761905             8
    0.21739130434783    0.01562500000000    0.04761904761905             8
    0.26086956521739    0.01562500000000    0.04761904761905             8
    0.30434782608695    0.01562500000000    0.04761904761905             8
    0.34782608695652    0.01562500000000    0.04761904761905             8
    0.39130434782609    0.01562500000000    0.04761904761905             8
    0.43478260869565    0.01562500000000    0.04761904761905             8
    0.47826086956522    0.01562500000000    0.04761904761905             8
    0.00000000000000    0.04687500000000    0.04761904761905             4
    0.04347826086956    0.04687500000000    0.04761904761905             8
    0.08695652173913    0.04687500000000    0.04761904761905             8
    0.13043478260870    0.04687500000000    0.04761904761905             8
    0.17391304347826    0.04687500000000    0.04761904761905             8
    0.21739130434783    0.04687500000000    0.04761904761905             8
    0.26086956521739    0.04687500000000    0.04761904761905             8
    0.30434782608695    0.04687500000000    0.04761904761905             8
    0.34782608695652    0.04687500000000    0.04761904761905             8
    0.39130434782609    0.04687500000000    0.04761904761905             8
    0.43478260869565    0.04687500000000    0.04761904761905             8
    0.47826086956522    0.04687500000000    0.04761904761905             8
    0.00000000000000    0.07812500000000    0.04761904761905             4
    0.04347826086956    0.07812500000000    0.04761904761905             8
    0.08695652173913    0.07812500000000    0.04761904761905             8
    0.13043478260870    0.07812500000000    0.04761904761905             8
    0.17391304347826    0.07812500000000    0.04761904761905             8
    0.21739130434783    0.07812500000000    0.04761904761905             8
    0.26086956521739    0.07812500000000    0.04761904761905             8
    0.30434782608695    0.07812500000000    0.04761904761905             8
    0.34782608695652    0.07812500000000    0.04761904761905             8
    0.39130434782609    0.07812500000000    0.04761904761905             8
    0.43478260869565    0.07812500000000    0.04761904761905             8
    0.47826086956522    0.07812500000000    0.04761904761905             8
    0.00000000000000    0.10937500000000    0.04761904761905             4
    0.04347826086956    0.10937500000000    0.04761904761905             8
    0.08695652173913    0.10937500000000    0.04761904761905             8
    0.13043478260870    0.10937500000000    0.04761904761905             8
    0.17391304347826    0.10937500000000    0.04761904761905             8
    0.21739130434783    0.10937500000000    0.04761904761905             8
    0.26086956521739    0.10937500000000    0.04761904761905             8
    0.30434782608695    0.10937500000000    0.04761904761905             8
    0.34782608695652    0.10937500000000    0.04761904761905             8
    0.39130434782609    0.10937500000000    0.04761904761905             8
    0.43478260869565    0.10937500000000    0.04761904761905             8
    0.47826086956522    0.10937500000000    0.04761904761905             8
    0.00000000000000    0.14062500000000    0.04761904761905             4
    0.04347826086956    0.14062500000000    0.04761904761905             8
    0.08695652173913    0.14062500000000    0.04761904761905             8
    0.13043478260870    0.14062500000000    0.04761904761905             8
    0.17391304347826    0.14062500000000    0.04761904761905             8
    0.21739130434783    0.14062500000000    0.04761904761905             8
    0.26086956521739    0.14062500000000    0.04761904761905             8
    0.30434782608695    0.14062500000000    0.04761904761905             8
    0.34782608695652    0.14062500000000    0.04761904761905             8
    0.39130434782609    0.14062500000000    0.04761904761905             8
    0.43478260869565    0.14062500000000    0.04761904761905             8
    0.47826086956522    0.14062500000000    0.04761904761905             8
    0.00000000000000    0.17187500000000    0.04761904761905             4
    0.04347826086956    0.17187500000000    0.04761904761905             8
    0.08695652173913    0.17187500000000    0.04761904761905             8
    0.13043478260870    0.17187500000000    0.04761904761905             8
    0.17391304347826    0.17187500000000    0.04761904761905             8
    0.21739130434783    0.17187500000000    0.04761904761905             8
    0.26086956521739    0.17187500000000    0.04761904761905             8
    0.30434782608695    0.17187500000000    0.04761904761905             8
    0.34782608695652    0.17187500000000    0.04761904761905             8
    0.39130434782609    0.17187500000000    0.04761904761905             8
    0.43478260869565    0.17187500000000    0.04761904761905             8
    0.47826086956522    0.17187500000000    0.04761904761905             8
    0.00000000000000    0.20312500000000    0.04761904761905             4
    0.04347826086956    0.20312500000000    0.04761904761905             8
    0.08695652173913    0.20312500000000    0.04761904761905             8
    0.13043478260870    0.20312500000000    0.04761904761905             8
    0.17391304347826    0.20312500000000    0.04761904761905             8
    0.21739130434783    0.20312500000000    0.04761904761905             8
    0.26086956521739    0.20312500000000    0.04761904761905             8
    0.30434782608695    0.20312500000000    0.04761904761905             8
    0.34782608695652    0.20312500000000    0.04761904761905             8
    0.39130434782609    0.20312500000000    0.04761904761905             8
    0.43478260869565    0.20312500000000    0.04761904761905             8
    0.47826086956522    0.20312500000000    0.04761904761905             8
    0.00000000000000    0.23437500000000    0.04761904761905             4
    0.04347826086956    0.23437500000000    0.04761904761905             8
    0.08695652173913    0.23437500000000    0.04761904761905             8
    0.13043478260870    0.23437500000000    0.04761904761905             8
    0.17391304347826    0.23437500000000    0.04761904761905             8
    0.21739130434783    0.23437500000000    0.04761904761905             8
    0.26086956521739    0.23437500000000    0.04761904761905             8
    0.30434782608695    0.23437500000000    0.04761904761905             8
    0.34782608695652    0.23437500000000    0.04761904761905             8
    0.39130434782609    0.23437500000000    0.04761904761905             8
    0.43478260869565    0.23437500000000    0.04761904761905             8
    0.47826086956522    0.23437500000000    0.04761904761905             8
    0.00000000000000    0.26562500000000    0.04761904761905             4
    0.04347826086956    0.26562500000000    0.04761904761905             8
    0.08695652173913    0.26562500000000    0.04761904761905             8
    0.13043478260870    0.26562500000000    0.04761904761905             8
    0.17391304347826    0.26562500000000    0.04761904761905             8
    0.21739130434783    0.26562500000000    0.04761904761905             8
    0.26086956521739    0.26562500000000    0.04761904761905             8
    0.30434782608695    0.26562500000000    0.04761904761905             8
    0.34782608695652    0.26562500000000    0.04761904761905             8
    0.39130434782609    0.26562500000000    0.04761904761905             8
    0.43478260869565    0.26562500000000    0.04761904761905             8
    0.47826086956522    0.26562500000000    0.04761904761905             8
    0.00000000000000    0.29687500000000    0.04761904761905             4
    0.04347826086956    0.29687500000000    0.04761904761905             8
    0.08695652173913    0.29687500000000    0.04761904761905             8
    0.13043478260870    0.29687500000000    0.04761904761905             8
    0.17391304347826    0.29687500000000    0.04761904761905             8
    0.21739130434783    0.29687500000000    0.04761904761905             8
    0.26086956521739    0.29687500000000    0.04761904761905             8
    0.30434782608695    0.29687500000000    0.04761904761905             8
    0.34782608695652    0.29687500000000    0.04761904761905             8
    0.39130434782609    0.29687500000000    0.04761904761905             8
    0.43478260869565    0.29687500000000    0.04761904761905             8
    0.47826086956522    0.29687500000000    0.04761904761905             8
    0.00000000000000    0.32812500000000    0.04761904761905             4
    0.04347826086956    0.32812500000000    0.04761904761905             8
    0.08695652173913    0.32812500000000    0.04761904761905             8
    0.13043478260870    0.32812500000000    0.04761904761905             8
    0.17391304347826    0.32812500000000    0.04761904761905             8
    0.21739130434783    0.32812500000000    0.04761904761905             8
    0.26086956521739    0.32812500000000    0.04761904761905             8
    0.30434782608695    0.32812500000000    0.04761904761905             8
    0.34782608695652    0.32812500000000    0.04761904761905             8
    0.39130434782609    0.32812500000000    0.04761904761905             8
    0.43478260869565    0.32812500000000    0.04761904761905             8
    0.47826086956522    0.32812500000000    0.04761904761905             8
    0.00000000000000    0.35937500000000    0.04761904761905             4
    0.04347826086956    0.35937500000000    0.04761904761905             8
    0.08695652173913    0.35937500000000    0.04761904761905             8
    0.13043478260870    0.35937500000000    0.04761904761905             8
    0.17391304347826    0.35937500000000    0.04761904761905             8
    0.21739130434783    0.35937500000000    0.04761904761905             8
    0.26086956521739    0.35937500000000    0.04761904761905             8
    0.30434782608695    0.35937500000000    0.04761904761905             8
    0.34782608695652    0.35937500000000    0.04761904761905             8
    0.39130434782609    0.35937500000000    0.04761904761905             8
    0.43478260869565    0.35937500000000    0.04761904761905             8
    0.47826086956522    0.35937500000000    0.04761904761905             8
    0.00000000000000    0.39062500000000    0.04761904761905             4
    0.04347826086956    0.39062500000000    0.04761904761905             8
    0.08695652173913    0.39062500000000    0.04761904761905             8
    0.13043478260870    0.39062500000000    0.04761904761905             8
    0.17391304347826    0.39062500000000    0.04761904761905             8
    0.21739130434783    0.39062500000000    0.04761904761905             8
    0.26086956521739    0.39062500000000    0.04761904761905             8
    0.30434782608695    0.39062500000000    0.04761904761905             8
    0.34782608695652    0.39062500000000    0.04761904761905             8
    0.39130434782609    0.39062500000000    0.04761904761905             8
    0.43478260869565    0.39062500000000    0.04761904761905             8
    0.47826086956522    0.39062500000000    0.04761904761905             8
    0.00000000000000    0.42187500000000    0.04761904761905             4
    0.04347826086956    0.42187500000000    0.04761904761905             8
    0.08695652173913    0.42187500000000    0.04761904761905             8
    0.13043478260870    0.42187500000000    0.04761904761905             8
    0.17391304347826    0.42187500000000    0.04761904761905             8
    0.21739130434783    0.42187500000000    0.04761904761905             8
    0.26086956521739    0.42187500000000    0.04761904761905             8
    0.30434782608695    0.42187500000000    0.04761904761905             8
    0.34782608695652    0.42187500000000    0.04761904761905             8
    0.39130434782609    0.42187500000000    0.04761904761905             8
    0.43478260869565    0.42187500000000    0.04761904761905             8
    0.47826086956522    0.42187500000000    0.04761904761905             8
    0.00000000000000    0.45312500000000    0.04761904761905             4
    0.04347826086956    0.45312500000000    0.04761904761905             8
    0.08695652173913    0.45312500000000    0.04761904761905             8
    0.13043478260870    0.45312500000000    0.04761904761905             8
    0.17391304347826    0.45312500000000    0.04761904761905             8
    0.21739130434783    0.45312500000000    0.04761904761905             8
    0.26086956521739    0.45312500000000    0.04761904761905             8
    0.30434782608695    0.45312500000000    0.04761904761905             8
    0.34782608695652    0.45312500000000    0.04761904761905             8
    0.39130434782609    0.45312500000000    0.04761904761905             8
    0.43478260869565    0.45312500000000    0.04761904761905             8
    0.47826086956522    0.45312500000000    0.04761904761905             8
    0.00000000000000    0.48437500000000    0.04761904761905             4
    0.04347826086956    0.48437500000000    0.04761904761905             8
    0.08695652173913    0.48437500000000    0.04761904761905             8
    0.13043478260870    0.48437500000000    0.04761904761905             8
    0.17391304347826    0.48437500000000    0.04761904761905             8
    0.21739130434783    0.48437500000000    0.04761904761905             8
    0.26086956521739    0.48437500000000    0.04761904761905             8
    0.30434782608695    0.48437500000000    0.04761904761905             8
    0.34782608695652    0.48437500000000    0.04761904761905             8
    0.39130434782609    0.48437500000000    0.04761904761905             8
    0.43478260869565    0.48437500000000    0.04761904761905             8
    0.47826086956522    0.48437500000000    0.04761904761905             8
    0.00000000000000    0.01562500000000    0.09523809523809             4
    0.04347826086956    0.01562500000000    0.09523809523809             8
    0.08695652173913    0.01562500000000    0.09523809523809             8
    0.13043478260870    0.01562500000000    0.09523809523809             8
    0.17391304347826    0.01562500000000    0.09523809523809             8
    0.21739130434783    0.01562500000000    0.09523809523809             8
    0.26086956521739    0.01562500000000    0.09523809523809             8
    0.30434782608695    0.01562500000000    0.09523809523809             8
    0.34782608695652    0.01562500000000    0.09523809523809             8
    0.39130434782609    0.01562500000000    0.09523809523809             8
    0.43478260869565    0.01562500000000    0.09523809523809             8
    0.47826086956522    0.01562500000000    0.09523809523809             8
    0.00000000000000    0.04687500000000    0.09523809523809             4
    0.04347826086956    0.04687500000000    0.09523809523809             8
    0.08695652173913    0.04687500000000    0.09523809523809             8