  14  14   1   0
  0.1021318E+02  0.5700971E-09  0.4044058E-09  0.6201871E-09  0.5000000E-15
  1.000000000000000E-004
  CAR 
 BS                                      
     18.00450579    -14.16214345  301      2.14893031      1.00000000
    -14.162  0.0000E+00  0.0000E+00
    -14.055  0.0000E+00  0.0000E+00
    -13.948  0.0000E+00  0.0000E+00
    -13.840  0.0000E+00  0.0000E+00
    -13.733  0.0000E+00  0.0000E+00
    -13.626  0.0000E+00  0.0000E+00
    -13.519  0.0000E+00  0.0000E+00
    -13.412  0.0000E+00  0.0000E+00
    -13.304  0.0000E+00  0.0000E+00
    -13.197  0.5508E-12  0.5906E-13
    -13.090  0.1042E-07  0.1118E-08
    -12.983  0.2181E-04  0.2340E-05
    -12.875  0.5395E-02  0.5808E-03
    -12.768  0.1820E+00  0.2009E-01
    -12.661  0.1103E+01  0.1384E+00
    -12.554  0.1784E+01  0.3297E+00
    -12.447  0.1847E+01  0.5277E+00
    -12.339  0.2865E+01  0.8349E+00
    -12.232  0.3464E+01  0.1206E+01
    -12.125  0.5942E+01  0.1843E+01
    -12.018  0.4740E+01  0.2352E+01
    -11.910  0.3366E+01  0.2713E+01
    -11.803  0.1746E+01  0.2900E+01
    -11.696  0.1357E+01  0.3045E+01
    -11.589  0.2108E+01  0.3271E+01
    -11.482  0.2195E+01  0.3507E+01
    -11.374  0.2092E+01  0.3731E+01
    -11.267  0.1724E+01  0.3916E+01
    -11.160  0.7162E+00  0.3993E+01
    -11.053  0.6724E-01  0.4000E+01
    -10.945  0.9483E-03  0.4000E+01
    -10.838  0.1667E-05  0.4000E+01
    -10.731  0.3330E-09  0.4000E+01
    -10.624  0.7199E-14  0.4000E+01
    -10.517  0.0000E+00  0.4000E+01
    -10.409  0.0000E+00  0.4000E+01
    -10.302  0.0000E+00  0.4000E+01
    -10.195  0.0000E+00  0.4000E+01
    -10.088  0.0000E+00  0.4000E+01
     -9.980  0.0000E+00  0.4000E+01
     -9.873  0.0000E+00  0.4000E+01
     -9.766  0.0000E+00  0.4000E+01
     -9.659  0.0000E+00  0.4000E+01
     -9.552  0.0000E+00  0.4000E+01
     -9.444  0.0000E+00  0.4000E+01
     -9.337  0.0000E+00  0.4000E+01
     -9.230  0.7452E-12  0.4000E+01
     -9.123  0.1585E-07  0.4000E+01
     -9.015  0.3716E-04  0.4000E+01
     -8.908  0.1027E-01  0.4001E+01
     -8.801  0.3862E+00  0.4043E+01
     -8.694  0.2629E+01  0.4324E+01
     -8.587  0.4993E+01  0.4860E+01
     -8.479  0.5516E+01  0.5451E+01
     -8.372  0.6497E+01  0.6148E+01
     -8.265  0.4594E+01  0.6640E+01
     -8.158  0.3510E+01  0.7017E+01
     -8.050  0.3458E+01  0.7388E+01
     -7.943  0.2436E+01  0.7649E+01
     -7.836  0.1691E+01  0.7830E+01
     -7.729  0.1233E+01  0.7962E+01
     -7.622  0.3352E+00  0.7998E+01
     -7.514  0.1685E-01  0.8000E+01
     -7.407  0.1172E-03  0.8000E+01
     -7.300  0.1274E-05  0.8000E+01
     -7.193  0.6722E-03  0.8000E+01
     -7.085  0.4759E-01  0.8005E+01
     -6.978  0.4949E+00  0.8058E+01
     -6.871  0.1042E+01  0.8170E+01
     -6.764  0.9277E+00  0.8269E+01
     -6.657  0.1017E+01  0.8378E+01
     -6.549  0.1087E+01  0.8495E+01
     -6.442  0.1555E+01  0.8662E+01
     -6.335  0.2104E+01  0.8887E+01
     -6.228  0.2328E+01  0.9137E+01
     -6.120  0.3185E+01  0.9478E+01
     -6.013  0.3017E+01  0.9802E+01
     -5.906  0.3136E+01  0.1014E+02
     -5.799  0.4713E+01  0.1064E+02
     -5.692  0.5051E+01  0.1119E+02
     -5.584  0.4262E+01  0.1164E+02
     -5.477  0.3647E+01  0.1203E+02
     -5.370  0.3382E+01  0.1240E+02
     -5.263  0.3131E+01  0.1273E+02
     -5.155  0.2320E+01  0.1298E+02
     -5.048  0.1741E+01  0.1317E+02
     -4.941  0.2116E+01  0.1339E+02
     -4.834  0.2204E+01  0.1363E+02
     -4.727  0.1896E+01  0.1383E+02
     -4.619  0.3019E+01  0.1416E+02
     -4.512  0.4509E+01  0.1464E+02
     -4.405  0.4171E+01  0.1509E+02
     -4.298  0.2794E+01  0.1539E+02
     -4.190  0.1811E+01  0.1558E+02
     -4.083  0.1926E+01  0.1579E+02
     -3.976  0.2082E+01  0.1601E+02
     -3.869  0.2605E+01  0.1629E+02
     -3.762  0.2907E+01  0.1660E+02
     -3.654  0.3578E+01  0.1699E+02
     -3.547  0.4821E+01  0.1750E+02
     -3.440  0.4508E+01  0.1799E+02
     -3.333  0.2798E+01  0.1829E+02
     -3.225  0.3497E+01  0.1866E+02
     -3.118  0.4901E+01  0.1919E+02
     -3.011  0.2716E+01  0.1948E+02
     -2.904  0.1572E+01  0.1965E+02
     -2.797  0.1826E+01  0.1984E+02
     -2.689  0.2106E+01  0.2007E+02
     -2.582  0.2083E+01  0.2029E+02
     -2.475  0.2227E+01  0.2053E+02
     -2.368  0.5135E+01  0.2108E+02
     -2.260  0.5392E+01  0.2166E+02
     -2.153  0.4657E+01  0.2216E+02
     -2.046  0.6564E+01  0.2286E+02
     -1.939  0.6990E+01  0.2361E+02
     -1.832  0.6296E+01  0.2429E+02
     -1.724  0.6184E+01  0.2495E+02
     -1.617  0.6725E+01  0.2567E+02
     -1.510  0.6796E+01  0.2640E+02
     -1.403  0.5358E+01  0.2697E+02
     -1.295  0.3642E+01  0.2736E+02
     -1.188  0.3576E+01  0.2775E+02
     -1.081  0.3971E+01  0.2817E+02
     -0.974  0.3280E+01  0.2853E+02
     -0.867  0.2202E+01  0.2876E+02
     -0.759  0.3222E+01  0.2911E+02
     -0.652  0.5110E+01  0.2965E+02
     -0.545  0.4708E+01  0.3016E+02
     -0.438  0.4474E+01  0.3064E+02
     -0.330  0.4647E+01  0.3114E+02
     -0.223  0.5195E+01  0.3169E+02
     -0.116  0.6192E+01  0.3236E+02
     -0.009  0.7085E+01  0.3312E+02
      0.098  0.7563E+01  0.3393E+02
      0.206  0.8402E+01  0.3483E+02
      0.313  0.8949E+01  0.3579E+02
      0.420  0.6503E+01  0.3649E+02
      0.527  0.3835E+01  0.3690E+02
      0.635  0.3507E+01  0.3727E+02
      0.742  0.3045E+01  0.3760E+02
      0.849  0.3029E+01  0.3793E+02
      0.956  0.3519E+01  0.3830E+02
      1.063  0.5069E+01  0.3885E+02
      1.171  0.4370E+01  0.3931E+02
      1.278  0.2625E+01  0.3960E+02
      1.385  0.2847E+01  0.3990E+02
      1.492  0.2738E+01  0.4020E+02
      1.600  0.2844E+01  0.4050E+02
      1.707  0.3122E+01  0.4083E+02
      1.814  0.2831E+01  0.4114E+02
      1.921  0.2629E+01  0.4142E+02
      2.028  0.2530E+01  0.4169E+02
      2.136  0.2564E+01  0.4197E+02
      2.243  0.2518E+01  0.4224E+02
      2.350  0.2714E+01  0.4253E+02
      2.457  0.3225E+01  0.4287E+02
      2.565  0.2547E+01  0.4315E+02
      2.672  0.1123E+01  0.4327E+02
      2.779  0.3346E+00  0.4330E+02
      2.886  0.2200E+00  0.4333E+02
      2.993  0.2116E+00  0.4335E+02
      3.101  0.2095E+00  0.4337E+02
      3.208  0.2105E+00  0.4339E+02
      3.315  0.2141E+00  0.4342E+02
      3.422  0.2205E+00  0.4344E+02
      3.530  0.2302E+00  0.4347E+02
      3.637  0.2445E+00  0.4349E+02
      3.744  0.2664E+00  0.4352E+02
      3.851  0.3058E+00  0.4355E+02
      3.958  0.4754E+00  0.4360E+02
      4.066  0.1255E+01  0.4374E+02
      4.173  0.1828E+01  0.4393E+02
      4.280  0.1342E+01  0.4408E+02
      4.387  0.1174E+01  0.4420E+02
      4.495  0.1158E+01  0.4433E+02
      4.602  0.1449E+01  0.4448E+02
      4.709  0.1288E+01  0.4462E+02
      4.816  0.1169E+01  0.4475E+02
      4.923  0.1330E+01  0.4489E+02
      5.031  0.1094E+01  0.4501E+02
      5.138  0.9697E+00  0.4511E+02
      5.245  0.1223E+01  0.4524E+02
      5.352  0.1740E+01  0.4543E+02
      5.460  0.2044E+01  0.4565E+02
      5.567  0.2219E+01  0.4589E+02
      5.674  0.2165E+01  0.4612E+02
      5.781  0.2933E+01  0.4643E+02
      5.888  0.4171E+01  0.4688E+02
      5.996  0.5716E+01  0.4749E+02
      6.103  0.3202E+01  0.4784E+02
      6.210  0.1824E+01  0.4803E+02
      6.317  0.2136E+01  0.4826E+02
      6.425  0.2820E+01  0.4856E+02
      6.532  0.4451E+01  0.4904E+02
      6.639  0.3675E+01  0.4943E+02
      6.746  0.3014E+01  0.4976E+02
      6.853  0.4456E+01  0.5023E+02
      6.961  0.6149E+01  0.5089E+02
      7.068  0.6660E+01  0.5161E+02
      7.175  0.6182E+01  0.5227E+02
      7.282  0.5717E+01  0.5288E+02
      7.390  0.5263E+01  0.5345E+02
      7.497  0.4769E+01  0.5396E+02
      7.604  0.4703E+01  0.5446E+02
      7.711  0.4854E+01  0.5498E+02
      7.818  0.4514E+01  0.5547E+02
      7.926  0.3105E+01  0.5580E+02
      8.033  0.2030E+01  0.5602E+02
      8.140  0.2434E+01  0.5628E+02
      8.247  0.3173E+01  0.5662E+02
      8.355  0.4878E+01  0.5714E+02
      8.462  0.5680E+01  0.5775E+02
      8.569  0.4813E+01  0.5827E+02
      8.676  0.3507E+01  0.5864E+02
      8.783  0.3043E+01  0.5897E+02
      8.891  0.3173E+01  0.5931E+02
      8.998  0.3532E+01  0.5969E+02
      9.105  0.3945E+01  0.6011E+02
      9.212  0.3595E+01  0.6050E+02
      9.320  0.3509E+01  0.6087E+02
      9.427  0.4440E+01  0.6135E+02
      9.534  0.4628E+01  0.6185E+02
      9.641  0.4513E+01  0.6233E+02
      9.748  0.4082E+01  0.6277E+02
      9.856  0.4425E+01  0.6324E+02
      9.963  0.4543E+01  0.6373E+02
     10.070  0.4353E+01  0.6420E+02
     10.177  0.4713E+01  0.6470E+02
     10.285  0.4702E+01  0.6521E+02
     10.392  0.4728E+01  0.6571E+02
     10.499  0.4896E+01  0.6624E+02
     10.606  0.5709E+01  0.6685E+02
     10.713  0.4091E+01  0.6729E+02
     10.821  0.2305E+01  0.6754E+02
     10.928  0.2704E+01  0.6783E+02
     11.035  0.4507E+01  0.6831E+02
     11.142  0.6225E+01  0.6898E+02
     11.250  0.7479E+01  0.6978E+02
     11.357  0.6465E+01  0.7047E+02
     11.464  0.4746E+01  0.7098E+02
     11.571  0.4139E+01  0.7142E+02
     11.678  0.4121E+01  0.7187E+02
     11.786  0.5069E+01  0.7241E+02
     11.893  0.7354E+01  0.7320E+02
     12.000  0.8750E+01  0.7414E+02
     12.107  0.8770E+01  0.7508E+02
     12.215  0.8253E+01  0.7596E+02
     12.322  0.6332E+01  0.7664E+02
     12.429  0.5504E+01  0.7723E+02
     12.536  0.6900E+01  0.7797E+02
     12.643  0.6789E+01  0.7870E+02
     12.751  0.4793E+01  0.7921E+02
     12.858  0.3611E+01  0.7960E+02
     12.965  0.4115E+01  0.8004E+02
     13.072  0.5671E+01  0.8065E+02
     13.180  0.6573E+01  0.8135E+02
     13.287  0.6190E+01  0.8202E+02
     13.394  0.5631E+01  0.8262E+02
     13.501  0.5087E+01  0.8317E+02
     13.608  0.4677E+01  0.8367E+02
     13.716  0.4581E+01  0.8416E+02
     13.823  0.4165E+01  0.8461E+02
     13.930  0.5221E+01  0.8517E+02
     14.037  0.6715E+01  0.8589E+02
     14.145  0.6581E+01  0.8659E+02
     14.252  0.5300E+01  0.8716E+02
     14.359  0.5245E+01  0.8772E+02
     14.466  0.5933E+01  0.8836E+02
     14.573  0.4760E+01  0.8887E+02
     14.681  0.4835E+01  0.8939E+02
     14.788  0.5345E+01  0.8996E+02
     14.895  0.4560E+01  0.9045E+02
     15.002  0.4635E+01  0.9095E+02
     15.110  0.4863E+01  0.9147E+02
     15.217  0.5170E+01  0.9202E+02
     15.324  0.6846E+01  0.9276E+02
     15.431  0.7889E+01  0.9360E+02
     15.538  0.6046E+01  0.9425E+02
     15.646  0.3899E+01  0.9467E+02
     15.753  0.2268E+01  0.9491E+02
     15.860  0.1710E+01  0.9509E+02
     15.967  0.1519E+01  0.9526E+02
     16.075  0.1087E+01  0.9537E+02
     16.182  0.8671E+00  0.9547E+02
     16.289  0.1437E+01  0.9562E+02
     16.396  0.2133E+01  0.9585E+02
     16.503  0.1085E+01  0.9597E+02
     16.611  0.2785E+00  0.9600E+02
     16.718  0.4128E-01  0.9600E+02
     16.825  0.1392E-02  0.9600E+02
     16.932  0.6380E-05  0.9600E+02
     17.040  0.3352E-08  0.9600E+02
     17.147  0.1898E-12  0.9600E+02
     17.254  0.0000E+00  0.9600E+02
     17.361  0.0000E+00  0.9600E+02
     17.468  0.0000E+00  0.9600E+02
     17.576  0.0000E+00  0.9600E+02
     17.683  0.0000E+00  0.9600E+02
     17.790  0.0000E+00  0.9600E+02
     17.897  0.0000E+00  0.9600E+02
     18.005  0.0000E+00  0.9600E+02
     18.00450579    -14.16214345  301      2.14893031      1.00000000
    -14.162  0.0000E+00  0.0000E+00  0.0000E+00  0.0000E+00  0.0000E+00  0.0000E+00  0.0000E+00  0.0000E+00  0.0000E+00
    -14.055  0.0000E+00  0.0000E+00  0.0000E+00  0.0000E+00  0.0000E+00  0.0000E+00  0.0000E+00  0.0000E+00  0.0000E+00
    -13.948  0.0000E+00  0.0000E+00  0.0000E+00  0.0000E+00  0.0000E+00  0.0000E+00  0.0000E+00  0.0000E+00  0.0000E+00
    -13.840  0.0000E+00  0.0000E+00  0.0000E+00  0.0000E+00  0.0000E+00  0.0000E+00  0.0000E+00  0.0000E+00  0.0000E+00
    -13.733  0.0000E+00  0.0000E+00  0.0000E+00  0.0000E+00  0.0000E+00  0.0000E+00  0.0000E+00  0.0000E+00  0.0000E+00
    -13.626  0.0000E+00  0.0000E+00  0.0000E+00  0.0000E+00  0.0000E+00  0.0000E+00  0.0000E+00  0.0000E+00  0.0000E+00
    -13.519  0.0000E+00  0.0000E+00  0.0000E+00  0.0000E+00  0.0000E+00  0.0000E+00  0.0000E+00  0.0000E+00  0.0000E+00
    -13.412  0.0000E+00  0.0000E+00  0.0000E+00  0.0000E+00  0.0000E+00  0.0000E+00  0.0000E+00  0.0000E+00  0.0000E+00
    -13.304  0.0000E+00  0.0000E+00  0.0000E+00  0.0000E+00  0.0000E+00  0.0000E+00  0.0000E+00  0.0000E+00  0.0000E+00
    -13.197  0.3482E-13  0.2446E-27  0.7226E-15  0.2682E-14  0.0000E+00  0.0000E+00  0.0000E+00  0.0000E+00  0.0000E+00
    -13.090  0.6593E-09  0.5222E-18  0.1374E-10  0.5080E-10  0.0000E+00  0.0000E+00  0.0000E+00  0.0000E+00  0.0000E+00
    -12.983  0.1380E-05  0.1201E-13  0.2896E-07  0.1064E-06  0.0000E+00  0.0000E+00  0.0000E+00  0.0000E+00  0.0000E+00
    -12.875  0.3419E-03  0.3196E-10  0.7269E-05  0.2639E-04  0.0000E+00  0.0000E+00  0.0000E+00  0.0000E+00  0.0000E+00
    -12.768  0.1157E-01  0.1068E-07  0.2535E-03  0.8948E-03  0.0000E+00  0.0000E+00  0.0000E+00  0.0000E+00  0.0000E+00
    -12.661  0.7079E-01  0.5190E-06  0.1650E-02  0.5490E-02  0.0000E+00  0.0000E+00  0.0000E+00  0.0000E+00  0.0000E+00
    -12.554  0.1162E+00  0.4716E-05  0.2932E-02  0.9058E-02  0.0000E+00  0.0000E+00  0.0000E+00  0.0000E+00  0.0000E+00
    -12.447  0.1232E+00  0.1143E-04  0.3109E-02  0.9762E-02  0.0000E+00  0.0000E+00  0.0000E+00  0.0000E+00  0.0000E+00
    -12.339  0.1919E+00  0.1013E-04  0.4837E-02  0.1626E-01  0.0000E+00  0.0000E+00  0.0000E+00  0.0000E+00  0.0000E+00
    -12.232  0.2058E+00  0.5553E-05  0.6503E-02  0.2940E-01  0.0000E+00  0.0000E+00  0.0000E+00  0.0000E+00  0.0000E+00
    -12.125  0.3140E+00  0.1832E-04  0.1209E-01  0.6423E-01  0.0000E+00  0.0000E+00  0.0000E+00  0.0000E+00  0.0000E+00
    -12.018  0.2506E+00  0.3762E-04  0.9960E-02  0.5315E-01  0.0000E+00  0.0000E+00  0.0000E+00  0.0000E+00  0.0000E+00
    -11.910  0.1811E+00  0.2892E-04  0.7356E-02  0.3925E-01  0.0000E+00  0.0000E+00  0.0000E+00  0.0000E+00  0.0000E+00
    -11.803  0.9076E-01  0.7488E-05  0.4138E-02  0.2160E-01  0.0000E+00  0.0000E+00  0.0000E+00  0.0000E+00  0.0000E+00
    -11.696  0.4622E-01  0.1989E-05  0.4839E-02  0.2207E-01  0.0000E+00  0.0000E+00  0.0000E+00  0.0000E+00  0.0000E+00
    -11.589  0.6184E-01  0.5096E-05  0.8192E-02  0.3737E-01  0.0000E+00  0.0000E+00  0.0000E+00  0.0000E+00  0.0000E+00
    -11.482  0.6394E-01  0.5795E-05  0.8645E-02  0.4095E-01  0.0000E+00  0.0000E+00  0.0000E+00  0.0000E+00  0.0000E+00
    -11.374  0.6099E-01  0.2408E-05  0.8499E-02  0.4048E-01  0.0000E+00  0.0000E+00  0.0000E+00  0.0000E+00  0.0000E+00
    -11.267  0.4997E-01  0.2674E-06  0.6970E-02  0.3538E-01  0.0000E+00  0.0000E+00  0.0000E+00  0.0000E+00  0.0000E+00
    -11.160  0.2052E-01  0.5554E-08  0.2867E-02  0.1521E-01  0.0000E+00  0.0000E+00  0.0000E+00  0.0000E+00  0.0000E+00
    -11.053  0.1914E-02  0.1679E-10  0.2686E-03  0.1444E-02  0.0000E+00  0.0000E+00  0.0000E+00  0.0000E+00  0.0000E+00
    -10.945  0.2690E-04  0.6377E-14  0.3785E-05  0.2045E-04  0.0000E+00  0.0000E+00  0.0000E+00  0.0000E+00  0.0000E+00
    -10.838  0.4720E-07  0.2808E-18  0.6651E-08  0.3603E-07  0.0000E+00  0.0000E+00  0.0000E+00  0.0000E+00  0.0000E+00
    -10.731  0.9420E-11  0.1431E-24  0.1329E-11  0.7207E-11  0.0000E+00  0.0000E+00  0.0000E+00  0.0000E+00  0.0000E+00
    -10.624  0.2035E-15  0.3008E-29  0.2872E-16  0.1559E-15  0.0000E+00  0.0000E+00  0.0000E+00  0.0000E+00  0.0000E+00
    -10.517  0.0000E+00  0.0000E+00  0.0000E+00  0.0000E+00  0.0000E+00  0.0000E+00  0.0000E+00  0.0000E+00  0.0000E+00
    -10.409  0.0000E+00  0.0000E+00  0.0000E+00  0.0000E+00  0.0000E+00  0.0000E+00  0.0000E+00  0.0000E+00  0.0000E+00
    -10.302  0.0000E+00  0.0000E+00  0.0000E+00  0.0000E+00  0.0000E+00  0.0000E+00  0.0000E+00  0.0000E+00  0.0000E+00
    -10.195  0.0000E+00  0.0000E+00  0.0000E+00  0.0000E+00  0.0000E+00  0.0000E+00  0.0000E+00  0.0000E+00  0.0000E+00
    -10.088  0.0000E+00  0.0000E+00  0.0000E+00  0.0000E+00  0.0000E+00  0.0000E+00  0.0000E+00  0.0000E+00  0.0000E+00
     -9.980  0.0000E+00  0.0000E+00  0.0000E+00  0.0000E+00  0.0000E+00  0.0000E+00  0.0000E+00  0.0000E+00  0.0000E+00
     -9.873  0.0000E+00  0.0000E+00  0.0000E+00  0.0000E+00  0.0000E+00  0.0000E+00  0.0000E+00  0.0000E+00  0.0000E+00
     -9.766  0.0000E+00  0.0000E+00  0.0000E+00  0.0000E+00  0.0000E+00  0.0000E+00  0.0000E+00  0.0000E+00  0.0000E+00
     -9.659  0.0000E+00  0.0000E+00  0.0000E+00  0.0000E+00  0.0000E+00  0.0000E+00  0.0000E+00  0.0000E+00  0.0000E+00
     -9.552  0.0000E+00  0.0000E+00  0.0000E+00  0.0000E+00  0.0000E+00  0.0000E+00  0.0000E+00  0.0000E+00  0.0000E+00
     -9.444  0.0000E+00  0.0000E+00  0.0000E+00  0.0000E+00  0.0000E+00  0.0000E+00  0.0000E+00  0.0000E+00  0.0000E+00
     -9.337  0.0000E+00  0.0000E+00  0.0000E+00  0.0000E+00  0.0000E+00  0.0000E+00  0.0000E+00  0.0000E+00  0.0000E+00
     -9.230  0.3809E-13  0.3190E-18  0.1793E-13  0.1176E-14  0.0000E+00  0.0000E+00  0.0000E+00  0.0000E+00  0.0000E+00
     -9.123  0.8115E-09  0.8486E-14  0.3815E-09  0.2504E-10  0.0000E+00  0.0000E+00  0.0000E+00  0.0000E+00  0.0000E+00
     -9.015  0.1912E-05  0.2600E-10  0.8940E-06  0.5856E-07  0.0000E+00  0.0000E+00  0.0000E+00  0.0000E+00  0.0000E+00
     -8.908  0.5383E-03  0.9931E-08  0.2461E-03  0.1597E-04  0.0000E+00  0.0000E+00  0.0000E+00  0.0000E+00  0.0000E+00
     -8.801  0.2157E-01  0.5495E-06  0.9135E-02  0.5701E-03  0.0000E+00  0.0000E+00  0.0000E+00  0.0000E+00  0.0000E+00
     -8.694  0.1695E+00  0.5879E-05  0.6009E-01  0.3341E-02  0.0000E+00  0.0000E+00  0.0000E+00  0.0000E+00  0.0000E+00
     -8.587  0.3770E+00  0.1938E-04  0.1110E+00  0.5199E-02  0.0000E+00  0.0000E+00  0.0000E+00  0.0000E+00  0.0000E+00
     -8.479  0.4394E+00  0.2746E-04  0.1293E+00  0.5995E-02  0.0000E+00  0.0000E+00  0.0000E+00  0.0000E+00  0.0000E+00
     -8.372  0.5093E+00  0.1847E-04  0.1667E+00  0.8379E-02  0.0000E+00  0.0000E+00  0.0000E+00  0.0000E+00  0.0000E+00
     -8.265  0.2877E+00  0.1366E-04  0.1373E+00  0.9498E-02  0.0000E+00  0.0000E+00  0.0000E+00  0.0000E+00  0.0000E+00
     -8.158  0.1571E+00  0.9476E-05  0.1221E+00  0.1105E-01  0.0000E+00  0.0000E+00  0.0000E+00  0.0000E+00  0.0000E+00
     -8.050  0.1007E+00  0.2206E-05  0.1338E+00  0.1369E-01  0.0000E+00  0.0000E+00  0.0000E+00  0.0000E+00  0.0000E+00
     -7.943  0.4403E-01  0.1219E-06  0.9853E-01  0.1302E-01  0.0000E+00  0.0000E+00  0.0000E+00  0.0000E+00  0.0000E+00
     -7.836  0.2494E-01  0.4420E-07  0.6959E-01  0.1140E-01  0.0000E+00  0.0000E+00  0.0000E+00  0.0000E+00  0.0000E+00
     -7.729  0.1801E-01  0.6180E-07  0.5172E-01  0.9003E-02  0.0000E+00  0.0000E+00  0.0000E+00  0.0000E+00  0.0000E+00
     -7.622  0.4903E-02  0.1692E-07  0.1416E-01  0.2496E-02  0.0000E+00  0.0000E+00  0.0000E+00  0.0000E+00  0.0000E+00
     -7.514  0.2466E-03  0.7245E-09  0.7135E-03  0.1262E-03  0.0000E+00  0.0000E+00  0.0000E+00  0.0000E+00  0.0000E+00
     -7.407  0.1717E-05  0.4169E-11  0.4970E-05  0.8804E-06  0.0000E+00  0.0000E+00  0.0000E+00  0.0000E+00  0.0000E+00
     -7.300  0.1595E-08  0.2949E-12  0.9800E-08  0.3996E-07  0.0000E+00  0.0000E+00  0.0000E+00  0.0000E+00  0.0000E+00
     -7.193  0.9654E-07  0.2402E-09  0.3241E-05  0.2243E-04  0.0000E+00  0.0000E+00  0.0000E+00  0.0000E+00  0.0000E+00
     -7.085  0.7238E-05  0.2760E-07  0.2307E-03  0.1589E-02  0.0000E+00  0.0000E+00  0.0000E+00  0.0000E+00  0.0000E+00
     -6.978  0.8467E-04  0.5644E-06  0.2428E-02  0.1654E-01  0.0000E+00  0.0000E+00  0.0000E+00  0.0000E+00  0.0000E+00
     -6.871  0.2320E-03  0.3059E-05  0.5275E-02  0.3492E-01  0.0000E+00  0.0000E+00  0.0000E+00  0.0000E+00  0.0000E+00
     -6.764  0.3253E-03  0.7302E-05  0.5037E-02  0.3142E-01  0.0000E+00  0.0000E+00  0.0000E+00  0.0000E+00  0.0000E+00
     -6.657  0.4984E-03  0.7520E-04  0.5867E-02  0.3491E-01  0.0000E+00  0.0000E+00  0.0000E+00  0.0000E+00  0.0000E+00
     -6.549  0.6180E-03  0.3084E-02  0.5841E-02  0.3289E-01  0.0000E+00  0.0000E+00  0.0000E+00  0.0000E+00  0.0000E+00
     -6.442  0.5968E-03  0.2205E-01  0.3988E-02  0.1974E-01  0.0000E+00  0.0000E+00  0.0000E+00  0.0000E+00  0.0000E+00
     -6.335  0.1158E-02  0.3680E-01  0.3713E-02  0.1590E-01  0.0000E+00  0.0000E+00  0.0000E+00  0.0000E+00  0.0000E+00
     -6.228  0.1206E-01  0.3301E-01  0.8997E-02  0.2001E-01  0.0000E+00  0.0000E+00  0.0000E+00  0.0000E+00  0.0000E+00
     -6.120  0.4482E-01  0.2160E-01  0.2541E-01  0.3493E-01  0.0000E+00  0.0000E+00  0.0000E+00  0.0000E+00  0.0000E+00
     -6.013  0.4917E-01  0.1314E-01  0.2819E-01  0.3725E-01  0.0000E+00  0.0000E+00  0.0000E+00  0.0000E+00  0.0000E+00
     -5.906  0.4950E-01  0.2037E-01  0.2671E-01  0.2876E-01  0.0000E+00  0.0000E+00  0.0000E+00  0.0000E+00  0.0000E+00
     -5.799  0.8875E-01  0.2906E-01  0.4322E-01  0.3818E-01  0.0000E+00  0.0000E+00  0.0000E+00  0.0000E+00  0.0000E+00
     -5.692  0.9882E-01  0.2417E-01  0.5027E-01  0.5191E-01  0.0000E+00  0.0000E+00  0.0000E+00  0.0000E+00  0.0000E+00
     -5.584  0.6877E-01  0.2484E-01  0.3660E-01  0.4028E-01  0.0000E+00  0.0000E+00  0.0000E+00  0.0000E+00  0.0000E+00
     -5.477  0.6190E-01  0.2567E-01  0.2927E-01  0.2070E-01  0.0000E+00  0.0000E+00  0.0000E+00  0.0000E+00  0.0000E+00
     -5.370  0.6811E-01  0.2444E-01  0.2969E-01  0.1167E-01  0.0000E+00  0.0000E+00  0.0000E+00  0.0000E+00  0.0000E+00
     -5.263  0.5243E-01  0.2539E-01  0.2437E-01  0.1003E-01  0.0000E+00  0.0000E+00  0.0000E+00  0.0000E+00  0.0000E+00
     -5.155  0.4396E-01  0.1823E-01  0.2149E-01  0.1011E-01  0.0000E+00  0.0000E+00  0.0000E+00  0.0000E+00  0.0000E+00
     -5.048  0.4468E-01  0.1108E-01  0.2292E-01  0.1269E-01  0.0000E+00  0.0000E+00  0.0000E+00  0.0000E+00  0.0000E+00
     -4.941  0.5299E-01  0.9965E-02  0.3304E-01  0.2326E-01  0.0000E+00  0.0000E+00  0.0000E+00  0.0000E+00  0.0000E+00
     -4.834  0.5532E-01  0.9490E-02  0.3625E-01  0.2642E-01  0.0000E+00  0.0000E+00  0.0000E+00  0.0000E+00  0.0000E+00
     -4.727  0.4731E-01  0.9137E-02  0.3671E-01  0.1921E-01  0.0000E+00  0.0000E+00  0.0000E+00  0.0000E+00  0.0000E+00
     -4.619  0.6169E-01  0.9300E-02  0.8193E-01  0.4153E-01  0.0000E+00  0.0000E+00  0.0000E+00  0.0000E+00  0.0000E+00
     -4.512  0.6661E-01  0.8772E-02  0.1377E+00  0.8689E-01  0.0000E+00  0.0000E+00  0.0000E+00  0.0000E+00  0.0000E+00
     -4.405  0.4436E-01  0.9534E-02  0.1246E+00  0.9260E-01  0.0000E+00  0.0000E+00  0.0000E+00  0.0000E+00  0.0000E+00
     -4.298  0.2336E-01  0.9515E-02  0.7585E-01  0.6075E-01  0.0000E+00  0.0000E+00  0.0000E+00  0.0000E+00  0.0000E+00
     -4.190  0.1527E-01  0.9438E-02  0.4036E-01  0.3597E-01  0.0000E+00  0.0000E+00  0.0000E+00  0.0000E+00  0.0000E+00
     -4.083  0.1629E-01  0.1036E-01  0.3613E-01  0.4150E-01  0.0000E+00  0.0000E+00  0.0000E+00  0.0000E+00  0.0000E+00
     -3.976  0.1769E-01  0.1994E-01  0.3755E-01  0.4089E-01  0.0000E+00  0.0000E+00  0.0000E+00  0.0000E+00  0.0000E+00
     -3.869  0.1899E-01  0.4698E-01  0.4053E-01  0.3996E-01  0.0000E+00  0.0000E+00  0.0000E+00  0.0000E+00  0.0000E+00
     -3.762  0.2231E-01  0.5585E-01  0.4768E-01  0.4761E-01  0.0000E+00  0.0000E+00  0.0000E+00  0.0000E+00  0.0000E+00
     -3.654  0.3835E-01  0.4399E-01  0.7756E-01  0.9015E-01  0.0000E+00  0.0000E+00  0.0000E+00  0.0000E+00  0.0000E+00
     -3.547  0.6666E-01  0.1675E-01  0.1427E+00  0.1559E+00  0.0000E+00  0.0000E+00  0.0000E+00  0.0000E+00  0.0000E+00
     -3.440  0.6385E-01  0.9806E-02  0.1465E+00  0.1320E+00  0.0000E+00  0.0000E+00  0.0000E+00  0.0000E+00  0.0000E+00
     -3.333  0.3382E-01  0.1487E-01  0.9468E-01  0.5314E-01  0.0000E+00  0.0000E+00  0.0000E+00  0.0000E+00  0.0000E+00
     -3.225  0.2801E-01  0.6238E-01  0.8479E-01  0.2242E-01  0.0000E+00  0.0000E+00  0.0000E+00  0.0000E+00  0.0000E+00
     -3.118  0.3540E-01  0.1281E+00  0.4772E-01  0.1798E-01  0.0000E+00  0.0000E+00  0.0000E+00  0.0000E+00  0.0000E+00
     -3.011  0.3172E-01  0.5969E-01  0.1263E-01  0.1594E-01  0.0000E+00  0.0000E+00  0.0000E+00  0.0000E+00  0.0000E+00
     -2.904  0.4053E-01  0.5985E-02  0.9866E-02  0.1867E-01  0.0000E+00  0.0000E+00  0.0000E+00  0.0000E+00  0.0000E+00
     -2.797  0.5320E-01  0.1637E-02  0.1177E-01  0.2284E-01  0.0000E+00  0.0000E+00  0.0000E+00  0.0000E+00  0.0000E+00
     -2.689  0.5281E-01  0.6194E-02  0.1343E-01  0.2525E-01  0.0000E+00  0.0000E+00  0.0000E+00  0.0000E+00  0.0000E+00
     -2.582  0.3349E-01  0.1164E-01  0.1090E-01  0.2562E-01  0.0000E+00  0.0000E+00  0.0000E+00  0.0000E+00  0.0000E+00
     -2.475  0.1606E-01  0.9878E-02  0.5831E-02  0.2241E-01  0.0000E+00  0.0000E+00  0.0000E+00  0.0000E+00  0.0000E+00
     -2.368  0.2961E-01  0.9298E-02  0.8678E-02  0.3134E-01  0.0000E+00  0.0000E+00  0.0000E+00  0.0000E+00  0.0000E+00
     -2.260  0.2851E-01  0.1441E-01  0.1055E-01  0.4265E-01  0.0000E+00  0.0000E+00  0.0000E+00  0.0000E+00  0.0000E+00
     -2.153  0.3202E-01  0.3050E-01  0.1434E-01  0.7523E-01  0.0000E+00  0.0000E+00  0.0000E+00  0.0000E+00  0.0000E+00
     -2.046  0.8310E-01  0.3234E-01  0.3402E-01  0.1647E+00  0.0000E+00  0.0000E+00  0.0000E+00  0.0000E+00  0.0000E+00
     -1.939  0.9151E-01  0.2192E-01  0.5906E-01  0.1863E+00  0.0000E+00  0.0000E+00  0.0000E+00  0.0000E+00  0.0000E+00
     -1.832  0.4435E-01  0.4980E-01  0.7103E-01  0.1321E+00  0.0000E+00  0.0000E+00  0.0000E+00  0.0000E+00  0.0000E+00
     -1.724  0.1405E-01  0.1231E+00  0.5824E-01  0.7340E-01  0.0000E+00  0.0000E+00  0.0000E+00  0.0000E+00  0.0000E+00
     -1.617  0.9270E-02  0.1358E+00  0.7465E-01  0.9019E-01  0.0000E+00  0.0000E+00  0.0000E+00  0.0000E+00  0.0000E+00
     -1.510  0.1283E-01  0.9616E-01  0.7849E-01  0.1761E+00  0.0000E+00  0.0000E+00  0.0000E+00  0.0000E+00  0.0000E+00
     -1.403  0.1082E-01  0.7431E-01  0.5465E-01  0.1651E+00  0.0000E+00  0.0000E+00  0.0000E+00  0.0000E+00  0.0000E+00
     -1.295  0.7266E-02  0.5619E-01  0.2772E-01  0.1007E+00  0.0000E+00  0.0000E+00  0.0000E+00  0.0000E+00  0.0000E+00
     -1.188  0.9658E-02  0.4967E-01  0.1836E-01  0.9220E-01  0.0000E+00  0.0000E+00  0.0000E+00  0.0000E+00  0.0000E+00
     -1.081  0.1521E-01  0.4129E-01  0.1901E-01  0.1232E+00  0.0000E+00  0.0000E+00  0.0000E+00  0.0000E+00  0.0000E+00
     -0.974  0.1460E-01  0.3186E-01  0.1738E-01  0.1081E+00  0.0000E+00  0.0000E+00  0.0000E+00  0.0000E+00  0.0000E+00
     -0.867  0.1104E-01  0.3403E-01  0.1319E-01  0.3156E-01  0.0000E+00  0.0000E+00  0.0000E+00  0.0000E+00  0.0000E+00
     -0.759  0.3489E-01  0.2906E-01  0.1637E-01  0.7587E-02  0.0000E+00  0.0000E+00  0.0000E+00  0.0000E+00  0.0000E+00
     -0.652  0.6567E-01  0.2499E-01  0.2460E-01  0.7656E-02  0.0000E+00  0.0000E+00  0.0000E+00  0.0000E+00  0.0000E+00
     -0.545  0.4438E-01  0.3934E-01  0.2495E-01  0.9257E-02  0.0000E+00  0.0000E+00  0.0000E+00  0.0000E+00  0.0000E+00
     -0.438  0.2003E-01  0.6088E-01  0.2333E-01  0.1055E-01  0.0000E+00  0.0000E+00  0.0000E+00  0.0000E+00  0.0000E+00
     -0.330  0.1368E-01  0.7447E-01  0.2729E-01  0.1191E-01  0.0000E+00  0.0000E+00  0.0000E+00  0.0000E+00  0.0000E+00
     -0.223  0.1383E-01  0.8735E-01  0.4455E-01  0.1352E-01  0.0000E+00  0.0000E+00  0.0000E+00  0.0000E+00  0.0000E+00
     -0.116  0.1923E-01  0.7851E-01  0.9259E-01  0.1618E-01  0.0000E+00  0.0000E+00  0.0000E+00  0.0000E+00  0.0000E+00
     -0.009  0.2431E-01  0.1020E+00  0.1135E+00  0.2399E-01  0.0000E+00  0.0000E+00  0.0000E+00  0.0000E+00  0.0000E+00
      0.098  0.3241E-01  0.1392E+00  0.7663E-01  0.4515E-01  0.0000E+00  0.0000E+00  0.0000E+00  0.0000E+00  0.0000E+00
      0.206  0.5689E-01  0.1331E+00  0.6539E-01  0.8289E-01  0.0000E+00  0.0000E+00  0.0000E+00  0.0000E+00  0.0000E+00
      0.313  0.7472E-01  0.1247E+00  0.8866E-01  0.1330E+00  0.0000E+00  0.0000E+00  0.0000E+00  0.0000E+00  0.0000E+00
      0.420  0.5023E-01  0.8347E-01  0.6436E-01  0.1144E+00  0.0000E+00  0.0000E+00  0.0000E+00  0.0000E+00  0.0000E+00
      0.527  0.1778E-01  0.3084E-01  0.4283E-01  0.8177E-01  0.0000E+00  0.0000E+00  0.0000E+00  0.0000E+00  0.0000E+00
      0.635  0.1440E-01  0.1851E-01  0.5707E-01  0.6805E-01  0.0000E+00  0.0000E+00  0.0000E+00  0.0000E+00  0.0000E+00
      0.742  0.1164E-01  0.2142E-01  0.5787E-01  0.3173E-01  0.0000E+00  0.0000E+00  0.0000E+00  0.0000E+00  0.0000E+00
      0.849  0.9066E-02  0.3120E-01  0.4781E-01  0.2063E-01  0.0000E+00  0.0000E+00  0.0000E+00  0.0000E+00  0.0000E+00
      0.956  0.1079E-01  0.2839E-01  0.7193E-01  0.3322E-01  0.0000E+00  0.0000E+00  0.0000E+00  0.0000E+00  0.0000E+00
      1.063  0.1811E-01  0.2744E-01  0.1288E+00  0.7097E-01  0.0000E+00  0.0000E+00  0.0000E+00  0.0000E+00  0.0000E+00
      1.171  0.1520E-01  0.3036E-01  0.1006E+00  0.6288E-01  0.0000E+00  0.0000E+00  0.0000E+00  0.0000E+00  0.0000E+00
      1.278  0.4554E-02  0.4228E-01  0.2591E-01  0.1733E-01  0.0000E+00  0.0000E+00  0.0000E+00  0.0000E+00  0.0000E+00
      1.385  0.1447E-02  0.6279E-01  0.5984E-02  0.4546E-02  0.0000E+00  0.0000E+00  0.0000E+00  0.0000E+00  0.0000E+00
      1.492  0.1110E-02  0.6150E-01  0.4716E-02  0.3870E-02  0.0000E+00  0.0000E+00  0.0000E+00  0.0000E+00  0.0000E+00
      1.600  0.9503E-03  0.6730E-01  0.4379E-02  0.3741E-02  0.0000E+00  0.0000E+00  0.0000E+00  0.0000E+00  0.0000E+00
      1.707  0.8221E-03  0.7483E-01  0.4128E-02  0.3604E-02  0.0000E+00  0.0000E+00  0.0000E+00  0.0000E+00  0.0000E+00
      1.814  0.7424E-03  0.6447E-01  0.3971E-02  0.3468E-02  0.0000E+00  0.0000E+00  0.0000E+00  0.0000E+00  0.0000E+00
      1.921  0.7062E-03  0.5946E-01  0.3899E-02  0.3330E-02  0.0000E+00  0.0000E+00  0.0000E+00  0.0000E+00  0.0000E+00
      2.028  0.7200E-03  0.6067E-01  0.3923E-02  0.3178E-02  0.0000E+00  0.0000E+00  0.0000E+00  0.0000E+00  0.0000E+00
      2.136  0.8909E-03  0.6069E-01  0.4294E-02  0.3040E-02  0.0000E+00  0.0000E+00  0.0000E+00  0.0000E+00  0.0000E+00
      2.243  0.1776E-02  0.4978E-01  0.6521E-02  0.3156E-02  0.0000E+00  0.0000E+00  0.0000E+00  0.0000E+00  0.0000E+00
      2.350  0.3071E-02  0.4998E-01  0.9972E-02  0.3228E-02  0.0000E+00  0.0000E+00  0.0000E+00  0.0000E+00  0.0000E+00
      2.457  0.4363E-02  0.6081E-01  0.1324E-01  0.2785E-02  0.0000E+00  0.0000E+00  0.0000E+00  0.0000E+00  0.0000E+00
      2.565  0.3553E-02  0.5371E-01  0.1134E-01  0.1654E-02  0.0000E+00  0.0000E+00  0.0000E+00  0.0000E+00  0.0000E+00