   1   1   0   0
  0.3375000E+04  0.1500000E-08  0.1250000E-08  0.1800000E-08  0.5000000E-15
  1.000000000000000E-004
  CAR 
 Convergence                             
      2.49927763     -9.97699363  301     -3.60675413      1.00000000
     -9.977  0.0000E+00  0.0000E+00
     -9.935  0.0000E+00  0.0000E+00
     -9.894  0.0000E+00  0.0000E+00
     -9.852  0.0000E+00  0.0000E+00
     -9.811  0.0000E+00  0.0000E+00
     -9.769  0.0000E+00  0.0000E+00
     -9.727  0.0000E+00  0.0000E+00
     -9.686  0.1415E-12  0.5884E-14
     -9.644  0.8074E-09  0.3358E-10
     -9.603  0.1186E-05  0.4934E-07
     -9.561  0.4535E-03  0.1891E-04
     -9.520  0.4590E-01  0.1928E-02
     -9.478  0.1258E+01  0.5425E-01
     -9.436  0.9615E+01  0.4541E+00
     -9.395  0.2109E+02  0.1331E+01
     -9.353  0.1347E+02  0.1891E+01
     -9.312  0.2484E+01  0.1995E+01
     -9.270  0.1288E+00  0.2000E+01
     -9.228  0.1822E-02  0.2000E+01
     -9.187  0.6857E-05  0.2000E+01
     -9.145  0.6748E-08  0.2000E+01
     -9.104  0.1719E-11  0.2000E+01
     -9.062  0.0000E+00  0.2000E+01
     -9.020  0.0000E+00  0.2000E+01
     -8.979  0.0000E+00  0.2000E+01
     -8.937  0.0000E+00  0.2000E+01
     -8.896  0.0000E+00  0.2000E+01
     -8.854  0.0000E+00  0.2000E+01
     -8.813  0.0000E+00  0.2000E+01
     -8.771  0.0000E+00  0.2000E+01
     -8.729  0.0000E+00  0.2000E+01
     -8.688  0.0000E+00  0.2000E+01
     -8.646  0.0000E+00  0.2000E+01
     -8.605  0.0000E+00  0.2000E+01
     -8.563  0.0000E+00  0.2000E+01
     -8.521  0.0000E+00  0.2000E+01
     -8.480  0.0000E+00  0.2000E+01
     -8.438  0.0000E+00  0.2000E+01
     -8.397  0.0000E+00  0.2000E+01
     -8.355  0.0000E+00  0.2000E+01
     -8.313  0.0000E+00  0.2000E+01
     -8.272  0.0000E+00  0.2000E+01
     -8.230  0.0000E+00  0.2000E+01
     -8.189  0.0000E+00  0.2000E+01
     -8.147  0.0000E+00  0.2000E+01
     -8.106  0.0000E+00  0.2000E+01
     -8.064  0.0000E+00  0.2000E+01
     -8.022  0.0000E+00  0.2000E+01
     -7.981  0.0000E+00  0.2000E+01
     -7.939  0.0000E+00  0.2000E+01
     -7.898  0.0000E+00  0.2000E+01
     -7.856  0.0000E+00  0.2000E+01
     -7.814  0.0000E+00  0.2000E+01
     -7.773  0.0000E+00  0.2000E+01
     -7.731  0.0000E+00  0.2000E+01
     -7.690  0.0000E+00  0.2000E+01
     -7.648  0.0000E+00  0.2000E+01
     -7.607  0.0000E+00  0.2000E+01
     -7.565  0.0000E+00  0.2000E+01
     -7.523  0.0000E+00  0.2000E+01
     -7.482  0.0000E+00  0.2000E+01
     -7.440  0.0000E+00  0.2000E+01
     -7.399  0.0000E+00  0.2000E+01
     -7.357  0.0000E+00  0.2000E+01
     -7.315  0.0000E+00  0.2000E+01
     -7.274  0.0000E+00  0.2000E+01
     -7.232  0.0000E+00  0.2000E+01
     -7.191  0.0000E+00  0.2000E+01
     -7.149  0.0000E+00  0.2000E+01
     -7.107  0.0000E+00  0.2000E+01
     -7.066  0.0000E+00  0.2000E+01
     -7.024  0.0000E+00  0.2000E+01
     -6.983  0.0000E+00  0.2000E+01
     -6.941  0.0000E+00  0.2000E+01
     -6.900  0.0000E+00  0.2000E+01
     -6.858  0.0000E+00  0.2000E+01
     -6.816  0.0000E+00  0.2000E+01
     -6.775  0.0000E+00  0.2000E+01
     -6.733  0.0000E+00  0.2000E+01
     -6.692  0.0000E+00  0.2000E+01
     -6.650  0.0000E+00  0.2000E+01
     -6.608  0.0000E+00  0.2000E+01
     -6.567  0.0000E+00  0.2000E+01
     -6.525  0.0000E+00  0.2000E+01
     -6.484  0.0000E+00  0.2000E+01
     -6.442  0.0000E+00  0.2000E+01
     -6.400  0.0000E+00  0.2000E+01
     -6.359  0.0000E+00  0.2000E+01
     -6.317  0.0000E+00  0.2000E+01
     -6.276  0.0000E+00  0.2000E+01
     -6.234  0.0000E+00  0.2000E+01
     -6.193  0.0000E+00  0.2000E+01
     -6.151  0.0000E+00  0.2000E+01
     -6.109  0.0000E+00  0.2000E+01
     -6.068  0.0000E+00  0.2000E+01
     -6.026  0.0000E+00  0.2000E+01
     -5.985  0.0000E+00  0.2000E+01
     -5.943  0.0000E+00  0.2000E+01
     -5.901  0.0000E+00  0.2000E+01
     -5.860  0.0000E+00  0.2000E+01
     -5.818  0.0000E+00  0.2000E+01
     -5.777  0.0000E+00  0.2000E+01
     -5.735  0.0000E+00  0.2000E+01
     -5.693  0.0000E+00  0.2000E+01
     -5.652  0.0000E+00  0.2000E+01
     -5.610  0.0000E+00  0.2000E+01
     -5.569  0.0000E+00  0.2000E+01
     -5.527  0.0000E+00  0.2000E+01
     -5.486  0.0000E+00  0.2000E+01
     -5.444  0.0000E+00  0.2000E+01
     -5.402  0.0000E+00  0.2000E+01
     -5.361  0.0000E+00  0.2000E+01
     -5.319  0.0000E+00  0.2000E+01
     -5.278  0.0000E+00  0.2000E+01
     -5.236  0.0000E+00  0.2000E+01
     -5.194  0.0000E+00  0.2000E+01
     -5.153  0.0000E+00  0.2000E+01
     -5.111  0.0000E+00  0.2000E+01
     -5.070  0.0000E+00  0.2000E+01
     -5.028  0.0000E+00  0.2000E+01
     -4.986  0.0000E+00  0.2000E+01
     -4.945  0.0000E+00  0.2000E+01
     -4.903  0.0000E+00  0.2000E+01
     -4.862  0.0000E+00  0.2000E+01
     -4.820  0.0000E+00  0.2000E+01
     -4.779  0.0000E+00  0.2000E+01
     -4.737  0.0000E+00  0.2000E+01
     -4.695  0.0000E+00  0.2000E+01
     -4.654  0.0000E+00  0.2000E+01
     -4.612  0.0000E+00  0.2000E+01
     -4.571  0.0000E+00  0.2000E+01
     -4.529  0.0000E+00  0.2000E+01
     -4.487  0.0000E+00  0.2000E+01
     -4.446  0.0000E+00  0.2000E+01
     -4.404  0.0000E+00  0.2000E+01
     -4.363  0.0000E+00  0.2000E+01
     -4.321  0.0000E+00  0.2000E+01
     -4.279  0.0000E+00  0.2000E+01
     -4.238  0.0000E+00  0.2000E+01
     -4.196  0.0000E+00  0.2000E+01
     -4.155  0.0000E+00  0.2000E+01
     -4.113  0.0000E+00  0.2000E+01
     -4.072  0.0000E+00  0.2000E+01
     -4.030  0.0000E+00  0.2000E+01
     -3.988  0.0000E+00  0.2000E+01
     -3.947  0.0000E+00  0.2000E+01
     -3.905  0.0000E+00  0.2000E+01
     -3.864  0.1602E-13  0.2000E+01
     -3.822  0.1232E-09  0.2000E+01
     -3.780  0.2956E-06  0.2000E+01
     -3.739  0.1838E-03  0.2000E+01
     -3.697  0.3007E-01  0.2001E+01
     -3.656  0.1319E+01  0.2056E+01
     -3.614  0.1596E+02  0.2720E+01
     -3.573  0.5490E+02  0.5003E+01
     -3.531  0.5483E+02  0.7283E+01
     -3.489  0.1590E+02  0.7944E+01
     -3.448  0.1311E+01  0.7999E+01
     -3.406  0.2979E-01  0.8000E+01
     -3.365  0.1817E-03  0.8000E+01
     -3.323  0.2913E-06  0.8000E+01
     -3.281  0.1211E-09  0.8000E+01
     -3.240  0.1602E-13  0.8000E+01
     -3.198  0.0000E+00  0.8000E+01
     -3.157  0.0000E+00  0.8000E+01
     -3.115  0.0000E+00  0.8000E+01
     -3.073  0.0000E+00  0.8000E+01
     -3.032  0.0000E+00  0.8000E+01
     -2.990  0.0000E+00  0.8000E+01
     -2.949  0.0000E+00  0.8000E+01
     -2.907  0.0000E+00  0.8000E+01
     -2.866  0.0000E+00  0.8000E+01
     -2.824  0.0000E+00  0.8000E+01
     -2.782  0.0000E+00  0.8000E+01
     -2.741  0.0000E+00  0.8000E+01
     -2.699  0.0000E+00  0.8000E+01
     -2.658  0.0000E+00  0.8000E+01
     -2.616  0.0000E+00  0.8000E+01
     -2.574  0.0000E+00  0.8000E+01
     -2.533  0.0000E+00  0.8000E+01
     -2.491  0.0000E+00  0.8000E+01
     -2.450  0.0000E+00  0.8000E+01
     -2.408  0.0000E+00  0.8000E+01
     -2.366  0.0000E+00  0.8000E+01
     -2.325  0.0000E+00  0.8000E+01
     -2.283  0.0000E+00  0.8000E+01
     -2.242  0.0000E+00  0.8000E+01
     -2.200  0.0000E+00  0.8000E+01
     -2.159  0.0000E+00  0.8000E+01
     -2.117  0.0000E+00  0.8000E+01
     -2.075  0.0000E+00  0.8000E+01
     -2.034  0.0000E+00  0.8000E+01
     -1.992  0.0000E+00  0.8000E+01
     -1.951  0.0000E+00  0.8000E+01
     -1.909  0.0000E+00  0.8000E+01
     -1.867  0.0000E+00  0.8000E+01
     -1.826  0.0000E+00  0.8000E+01
     -1.784  0.0000E+00  0.8000E+01
     -1.743  0.0000E+00  0.8000E+01
     -1.701  0.0000E+00  0.8000E+01
     -1.659  0.0000E+00  0.8000E+01
     -1.618  0.0000E+00  0.8000E+01
     -1.576  0.0000E+00  0.8000E+01
     -1.535  0.0000E+00  0.8000E+01
     -1.493  0.0000E+00  0.8000E+01
     -1.452  0.0000E+00  0.8000E+01
     -1.410  0.0000E+00  0.8000E+01
     -1.368  0.0000E+00  0.8000E+01
     -1.327  0.0000E+00  0.8000E+01
     -1.285  0.0000E+00  0.8000E+01
     -1.244  0.0000E+00  0.8000E+01
     -1.202  0.0000E+00  0.8000E+01
     -1.160  0.0000E+00  0.8000E+01
     -1.119  0.0000E+00  0.8000E+01
     -1.077  0.0000E+00  0.8000E+01
     -1.036  0.0000E+00  0.8000E+01
     -0.994  0.0000E+00  0.8000E+01
     -0.952  0.0000E+00  0.8000E+01
     -0.911  0.0000E+00  0.8000E+01
     -0.869  0.0000E+00  0.8000E+01
     -0.828  0.0000E+00  0.8000E+01
     -0.786  0.0000E+00  0.8000E+01
     -0.745  0.0000E+00  0.8000E+01
     -0.703  0.0000E+00  0.8000E+01
     -0.661  0.0000E+00  0.8000E+01
     -0.620  0.0000E+00  0.8000E+01
     -0.578  0.0000E+00  0.8000E+01
     -0.537  0.1597E-14  0.8000E+01
     -0.495  0.1038E-10  0.8000E+01
     -0.453  0.1788E-07  0.8000E+01
     -0.412  0.8494E-05  0.8000E+01
     -0.370  0.1158E-02  0.8000E+01
     -0.329  0.4809E-01  0.8002E+01
     -0.287  0.6635E+00  0.8030E+01
     -0.246  0.3458E+01  0.8173E+01
     -0.204  0.8149E+01  0.8512E+01
     -0.162  0.1081E+02  0.8962E+01
     -0.121  0.1028E+02  0.9389E+01
     -0.079  0.8225E+01  0.9731E+01
     -0.038  0.4750E+01  0.9929E+01
      0.004  0.1539E+01  0.9993E+01
      0.046  0.6966E+00  0.1002E+02
      0.087  0.2383E+01  0.1012E+02
      0.129  0.6216E+01  0.1038E+02
      0.170  0.1082E+02  0.1083E+02
      0.212  0.1426E+02  0.1142E+02
      0.254  0.1566E+02  0.1207E+02
      0.295  0.1579E+02  0.1273E+02
      0.337  0.1597E+02  0.1339E+02
      0.378  0.1617E+02  0.1407E+02
      0.420  0.1668E+02  0.1476E+02
      0.461  0.1770E+02  0.1550E+02
      0.503  0.1838E+02  0.1626E+02
      0.545  0.1871E+02  0.1704E+02
      0.586  0.1903E+02  0.1783E+02
      0.628  0.1976E+02  0.1865E+02
      0.669  0.2061E+02  0.1951E+02
      0.711  0.2131E+02  0.2040E+02
      0.753  0.2216E+02  0.2132E+02
      0.794  0.2230E+02  0.2225E+02
      0.836  0.2239E+02  0.2318E+02
      0.877  0.2337E+02  0.2415E+02
      0.919  0.2408E+02  0.2515E+02
      0.961  0.2466E+02  0.2618E+02
      1.002  0.2525E+02  0.2723E+02
      1.044  0.2552E+02  0.2829E+02
      1.085  0.2589E+02  0.2936E+02
      1.127  0.2657E+02  0.3047E+02
      1.168  0.2691E+02  0.3159E+02
      1.210  0.2729E+02  0.3272E+02
      1.252  0.2763E+02  0.3387E+02
      1.293  0.2787E+02  0.3503E+02
      1.335  0.2810E+02  0.3620E+02
      1.376  0.2843E+02  0.3738E+02
      1.418  0.2910E+02  0.3859E+02
      1.460  0.2960E+02  0.3982E+02
      1.501  0.2991E+02  0.4107E+02
      1.543  0.3019E+02  0.4232E+02
      1.584  0.3046E+02  0.4359E+02
      1.626  0.2978E+02  0.4483E+02
      1.668  0.2648E+02  0.4593E+02
      1.709  0.2039E+02  0.4678E+02
      1.751  0.1337E+02  0.4733E+02
      1.792  0.7912E+01  0.4766E+02
      1.834  0.4587E+01  0.4785E+02
      1.875  0.2330E+01  0.4795E+02
      1.917  0.8910E+00  0.4799E+02
      1.959  0.2658E+00  0.4800E+02
      2.000  0.5554E-01  0.4800E+02
      2.042  0.5133E-02  0.4800E+02
      2.083  0.1574E-03  0.4800E+02
      2.125  0.1419E-05  0.4800E+02
      2.167  0.3541E-08  0.4800E+02
      2.208  0.2355E-11  0.4800E+02
      2.250  0.3955E-15  0.4800E+02
      2.291  0.0000E+00  0.4800E+02
      2.333  0.0000E+00  0.4800E+02
      2.375  0.0000E+00  0.4800E+02
      2.416  0.0000E+00  0.4800E+02
      2.458  0.0000E+00  0.4800E+02
      2.499  0.0000E+00  0.4800E+02
