Automatically generated mesh
     378
Reciprocal lattice
    0.00000000000000    0.02777777777778    0.04166666666666             4
    0.07692307692308    0.02777777777778    0.04166666666666             8
    0.15384615384615    0.02777777777778    0.04166666666666             8
    0.23076923076923    0.02777777777778    0.04166666666666             8
    0.30769230769231    0.02777777777778    0.04166666666666             8
    0.38461538461539    0.02777777777778    0.04166666666666             8
    0.46153846153846    0.02777777777778    0.04166666666666             8
    0.00000000000000    0.08333333333334    0.04166666666666             4
    0.07692307692308    0.08333333333334    0.04166666666666             8
    0.15384615384615    0.08333333333334    0.04166666666666             8
    0.23076923076923    0.08333333333334    0.04166666666666             8
    0.30769230769231    0.08333333333334    0.04166666666666             8
    0.38461538461539    0.08333333333334    0.04166666666666             8
    0.46153846153846    0.08333333333334    0.04166666666666             8
    0.00000000000000    0.13888888888889    0.04166666666666             4
    0.07692307692308    0.13888888888889    0.04166666666666             8
    0.15384615384615    0.13888888888889    0.04166666666666             8
    0.23076923076923    0.13888888888889    0.04166666666666             8
    0.30769230769231    0.13888888888889    0.04166666666666             8
    0.38461538461539    0.13888888888889    0.04166666666666             8
    0.46153846153846    0.13888888888889    0.04166666666666             8
    0.00000000000000    0.19444444444444    0.04166666666666             4
    0.07692307692308    0.19444444444444    0.04166666666666             8
    0.15384615384615    0.19444444444444    0.04166666666666             8
    0.23076923076923    0.19444444444444    0.04166666666666             8
    0.30769230769231    0.19444444444444    0.04166666666666             8
    0.38461538461539    0.19444444444444    0.04166666666666             8
    0.46153846153846    0.19444444444444    0.04166666666666             8
    0.00000000000000    0.25000000000000    0.04166666666666             4
    0.07692307692308    0.25000000000000    0.04166666666666             8
    0.15384615384615    0.25000000000000    0.04166666666666             8
    0.23076923076923    0.25000000000000    0.04166666666666             8
    0.30769230769231    0.25000000000000    0.04166666666666             8
    0.38461538461539    0.25000000000000    0.04166666666666             8
    0.46153846153846    0.25000000000000    0.04166666666666             8
    0.00000000000000    0.30555555555556    0.04166666666666             4
    0.07692307692308    0.30555555555556    0.04166666666666             8
    0.15384615384615    0.30555555555556    0.04166666666666             8
    0.23076923076923    0.30555555555556    0.04166666666666             8
    0.30769230769231    0.30555555555556    0.04166666666666             8
    0.38461538461539    0.30555555555556    0.04166666666666             8
    0.46153846153846    0.30555555555556    0.04166666666666             8
    0.00000000000000    0.36111111111111    0.04166666666666             4
    0.07692307692308    0.36111111111111    0.04166666666666             8
    0.15384615384615    0.36111111111111    0.04166666666666             8
    0.23076923076923    0.36111111111111    0.04166666666666             8
    0.30769230769231    0.36111111111111    0.04166666666666             8
    0.38461538461539    0.36111111111111    0.04166666666666             8
    0.46153846153846    0.36111111111111    0.04166666666666             8
    0.00000000000000    0.41666666666666    0.04166666666666             4
    0.07692307692308    0.41666666666666    0.04166666666666             8
    0.15384615384615    0.41666666666666    0.04166666666666             8
    0.23076923076923    0.41666666666666    0.04166666666666             8
    0.30769230769231    0.41666666666666    0.04166666666666             8
    0.38461538461539    0.41666666666666    0.04166666666666             8
    0.46153846153846    0.41666666666666    0.04166666666666             8
    0.00000000000000    0.47222222222222    0.04166666666666             4
    0.07692307692308    0.47222222222222    0.04166666666666             8
    0.15384615384615    0.47222222222222    0.04166666666666             8
    0.23076923076923    0.47222222222222    0.04166666666666             8
    0.30769230769231    0.47222222222222    0.04166666666666             8
    0.38461538461539    0.47222222222222    0.04166666666666             8
    0.46153846153846    0.47222222222222    0.04166666666666             8
    0.00000000000000    0.02777777777778    0.12500000000000             4
    0.07692307692308    0.02777777777778    0.12500000000000             8
    0.15384615384615    0.02777777777778    0.12500000000000             8
    0.23076923076923    0.02777777777778    0.12500000000000             8
    0.30769230769231    0.02777777777778    0.12500000000000             8
    0.38461538461539    0.02777777777778    0.12500000000000             8
    0.46153846153846    0.02777777777778    0.12500000000000             8
    0.00000000000000    0.08333333333334    0.12500000000000             4
    0.07692307692308    0.08333333333334    0.12500000000000             8
    0.15384615384615    0.08333333333334    0.12500000000000             8
    0.23076923076923    0.08333333333334    0.12500000000000             8
    0.30769230769231    0.08333333333334    0.12500000000000             8
    0.38461538461539    0.08333333333334    0.12500000000000             8
    0.46153846153846    0.08333333333334    0.12500000000000             8
    0.00000000000000    0.13888888888889    0.12500000000000             4
    0.07692307692308    0.13888888888889    0.12500000000000             8
    0.15384615384615    0.13888888888889    0.12500000000000             8
    0.23076923076923    0.13888888888889    0.12500000000000             8
    0.30769230769231    0.13888888888889    0.12500000000000             8
    0.38461538461539    0.13888888888889    0.12500000000000             8
    0.46153846153846    0.13888888888889    0.12500000000000             8
    0.00000000000000    0.19444444444444    0.12500000000000             4
    0.07692307692308    0.19444444444444    0.12500000000000             8
    0.15384615384615    0.19444444444444    0.12500000000000             8
    0.23076923076923    0.19444444444444    0.12500000000000             8
    0.30769230769231    0.19444444444444    0.12500000000000             8
    0.38461538461539    0.19444444444444    0.12500000000000             8
    0.46153846153846    0.19444444444444    0.12500000000000             8
    0.00000000000000    0.25000000000000    0.12500000000000             4
    0.07692307692308    0.25000000000000    0.12500000000000             8
    0.15384615384615    0.25000000000000    0.12500000000000             8
    0.23076923076923    0.25000000000000    0.12500000000000             8
    0.30769230769231    0.25000000000000    0.12500000000000             8
    0.38461538461539    0.25000000000000    0.12500000000000             8
    0.46153846153846    0.25000000000000    0.12500000000000             8
    0.00000000000000    0.30555555555556    0.12500000000000             4
    0.07692307692308    0.30555555555556    0.12500000000000             8
    0.15384615384615    0.30555555555556    0.12500000000000             8
    0.23076923076923    0.30555555555556    0.12500000000000             8
    0.30769230769231    0.30555555555556    0.12500000000000             8
    0.38461538461539    0.30555555555556    0.12500000000000             8
    0.46153846153846    0.30555555555556    0.12500000000000             8
    0.00000000000000    0.36111111111111    0.12500000000000             4
    0.07692307692308    0.36111111111111    0.12500000000000             8
    0.15384615384615    0.36111111111111    0.12500000000000             8
    0.23076923076923    0.36111111111111    0.12500000000000             8
    0.30769230769231    0.36111111111111    0.12500000000000             8
    0.38461538461539    0.36111111111111    0.12500000000000             8
    0.46153846153846    0.36111111111111    0.12500000000000             8
    0.00000000000000    0.41666666666666    0.12500000000000             4
    0.07692307692308    0.41666666666666    0.12500000000000             8
    0.15384615384615    0.41666666666666    0.12500000000000             8
    0.23076923076923    0.41666666666666    0.12500000000000             8
    0.30769230769231    0.41666666666666    0.12500000000000             8
    0.38461538461539    0.41666666666666    0.12500000000000             8
    0.46153846153846    0.41666666666666    0.12500000000000             8
    0.00000000000000    0.47222222222222    0.12500000000000             4
    0.07692307692308    0.47222222222222    0.12500000000000             8
    0.15384615384615    0.47222222222222    0.12500000000000             8
    0.23076923076923    0.47222222222222    0.12500000000000             8
    0.30769230769231    0.47222222222222    0.12500000000000             8
    0.38461538461539    0.47222222222222    0.12500000000000             8
    0.46153846153846    0.47222222222222    0.12500000000000             8
    0.00000000000000    0.02777777777778    0.20833333333334             4
    0.07692307692308    0.02777777777778    0.20833333333334             8
    0.15384615384615    0.02777777777778    0.20833333333334             8
    0.23076923076923    0.02777777777778    0.20833333333334             8
    0.30769230769231    0.02777777777778    0.20833333333334             8
    0.38461538461539    0.02777777777778    0.20833333333334             8
    0.46153846153846    0.02777777777778    0.20833333333334             8
    0.00000000000000    0.08333333333334    0.20833333333334             4
    0.07692307692308    0.08333333333334    0.20833333333334             8
    0.15384615384615    0.08333333333334    0.20833333333334             8
    0.23076923076923    0.08333333333334    0.20833333333334             8
    0.30769230769231    0.08333333333334    0.20833333333334             8
    0.38461538461539    0.08333333333334    0.20833333333334             8
    0.46153846153846    0.08333333333334    0.20833333333334             8
    0.00000000000000    0.13888888888889    0.20833333333334             4
    0.07692307692308    0.13888888888889    0.20833333333334             8
    0.15384615384615    0.13888888888889    0.20833333333334             8
    0.23076923076923    0.13888888888889    0.20833333333334             8
    0.30769230769231    0.13888888888889    0.20833333333334             8
    0.38461538461539    0.13888888888889    0.20833333333334             8
    0.46153846153846    0.13888888888889    0.20833333333334             8
    0.00000000000000    0.19444444444444    0.20833333333334             4
    0.07692307692308    0.19444444444444    0.20833333333334             8
    0.15384615384615    0.19444444444444    0.20833333333334             8
    0.23076923076923    0.19444444444444    0.20833333333334             8
    0.30769230769231    0.19444444444444    0.20833333333334             8
    0.38461538461539    0.19444444444444    0.20833333333334             8
    0.46153846153846    0.19444444444444    0.20833333333334             8
    0.00000000000000    0.25000000000000    0.20833333333334             4
    0.07692307692308    0.25000000000000    0.20833333333334             8
    0.15384615384615    0.25000000000000    0.20833333333334             8
    0.23076923076923    0.25000000000000    0.20833333333334             8
    0.30769230769231    0.25000000000000    0.20833333333334             8
    0.38461538461539    0.25000000000000    0.20833333333334             8
    0.46153846153846    0.25000000000000    0.20833333333334             8
    0.00000000000000    0.30555555555556    0.20833333333334             4
    0.07692307692308    0.30555555555556    0.20833333333334             8
    0.15384615384615    0.30555555555556    0.20833333333334             8
    0.23076923076923    0.30555555555556    0.20833333333334             8
    0.30769230769231    0.30555555555556    0.20833333333334             8
    0.38461538461539    0.30555555555556    0.20833333333334             8
    0.46153846153846    0.30555555555556    0.20833333333334             8
    0.00000000000000    0.36111111111111    0.20833333333334             4
    0.07692307692308    0.36111111111111    0.20833333333334             8
    0.15384615384615    0.36111111111111    0.20833333333334             8
    0.23076923076923    0.36111111111111    0.20833333333334             8
    0.30769230769231    0.36111111111111    0.20833333333334             8
    0.38461538461539    0.36111111111111    0.20833333333334             8
    0.46153846153846    0.36111111111111    0.20833333333334             8
    0.00000000000000    0.41666666666666    0.20833333333334             4
    0.07692307692308    0.41666666666666    0.20833333333334             8
    0.15384615384615    0.41666666666666    0.20833333333334             8
    0.23076923076923    0.41666666666666    0.20833333333334             8
    0.30769230769231    0.41666666666666    0.20833333333334             8
    0.38461538461539    0.41666666666666    0.20833333333334             8
    0.46153846153846    0.41666666666666    0.20833333333334             8
    0.00000000000000    0.47222222222222    0.20833333333334             4
    0.07692307692308    0.47222222222222    0.20833333333334             8
    0.15384615384615    0.47222222222222    0.20833333333334             8
    0.23076923076923    0.47222222222222    0.20833333333334             8
    0.30769230769231    0.47222222222222    0.20833333333334             8
    0.38461538461539    0.47222222222222    0.20833333333334             8
    0.46153846153846    0.47222222222222    0.20833333333334             8
    0.00000000000000    0.02777777777778    0.29166666666666             4
    0.07692307692308    0.02777777777778    0.29166666666666             8
    0.15384615384615    0.02777777777778    0.29166666666666             8
    0.23076923076923    0.02777777777778    0.29166666666666             8
    0.30769230769231    0.02777777777778    0.29166666666666             8
    0.38461538461539    0.02777777777778    0.29166666666666             8
    0.46153846153846    0.02777777777778    0.29166666666666             8
    0.00000000000000    0.08333333333334    0.29166666666666             4
    0.07692307692308    0.08333333333334    0.29166666666666             8
    0.15384615384615    0.08333333333334    0.29166666666666             8
    0.23076923076923    0.08333333333334    0.29166666666666             8
    0.30769230769231    0.08333333333334    0.29166666666666             8
    0.38461538461539    0.08333333333334    0.29166666666666             8
    0.46153846153846    0.08333333333334    0.29166666666666             8
    0.00000000000000    0.13888888888889    0.29166666666666             4
    0.07692307692308    0.13888888888889    0.29166666666666             8
    0.15384615384615    0.13888888888889    0.29166666666666             8
    0.23076923076923    0.13888888888889    0.29166666666666             8
    0.30769230769231    0.13888888888889    0.29166666666666             8
    0.38461538461539    0.13888888888889    0.29166666666666             8
    0.46153846153846    0.13888888888889    0.29166666666666             8
    0.00000000000000    0.19444444444444    0.29166666666666             4
    0.07692307692308    0.19444444444444    0.29166666666666             8
    0.15384615384615    0.19444444444444    0.29166666666666             8
    0.23076923076923    0.19444444444444    0.29166666666666             8
    0.30769230769231    0.19444444444444    0.29166666666666             8
    0.38461538461539    0.19444444444444    0.29166666666666             8
    0.46153846153846    0.19444444444444    0.29166666666666             8
    0.00000000000000    0.25000000000000    0.29166666666666             4
    0.07692307692308    0.25000000000000    0.29166666666666             8
    0.15384615384615    0.25000000000000    0.29166666666666             8
    0.23076923076923    0.25000000000000    0.29166666666666             8
    0.30769230769231    0.25000000000000    0.29166666666666             8
    0.38461538461539    0.25000000000000    0.29166666666666             8
    0.46153846153846    0.25000000000000    0.29166666666666             8
    0.00000000000000    0.30555555555556    0.29166666666666             4
    0.07692307692308    0.30555555555556    0.29166666666666             8
    0.15384615384615    0.30555555555556    0.29166666666666             8
    0.23076923076923    0.30555555555556    0.29166666666666             8
    0.30769230769231    0.30555555555556    0.29166666666666             8
    0.38461538461539    0.30555555555556    0.29166666666666             8
    0.46153846153846    0.30555555555556    0.29166666666666             8
    0.00000000000000    0.36111111111111    0.29166666666666             4
    0.07692307692308    0.36111111111111    0.29166666666666             8
    0.15384615384615    0.36111111111111    0.29166666666666             8
    0.23076923076923    0.36111111111111    0.29166666666666             8
    0.30769230769231    0.36111111111111    0.29166666666666             8
    0.38461538461539    0.36111111111111    0.29166666666666             8
    0.46153846153846    0.36111111111111    0.29166666666666             8
    0.00000000000000    0.41666666666666    0.29166666666666             4
    0.07692307692308    0.41666666666666    0.29166666666666             8
    0.15384615384615    0.41666666666666    0.29166666666666             8
    0.23076923076923    0.41666666666666    0.29166666666666             8
    0.30769230769231    0.41666666666666    0.29166666666666             8
    0.38461538461539    0.41666666666666    0.29166666666666             8
    0.46153846153846    0.41666666666666    0.29166666666666             8
    0.00000000000000    0.47222222222222    0.29166666666666             4
    0.07692307692308    0.47222222222222    0.29166666666666             8
    0.15384615384615    0.47222222222222    0.29166666666666             8
    0.23076923076923    0.47222222222222    0.29166666666666             8
    0.30769230769231    0.47222222222222    0.29166666666666             8
    0.38461538461539    0.47222222222222    0.29166666666666             8
    0.46153846153846    0.47222222222222    0.29166666666666             8
    0.00000000000000    0.02777777777778    0.37500000000000             4
    0.07692307692308    0.02777777777778    0.37500000000000             8
    0.15384615384615    0.02777777777778    0.37500000000000             8
    0.23076923076923    0.02777777777778    0.37500000000000             8
    0.30769230769231    0.02777777777778    0.37500000000000             8
    0.38461538461539    0.02777777777778    0.37500000000000             8
    0.46153846153846    0.02777777777778    0.37500000000000             8
    0.00000000000000    0.08333333333334    0.37500000000000             4
    0.07692307692308    0.08333333333334    0.37500000000000             8
    0.15384615384615    0.08333333333334    0.37500000000000             8
    0.23076923076923    0.08333333333334    0.37500000000000             8
    0.30769230769231    0.08333333333334    0.37500000000000             8
    0.38461538461539    0.08333333333334    0.37500000000000             8
    0.46153846153846    0.08333333333334    0.37500000000000             8
    0.00000000000000    0.13888888888889    0.37500000000000             4
    0.07692307692308    0.13888888888889    0.37500000000000             8
    0.15384615384615    0.13888888888889    0.37500000000000             8
    0.23076923076923    0.13888888888889    0.37500000000000             8
    0.30769230769231    0.13888888888889    0.37500000000000             8
    0.38461538461539    0.13888888888889    0.37500000000000             8
    0.46153846153846    0.13888888888889    0.37500000000000             8
    0.00000000000000    0.19444444444444    0.37500000000000             4
    0.07692307692308    0.19444444444444    0.37500000000000             8
    0.15384615384615    0.19444444444444    0.37500000000000             8
    0.23076923076923    0.19444444444444    0.37500000000000             8
    0.30769230769231    0.19444444444444    0.37500000000000             8
    0.38461538461539    0.19444444444444    0.37500000000000             8
    0.46153846153846    0.19444444444444    0.37500000000000             8
    0.00000000000000    0.25000000000000    0.37500000000000             4
    0.07692307692308    0.25000000000000    0.37500000000000             8
    0.15384615384615    0.25000000000000    0.37500000000000             8
    0.23076923076923    0.25000000000000    0.37500000000000             8
    0.30769230769231    0.25000000000000    0.37500000000000             8
    0.38461538461539    0.25000000000000    0.37500000000000             8
    0.46153846153846    0.25000000000000    0.37500000000000             8
    0.00000000000000    0.30555555555556    0.37500000000000             4
    0.07692307692308    0.30555555555556    0.37500000000000             8
    0.15384615384615    0.30555555555556    0.37500000000000             8
    0.23076923076923    0.30555555555556    0.37500000000000             8
    0.30769230769231    0.30555555555556    0.37500000000000             8
    0.38461538461539    0.30555555555556    0.37500000000000             8
    0.46153846153846    0.30555555555556    0.37500000000000             8
    0.00000000000000    0.36111111111111    0.37500000000000             4
    0.07692307692308    0.36111111111111    0.37500000000000             8
    0.15384615384615    0.36111111111111    0.37500000000000             8
    0.23076923076923    0.36111111111111    0.37500000000000             8
    0.30769230769231    0.36111111111111    0.37500000000000             8
    0.38461538461539    0.36111111111111    0.37500000000000             8
    0.46153846153846    0.36111111111111    0.37500000000000             8
    0.00000000000000    0.41666666666666    0.37500000000000             4
    0.07692307692308    0.41666666666666    0.37500000000000             8
    0.15384615384615    0.41666666666666    0.37500000000000             8
    0.23076923076923    0.41666666666666    0.37500000000000             8
    0.30769230769231    0.41666666666666    0.37500000000000             8
    0.38461538461539    0.41666666666666    0.37500000000000             8
    0.46153846153846    0.41666666666666    0.37500000000000             8
    0.00000000000000    0.47222222222222    0.37500000000000             4
    0.07692307692308    0.47222222222222    0.37500000000000             8
    0.15384615384615    0.47222222222222    0.37500000000000             8
    0.23076923076923    0.47222222222222    0.37500000000000             8
    0.30769230769231    0.47222222222222    0.37500000000000             8
    0.38461538461539    0.47222222222222    0.37500000000000             8
    0.46153846153846    0.47222222222222    0.37500000000000             8
    0.00000000000000    0.02777777777778    0.45833333333334             4
    0.07692307692308    0.02777777777778    0.45833333333334             8
    0.15384615384615    0.02777777777778    0.45833333333334             8
    0.23076923076923    0.02777777777778    0.45833333333334             8
    0.30769230769231    0.02777777777778    0.45833333333334             8
    0.38461538461539    0.02777777777778    0.45833333333334             8
    0.46153846153846    0.02777777777778    0.45833333333334             8
    0.00000000000000    0.08333333333334    0.45833333333334             4
    0.07692307692308    0.08333333333334    0.45833333333334             8
    0.15384615384615    0.08333333333334    0.45833333333334             8
    0.23076923076923    0.08333333333334    0.45833333333334             8
    0.30769230769231    0.08333333333334    0.45833333333334             8
    0.38461538461539    0.08333333333334    0.45833333333334             8
    0.46153846153846    0.08333333333334    0.45833333333334             8
    0.00000000000000    0.13888888888889    0.45833333333334             4
    0.07692307692308    0.13888888888889    0.45833333333334             8
    0.15384615384615    0.13888888888889    0.45833333333334             8
    0.23076923076923    0.13888888888889    0.45833333333334             8
    0.30769230769231    0.13888888888889    0.45833333333334             8
    0.38461538461539    0.13888888888889    0.45833333333334             8
    0.46153846153846    0.13888888888889    0.45833333333334             8
    0.00000000000000    0.19444444444444    0.45833333333334             4
    0.07692307692308    0.19444444444444    0.45833333333334             8
    0.15384615384615    0.19444444444444    0.45833333333334             8
    0.23076923076923    0.19444444444444    0.45833333333334             8
    0.30769230769231    0.19444444444444    0.45833333333334             8
    0.38461538461539    0.19444444444444    0.45833333333334             8
    0.46153846153846    0.19444444444444    0.45833333333334             8
    0.00000000000000    0.25000000000000    0.45833333333334             4
    0.07692307692308    0.25000000000000    0.45833333333334             8
    0.15384615384615    0.25000000000000    0.45833333333334             8
    0.23076923076923    0.25000000000000    0.45833333333334             8
    0.30769230769231    0.25000000000000    0.45833333333334             8
    0.38461538461539    0.25000000000000    0.45833333333334             8
    0.46153846153846    0.25000000000000    0.45833333333334             8
    0.00000000000000    0.30555555555556    0.45833333333334             4
    0.07692307692308    0.30555555555556    0.45833333333334             8
    0.15384615384615    0.30555555555556    0.45833333333334             8
    0.23076923076923    0.30555555555556    0.45833333333334             8
    0.30769230769231    0.30555555555556    0.45833333333334             8
    0.38461538461539    0.30555555555556    0.45833333333334             8
    0.46153846153846    0.30555555555556    0.45833333333334             8
    0.00000000000000    0.36111111111111    0.45833333333334             4
    0.07692307692308    0.36111111111111    0.45833333333334             8
    0.15384615384615    0.36111111111111    0.45833333333334             8
    0.23076923076923    0.36111111111111    0.45833333333334             8
    0.30769230769231    0.36111111111111    0.45833333333334             8
    0.38461538461539    0.36111111111111    0.45833333333334             8
    0.46153846153846    0.36111111111111    0.45833333333334             8
    0.00000000000000    0.41666666666666    0.45833333333334             4
    0.07692307692308    0.41666666666666    0.45833333333334             8
    0.15384615384615    0.41666666666666    0.45833333333334             8
    0.23076923076923    0.41666666666666    0.45833333333334             8
    0.30769230769231    0.41666666666666    0.45833333333334             8
    0.38461538461539    0.41666666666666    0.45833333333334             8
    0.46153846153846    0.41666666666666    0.45833333333334             8
    0.00000000000000    0.47222222222222    0.45833333333334             4
    0.07692307692308    0.47222222222222    0.45833333333334             8
    0.15384615384615    0.47222222222222    0.45833333333334             8
    0.23076923076923    0.47222222222222    0.45833333333334             8
    0.30769230769231    0.47222222222222    0.45833333333334             8
    0.38461538461539    0.47222222222222    0.45833333333334             8
    0.46153846153846    0.47222222222222    0.45833333333334             8
