       N       E                     dE             d eps       ncg     rms          rms(c)
DAV:   1     0.760666715489E+01    0.76067E+01   -0.33650E+02 18144   0.342E+01
