  14  14   0   0
  0.1021960E+02  0.5697000E-09  0.4047900E-09  0.6204200E-09  0.5000000E-15
  1.000000000000000E-004
  CAR 
 Geometry                                
     10.89277827    -13.81459353  301      1.92045492      1.00000000
    -13.815  0.0000E+00  0.0000E+00
    -13.732  0.0000E+00  0.0000E+00
    -13.650  0.0000E+00  0.0000E+00
    -13.568  0.0000E+00  0.0000E+00
    -13.485  0.0000E+00  0.0000E+00
    -13.403  0.0000E+00  0.0000E+00
    -13.320  0.0000E+00  0.0000E+00
    -13.238  0.0000E+00  0.0000E+00
    -13.156  0.0000E+00  0.0000E+00
    -13.073  0.0000E+00  0.0000E+00
    -12.991  0.0000E+00  0.0000E+00
    -12.909  0.1021E-12  0.8412E-14
    -12.826  0.2188E-07  0.1802E-08
    -12.744  0.3636E-04  0.2996E-05
    -12.662  0.1265E-02  0.1072E-03
    -12.579  0.4997E-02  0.5187E-03
    -12.497  0.7858E-02  0.1166E-02
    -12.415  0.9559E-02  0.1953E-02
    -12.332  0.1092E-01  0.2853E-02
    -12.250  0.8930E-02  0.3588E-02
    -12.167  0.7558E-02  0.4211E-02
    -12.085  0.6472E-02  0.4744E-02
    -12.003  0.6765E-02  0.5301E-02
    -11.920  0.5821E-02  0.5780E-02
    -11.838  0.6964E-02  0.6354E-02
    -11.756  0.6493E-02  0.6889E-02
    -11.673  0.8718E-02  0.7607E-02
    -11.591  0.8603E-02  0.8315E-02
    -11.509  0.8567E-02  0.9021E-02
    -11.426  0.6520E-02  0.9558E-02
    -11.344  0.3835E-02  0.9873E-02
    -11.261  0.1411E-02  0.9990E-02
    -11.179  0.1264E-03  0.1000E-01
    -11.097  0.3875E-06  0.1000E-01
    -11.014  0.1161E-10  0.1000E-01
    -10.932  0.2140E-17  0.1000E-01
    -10.850  0.0000E+00  0.1000E-01
    -10.767  0.0000E+00  0.1000E-01
    -10.685  0.0000E+00  0.1000E-01
    -10.603  0.0000E+00  0.1000E-01
    -10.520  0.0000E+00  0.1000E-01
    -10.438  0.0000E+00  0.1000E-01
    -10.356  0.0000E+00  0.1000E-01
    -10.273  0.0000E+00  0.1000E-01
    -10.191  0.0000E+00  0.1000E-01
    -10.108  0.0000E+00  0.1000E-01
    -10.026  0.0000E+00  0.1000E-01
     -9.944  0.0000E+00  0.1000E-01
     -9.861  0.0000E+00  0.1000E-01
     -9.779  0.0000E+00  0.1000E-01
     -9.697  0.0000E+00  0.1000E-01
     -9.614  0.0000E+00  0.1000E-01
     -9.532  0.0000E+00  0.1000E-01
     -9.450  0.0000E+00  0.1000E-01
     -9.367  0.0000E+00  0.1000E-01
     -9.285  0.0000E+00  0.1000E-01
     -9.203  0.0000E+00  0.1000E-01
     -9.120  0.0000E+00  0.1000E-01
     -9.038  0.1741E-12  0.1000E-01
     -8.955  0.3100E-07  0.1000E-01
     -8.873  0.4330E-04  0.1000E-01
     -8.791  0.1434E-02  0.1012E-01
     -8.708  0.5508E-02  0.1058E-01
     -8.626  0.1191E-01  0.1156E-01
     -8.544  0.1661E-01  0.1292E-01
     -8.461  0.1655E-01  0.1429E-01
     -8.379  0.1301E-01  0.1536E-01
     -8.297  0.1129E-01  0.1629E-01
     -8.214  0.1246E-01  0.1731E-01
     -8.132  0.1117E-01  0.1823E-01
     -8.050  0.1037E-01  0.1909E-01
     -7.967  0.6092E-02  0.1959E-01
     -7.885  0.3225E-02  0.1986E-01
     -7.802  0.1417E-02  0.1997E-01
     -7.720  0.3311E-03  0.2000E-01
     -7.638  0.5371E-05  0.2000E-01
     -7.555  0.9146E-09  0.2000E-01
     -7.473  0.9261E-15  0.2000E-01
     -7.391  0.0000E+00  0.2000E-01
     -7.308  0.0000E+00  0.2000E-01
     -7.226  0.0000E+00  0.2000E-01
     -7.144  0.3937E-14  0.2000E-01
     -7.061  0.2399E-08  0.2000E-01
     -6.979  0.8785E-05  0.2000E-01
     -6.897  0.3559E-03  0.2003E-01
     -6.814  0.6669E-03  0.2008E-01
     -6.732  0.7149E-03  0.2014E-01
     -6.649  0.1445E-02  0.2026E-01
     -6.567  0.2070E-02  0.2043E-01
     -6.485  0.1914E-02  0.2059E-01
     -6.402  0.2995E-02  0.2084E-01
     -6.320  0.3908E-02  0.2116E-01
     -6.238  0.5417E-02  0.2161E-01
     -6.155  0.7772E-02  0.2225E-01
     -6.073  0.9856E-02  0.2306E-01
     -5.991  0.9169E-02  0.2381E-01
     -5.908  0.1092E-01  0.2471E-01
     -5.826  0.9829E-02  0.2552E-01
     -5.744  0.1057E-01  0.2639E-01
     -5.661  0.9391E-02  0.2717E-01
     -5.579  0.1026E-01  0.2801E-01
     -5.496  0.1083E-01  0.2890E-01
     -5.414  0.1162E-01  0.2986E-01
     -5.332  0.1160E-01  0.3081E-01
     -5.249  0.1165E-01  0.3177E-01
     -5.167  0.1064E-01  0.3265E-01
     -5.085  0.9555E-02  0.3344E-01
     -5.002  0.7735E-02  0.3407E-01
     -4.920  0.7740E-02  0.3471E-01
     -4.838  0.6371E-02  0.3524E-01
     -4.755  0.6713E-02  0.3579E-01
     -4.673  0.8032E-02  0.3645E-01
     -4.591  0.8294E-02  0.3713E-01
     -4.508  0.8288E-02  0.3782E-01
     -4.426  0.8713E-02  0.3853E-01
     -4.343  0.7939E-02  0.3919E-01
     -4.261  0.7019E-02  0.3977E-01
     -4.179  0.7680E-02  0.4040E-01
     -4.096  0.7379E-02  0.4101E-01
     -4.014  0.7015E-02  0.4158E-01
     -3.932  0.7625E-02  0.4221E-01
     -3.849  0.6838E-02  0.4278E-01
     -3.767  0.8884E-02  0.4351E-01
     -3.685  0.6085E-02  0.4401E-01
     -3.602  0.7059E-02  0.4459E-01
     -3.520  0.7528E-02  0.4521E-01
     -3.437  0.6449E-02  0.4574E-01
     -3.355  0.6571E-02  0.4628E-01
     -3.273  0.7322E-02  0.4689E-01
     -3.190  0.7637E-02  0.4751E-01
     -3.108  0.5328E-02  0.4795E-01
     -3.026  0.7094E-02  0.4854E-01
     -2.943  0.7889E-02  0.4919E-01
     -2.861  0.7002E-02  0.4976E-01
     -2.779  0.6953E-02  0.5034E-01
     -2.696  0.5535E-02  0.5079E-01
     -2.614  0.6195E-02  0.5130E-01
     -2.532  0.6925E-02  0.5187E-01
     -2.449  0.8155E-02  0.5254E-01
     -2.367  0.7512E-02  0.5316E-01
     -2.284  0.7768E-02  0.5380E-01
     -2.202  0.1077E-01  0.5469E-01
     -2.120  0.8923E-02  0.5542E-01
     -2.037  0.8966E-02  0.5616E-01
     -1.955  0.8457E-02  0.5686E-01
     -1.873  0.1193E-01  0.5784E-01
     -1.790  0.1345E-01  0.5895E-01
     -1.708  0.1479E-01  0.6017E-01
     -1.626  0.1415E-01  0.6133E-01
     -1.543  0.1618E-01  0.6266E-01
     -1.461  0.1580E-01  0.6397E-01
     -1.379  0.1480E-01  0.6518E-01
     -1.296  0.1330E-01  0.6628E-01
     -1.214  0.1094E-01  0.6718E-01
     -1.131  0.1581E-01  0.6848E-01
     -1.049  0.1411E-01  0.6964E-01
     -0.967  0.7355E-02  0.7025E-01
     -0.884  0.6125E-02  0.7076E-01
     -0.802  0.6738E-02  0.7131E-01
     -0.720  0.8126E-02  0.7198E-01
     -0.637  0.1010E-01  0.7281E-01
     -0.555  0.1303E-01  0.7388E-01
     -0.473  0.1619E-01  0.7522E-01
     -0.390  0.1422E-01  0.7639E-01
     -0.308  0.1384E-01  0.7753E-01
     -0.226  0.1641E-01  0.7888E-01
     -0.143  0.1593E-01  0.8019E-01
     -0.061  0.1755E-01  0.8164E-01
      0.022  0.1634E-01  0.8298E-01
      0.104  0.1635E-01  0.8433E-01
      0.186  0.2390E-01  0.8630E-01
      0.269  0.2271E-01  0.8817E-01
      0.351  0.2076E-01  0.8988E-01
      0.433  0.1955E-01  0.9149E-01
      0.516  0.1368E-01  0.9261E-01
      0.598  0.9353E-02  0.9338E-01
      0.680  0.8375E-02  0.9407E-01
      0.763  0.8927E-02  0.9481E-01
      0.845  0.9073E-02  0.9556E-01
      0.927  0.9030E-02  0.9630E-01
      1.010  0.8344E-02  0.9699E-01
      1.092  0.7958E-02  0.9764E-01
      1.175  0.7700E-02  0.9828E-01
      1.257  0.8233E-02  0.9895E-01
      1.339  0.9470E-02  0.9973E-01
      1.422  0.1097E-01  0.1006E+00
      1.504  0.9698E-02  0.1014E+00
      1.586  0.9927E-02  0.1023E+00
      1.669  0.1106E-01  0.1032E+00
      1.751  0.9197E-02  0.1039E+00
      1.833  0.6276E-02  0.1044E+00
      1.916  0.6443E-02  0.1050E+00
      1.998  0.6595E-02  0.1055E+00
      2.080  0.5989E-02  0.1060E+00
      2.163  0.5529E-02  0.1065E+00
      2.245  0.6822E-02  0.1070E+00
      2.328  0.6633E-02  0.1076E+00
      2.410  0.5641E-02  0.1080E+00
      2.492  0.3660E-02  0.1083E+00
      2.575  0.1755E-02  0.1085E+00
      2.657  0.8714E-03  0.1086E+00
      2.739  0.1369E-02  0.1087E+00
      2.822  0.1201E-02  0.1088E+00
      2.904  0.1063E-02  0.1089E+00
      2.986  0.7320E-03  0.1089E+00
      3.069  0.1216E-02  0.1090E+00
      3.151  0.2432E-02  0.1092E+00
      3.233  0.2336E-02  0.1094E+00
      3.316  0.1677E-02  0.1095E+00
      3.398  0.1503E-03  0.1096E+00
      3.481  0.2949E-05  0.1096E+00
      3.563  0.2408E-03  0.1096E+00
      3.645  0.8563E-03  0.1096E+00
      3.728  0.1111E-02  0.1097E+00
      3.810  0.6114E-03  0.1098E+00
      3.892  0.8812E-03  0.1099E+00
      3.975  0.1168E-02  0.1100E+00
      4.057  0.5147E-03  0.1100E+00
      4.139  0.1049E-04  0.1100E+00
      4.222  0.6036E-05  0.1100E+00
      4.304  0.2102E-03  0.1100E+00
      4.387  0.4936E-03  0.1101E+00
      4.469  0.1054E-02  0.1101E+00
      4.551  0.1102E-02  0.1102E+00
      4.634  0.1491E-02  0.1104E+00
      4.716  0.1984E-02  0.1105E+00
      4.798  0.2295E-02  0.1107E+00
      4.881  0.2057E-02  0.1109E+00
      4.963  0.2468E-02  0.1111E+00
      5.045  0.2767E-02  0.1113E+00
      5.128  0.3376E-02  0.1116E+00
      5.210  0.3041E-02  0.1118E+00
      5.292  0.3892E-02  0.1122E+00
      5.375  0.4267E-02  0.1125E+00
      5.457  0.6159E-02  0.1130E+00
      5.540  0.6674E-02  0.1136E+00
      5.622  0.6671E-02  0.1141E+00
      5.704  0.7833E-02  0.1148E+00
      5.787  0.8331E-02  0.1154E+00
      5.869  0.8716E-02  0.1162E+00
      5.951  0.1145E-01  0.1171E+00
      6.034  0.1167E-01  0.1181E+00
      6.116  0.1104E-01  0.1190E+00
      6.198  0.1055E-01  0.1198E+00
      6.281  0.1216E-01  0.1209E+00
      6.363  0.1051E-01  0.1217E+00
      6.445  0.9436E-02  0.1225E+00
      6.528  0.9884E-02  0.1233E+00
      6.610  0.1002E-01  0.1241E+00
      6.693  0.7200E-02  0.1247E+00
      6.775  0.1048E-01  0.1256E+00
      6.857  0.9979E-02  0.1264E+00
      6.940  0.1217E-01  0.1274E+00
      7.022  0.1133E-01  0.1283E+00
      7.104  0.1077E-01  0.1292E+00
      7.187  0.1061E-01  0.1301E+00
      7.269  0.1349E-01  0.1312E+00
      7.351  0.1396E-01  0.1324E+00
      7.434  0.9991E-02  0.1332E+00
      7.516  0.1118E-01  0.1341E+00
      7.598  0.1004E-01  0.1349E+00
      7.681  0.8631E-02  0.1356E+00
      7.763  0.8871E-02  0.1364E+00
      7.846  0.6755E-02  0.1369E+00
      7.928  0.8940E-02  0.1377E+00
      8.010  0.7048E-02  0.1383E+00
      8.093  0.9918E-02  0.1391E+00
      8.175  0.1033E-01  0.1399E+00
      8.257  0.9468E-02  0.1407E+00
      8.340  0.8531E-02  0.1414E+00
      8.422  0.8638E-02  0.1421E+00
      8.504  0.1055E-01  0.1430E+00
      8.587  0.7407E-02  0.1436E+00
      8.669  0.8672E-02  0.1443E+00
      8.751  0.7497E-02  0.1449E+00
      8.834  0.7605E-02  0.1456E+00
      8.916  0.9678E-02  0.1463E+00
      8.999  0.8223E-02  0.1470E+00
      9.081  0.6889E-02  0.1476E+00
      9.163  0.7081E-02  0.1482E+00
      9.246  0.5948E-02  0.1487E+00
      9.328  0.6075E-02  0.1492E+00
      9.410  0.4128E-02  0.1495E+00
      9.493  0.2025E-02  0.1497E+00
      9.575  0.1957E-02  0.1498E+00
      9.657  0.1318E-02  0.1499E+00
      9.740  0.4950E-03  0.1500E+00
      9.822  0.1799E-03  0.1500E+00
      9.904  0.1341E-04  0.1500E+00
      9.987  0.1330E-07  0.1500E+00
     10.069  0.7891E-13  0.1500E+00
     10.152  0.0000E+00  0.1500E+00
     10.234  0.0000E+00  0.1500E+00
     10.316  0.0000E+00  0.1500E+00
     10.399  0.0000E+00  0.1500E+00
     10.481  0.0000E+00  0.1500E+00
     10.563  0.0000E+00  0.1500E+00
     10.646  0.0000E+00  0.1500E+00
     10.728  0.0000E+00  0.1500E+00
     10.810  0.0000E+00  0.1500E+00
     10.893  0.0000E+00  0.1500E+00
