       N       E                     dE             d eps       ncg     rms          rms(c)
DAV:   1     0.137270823542E+03    0.13727E+03   -0.20804E+04 10500   0.138E+03
DAV:   2    -0.887366128230E+02   -0.22601E+03   -0.22033E+03 14352   0.245E+02
DAV:   3    -0.975110201673E+02   -0.87744E+01   -0.86450E+01 13218   0.485E+01
DAV:   4    -0.976415443182E+02   -0.13052E+00   -0.13024E+00 15372   0.611E+00
DAV:   5    -0.976430724058E+02   -0.15281E-02   -0.15279E-02 14586   0.613E-01    0.123E+01
DAV:   6    -0.922200309879E+02    0.54230E+01   -0.61707E+00 11796   0.105E+01    0.681E+00
DAV:   7    -0.905739113797E+02    0.16461E+01   -0.51855E+00 12798   0.936E+00    0.170E+00
DAV:   8    -0.905899392863E+02   -0.16028E-01   -0.28477E-01 13734   0.269E+00    0.664E-01
DAV:   9    -0.906032688060E+02   -0.13330E-01   -0.26297E-02 12654   0.777E-01    0.197E-01
DAV:  10    -0.906065073711E+02   -0.32386E-02   -0.30155E-03 14196   0.264E-01    0.597E-02
DAV:  11    -0.906075750697E+02   -0.10677E-02   -0.88140E-04 12636   0.146E-01    0.301E-02
DAV:  12    -0.906077203273E+02   -0.14526E-03   -0.15567E-04 13962   0.673E-02    0.625E-03
DAV:  13    -0.906077250083E+02   -0.46810E-05   -0.10352E-05 13866   0.173E-02    0.225E-03
DAV:  14    -0.906077259387E+02   -0.93039E-06   -0.13460E-06 11124   0.711E-03
   1 F= -.90607726E+02 E0= -.90606119E+02  d E =-.906077E+02
       N       E                     dE             d eps       ncg     rms          rms(c)
DAV:   1    -0.905880926407E+02    0.19632E-01   -0.91332E+00 11208   0.151E+01    0.982E-01
DAV:   2    -0.905739854972E+02    0.14107E-01   -0.16661E-01 13326   0.235E+00    0.560E-01
DAV:   3    -0.905642244275E+02    0.97611E-02   -0.41729E-02 12090   0.998E-01    0.802E-02
DAV:   4    -0.905643361250E+02   -0.11170E-03   -0.44623E-03 13476   0.353E-01    0.625E-02
DAV:   5    -0.905643406839E+02   -0.45588E-05   -0.12956E-04 14790   0.564E-02    0.170E-02
DAV:   6    -0.905643379831E+02    0.27007E-05   -0.16368E-05 13248   0.210E-02    0.527E-03
DAV:   7    -0.905643383583E+02   -0.37514E-06   -0.18409E-06 10524   0.681E-03
   2 F= -.90564338E+02 E0= -.90562776E+02  d E =0.433876E-01
       N       E                     dE             d eps       ncg     rms          rms(c)
DAV:   1    -0.906474521319E+02   -0.83114E-01   -0.34009E+00 11070   0.917E+00    0.604E-01
DAV:   2    -0.906420362770E+02    0.54159E-02   -0.61001E-02 13584   0.143E+00    0.342E-01
DAV:   3    -0.906384043467E+02    0.36319E-02   -0.16107E-02 12096   0.616E-01    0.482E-02
DAV:   4    -0.906384368247E+02   -0.32478E-04   -0.16215E-03 13122   0.214E-01    0.368E-02
DAV:   5    -0.906384388990E+02   -0.20743E-05   -0.53451E-05 15204   0.355E-02    0.998E-03
DAV:   6    -0.906384385176E+02    0.38144E-06   -0.48513E-06 12966   0.116E-02
   3 F= -.90638439E+02 E0= -.90636911E+02  d E =-.307126E-01
       N       E                     dE             d eps       ncg     rms          rms(c)
DAV:   1    -0.906401574307E+02   -0.17185E-02   -0.19652E-01 10590   0.238E+00    0.163E-01
DAV:   2    -0.906397253473E+02    0.43208E-03   -0.40764E-03 13116   0.364E-01    0.873E-02
DAV:   3    -0.906395019688E+02    0.22338E-03   -0.80526E-04 12858   0.141E-01    0.165E-02
DAV:   4    -0.906395021088E+02   -0.13998E-06   -0.88255E-05 13140   0.479E-02    0.953E-03
DAV:   5    -0.906395027346E+02   -0.62579E-06   -0.59416E-06 13680   0.112E-02
   4 F= -.90639503E+02 E0= -.90637923E+02  d E =-.106422E-02
       N       E                     dE             d eps       ncg     rms          rms(c)
DAV:   1    -0.906400822255E+02   -0.58012E-03   -0.25158E-02 10596   0.851E-01    0.577E-02
DAV:   2    -0.906400234356E+02    0.58790E-04   -0.52246E-04 13134   0.130E-01    0.312E-02
DAV:   3    -0.906399919366E+02    0.31499E-04   -0.10514E-04 12756   0.510E-02    0.581E-03
DAV:   4    -0.906399916040E+02    0.33263E-06   -0.11498E-05 12936   0.173E-02    0.337E-03
DAV:   5    -0.906399911050E+02    0.49903E-06   -0.68187E-07  7722   0.403E-03
   5 F= -.90639991E+02 E0= -.90638434E+02  d E =-.155259E-02
       N       E                     dE             d eps       ncg     rms          rms(c)
DAV:   1    -0.906405165010E+02   -0.52490E-03   -0.28694E-02 10608   0.958E-01    0.501E-02
DAV:   2    -0.906404553401E+02    0.61161E-04   -0.55920E-04 13356   0.139E-01    0.258E-02
DAV:   3    -0.906404373879E+02    0.17952E-04   -0.87462E-05 13320   0.476E-02    0.824E-03
DAV:   4    -0.906404366188E+02    0.76908E-06   -0.12609E-05 14268   0.194E-02    0.443E-03
DAV:   5    -0.906404365055E+02    0.11334E-06   -0.20273E-06 10326   0.777E-03
   6 F= -.90640437E+02 E0= -.90638867E+02  d E =-.445400E-03
       N       E                     dE             d eps       ncg     rms          rms(c)
DAV:   1    -0.906404385081E+02   -0.18893E-05   -0.12363E-04 11466   0.631E-02    0.321E-03
DAV:   2    -0.906404383866E+02    0.12149E-06   -0.24105E-06 12882   0.907E-03
   7 F= -.90640438E+02 E0= -.90638868E+02  d E =-.447282E-03
       N       E                     dE             d eps       ncg     rms          rms(c)
DAV:   1    -0.906405888816E+02   -0.15037E-03   -0.44753E-03 11424   0.368E-01    0.331E-02
DAV:   2    -0.906405360657E+02    0.52816E-04   -0.19038E-04 13410   0.781E-02    0.128E-02
DAV:   3    -0.906405330072E+02    0.30585E-05   -0.30706E-05 14220   0.254E-02    0.596E-03
DAV:   4    -0.906405323931E+02    0.61417E-06   -0.62262E-06 12780   0.116E-02
   8 F= -.90640532E+02 E0= -.90638966E+02  d E =-.940065E-04
       N       E                     dE             d eps       ncg     rms          rms(c)
DAV:   1    -0.906405322275E+02    0.77976E-06   -0.64437E-05 11940   0.451E-02    0.411E-03
DAV:   2    -0.906405313004E+02    0.92710E-06   -0.26384E-06 11700   0.900E-03
   9 F= -.90640531E+02 E0= -.90638964E+02  d E =-.929138E-04
       N       E                     dE             d eps       ncg     rms          rms(c)
DAV:   1    -0.906405319627E+02    0.26475E-06   -0.15064E-05 11484   0.205E-02    0.180E-03
DAV:   2    -0.906405317814E+02    0.18128E-06   -0.69241E-07  7062   0.488E-03
  10 F= -.90640532E+02 E0= -.90638964E+02  d E =-.933948E-04
       N       E                     dE             d eps       ncg     rms          rms(c)
DAV:   1    -0.906405319513E+02    0.11374E-07   -0.56102E-06 12102   0.135E-02    0.116E-03
DAV:   2    -0.906405319293E+02    0.22082E-07   -0.18621E-07  6042   0.249E-03
  11 F= -.90640532E+02 E0= -.90638964E+02  d E =-.935427E-04
       N       E                     dE             d eps       ncg     rms          rms(c)
DAV:   1    -0.906405448630E+02   -0.12912E-04   -0.37302E-04 11100   0.103E-01    0.990E-03
DAV:   2    -0.906405397129E+02    0.51501E-05   -0.19641E-05 13434   0.250E-02    0.390E-03
DAV:   3    -0.906405394215E+02    0.29144E-06   -0.37708E-06 12696   0.901E-03
  12 F= -.90640539E+02 E0= -.90638970E+02  d E =-.749219E-05
       N       E                     dE             d eps       ncg     rms          rms(c)
DAV:   1    -0.906405395095E+02    0.20344E-06   -0.25020E-06  9864   0.837E-03    0.135E-03
DAV:   2    -0.906405394578E+02    0.51707E-07   -0.20571E-07  6156   0.282E-03
  13 F= -.90640539E+02 E0= -.90638970E+02  d E =-.752849E-05
       N       E                     dE             d eps       ncg     rms          rms(c)
DAV:   1    -0.906405395074E+02    0.20159E-08   -0.55145E-06 11616   0.129E-02    0.132E-03
DAV:   2    -0.906405394544E+02    0.52998E-07   -0.23576E-07  5994   0.285E-03
  14 F= -.90640539E+02 E0= -.90638970E+02  d E =-.752519E-05
       N       E                     dE             d eps       ncg     rms          rms(c)
DAV:   1    -0.906405434176E+02   -0.39101E-05   -0.24175E-04 10590   0.900E-02    0.531E-03
DAV:   2    -0.906405421190E+02    0.12986E-05   -0.64986E-06 13266   0.145E-02    0.249E-03
DAV:   3    -0.906405418403E+02    0.27867E-06   -0.89666E-07  7722   0.482E-03
  15 F= -.90640542E+02 E0= -.90638973E+02  d E =-.238589E-05
       N       E                     dE             d eps       ncg     rms          rms(c)
DAV:   1    -0.906405417557E+02    0.36330E-06   -0.98767E-07  6324   0.582E-03    0.240E-04
DAV:   2    -0.906405417534E+02    0.23058E-08   -0.53593E-08  5910   0.142E-03
  16 F= -.90640542E+02 E0= -.90638973E+02  d E =-.229895E-05
       N       E                     dE             d eps       ncg     rms          rms(c)
DAV:   1    -0.906405427345E+02   -0.97881E-06   -0.66904E-05 10914   0.460E-02    0.304E-03
DAV:   2    -0.906405423616E+02    0.37286E-06   -0.16904E-06  9282   0.775E-03
  17 F= -.90640542E+02 E0= -.90638974E+02  d E =-.608253E-06
       N       E                     dE             d eps       ncg     rms          rms(c)
DAV:   1    -0.906405423557E+02    0.37882E-06   -0.11604E-06  6342   0.563E-03    0.549E-04
DAV:   2    -0.906405423519E+02    0.38065E-08   -0.10706E-07  5652   0.194E-03
  18 F= -.90640542E+02 E0= -.90638974E+02  d E =-.598488E-06
       N       E                     dE             d eps       ncg     rms          rms(c)
DAV:   1    -0.906405423762E+02   -0.20546E-07   -0.12985E-06  6258   0.649E-03    0.358E-04
DAV:   2    -0.906405423777E+02   -0.15034E-08   -0.68962E-08  5520   0.158E-03
  19 F= -.90640542E+02 E0= -.90638974E+02  d E =-.624344E-06
       N       E                     dE             d eps       ncg     rms          rms(c)
DAV:   1    -0.906405428892E+02   -0.51301E-06   -0.23029E-05 11172   0.270E-02    0.187E-03
DAV:   2    -0.906405427436E+02    0.14567E-06   -0.67615E-07  6888   0.462E-03
  20 F= -.90640543E+02 E0= -.90638974E+02  d E =-.365837E-06
