Geometry                                
           1
     5.697000    0.000000    0.000000
     0.000000    4.047900    0.000000
     0.000000    0.000000    6.204200
   B 
    14
Direct configuration=     1
   0.52123000  0.50000000  0.63796000
   0.47877000  0.50000000  0.36204000
   0.97877000  0.50000000  0.63796000
   0.02123000  0.50000000  0.36204000
   0.60090000  0.50000000  0.89991000
   0.39910000  0.50000000  0.10009000
   0.89910000  0.50000000  0.89991000
   0.10090000  0.50000000  0.10009000
   0.75000000  0.79171000  0.72973000
   0.25000000  0.20829000  0.27027000
   0.75000000  0.20829000  0.72973000
   0.25000000  0.79171000  0.27027000
   0.25000000  0.50000000  0.52367000
   0.75000000  0.50000000  0.47633000
Geometry                                
           1
     5.721641    0.000000    0.000000
     0.000000    4.048653    0.000000
     0.000000    0.000000    6.190671
   B 
    14
Direct configuration=     2
   0.52119631  0.50000000  0.63835710
   0.47880369  0.50000000  0.36164290
   0.97880369  0.50000000  0.63835710
   0.02119631  0.50000000  0.36164290
   0.59385266  0.50000000  0.90206147
   0.40614734  0.50000000  0.09793853
   0.90614734  0.50000000  0.90206147
   0.09385266  0.50000000  0.09793853
   0.75000000  0.79244666  0.72912350
   0.25000000  0.20755334  0.27087650
   0.75000000  0.20755334  0.72912350
   0.25000000  0.79244666  0.27087650
   0.25000000  0.50000000  0.52422449
   0.75000000  0.50000000  0.47577551
Geometry                                
           1
     5.706599    0.000000    0.000000
     0.000000    4.048193    0.000000
     0.000000    0.000000    6.198930
   B 
    14
Direct configuration=     3
   0.52121679  0.50000000  0.63811416
   0.47878321  0.50000000  0.36188584
   0.97878321  0.50000000  0.63811416
   0.02121679  0.50000000  0.36188584
   0.59813616  0.50000000  0.90074524
   0.40186384  0.50000000  0.09925476
   0.90186384  0.50000000  0.90074524
   0.09813616  0.50000000  0.09925476
   0.75000000  0.79199705  0.72949454
   0.25000000  0.20800295  0.27050546
   0.75000000  0.20800295  0.72949454
   0.25000000  0.79199705  0.27050546
   0.25000000  0.50000000  0.52388526
   0.75000000  0.50000000  0.47611474
Geometry                                
           1
     5.703439    0.000000    0.000000
     0.000000    4.045314    0.000000
     0.000000    0.000000    6.191983
   B 
    14
Direct configuration=     4
   0.52144912  0.50000000  0.63835954
   0.47855088  0.50000000  0.36164046
   0.97855088  0.50000000  0.63835954
   0.02144912  0.50000000  0.36164046
   0.59756266  0.50000000  0.89993510
   0.40243734  0.50000000  0.10006490
   0.90243734  0.50000000  0.89993510
   0.09756266  0.50000000  0.10006490
   0.75000000  0.79142532  0.72960079
   0.25000000  0.20857468  0.27039921
   0.75000000  0.20857468  0.72960079
   0.25000000  0.79142532  0.27039921
   0.25000000  0.50000000  0.52390611
   0.75000000  0.50000000  0.47609389
Geometry                                
           1
     5.704570    0.000000    0.000000
     0.000000    4.046345    0.000000
     0.000000    0.000000    6.194470
   B 
    14
Direct configuration=     5
   0.52136589  0.50000000  0.63827159
   0.47863411  0.50000000  0.36172841
   0.97863411  0.50000000  0.63827159
   0.02136589  0.50000000  0.36172841
   0.59776811  0.50000000  0.90022548
   0.40223189  0.50000000  0.09977452
   0.90223189  0.50000000  0.90022548
   0.09776811  0.50000000  0.09977452
   0.75000000  0.79163016  0.72956271
   0.25000000  0.20836984  0.27043729
   0.75000000  0.20836984  0.72956271
   0.25000000  0.79163016  0.27043729
   0.25000000  0.50000000  0.52389864
   0.75000000  0.50000000  0.47610136
Geometry                                
           1
     5.702682    0.000000    0.000000
     0.000000    4.044411    0.000000
    -0.000000    0.000000    6.196948
   B 
    14
Direct configuration=     6
   0.52126829  0.50000000  0.63797273
   0.47873171  0.50000000  0.36202727
   0.97873171  0.50000000  0.63797273
   0.02126829  0.50000000  0.36202727
   0.59756621  0.50000000  0.89999143
   0.40243379  0.50000000  0.10000857
   0.90243379  0.50000000  0.89999143
   0.09756621  0.50000000  0.10000857
   0.75000000  0.79150270  0.72962272
   0.25000000  0.20849730  0.27037728
   0.75000000  0.20849730  0.72962272
   0.25000000  0.79150270  0.27037728
   0.25000000  0.50000000  0.52406557
   0.75000000  0.50000000  0.47593443
Geometry                                
           1
     5.702558    0.000000    0.000000
     0.000000    4.044284    0.000000
    -0.000000    0.000000    6.197110
   B 
    14
Direct configuration=     7
   0.52126189  0.50000000  0.63795315
   0.47873811  0.50000000  0.36204685
   0.97873811  0.50000000  0.63795315
   0.02126189  0.50000000  0.36204685
   0.59755298  0.50000000  0.89997610
   0.40244702  0.50000000  0.10002390
   0.90244702  0.50000000  0.89997610
   0.09755298  0.50000000  0.10002390
   0.75000000  0.79149434  0.72962665
   0.25000000  0.20850566  0.27037335
   0.75000000  0.20850566  0.72962665
   0.25000000  0.79149434  0.27037335
   0.25000000  0.50000000  0.52407651
   0.75000000  0.50000000  0.47592349
Geometry                                
           1
     5.701874    0.000000    0.000000
     0.000000    4.043586    0.000000
    -0.000000    0.000000    6.201066
   B 
    14
Direct configuration=     8
   0.52132860  0.50000000  0.63795821
   0.47867140  0.50000000  0.36204179
   0.97867140  0.50000000  0.63795821
   0.02132860  0.50000000  0.36204179
   0.59747727  0.50000000  0.89989826
   0.40252273  0.50000000  0.10010174
   0.90252273  0.50000000  0.89989826
   0.09747727  0.50000000  0.10010174
   0.75000000  0.79157011  0.72962109
   0.25000000  0.20842989  0.27037891
   0.75000000  0.20842989  0.72962109
   0.25000000  0.79157011  0.27037891
   0.25000000  0.50000000  0.52408087
   0.75000000  0.50000000  0.47591913
Geometry                                
           1
     5.701786    0.000000    0.000000
     0.000000    4.043497    0.000000
    -0.000000    0.000000    6.201573
   B 
    14
Direct configuration=     9
   0.52133714  0.50000000  0.63795885
   0.47866286  0.50000000  0.36204115
   0.97866286  0.50000000  0.63795885
   0.02133714  0.50000000  0.36204115
   0.59746758  0.50000000  0.89988830
   0.40253242  0.50000000  0.10011170
   0.90253242  0.50000000  0.89988830
   0.09746758  0.50000000  0.10011170
   0.75000000  0.79157981  0.72962038
   0.25000000  0.20842019  0.27037962
   0.75000000  0.20842019  0.72962038
   0.25000000  0.79157981  0.27037962
   0.25000000  0.50000000  0.52408143
   0.75000000  0.50000000  0.47591857
Geometry                                
           1
     5.701823    0.000000    0.000000
     0.000000    4.043534    0.000000
    -0.000000    0.000000    6.201362
   B 
    14
Direct configuration=    10
   0.52133358  0.50000000  0.63795858
   0.47866642  0.50000000  0.36204142
   0.97866642  0.50000000  0.63795858
   0.02133358  0.50000000  0.36204142
   0.59747162  0.50000000  0.89989245
   0.40252838  0.50000000  0.10010755
   0.90252838  0.50000000  0.89989245
   0.09747162  0.50000000  0.10010755
   0.75000000  0.79157576  0.72962067
   0.25000000  0.20842424  0.27037933
   0.75000000  0.20842424  0.72962067
   0.25000000  0.79157576  0.27037933
   0.25000000  0.50000000  0.52408119
   0.75000000  0.50000000  0.47591881
Geometry                                
           1
     5.701848    0.000000    0.000000
     0.000000    4.043560    0.000000
    -0.000000    0.000000    6.201214
   B 
    14
Direct configuration=    11
   0.52133109  0.50000000  0.63795840
   0.47866891  0.50000000  0.36204160
   0.97866891  0.50000000  0.63795840
   0.02133109  0.50000000  0.36204160
   0.59747445  0.50000000  0.89989536
   0.40252555  0.50000000  0.10010464
   0.90252555  0.50000000  0.89989536
   0.09747445  0.50000000  0.10010464
   0.75000000  0.79157293  0.72962088
   0.25000000  0.20842707  0.27037912
   0.75000000  0.20842707  0.72962088
   0.25000000  0.79157293  0.27037912
   0.25000000  0.50000000  0.52408103
   0.75000000  0.50000000  0.47591897
Geometry                                
           1
     5.701114    0.000000    0.000000
     0.000000    4.043917    0.000000
    -0.000000    0.000000    6.201550
   B 
    14
Direct configuration=    12
   0.52133428  0.50000000  0.63795419
   0.47866572  0.50000000  0.36204581
   0.97866572  0.50000000  0.63795419
   0.02133428  0.50000000  0.36204581
   0.59746274  0.50000000  0.89988449
   0.40253726  0.50000000  0.10011551
   0.90253726  0.50000000  0.89988449
   0.09746274  0.50000000  0.10011551
   0.75000000  0.79155630  0.72960594
   0.25000000  0.20844370  0.27039406
   0.75000000  0.20844370  0.72960594
   0.25000000  0.79155630  0.27039406
   0.25000000  0.50000000  0.52404296
   0.75000000  0.50000000  0.47595704
Geometry                                
           1
     5.701067    0.000000    0.000000
     0.000000    4.043939    0.000000
    -0.000000    0.000000    6.201571
   B 
    14
Direct configuration=    13
   0.52133448  0.50000000  0.63795392
   0.47866552  0.50000000  0.36204608
   0.97866552  0.50000000  0.63795392
   0.02133448  0.50000000  0.36204608
   0.59746199  0.50000000  0.89988380
   0.40253801  0.50000000  0.10011620
   0.90253801  0.50000000  0.89988380
   0.09746199  0.50000000  0.10011620
   0.75000000  0.79155524  0.72960498
   0.25000000  0.20844476  0.27039502
   0.75000000  0.20844476  0.72960498
   0.25000000  0.79155524  0.27039502
   0.25000000  0.50000000  0.52404052
   0.75000000  0.50000000  0.47595948
Geometry                                
           1
     5.700973    0.000000    0.000000
     0.000000    4.043985    0.000000
    -0.000000    0.000000    6.201614
   B 
    14
Direct configuration=    14
   0.52133489  0.50000000  0.63795338
   0.47866511  0.50000000  0.36204662
   0.97866511  0.50000000  0.63795338
   0.02133489  0.50000000  0.36204662
   0.59746049  0.50000000  0.89988241
   0.40253951  0.50000000  0.10011759
   0.90253951  0.50000000  0.89988241
   0.09746049  0.50000000  0.10011759
   0.75000000  0.79155310  0.72960306
   0.25000000  0.20844690  0.27039694
   0.75000000  0.20844690  0.72960306
   0.25000000  0.79155310  0.27039694
   0.25000000  0.50000000  0.52403565
   0.75000000  0.50000000  0.47596435
Geometry                                
           1
     5.700867    0.000000   -0.000000
     0.000000    4.044272    0.000000
    -0.000000    0.000000    6.201897
   B 
    14
Direct configuration=    15
   0.52130030  0.50000000  0.63795354
   0.47869970  0.50000000  0.36204646
   0.97869970  0.50000000  0.63795354
   0.02130030  0.50000000  0.36204646
   0.59744781  0.50000000  0.89987281
   0.40255219  0.50000000  0.10012719
   0.90255219  0.50000000  0.89987281
   0.09744781  0.50000000  0.10012719
   0.75000000  0.79156064  0.72958709
   0.25000000  0.20843936  0.27041291
   0.75000000  0.20843936  0.72958709
   0.25000000  0.79156064  0.27041291
   0.25000000  0.50000000  0.52401701
   0.75000000  0.50000000  0.47598299
Geometry                                
           1
     5.700874    0.000000    0.000000
     0.000000    4.044254    0.000000
    -0.000000    0.000000    6.201880
   B 
    14
Direct configuration=    16
   0.52130243  0.50000000  0.63795353
   0.47869757  0.50000000  0.36204647
   0.97869757  0.50000000  0.63795353
   0.02130243  0.50000000  0.36204647
   0.59744859  0.50000000  0.89987340
   0.40255141  0.50000000  0.10012660
   0.90255141  0.50000000  0.89987340
   0.09744859  0.50000000  0.10012660
   0.75000000  0.79156018  0.72958807
   0.25000000  0.20843982  0.27041193
   0.75000000  0.20843982  0.72958807
   0.25000000  0.79156018  0.27041193
   0.25000000  0.50000000  0.52401816
   0.75000000  0.50000000  0.47598184
Geometry                                
           1
     5.700972    0.000000    0.000000
     0.000000    4.044147    0.000000
    -0.000000    0.000000    6.201885
   B 
    14
Direct configuration=    17
   0.52129237  0.50000000  0.63796106
   0.47870763  0.50000000  0.36203894
   0.97870763  0.50000000  0.63796106
   0.02129237  0.50000000  0.36203894
   0.59745186  0.50000000  0.89986254
   0.40254814  0.50000000  0.10013746
   0.90254814  0.50000000  0.89986254
   0.09745186  0.50000000  0.10013746
   0.75000000  0.79156788  0.72958260
   0.25000000  0.20843212  0.27041740
   0.75000000  0.20843212  0.72958260
   0.25000000  0.79156788  0.27041740
   0.25000000  0.50000000  0.52400262
   0.75000000  0.50000000  0.47599738
Geometry                                
           1
     5.700965    0.000000    0.000000
     0.000000    4.044156    0.000000
    -0.000000    0.000000    6.201884
   B 
    14
Direct configuration=    18
   0.52129317  0.50000000  0.63796046
   0.47870683  0.50000000  0.36203954
   0.97870683  0.50000000  0.63796046
   0.02129317  0.50000000  0.36203954
   0.59745160  0.50000000  0.89986340
   0.40254840  0.50000000  0.10013660
   0.90254840  0.50000000  0.89986340
   0.09745160  0.50000000  0.10013660
   0.75000000  0.79156727  0.72958303
   0.25000000  0.20843273  0.27041697
   0.75000000  0.20843273  0.72958303
   0.25000000  0.79156727  0.27041697
   0.25000000  0.50000000  0.52400385
   0.75000000  0.50000000  0.47599615
Geometry                                
           1
     5.700951    0.000000    0.000000
     0.000000    4.044171    0.000000
    -0.000000    0.000000    6.201884
   B 
    14
Direct configuration=    19
   0.52129457  0.50000000  0.63795941
   0.47870543  0.50000000  0.36204059
   0.97870543  0.50000000  0.63795941
   0.02129457  0.50000000  0.36204059
   0.59745114  0.50000000  0.89986491
   0.40254886  0.50000000  0.10013509
   0.90254886  0.50000000  0.89986491
   0.09745114  0.50000000  0.10013509
   0.75000000  0.79156620  0.72958380
   0.25000000  0.20843380  0.27041620
   0.75000000  0.20843380  0.72958380
   0.25000000  0.79156620  0.27041620
   0.25000000  0.50000000  0.52400602
   0.75000000  0.50000000  0.47599398
Geometry                                
           1
     5.700971    0.000000    0.000000
     0.000000    4.044058    0.000000
    -0.000000    0.000000    6.201871
   B 
    14
Direct configuration=    20
   0.52128988  0.50000000  0.63795770
   0.47871012  0.50000000  0.36204230
   0.97871012  0.50000000  0.63795770
   0.02128988  0.50000000  0.36204230
   0.59744966  0.50000000  0.89986832
   0.40255034  0.50000000  0.10013168
   0.90255034  0.50000000  0.89986832
   0.09744966  0.50000000  0.10013168
   0.75000000  0.79156493  0.72957940
   0.25000000  0.20843507  0.27042060
   0.75000000  0.20843507  0.72957940
   0.25000000  0.79156493  0.27042060
   0.25000000  0.50000000  0.52399303
   0.75000000  0.50000000  0.47600697
