  14  14   0   0
  0.1021318E+02  0.5700971E-09  0.4044058E-09  0.6201871E-09  0.5000000E-15
  1.000000000000000E-004
  CAR 
 Dielectric                              
     50.85472301    -15.72165050 4000      1.88862887      1.00000000
    -15.722  0.0000E+00  0.0000E+00
    -15.705  0.0000E+00  0.0000E+00
    -15.688  0.0000E+00  0.0000E+00
    -15.672  0.0000E+00  0.0000E+00
    -15.655  0.0000E+00  0.0000E+00
    -15.638  0.0000E+00  0.0000E+00
    -15.622  0.0000E+00  0.0000E+00
    -15.605  0.0000E+00  0.0000E+00
    -15.588  0.0000E+00  0.0000E+00
    -15.572  0.0000E+00  0.0000E+00
    -15.555  0.0000E+00  0.0000E+00
    -15.539  0.0000E+00  0.0000E+00
    -15.522  0.0000E+00  0.0000E+00
    -15.505  0.0000E+00  0.0000E+00
    -15.489  0.0000E+00  0.0000E+00
    -15.472  0.0000E+00  0.0000E+00
    -15.455  0.0000E+00  0.0000E+00
    -15.439  0.0000E+00  0.0000E+00
    -15.422  0.0000E+00  0.0000E+00
    -15.405  0.0000E+00  0.0000E+00
    -15.389  0.0000E+00  0.0000E+00
    -15.372  0.0000E+00  0.0000E+00
    -15.355  0.0000E+00  0.0000E+00
    -15.339  0.0000E+00  0.0000E+00
    -15.322  0.0000E+00  0.0000E+00
    -15.305  0.0000E+00  0.0000E+00
    -15.289  0.0000E+00  0.0000E+00
    -15.272  0.0000E+00  0.0000E+00
    -15.255  0.0000E+00  0.0000E+00
    -15.239  0.0000E+00  0.0000E+00
    -15.222  0.0000E+00  0.0000E+00
    -15.206  0.0000E+00  0.0000E+00
    -15.189  0.0000E+00  0.0000E+00
    -15.172  0.0000E+00  0.0000E+00
    -15.156  0.0000E+00  0.0000E+00
    -15.139  0.0000E+00  0.0000E+00
    -15.122  0.0000E+00  0.0000E+00
    -15.106  0.0000E+00  0.0000E+00
    -15.089  0.0000E+00  0.0000E+00
    -15.072  0.0000E+00  0.0000E+00
    -15.056  0.0000E+00  0.0000E+00
    -15.039  0.0000E+00  0.0000E+00
    -15.022  0.0000E+00  0.0000E+00
    -15.006  0.0000E+00  0.0000E+00
    -14.989  0.0000E+00  0.0000E+00
    -14.972  0.0000E+00  0.0000E+00
    -14.956  0.0000E+00  0.0000E+00
    -14.939  0.0000E+00  0.0000E+00
    -14.923  0.0000E+00  0.0000E+00
    -14.906  0.0000E+00  0.0000E+00
    -14.889  0.0000E+00  0.0000E+00
    -14.873  0.0000E+00  0.0000E+00
    -14.856  0.0000E+00  0.0000E+00
    -14.839  0.0000E+00  0.0000E+00
    -14.823  0.0000E+00  0.0000E+00
    -14.806  0.0000E+00  0.0000E+00
    -14.789  0.0000E+00  0.0000E+00
    -14.773  0.0000E+00  0.0000E+00
    -14.756  0.0000E+00  0.0000E+00
    -14.739  0.0000E+00  0.0000E+00
    -14.723  0.0000E+00  0.0000E+00
    -14.706  0.0000E+00  0.0000E+00
    -14.689  0.0000E+00  0.0000E+00
    -14.673  0.0000E+00  0.0000E+00
    -14.656  0.0000E+00  0.0000E+00
    -14.640  0.0000E+00  0.0000E+00
    -14.623  0.0000E+00  0.0000E+00
    -14.606  0.0000E+00  0.0000E+00
    -14.590  0.0000E+00  0.0000E+00
    -14.573  0.0000E+00  0.0000E+00
    -14.556  0.0000E+00  0.0000E+00
    -14.540  0.0000E+00  0.0000E+00
    -14.523  0.0000E+00  0.0000E+00
    -14.506  0.0000E+00  0.0000E+00
    -14.490  0.0000E+00  0.0000E+00
    -14.473  0.0000E+00  0.0000E+00
    -14.456  0.0000E+00  0.0000E+00
    -14.440  0.0000E+00  0.0000E+00
    -14.423  0.0000E+00  0.0000E+00
    -14.406  0.0000E+00  0.0000E+00
    -14.390  0.0000E+00  0.0000E+00
    -14.373  0.0000E+00  0.0000E+00
    -14.356  0.0000E+00  0.0000E+00
    -14.340  0.0000E+00  0.0000E+00
    -14.323  0.0000E+00  0.0000E+00
    -14.307  0.0000E+00  0.0000E+00
    -14.290  0.0000E+00  0.0000E+00
    -14.273  0.0000E+00  0.0000E+00
    -14.257  0.0000E+00  0.0000E+00
    -14.240  0.0000E+00  0.0000E+00
    -14.223  0.0000E+00  0.0000E+00
    -14.207  0.0000E+00  0.0000E+00
    -14.190  0.0000E+00  0.0000E+00
    -14.173  0.0000E+00  0.0000E+00
    -14.157  0.0000E+00  0.0000E+00
    -14.140  0.0000E+00  0.0000E+00
    -14.123  0.0000E+00  0.0000E+00
    -14.107  0.0000E+00  0.0000E+00
    -14.090  0.0000E+00  0.0000E+00
    -14.073  0.0000E+00  0.0000E+00
    -14.057  0.0000E+00  0.0000E+00
    -14.040  0.0000E+00  0.0000E+00
    -14.024  0.0000E+00  0.0000E+00
    -14.007  0.0000E+00  0.0000E+00
    -13.990  0.0000E+00  0.0000E+00
    -13.974  0.0000E+00  0.0000E+00
    -13.957  0.0000E+00  0.0000E+00
    -13.940  0.0000E+00  0.0000E+00
    -13.924  0.0000E+00  0.0000E+00
    -13.907  0.0000E+00  0.0000E+00
    -13.890  0.0000E+00  0.0000E+00
    -13.874  0.0000E+00  0.0000E+00
    -13.857  0.0000E+00  0.0000E+00
    -13.840  0.0000E+00  0.0000E+00
    -13.824  0.0000E+00  0.0000E+00
    -13.807  0.0000E+00  0.0000E+00
    -13.790  0.0000E+00  0.0000E+00
    -13.774  0.0000E+00  0.0000E+00
    -13.757  0.0000E+00  0.0000E+00
    -13.741  0.0000E+00  0.0000E+00
    -13.724  0.0000E+00  0.0000E+00
    -13.707  0.0000E+00  0.0000E+00
    -13.691  0.0000E+00  0.0000E+00
    -13.674  0.0000E+00  0.0000E+00
    -13.657  0.0000E+00  0.0000E+00
    -13.641  0.0000E+00  0.0000E+00
    -13.624  0.0000E+00  0.0000E+00
    -13.607  0.0000E+00  0.0000E+00
    -13.591  0.0000E+00  0.0000E+00
    -13.574  0.0000E+00  0.0000E+00
    -13.557  0.0000E+00  0.0000E+00
    -13.541  0.0000E+00  0.0000E+00
    -13.524  0.0000E+00  0.0000E+00
    -13.507  0.0000E+00  0.0000E+00
    -13.491  0.0000E+00  0.0000E+00
    -13.474  0.0000E+00  0.0000E+00
    -13.457  0.0000E+00  0.0000E+00
    -13.441  0.0000E+00  0.0000E+00
    -13.424  0.0000E+00  0.0000E+00
    -13.408  0.0000E+00  0.0000E+00
    -13.391  0.0000E+00  0.0000E+00
    -13.374  0.0000E+00  0.0000E+00
    -13.358  0.0000E+00  0.0000E+00
    -13.341  0.0000E+00  0.0000E+00
    -13.324  0.0000E+00  0.0000E+00
    -13.308  0.0000E+00  0.0000E+00
    -13.291  0.0000E+00  0.0000E+00
    -13.274  0.0000E+00  0.0000E+00
    -13.258  0.0000E+00  0.0000E+00
    -13.241  0.0000E+00  0.0000E+00
    -13.224  0.0000E+00  0.0000E+00
    -13.208  0.0000E+00  0.0000E+00
    -13.191  0.0000E+00  0.0000E+00
    -13.174  0.0000E+00  0.0000E+00
    -13.158  0.0000E+00  0.0000E+00
    -13.141  0.0000E+00  0.0000E+00
    -13.125  0.0000E+00  0.0000E+00
    -13.108  0.0000E+00  0.0000E+00
    -13.091  0.0000E+00  0.0000E+00
    -13.075  0.0000E+00  0.0000E+00
    -13.058  0.0000E+00  0.0000E+00
    -13.041  0.0000E+00  0.0000E+00
    -13.025  0.0000E+00  0.0000E+00
    -13.008  0.0000E+00  0.0000E+00
    -12.991  0.0000E+00  0.0000E+00
    -12.975  0.0000E+00  0.0000E+00
    -12.958  0.0000E+00  0.0000E+00
    -12.941  0.0000E+00  0.0000E+00
    -12.925  0.0000E+00  0.0000E+00
    -12.908  0.0000E+00  0.0000E+00
    -12.891  0.0000E+00  0.0000E+00
    -12.875  0.0000E+00  0.0000E+00
    -12.858  0.0000E+00  0.0000E+00
    -12.842  0.0000E+00  0.0000E+00
    -12.825  0.0000E+00  0.0000E+00
    -12.808  0.0000E+00  0.0000E+00
    -12.792  0.0000E+00  0.0000E+00
    -12.775  0.0000E+00  0.0000E+00
    -12.758  0.0000E+00  0.0000E+00
    -12.742  0.4442E-11  0.7396E-13
    -12.725  0.2095E-05  0.3488E-07
    -12.708  0.5952E-02  0.9913E-04
    -12.692  0.2236E+00  0.3822E-02
    -12.675  0.6984E+00  0.1545E-01
    -12.658  0.1148E+01  0.3456E-01
    -12.642  0.1355E+01  0.5713E-01
    -12.625  0.1663E+01  0.8481E-01
    -12.608  0.2227E+01  0.1219E+00
    -12.592  0.2518E+01  0.1638E+00
    -12.575  0.2801E+01  0.2104E+00
    -12.558  0.2974E+01  0.2600E+00
    -12.542  0.3252E+01  0.3141E+00
    -12.525  0.3251E+01  0.3682E+00
    -12.509  0.3237E+01  0.4221E+00
    -12.492  0.3102E+01  0.4738E+00
    -12.475  0.3370E+01  0.5299E+00
    -12.459  0.4021E+01  0.5968E+00
    -12.442  0.3685E+01  0.6582E+00
    -12.425  0.4222E+01  0.7285E+00
    -12.409  0.4281E+01  0.7997E+00
    -12.392  0.4772E+01  0.8792E+00
    -12.375  0.4125E+01  0.9478E+00
    -12.359  0.4688E+01  0.1026E+01
    -12.342  0.4466E+01  0.1100E+01
    -12.325  0.4506E+01  0.1175E+01
    -12.309  0.3992E+01  0.1242E+01
    -12.292  0.3781E+01  0.1305E+01
    -12.275  0.3258E+01  0.1359E+01
    -12.259  0.2700E+01  0.1404E+01
    -12.242  0.3139E+01  0.1456E+01
    -12.226  0.3057E+01  0.1507E+01
    -12.209  0.4007E+01  0.1574E+01
    -12.192  0.2893E+01  0.1622E+01
    -12.176  0.2758E+01  0.1668E+01
    -12.159  0.2111E+01  0.1703E+01
    -12.142  0.2319E+01  0.1742E+01
    -12.126  0.2190E+01  0.1778E+01
    -12.109  0.3542E+01  0.1837E+01
    -12.092  0.3539E+01  0.1896E+01
    -12.076  0.2635E+01  0.1940E+01
    -12.059  0.2457E+01  0.1981E+01
    -12.042  0.2018E+01  0.2014E+01
    -12.026  0.1484E+01  0.2039E+01
    -12.009  0.2163E+01  0.2075E+01
    -11.992  0.3505E+01  0.2133E+01
    -11.976  0.3615E+01  0.2193E+01
    -11.959  0.3045E+01  0.2244E+01
    -11.942  0.1558E+01  0.2270E+01
    -11.926  0.2197E+01  0.2307E+01
    -11.909  0.1357E+01  0.2329E+01
    -11.893  0.3024E+01  0.2380E+01
    -11.876  0.2627E+01  0.2423E+01
    -11.859  0.3893E+01  0.2488E+01
    -11.843  0.2997E+01  0.2538E+01
    -11.826  0.1755E+01  0.2567E+01
    -11.809  0.2501E+01  0.2609E+01
    -11.793  0.2103E+01  0.2644E+01
    -11.776  0.2473E+01  0.2685E+01
    -11.759  0.3395E+01  0.2742E+01
    -11.743  0.3924E+01  0.2807E+01
    -11.726  0.3507E+01  0.2865E+01
    -11.709  0.2806E+01  0.2912E+01
    -11.693  0.2977E+01  0.2962E+01
    -11.676  0.3410E+01  0.3018E+01
    -11.659  0.3561E+01  0.3078E+01
    -11.643  0.4094E+01  0.3146E+01
    -11.626  0.4003E+01  0.3212E+01
    -11.610  0.3585E+01  0.3272E+01
    -11.593  0.3189E+01  0.3325E+01
    -11.576  0.3238E+01  0.3379E+01
    -11.560  0.3724E+01  0.3441E+01
    -11.543  0.3141E+01  0.3493E+01
    -11.526  0.3723E+01  0.3555E+01
    -11.510  0.3147E+01  0.3608E+01
    -11.493  0.3636E+01  0.3668E+01
    -11.476  0.2390E+01  0.3708E+01
    -11.460  0.2783E+01  0.3754E+01
    -11.443  0.2347E+01  0.3794E+01
    -11.426  0.2305E+01  0.3832E+01
    -11.410  0.2108E+01  0.3867E+01
    -11.393  0.1592E+01  0.3894E+01
    -11.376  0.1624E+01  0.3921E+01
    -11.360  0.8724E+00  0.3935E+01
    -11.343  0.1274E+01  0.3956E+01
    -11.327  0.8410E+00  0.3970E+01
    -11.310  0.8701E+00  0.3985E+01
    -11.293  0.4539E+00  0.3992E+01
    -11.277  0.3881E+00  0.3999E+01
    -11.260  0.7299E-01  0.4000E+01
    -11.243  0.6563E-03  0.4000E+01
    -11.227  0.5156E-07  0.4000E+01
    -11.210  0.1976E-13  0.4000E+01
    -11.193  0.0000E+00  0.4000E+01
    -11.177  0.0000E+00  0.4000E+01
    -11.160  0.0000E+00  0.4000E+01
    -11.143  0.0000E+00  0.4000E+01
    -11.127  0.0000E+00  0.4000E+01
    -11.110  0.0000E+00  0.4000E+01
    -11.093  0.0000E+00  0.4000E+01
    -11.077  0.0000E+00  0.4000E+01
    -11.060  0.0000E+00  0.4000E+01
    -11.043  0.0000E+00  0.4000E+01
    -11.027  0.0000E+00  0.4000E+01
    -11.010  0.0000E+00  0.4000E+01
    -10.994  0.0000E+00  0.4000E+01
    -10.977  0.0000E+00  0.4000E+01
    -10.960  0.0000E+00  0.4000E+01
    -10.944  0.0000E+00  0.4000E+01
    -10.927  0.0000E+00  0.4000E+01
    -10.910  0.0000E+00  0.4000E+01
    -10.894  0.0000E+00  0.4000E+01
    -10.877  0.0000E+00  0.4000E+01
    -10.860  0.0000E+00  0.4000E+01
    -10.844  0.0000E+00  0.4000E+01
    -10.827  0.0000E+00  0.4000E+01
    -10.810  0.0000E+00  0.4000E+01
    -10.794  0.0000E+00  0.4000E+01
    -10.777  0.0000E+00  0.4000E+01
    -10.760  0.0000E+00  0.4000E+01
    -10.744  0.0000E+00  0.4000E+01
    -10.727  0.0000E+00  0.4000E+01
    -10.711  0.0000E+00  0.4000E+01
    -10.694  0.0000E+00  0.4000E+01
    -10.677  0.0000E+00  0.4000E+01
    -10.661  0.0000E+00  0.4000E+01
    -10.644  0.0000E+00  0.4000E+01
    -10.627  0.0000E+00  0.4000E+01
    -10.611  0.0000E+00  0.4000E+01
    -10.594  0.0000E+00  0.4000E+01
    -10.577  0.0000E+00  0.4000E+01
    -10.561  0.0000E+00  0.4000E+01
    -10.544  0.0000E+00  0.4000E+01
    -10.527  0.0000E+00  0.4000E+01
    -10.511  0.0000E+00  0.4000E+01
    -10.494  0.0000E+00  0.4000E+01
    -10.477  0.0000E+00  0.4000E+01
    -10.461  0.0000E+00  0.4000E+01
    -10.444  0.0000E+00  0.4000E+01
    -10.428  0.0000E+00  0.4000E+01
    -10.411  0.0000E+00  0.4000E+01
    -10.394  0.0000E+00  0.4000E+01
    -10.378  0.0000E+00  0.4000E+01
    -10.361  0.0000E+00  0.4000E+01
    -10.344  0.0000E+00  0.4000E+01
    -10.328  0.0000E+00  0.4000E+01
    -10.311  0.0000E+00  0.4000E+01
    -10.294  0.0000E+00  0.4000E+01
    -10.278  0.0000E+00  0.4000E+01
    -10.261  0.0000E+00  0.4000E+01
    -10.244  0.0000E+00  0.4000E+01
    -10.228  0.0000E+00  0.4000E+01
    -10.211  0.0000E+00  0.4000E+01
    -10.194  0.0000E+00  0.4000E+01
    -10.178  0.0000E+00  0.4000E+01
    -10.161  0.0000E+00  0.4000E+01
    -10.144  0.0000E+00  0.4000E+01
    -10.128  0.0000E+00  0.4000E+01
    -10.111  0.0000E+00  0.4000E+01
    -10.095  0.0000E+00  0.4000E+01
    -10.078  0.0000E+00  0.4000E+01
    -10.061  0.0000E+00  0.4000E+01
    -10.045  0.0000E+00  0.4000E+01
    -10.028  0.0000E+00  0.4000E+01
    -10.011  0.0000E+00  0.4000E+01
     -9.995  0.0000E+00  0.4000E+01
     -9.978  0.0000E+00  0.4000E+01
     -9.961  0.0000E+00  0.4000E+01
     -9.945  0.0000E+00  0.4000E+01
     -9.928  0.0000E+00  0.4000E+01
     -9.911  0.0000E+00  0.4000E+01
     -9.895  0.0000E+00  0.4000E+01
     -9.878  0.0000E+00  0.4000E+01
     -9.861  0.0000E+00  0.4000E+01
     -9.845  0.0000E+00  0.4000E+01
     -9.828  0.0000E+00  0.4000E+01
     -9.812  0.0000E+00  0.4000E+01
     -9.795  0.0000E+00  0.4000E+01
     -9.778  0.0000E+00  0.4000E+01
     -9.762  0.0000E+00  0.4000E+01
     -9.745  0.0000E+00  0.4000E+01
     -9.728  0.0000E+00  0.4000E+01
     -9.712  0.0000E+00  0.4000E+01
     -9.695  0.0000E+00  0.4000E+01
     -9.678  0.0000E+00  0.4000E+01
     -9.662  0.0000E+00  0.4000E+01
     -9.645  0.0000E+00  0.4000E+01
     -9.628  0.0000E+00  0.4000E+01
     -9.612  0.0000E+00  0.4000E+01
     -9.595  0.0000E+00  0.4000E+01
     -9.578  0.0000E+00  0.4000E+01
     -9.562  0.0000E+00  0.4000E+01
     -9.545  0.0000E+00  0.4000E+01
     -9.528  0.0000E+00  0.4000E+01
     -9.512  0.0000E+00  0.4000E+01
     -9.495  0.0000E+00  0.4000E+01
     -9.479  0.0000E+00  0.4000E+01
     -9.462  0.0000E+00  0.4000E+01
     -9.445  0.0000E+00  0.4000E+01
     -9.429  0.0000E+00  0.4000E+01
     -9.412  0.0000E+00  0.4000E+01
     -9.395  0.0000E+00  0.4000E+01
     -9.379  0.0000E+00  0.4000E+01
     -9.362  0.0000E+00  0.4000E+01
     -9.345  0.0000E+00  0.4000E+01
     -9.329  0.0000E+00  0.4000E+01
     -9.312  0.0000E+00  0.4000E+01
     -9.295  0.0000E+00  0.4000E+01
     -9.279  0.0000E+00  0.4000E+01
     -9.262  0.0000E+00  0.4000E+01
     -9.245  0.0000E+00  0.4000E+01
     -9.229  0.0000E+00  0.4000E+01
     -9.212  0.0000E+00  0.4000E+01
     -9.196  0.0000E+00  0.4000E+01
     -9.179  0.0000E+00  0.4000E+01
     -9.162  0.0000E+00  0.4000E+01
     -9.146  0.0000E+00  0.4000E+01
     -9.129  0.0000E+00  0.4000E+01
     -9.112  0.0000E+00  0.4000E+01
     -9.096  0.0000E+00  0.4000E+01
     -9.079  0.0000E+00  0.4000E+01
     -9.062  0.0000E+00  0.4000E+01
     -9.046  0.0000E+00  0.4000E+01
     -9.029  0.0000E+00  0.4000E+01
     -9.012  0.0000E+00  0.4000E+01
     -8.996  0.0000E+00  0.4000E+01
     -8.979  0.0000E+00  0.4000E+01
     -8.962  0.0000E+00  0.4000E+01
     -8.946  0.0000E+00  0.4000E+01
     -8.929  0.0000E+00  0.4000E+01
     -8.913  0.0000E+00  0.4000E+01
     -8.896  0.0000E+00  0.4000E+01
     -8.879  0.7328E-16  0.4000E+01
     -8.863  0.1221E-08  0.4000E+01
     -8.846  0.9256E-04  0.4000E+01
     -8.829  0.4153E-01  0.4001E+01
     -8.813  0.4219E+00  0.4008E+01
     -8.796  0.9709E+00  0.4024E+01
     -8.779  0.1443E+01  0.4048E+01
     -8.763  0.1571E+01  0.4074E+01
     -8.746  0.1954E+01  0.4107E+01
     -8.729  0.2247E+01  0.4144E+01
     -8.713  0.3046E+01  0.4195E+01
     -8.696  0.3058E+01  0.4246E+01
     -8.679  0.2592E+01  0.4289E+01
     -8.663  0.4494E+01  0.4364E+01
     -8.646  0.5959E+01  0.4463E+01
     -8.629  0.6571E+01  0.4572E+01
     -8.613  0.6297E+01  0.4677E+01
     -8.596  0.6688E+01  0.4788E+01
     -8.580  0.6259E+01  0.4893E+01
     -8.563  0.7453E+01  0.5017E+01
     -8.546  0.6610E+01  0.5127E+01
     -8.530  0.6636E+01  0.5237E+01
     -8.513  0.6751E+01  0.5350E+01
     -8.496  0.6939E+01  0.5465E+01
     -8.480  0.6828E+01  0.5579E+01
     -8.463  0.6526E+01  0.5687E+01
     -8.446  0.7200E+01  0.5807E+01
     -8.430  0.5917E+01  0.5906E+01
     -8.413  0.5519E+01  0.5998E+01
     -8.396  0.4076E+01  0.6066E+01
     -8.380  0.3541E+01  0.6124E+01
     -8.363  0.3612E+01  0.6185E+01
     -8.346  0.4218E+01  0.6255E+01
     -8.330  0.5057E+01  0.6339E+01
     -8.313  0.4749E+01  0.6418E+01
     -8.297  0.5042E+01  0.6502E+01
     -8.280  0.5224E+01  0.6589E+01
     -8.263  0.5349E+01  0.6678E+01
     -8.247  0.4948E+01  0.6760E+01
     -8.230  0.4310E+01  0.6832E+01
     -8.213  0.5118E+01  0.6917E+01
     -8.197  0.4217E+01  0.6988E+01
     -8.180  0.4676E+01  0.7065E+01
     -8.163  0.4242E+01  0.7136E+01
     -8.147  0.5093E+01  0.7221E+01
     -8.130  0.4492E+01  0.7296E+01
     -8.113  0.4665E+01  0.7373E+01
     -8.097  0.4197E+01  0.7443E+01
     -8.080  0.4975E+01  0.7526E+01
     -8.063  0.3500E+01  0.7584E+01
     -8.047  0.3783E+01  0.7647E+01
     -8.030  0.3536E+01  0.7706E+01
     -8.014  0.2452E+01  0.7747E+01
     -7.997  0.1944E+01  0.7779E+01
     -7.980  0.2089E+01  0.7814E+01
     -7.964  0.1964E+01  0.7847E+01
     -7.947  0.1395E+01  0.7870E+01
     -7.930  0.1544E+01  0.7896E+01
     -7.914  0.1380E+01  0.7919E+01
     -7.897  0.9672E+00  0.7935E+01
     -7.880  0.6671E+00  0.7946E+01
     -7.864  0.7645E+00  0.7959E+01
     -7.847  0.6512E+00  0.7969E+01
     -7.830  0.7849E+00  0.7982E+01
     -7.814  0.4277E+00  0.7990E+01
     -7.797  0.1963E+00  0.7993E+01
     -7.780  0.3256E+00  0.7998E+01
     -7.764  0.1016E+00  0.8000E+01
     -7.747  0.9194E-03  0.8000E+01
     -7.730  0.5724E-07  0.8000E+01
     -7.714  0.1694E-13  0.8000E+01
     -7.697  0.0000E+00  0.8000E+01
     -7.681  0.0000E+00  0.8000E+01
     -7.664  0.0000E+00  0.8000E+01
     -7.647  0.0000E+00  0.8000E+01
     -7.631  0.0000E+00  0.8000E+01
     -7.614  0.0000E+00  0.8000E+01
     -7.597  0.0000E+00  0.8000E+01
     -7.581  0.0000E+00  0.8000E+01
     -7.564  0.0000E+00  0.8000E+01
     -7.547  0.0000E+00  0.8000E+01
     -7.531  0.0000E+00  0.8000E+01
     -7.514  0.0000E+00  0.8000E+01
     -7.497  0.0000E+00  0.8000E+01
     -7.481  0.0000E+00  0.8000E+01
     -7.464  0.0000E+00  0.8000E+01
     -7.447  0.0000E+00  0.8000E+01
     -7.431  0.0000E+00  0.8000E+01
     -7.414  0.0000E+00  0.8000E+01
     -7.398  0.0000E+00  0.8000E+01
     -7.381  0.0000E+00  0.8000E+01
     -7.364  0.0000E+00  0.8000E+01
     -7.348  0.0000E+00  0.8000E+01
     -7.331  0.0000E+00  0.8000E+01
     -7.314  0.0000E+00  0.8000E+01
     -7.298  0.0000E+00  0.8000E+01
     -7.281  0.0000E+00  0.8000E+01
     -7.264  0.0000E+00  0.8000E+01
     -7.248  0.0000E+00  0.8000E+01
     -7.231  0.0000E+00  0.8000E+01
     -7.214  0.0000E+00  0.8000E+01
     -7.198  0.0000E+00  0.8000E+01
     -7.181  0.0000E+00  0.8000E+01
     -7.164  0.0000E+00  0.8000E+01
     -7.148  0.0000E+00  0.8000E+01
     -7.131  0.0000E+00  0.8000E+01
     -7.115  0.0000E+00  0.8000E+01
     -7.098  0.0000E+00  0.8000E+01
     -7.081  0.0000E+00  0.8000E+01
     -7.065  0.0000E+00  0.8000E+01
     -7.048  0.0000E+00  0.8000E+01
     -7.031  0.0000E+00  0.8000E+01
     -7.015  0.0000E+00  0.8000E+01
     -6.998  0.0000E+00  0.8000E+01
     -6.981  0.1035E-10  0.8000E+01
     -6.965  0.4404E-05  0.8000E+01
     -6.948  0.9614E-02  0.8000E+01
     -6.931  0.1994E+00  0.8003E+01
     -6.915  0.2737E+00  0.8008E+01
     -6.898  0.1265E+00  0.8010E+01
     -6.881  0.1745E+00  0.8013E+01
     -6.865  0.4064E-01  0.8014E+01
     -6.848  0.2242E+00  0.8017E+01
     -6.831  0.2766E+00  0.8022E+01
     -6.815  0.3101E+00  0.8027E+01
     -6.798  0.3876E+00  0.8034E+01
     -6.782  0.4168E+00  0.8041E+01
     -6.765  0.3419E+00  0.8046E+01
     -6.748  0.5505E+00  0.8055E+01
     -6.732  0.1781E+00  0.8058E+01
     -6.715  0.6206E+00  0.8069E+01
     -6.698  0.6110E+00  0.8079E+01
     -6.682  0.2761E+00  0.8084E+01
     -6.665  0.7670E+00  0.8096E+01
     -6.648  0.7044E+00  0.8108E+01
     -6.632  0.3836E+00  0.8114E+01
     -6.615  0.7085E+00  0.8126E+01
     -6.598  0.9545E+00  0.8142E+01
     -6.582  0.4667E+00  0.8150E+01
     -6.565  0.6034E+00  0.8160E+01
     -6.548  0.6285E+00  0.8170E+01
     -6.532  0.6720E+00  0.8182E+01
     -6.515  0.1132E+01  0.8200E+01
     -6.499  0.9831E+00  0.8217E+01
     -6.482  0.8139E+00  0.8230E+01
     -6.465  0.1227E+01  0.8251E+01
     -6.449  0.1325E+01  0.8273E+01
     -6.432  0.1362E+01  0.8295E+01
     -6.415  0.1479E+01  0.8320E+01
     -6.399  0.1204E+01  0.8340E+01
     -6.382  0.1327E+01  0.8362E+01
     -6.365  0.1737E+01  0.8391E+01
     -6.349  0.1696E+01  0.8419E+01
     -6.332  0.1348E+01  0.8442E+01
     -6.315  0.1097E+01  0.8460E+01
     -6.299  0.2143E+01  0.8496E+01
     -6.282  0.1897E+01  0.8527E+01
     -6.265  0.2082E+01  0.8562E+01
     -6.249  0.2412E+01  0.8602E+01
     -6.232  0.3026E+01  0.8653E+01
     -6.215  0.3120E+01  0.8704E+01
     -6.199  0.3683E+01  0.8766E+01
     -6.182  0.3073E+01  0.8817E+01
     -6.166  0.2946E+01  0.8866E+01
     -6.149  0.3918E+01  0.8931E+01
     -6.132  0.3711E+01  0.8993E+01
     -6.116  0.3352E+01  0.9049E+01
     -6.099  0.3347E+01  0.9105E+01
     -6.082  0.3655E+01  0.9165E+01
     -6.066  0.3735E+01  0.9228E+01
     -6.049  0.4349E+01  0.9300E+01
     -6.032  0.4179E+01  0.9370E+01
     -6.016  0.3597E+01  0.9429E+01
     -5.999  0.4197E+01  0.9499E+01
     -5.982  0.4226E+01  0.9570E+01
     -5.966  0.3451E+01  0.9627E+01
     -5.949  0.5365E+01  0.9716E+01
     -5.932  0.4331E+01  0.9789E+01
     -5.916  0.3488E+01  0.9847E+01
     -5.899  0.4982E+01  0.9930E+01
     -5.883  0.3333E+01  0.9985E+01
     -5.866  0.3128E+01  0.1004E+02
     -5.849  0.3503E+01  0.1010E+02
     -5.833  0.3923E+01  0.1016E+02
     -5.816  0.5576E+01  0.1025E+02
     -5.799  0.3727E+01  0.1032E+02
     -5.783  0.4047E+01  0.1038E+02
     -5.766  0.4497E+01  0.1046E+02
     -5.749  0.4778E+01  0.1054E+02
     -5.733  0.3704E+01  0.1060E+02
     -5.716  0.4564E+01  0.1068E+02
     -5.699  0.3421E+01  0.1073E+02
     -5.683  0.3525E+01  0.1079E+02
     -5.666  0.4513E+01  0.1087E+02
     -5.649  0.3555E+01  0.1092E+02
     -5.633  0.4633E+01  0.1100E+02
     -5.616  0.4726E+01  0.1108E+02
     -5.600  0.4413E+01  0.1115E+02
     -5.583  0.3380E+01  0.1121E+02
     -5.566  0.3319E+01  0.1127E+02
     -5.550  0.4089E+01  0.1133E+02
     -5.533  0.4432E+01  0.1141E+02
     -5.516  0.4436E+01  0.1148E+02
     -5.500  0.4734E+01  0.1156E+02
     -5.483  0.4905E+01  0.1164E+02
     -5.466  0.3623E+01  0.1170E+02
     -5.450  0.3815E+01  0.1177E+02
     -5.433  0.3353E+01  0.1182E+02
     -5.416  0.4409E+01  0.1190E+02
     -5.400  0.5395E+01  0.1198E+02
     -5.383  0.5525E+01  0.1208E+02
     -5.366  0.5157E+01  0.1216E+02
     -5.350  0.4702E+01  0.1224E+02
     -5.333  0.5295E+01  0.1233E+02
     -5.316  0.5016E+01  0.1241E+02
     -5.300  0.4242E+01  0.1248E+02
     -5.283  0.5524E+01  0.1258E+02
     -5.267  0.4472E+01  0.1265E+02
     -5.250  0.3774E+01  0.1271E+02
     -5.233  0.4629E+01  0.1279E+02
     -5.217  0.3583E+01  0.1285E+02
     -5.200  0.4000E+01  0.1292E+02
     -5.183  0.4705E+01  0.1299E+02
     -5.167  0.3218E+01  0.1305E+02
     -5.150  0.4029E+01  0.1311E+02
     -5.133  0.5004E+01  0.1320E+02
     -5.117  0.5044E+01  0.1328E+02
     -5.100  0.3323E+01  0.1334E+02
     -5.083  0.3723E+01  0.1340E+02
     -5.067  0.3069E+01  0.1345E+02
     -5.050  0.3023E+01  0.1350E+02
     -5.033  0.4158E+01  0.1357E+02
     -5.017  0.3377E+01  0.1363E+02
     -5.000  0.2838E+01  0.1367E+02
     -4.984  0.2799E+01  0.1372E+02
     -4.967  0.2974E+01  0.1377E+02
     -4.950  0.2618E+01  0.1381E+02
     -4.934  0.2115E+01  0.1385E+02
     -4.917  0.2631E+01  0.1389E+02
     -4.900  0.2572E+01  0.1394E+02
     -4.884  0.2452E+01  0.1398E+02
     -4.867  0.3447E+01  0.1403E+02
     -4.850  0.2128E+01  0.1407E+02
     -4.834  0.1553E+01  0.1409E+02
     -4.817  0.2618E+01  0.1414E+02
     -4.800  0.2433E+01  0.1418E+02
     -4.784  0.3272E+01  0.1423E+02
     -4.767  0.2986E+01  0.1428E+02
     -4.750  0.3009E+01  0.1433E+02
     -4.734  0.2654E+01  0.1438E+02
     -4.717  0.2525E+01  0.1442E+02
     -4.701  0.2650E+01  0.1446E+02
     -4.684  0.2575E+01  0.1451E+02
     -4.667  0.3094E+01  0.1456E+02
     -4.651  0.3723E+01  0.1462E+02
     -4.634  0.2940E+01  0.1467E+02
     -4.617  0.3737E+01  0.1473E+02
     -4.601  0.3375E+01  0.1479E+02
     -4.584  0.3501E+01  0.1485E+02
     -4.567  0.4051E+01  0.1491E+02
     -4.551  0.4209E+01  0.1498E+02
     -4.534  0.4621E+01  0.1506E+02
     -4.517  0.3895E+01  0.1512E+02
     -4.501  0.3901E+01  0.1519E+02
     -4.484  0.3752E+01  0.1525E+02
     -4.467  0.3124E+01  0.1530E+02
     -4.451  0.3743E+01  0.1537E+02
     -4.434  0.3100E+01  0.1542E+02
     -4.417  0.3297E+01  0.1547E+02
     -4.401  0.2425E+01  0.1551E+02
     -4.384  0.2525E+01  0.1556E+02
     -4.368  0.2295E+01  0.1559E+02
     -4.351  0.2379E+01  0.1563E+02
     -4.334  0.2146E+01  0.1567E+02
     -4.318  0.2661E+01  0.1571E+02
     -4.301  0.2873E+01  0.1576E+02
     -4.284  0.3119E+01  0.1581E+02
     -4.268  0.3746E+01  0.1588E+02
     -4.251  0.4237E+01  0.1595E+02
     -4.234  0.3445E+01  0.1600E+02
     -4.218  0.2948E+01  0.1605E+02
     -4.201  0.2600E+01  0.1610E+02
     -4.184  0.2580E+01  0.1614E+02
     -4.168  0.2819E+01  0.1619E+02
     -4.151  0.3146E+01  0.1624E+02
     -4.134  0.3054E+01  0.1629E+02
     -4.118  0.2454E+01  0.1633E+02
     -4.101  0.3152E+01  0.1638E+02
     -4.085  0.2427E+01  0.1642E+02
     -4.068  0.3075E+01  0.1647E+02
     -4.051  0.3397E+01  0.1653E+02
     -4.035  0.3104E+01  0.1658E+02
     -4.018  0.2607E+01  0.1663E+02
     -4.001  0.2907E+01  0.1667E+02
     -3.985  0.3529E+01  0.1673E+02
     -3.968  0.2692E+01  0.1678E+02
     -3.951  0.2099E+01  0.1681E+02
     -3.935  0.2705E+01  0.1686E+02
     -3.918  0.2473E+01  0.1690E+02
     -3.901  0.2486E+01  0.1694E+02
     -3.885  0.2486E+01  0.1698E+02
     -3.868  0.3422E+01  0.1704E+02
     -3.851  0.3895E+01  0.1710E+02
     -3.835  0.3484E+01  0.1716E+02
     -3.818  0.2919E+01  0.1721E+02
     -3.801  0.3479E+01  0.1727E+02
     -3.785  0.3378E+01  0.1732E+02
     -3.768  0.2983E+01  0.1737E+02
     -3.752  0.3590E+01  0.1743E+02
     -3.735  0.3049E+01  0.1748E+02
     -3.718  0.3047E+01  0.1753E+02
     -3.702  0.2768E+01  0.1758E+02
     -3.685  0.2546E+01  0.1762E+02
     -3.668  0.2937E+01  0.1767E+02
     -3.652  0.3211E+01  0.1773E+02
     -3.635  0.3250E+01  0.1778E+02
     -3.618  0.2386E+01  0.1782E+02
     -3.602  0.2813E+01  0.1787E+02
     -3.585  0.1411E+01  0.1789E+02
     -3.568  0.2492E+01  0.1793E+02
     -3.552  0.2781E+01  0.1798E+02
     -3.535  0.2929E+01  0.1803E+02
     -3.518  0.2397E+01  0.1807E+02
     -3.502  0.2144E+01  0.1810E+02
     -3.485  0.2185E+01  0.1814E+02
     -3.469  0.3276E+01  0.1819E+02
     -3.452  0.3346E+01  0.1825E+02
     -3.435  0.2419E+01  0.1829E+02
     -3.419  0.3148E+01  0.1834E+02
     -3.402  0.2863E+01  0.1839E+02
     -3.385  0.2430E+01  0.1843E+02
     -3.369  0.2955E+01  0.1848E+02
     -3.352  0.2689E+01  0.1852E+02
     -3.335  0.2362E+01  0.1856E+02
     -3.319  0.2480E+01  0.1860E+02
     -3.302  0.2789E+01  0.1865E+02
     -3.285  0.2917E+01  0.1870E+02
     -3.269  0.3692E+01  0.1876E+02
     -3.252  0.2888E+01  0.1881E+02
     -3.235  0.3007E+01  0.1886E+02
     -3.219  0.2535E+01  0.1890E+02
     -3.202  0.1984E+01  0.1893E+02
     -3.186  0.2275E+01  0.1897E+02
     -3.169  0.2940E+01  0.1902E+02
     -3.152  0.2241E+01  0.1906E+02
     -3.136  0.2266E+01  0.1910E+02
     -3.119  0.2130E+01  0.1913E+02
     -3.102  0.2399E+01  0.1917E+02
     -3.086  0.2937E+01  0.1922E+02
     -3.069  0.2958E+01  0.1927E+02
     -3.052  0.2375E+01  0.1931E+02
     -3.036  0.3444E+01  0.1937E+02
     -3.019  0.3342E+01  0.1942E+02
     -3.002  0.4418E+01  0.1949E+02
     -2.986  0.3674E+01  0.1956E+02
     -2.969  0.3084E+01  0.1961E+02
     -2.952  0.3498E+01  0.1967E+02
     -2.936  0.3065E+01  0.1972E+02
     -2.919  0.3062E+01  0.1977E+02
     -2.902  0.2341E+01  0.1981E+02
     -2.886  0.2781E+01  0.1985E+02
     -2.869  0.2365E+01  0.1989E+02
     -2.853  0.2882E+01  0.1994E+02
     -2.836  0.2904E+01  0.1999E+02
     -2.819  0.2245E+01  0.2003E+02
     -2.803  0.2387E+01  0.2007E+02
     -2.786  0.1886E+01  0.2010E+02
     -2.769  0.2223E+01  0.2013E+02
     -2.753  0.2340E+01  0.2017E+02
     -2.736  0.2074E+01  0.2021E+02
     -2.719  0.2267E+01  0.2025E+02
     -2.703  0.2468E+01  0.2029E+02
     -2.686  0.2551E+01  0.2033E+02
     -2.669  0.2244E+01  0.2037E+02
     -2.653  0.2007E+01  0.2040E+02
     -2.636  0.2085E+01  0.2043E+02
     -2.619  0.2763E+01  0.2048E+02
     -2.603  0.2513E+01  0.2052E+02
     -2.586  0.2126E+01  0.2056E+02
     -2.570  0.2942E+01  0.2061E+02
     -2.553  0.2420E+01  0.2065E+02
     -2.536  0.3654E+01  0.2071E+02
     -2.520  0.3100E+01  0.2076E+02
     -2.503  0.3514E+01  0.2082E+02
     -2.486  0.3153E+01  0.2087E+02
     -2.470  0.3382E+01  0.2093E+02
     -2.453  0.2992E+01  0.2098E+02
     -2.436  0.2829E+01  0.2102E+02
     -2.420  0.3135E+01  0.2108E+02
     -2.403  0.2857E+01  0.2112E+02
     -2.386  0.3619E+01  0.2118E+02
     -2.370  0.3330E+01  0.2124E+02
     -2.353  0.3754E+01  0.2130E+02
     -2.336  0.2891E+01  0.2135E+02
     -2.320  0.3875E+01  0.2141E+02
     -2.303  0.5455E+01  0.2150E+02
     -2.287  0.5075E+01  0.2159E+02
     -2.270  0.3908E+01  0.2165E+02
     -2.253  0.2722E+01  0.2170E+02
     -2.237  0.3255E+01  0.2175E+02
     -2.220  0.3252E+01  0.2181E+02
     -2.203  0.3946E+01  0.2187E+02
     -2.187  0.4916E+01  0.2196E+02
     -2.170  0.3132E+01  0.2201E+02
     -2.153  0.3529E+01  0.2207E+02
     -2.137  0.2403E+01  0.2211E+02
     -2.120  0.2989E+01  0.2216E+02
     -2.103  0.3867E+01  0.2222E+02
     -2.087  0.3065E+01  0.2227E+02
     -2.070  0.2855E+01  0.2232E+02
     -2.053  0.2774E+01  0.2237E+02
     -2.037  0.3577E+01  0.2242E+02
     -2.020  0.3365E+01  0.2248E+02
     -2.003  0.4111E+01  0.2255E+02
     -1.987  0.5049E+01  0.2263E+02