Automatically generated mesh
     490
Reciprocal lattice
    0.03571428571428    0.02500000000000    0.00000000000000             4
    0.10714285714285    0.02500000000000    0.00000000000000             4
    0.17857142857143    0.02500000000000    0.00000000000000             4
    0.25000000000000    0.02500000000000    0.00000000000000             4
    0.32142857142857    0.02500000000000    0.00000000000000             4
    0.39285714285715    0.02500000000000    0.00000000000000             4
    0.46428571428572    0.02500000000000    0.00000000000000             4
    0.03571428571428    0.07500000000000    0.00000000000000             4
    0.10714285714285    0.07500000000000    0.00000000000000             4
    0.17857142857143    0.07500000000000    0.00000000000000             4
    0.25000000000000    0.07500000000000    0.00000000000000             4
    0.32142857142857    0.07500000000000    0.00000000000000             4
    0.39285714285715    0.07500000000000    0.00000000000000             4
    0.46428571428572    0.07500000000000    0.00000000000000             4
    0.03571428571428    0.12500000000000    0.00000000000000             4
    0.10714285714285    0.12500000000000    0.00000000000000             4
    0.17857142857143    0.12500000000000    0.00000000000000             4
    0.25000000000000    0.12500000000000    0.00000000000000             4
    0.32142857142857    0.12500000000000    0.00000000000000             4
    0.39285714285715    0.12500000000000    0.00000000000000             4
    0.46428571428572    0.12500000000000    0.00000000000000             4
    0.03571428571428    0.17500000000000    0.00000000000000             4
    0.10714285714285    0.17500000000000    0.00000000000000             4
    0.17857142857143    0.17500000000000    0.00000000000000             4
    0.25000000000000    0.17500000000000    0.00000000000000             4
    0.32142857142857    0.17500000000000    0.00000000000000             4
    0.39285714285715    0.17500000000000    0.00000000000000             4
    0.46428571428572    0.17500000000000    0.00000000000000             4
    0.03571428571428    0.22500000000000    0.00000000000000             4
    0.10714285714285    0.22500000000000    0.00000000000000             4
    0.17857142857143    0.22500000000000    0.00000000000000             4
    0.25000000000000    0.22500000000000    0.00000000000000             4
    0.32142857142857    0.22500000000000    0.00000000000000             4
    0.39285714285715    0.22500000000000    0.00000000000000             4
    0.46428571428572    0.22500000000000    0.00000000000000             4
    0.03571428571428    0.27500000000000    0.00000000000000             4
    0.10714285714285    0.27500000000000    0.00000000000000             4
    0.17857142857143    0.27500000000000    0.00000000000000             4
    0.25000000000000    0.27500000000000    0.00000000000000             4
    0.32142857142857    0.27500000000000    0.00000000000000             4
    0.39285714285715    0.27500000000000    0.00000000000000             4
    0.46428571428572    0.27500000000000    0.00000000000000             4
    0.03571428571428    0.32500000000000    0.00000000000000             4
    0.10714285714285    0.32500000000000    0.00000000000000             4
    0.17857142857143    0.32500000000000    0.00000000000000             4
    0.25000000000000    0.32500000000000    0.00000000000000             4
    0.32142857142857    0.32500000000000    0.00000000000000             4
    0.39285714285715    0.32500000000000    0.00000000000000             4
    0.46428571428572    0.32500000000000    0.00000000000000             4
    0.03571428571428    0.37500000000000    0.00000000000000             4
    0.10714285714285    0.37500000000000    0.00000000000000             4
    0.17857142857143    0.37500000000000    0.00000000000000             4
    0.25000000000000    0.37500000000000    0.00000000000000             4
    0.32142857142857    0.37500000000000    0.00000000000000             4
    0.39285714285715    0.37500000000000    0.00000000000000             4
    0.46428571428572    0.37500000000000    0.00000000000000             4
    0.03571428571428    0.42500000000000    0.00000000000000             4
    0.10714285714285    0.42500000000000    0.00000000000000             4
    0.17857142857143    0.42500000000000    0.00000000000000             4
    0.25000000000000    0.42500000000000    0.00000000000000             4
    0.32142857142857    0.42500000000000    0.00000000000000             4
    0.39285714285715    0.42500000000000    0.00000000000000             4
    0.46428571428572    0.42500000000000    0.00000000000000             4
    0.03571428571428    0.47500000000000    0.00000000000000             4
    0.10714285714285    0.47500000000000    0.00000000000000             4
    0.17857142857143    0.47500000000000    0.00000000000000             4
    0.25000000000000    0.47500000000000    0.00000000000000             4
    0.32142857142857    0.47500000000000    0.00000000000000             4
    0.39285714285715    0.47500000000000    0.00000000000000             4
    0.46428571428572    0.47500000000000    0.00000000000000             4
    0.03571428571428    0.02500000000000    0.07692307692308             8
    0.10714285714285    0.02500000000000    0.07692307692308             8
    0.17857142857143    0.02500000000000    0.07692307692308             8
    0.25000000000000    0.02500000000000    0.07692307692308             8
    0.32142857142857    0.02500000000000    0.07692307692308             8
    0.39285714285715    0.02500000000000    0.07692307692308             8
    0.46428571428572    0.02500000000000    0.07692307692308             8
    0.03571428571428    0.07500000000000    0.07692307692308             8
    0.10714285714285    0.07500000000000    0.07692307692308             8
    0.17857142857143    0.07500000000000    0.07692307692308             8
    0.25000000000000    0.07500000000000    0.07692307692308             8
    0.32142857142857    0.07500000000000    0.07692307692308             8
    0.39285714285715    0.07500000000000    0.07692307692308             8
    0.46428571428572    0.07500000000000    0.07692307692308             8
    0.03571428571428    0.12500000000000    0.07692307692308             8
    0.10714285714285    0.12500000000000    0.07692307692308             8
    0.17857142857143    0.12500000000000    0.07692307692308             8
    0.25000000000000    0.12500000000000    0.07692307692308             8
    0.32142857142857    0.12500000000000    0.07692307692308             8
    0.39285714285715    0.12500000000000    0.07692307692308             8
    0.46428571428572    0.12500000000000    0.07692307692308             8
    0.03571428571428    0.17500000000000    0.07692307692308             8
    0.10714285714285    0.17500000000000    0.07692307692308             8
    0.17857142857143    0.17500000000000    0.07692307692308             8
    0.25000000000000    0.17500000000000    0.07692307692308             8
    0.32142857142857    0.17500000000000    0.07692307692308             8
    0.39285714285715    0.17500000000000    0.07692307692308             8
    0.46428571428572    0.17500000000000    0.07692307692308             8
    0.03571428571428    0.22500000000000    0.07692307692308             8
    0.10714285714285    0.22500000000000    0.07692307692308             8
    0.17857142857143    0.22500000000000    0.07692307692308             8
    0.25000000000000    0.22500000000000    0.07692307692308             8
    0.32142857142857    0.22500000000000    0.07692307692308             8
    0.39285714285715    0.22500000000000    0.07692307692308             8
    0.46428571428572    0.22500000000000    0.07692307692308             8
    0.03571428571428    0.27500000000000    0.07692307692308             8
    0.10714285714285    0.27500000000000    0.07692307692308             8
    0.17857142857143    0.27500000000000    0.07692307692308             8
    0.25000000000000    0.27500000000000    0.07692307692308             8
    0.32142857142857    0.27500000000000    0.07692307692308             8
    0.39285714285715    0.27500000000000    0.07692307692308             8
    0.46428571428572    0.27500000000000    0.07692307692308             8
    0.03571428571428    0.32500000000000    0.07692307692308             8
    0.10714285714285    0.32500000000000    0.07692307692308             8
    0.17857142857143    0.32500000000000    0.07692307692308             8
    0.25000000000000    0.32500000000000    0.07692307692308             8
    0.32142857142857    0.32500000000000    0.07692307692308             8
    0.39285714285715    0.32500000000000    0.07692307692308             8
    0.46428571428572    0.32500000000000    0.07692307692308             8
    0.03571428571428    0.37500000000000    0.07692307692308             8
    0.10714285714285    0.37500000000000    0.07692307692308             8
    0.17857142857143    0.37500000000000    0.07692307692308             8
    0.25000000000000    0.37500000000000    0.07692307692308             8
    0.32142857142857    0.37500000000000    0.07692307692308             8
    0.39285714285715    0.37500000000000    0.07692307692308             8
    0.46428571428572    0.37500000000000    0.07692307692308             8
    0.03571428571428    0.42500000000000    0.07692307692308             8
    0.10714285714285    0.42500000000000    0.07692307692308             8
    0.17857142857143    0.42500000000000    0.07692307692308             8
    0.25000000000000    0.42500000000000    0.07692307692308             8
    0.32142857142857    0.42500000000000    0.07692307692308             8
    0.39285714285715    0.42500000000000    0.07692307692308             8
    0.46428571428572    0.42500000000000    0.07692307692308             8
    0.03571428571428    0.47500000000000    0.07692307692308             8
    0.10714285714285    0.47500000000000    0.07692307692308             8
    0.17857142857143    0.47500000000000    0.07692307692308             8
    0.25000000000000    0.47500000000000    0.07692307692308             8
    0.32142857142857    0.47500000000000    0.07692307692308             8
    0.39285714285715    0.47500000000000    0.07692307692308             8
    0.46428571428572    0.47500000000000    0.07692307692308             8
    0.03571428571428    0.02500000000000    0.15384615384615             8
    0.10714285714285    0.02500000000000    0.15384615384615             8
    0.17857142857143    0.02500000000000    0.15384615384615             8
    0.25000000000000    0.02500000000000    0.15384615384615             8
    0.32142857142857    0.02500000000000    0.15384615384615             8
    0.39285714285715    0.02500000000000    0.15384615384615             8
    0.46428571428572    0.02500000000000    0.15384615384615             8
    0.03571428571428    0.07500000000000    0.15384615384615             8
    0.10714285714285    0.07500000000000    0.15384615384615             8
    0.17857142857143    0.07500000000000    0.15384615384615             8
    0.25000000000000    0.07500000000000    0.15384615384615             8
    0.32142857142857    0.07500000000000    0.15384615384615             8
    0.39285714285715    0.07500000000000    0.15384615384615             8
    0.46428571428572    0.07500000000000    0.15384615384615             8
    0.03571428571428    0.12500000000000    0.15384615384615             8
    0.10714285714285    0.12500000000000    0.15384615384615             8
    0.17857142857143    0.12500000000000    0.15384615384615             8
    0.25000000000000    0.12500000000000    0.15384615384615             8
    0.32142857142857    0.12500000000000    0.15384615384615             8
    0.39285714285715    0.12500000000000    0.15384615384615             8
    0.46428571428572    0.12500000000000    0.15384615384615             8
    0.03571428571428    0.17500000000000    0.15384615384615             8
    0.10714285714285    0.17500000000000    0.15384615384615             8
    0.17857142857143    0.17500000000000    0.15384615384615             8
    0.25000000000000    0.17500000000000    0.15384615384615             8
    0.32142857142857    0.17500000000000    0.15384615384615             8
    0.39285714285715    0.17500000000000    0.15384615384615             8
    0.46428571428572    0.17500000000000    0.15384615384615             8
    0.03571428571428    0.22500000000000    0.15384615384615             8
    0.10714285714285    0.22500000000000    0.15384615384615             8
    0.17857142857143    0.22500000000000    0.15384615384615             8
    0.25000000000000    0.22500000000000    0.15384615384615             8
    0.32142857142857    0.22500000000000    0.15384615384615             8
    0.39285714285715    0.22500000000000    0.15384615384615             8
    0.46428571428572    0.22500000000000    0.15384615384615             8
    0.03571428571428    0.27500000000000    0.15384615384615             8
    0.10714285714285    0.27500000000000    0.15384615384615             8
    0.17857142857143    0.27500000000000    0.15384615384615             8
    0.25000000000000    0.27500000000000    0.15384615384615             8
    0.32142857142857    0.27500000000000    0.15384615384615             8
    0.39285714285715    0.27500000000000    0.15384615384615             8
    0.46428571428572    0.27500000000000    0.15384615384615             8
    0.03571428571428    0.32500000000000    0.15384615384615             8
    0.10714285714285    0.32500000000000    0.15384615384615             8
    0.17857142857143    0.32500000000000    0.15384615384615             8
    0.25000000000000    0.32500000000000    0.15384615384615             8
    0.32142857142857    0.32500000000000    0.15384615384615             8
    0.39285714285715    0.32500000000000    0.15384615384615             8
    0.46428571428572    0.32500000000000    0.15384615384615             8
    0.03571428571428    0.37500000000000    0.15384615384615             8
    0.10714285714285    0.37500000000000    0.15384615384615             8
    0.17857142857143    0.37500000000000    0.15384615384615             8
    0.25000000000000    0.37500000000000    0.15384615384615             8
    0.32142857142857    0.37500000000000    0.15384615384615             8
    0.39285714285715    0.37500000000000    0.15384615384615             8
    0.46428571428572    0.37500000000000    0.15384615384615             8
    0.03571428571428    0.42500000000000    0.15384615384615             8
    0.10714285714285    0.42500000000000    0.15384615384615             8
    0.17857142857143    0.42500000000000    0.15384615384615             8
    0.25000000000000    0.42500000000000    0.15384615384615             8
    0.32142857142857    0.42500000000000    0.15384615384615             8
    0.39285714285715    0.42500000000000    0.15384615384615             8
    0.46428571428572    0.42500000000000    0.15384615384615             8
    0.03571428571428    0.47500000000000    0.15384615384615             8
    0.10714285714285    0.47500000000000    0.15384615384615             8
    0.17857142857143    0.47500000000000    0.15384615384615             8
    0.25000000000000    0.47500000000000    0.15384615384615             8
    0.32142857142857    0.47500000000000    0.15384615384615             8
    0.39285714285715    0.47500000000000    0.15384615384615             8
    0.46428571428572    0.47500000000000    0.15384615384615             8
    0.03571428571428    0.02500000000000    0.23076923076923             8
    0.10714285714285    0.02500000000000    0.23076923076923             8
    0.17857142857143    0.02500000000000    0.23076923076923             8
    0.25000000000000    0.02500000000000    0.23076923076923             8
    0.32142857142857    0.02500000000000    0.23076923076923             8
    0.39285714285715    0.02500000000000    0.23076923076923             8
    0.46428571428572    0.02500000000000    0.23076923076923             8
    0.03571428571428    0.07500000000000    0.23076923076923             8
    0.10714285714285    0.07500000000000    0.23076923076923             8
    0.17857142857143    0.07500000000000    0.23076923076923             8
    0.25000000000000    0.07500000000000    0.23076923076923             8
    0.32142857142857    0.07500000000000    0.23076923076923             8
    0.39285714285715    0.07500000000000    0.23076923076923             8
    0.46428571428572    0.07500000000000    0.23076923076923             8
    0.03571428571428    0.12500000000000    0.23076923076923             8
    0.10714285714285    0.12500000000000    0.23076923076923             8
    0.17857142857143    0.12500000000000    0.23076923076923             8
    0.25000000000000    0.12500000000000    0.23076923076923             8
    0.32142857142857    0.12500000000000    0.23076923076923             8
    0.39285714285715    0.12500000000000    0.23076923076923             8
    0.46428571428572    0.12500000000000    0.23076923076923             8
    0.03571428571428    0.17500000000000    0.23076923076923             8
    0.10714285714285    0.17500000000000    0.23076923076923             8
    0.17857142857143    0.17500000000000    0.23076923076923             8
    0.25000000000000    0.17500000000000    0.23076923076923             8
    0.32142857142857    0.17500000000000    0.23076923076923             8
    0.39285714285715    0.17500000000000    0.23076923076923             8
    0.46428571428572    0.17500000000000    0.23076923076923             8
    0.03571428571428    0.22500000000000    0.23076923076923             8
    0.10714285714285    0.22500000000000    0.23076923076923             8
    0.17857142857143    0.22500000000000    0.23076923076923             8
    0.25000000000000    0.22500000000000    0.23076923076923             8
    0.32142857142857    0.22500000000000    0.23076923076923             8
    0.39285714285715    0.22500000000000    0.23076923076923             8
    0.46428571428572    0.22500000000000    0.23076923076923             8
    0.03571428571428    0.27500000000000    0.23076923076923             8
    0.10714285714285    0.27500000000000    0.23076923076923             8
    0.17857142857143    0.27500000000000    0.23076923076923             8
    0.25000000000000    0.27500000000000    0.23076923076923             8
    0.32142857142857    0.27500000000000    0.23076923076923             8
    0.39285714285715    0.27500000000000    0.23076923076923             8
    0.46428571428572    0.27500000000000    0.23076923076923             8
    0.03571428571428    0.32500000000000    0.23076923076923             8
    0.10714285714285    0.32500000000000    0.23076923076923             8
    0.17857142857143    0.32500000000000    0.23076923076923             8
    0.25000000000000    0.32500000000000    0.23076923076923             8
    0.32142857142857    0.32500000000000    0.23076923076923             8
    0.39285714285715    0.32500000000000    0.23076923076923             8
    0.46428571428572    0.32500000000000    0.23076923076923             8
    0.03571428571428    0.37500000000000    0.23076923076923             8
    0.10714285714285    0.37500000000000    0.23076923076923             8
    0.17857142857143    0.37500000000000    0.23076923076923             8
    0.25000000000000    0.37500000000000    0.23076923076923             8
    0.32142857142857    0.37500000000000    0.23076923076923             8
    0.39285714285715    0.37500000000000    0.23076923076923             8
    0.46428571428572    0.37500000000000    0.23076923076923             8
    0.03571428571428    0.42500000000000    0.23076923076923             8
    0.10714285714285    0.42500000000000    0.23076923076923             8
    0.17857142857143    0.42500000000000    0.23076923076923             8
    0.25000000000000    0.42500000000000    0.23076923076923             8
    0.32142857142857    0.42500000000000    0.23076923076923             8
    0.39285714285715    0.42500000000000    0.23076923076923             8
    0.46428571428572    0.42500000000000    0.23076923076923             8
    0.03571428571428    0.47500000000000    0.23076923076923             8
    0.10714285714285    0.47500000000000    0.23076923076923             8
    0.17857142857143    0.47500000000000    0.23076923076923             8
    0.25000000000000    0.47500000000000    0.23076923076923             8
    0.32142857142857    0.47500000000000    0.23076923076923             8
    0.39285714285715    0.47500000000000    0.23076923076923             8
    0.46428571428572    0.47500000000000    0.23076923076923             8
    0.03571428571428    0.02500000000000    0.30769230769231             8
    0.10714285714285    0.02500000000000    0.30769230769231             8
    0.17857142857143    0.02500000000000    0.30769230769231             8
    0.25000000000000    0.02500000000000    0.30769230769231             8
    0.32142857142857    0.02500000000000    0.30769230769231             8
    0.39285714285715    0.02500000000000    0.30769230769231             8
    0.46428571428572    0.02500000000000    0.30769230769231             8
    0.03571428571428    0.07500000000000    0.30769230769231             8
    0.10714285714285    0.07500000000000    0.30769230769231             8
    0.17857142857143    0.07500000000000    0.30769230769231             8
    0.25000000000000    0.07500000000000    0.30769230769231             8
    0.32142857142857    0.07500000000000    0.30769230769231             8
    0.39285714285715    0.07500000000000    0.30769230769231             8
    0.46428571428572    0.07500000000000    0.30769230769231             8
    0.03571428571428    0.12500000000000    0.30769230769231             8
    0.10714285714285    0.12500000000000    0.30769230769231             8
    0.17857142857143    0.12500000000000    0.30769230769231             8
    0.25000000000000    0.12500000000000    0.30769230769231             8
    0.32142857142857    0.12500000000000    0.30769230769231             8
    0.39285714285715    0.12500000000000    0.30769230769231             8
    0.46428571428572    0.12500000000000    0.30769230769231             8
    0.03571428571428    0.17500000000000    0.30769230769231             8
    0.10714285714285    0.17500000000000    0.30769230769231             8
    0.17857142857143    0.17500000000000    0.30769230769231             8
    0.25000000000000    0.17500000000000    0.30769230769231             8
    0.32142857142857    0.17500000000000    0.30769230769231             8
    0.39285714285715    0.17500000000000    0.30769230769231             8
    0.46428571428572    0.17500000000000    0.30769230769231             8
    0.03571428571428    0.22500000000000    0.30769230769231             8
    0.10714285714285    0.22500000000000    0.30769230769231             8
    0.17857142857143    0.22500000000000    0.30769230769231             8
    0.25000000000000    0.22500000000000    0.30769230769231             8
    0.32142857142857    0.22500000000000    0.30769230769231             8
    0.39285714285715    0.22500000000000    0.30769230769231             8
    0.46428571428572    0.22500000000000    0.30769230769231             8
    0.03571428571428    0.27500000000000    0.30769230769231             8
    0.10714285714285    0.27500000000000    0.30769230769231             8
    0.17857142857143    0.27500000000000    0.30769230769231             8
    0.25000000000000    0.27500000000000    0.30769230769231             8
    0.32142857142857    0.27500000000000    0.30769230769231             8
    0.39285714285715    0.27500000000000    0.30769230769231             8
    0.46428571428572    0.27500000000000    0.30769230769231             8
    0.03571428571428    0.32500000000000    0.30769230769231             8
    0.10714285714285    0.32500000000000    0.30769230769231             8
    0.17857142857143    0.32500000000000    0.30769230769231             8
    0.25000000000000    0.32500000000000    0.30769230769231             8
    0.32142857142857    0.32500000000000    0.30769230769231             8
    0.39285714285715    0.32500000000000    0.30769230769231             8
    0.46428571428572    0.32500000000000    0.30769230769231             8
    0.03571428571428    0.37500000000000    0.30769230769231             8
    0.10714285714285    0.37500000000000    0.30769230769231             8
    0.17857142857143    0.37500000000000    0.30769230769231             8
    0.25000000000000    0.37500000000000    0.30769230769231             8
    0.32142857142857    0.37500000000000    0.30769230769231             8
    0.39285714285715    0.37500000000000    0.30769230769231             8
    0.46428571428572    0.37500000000000    0.30769230769231             8
    0.03571428571428    0.42500000000000    0.30769230769231             8
    0.10714285714285    0.42500000000000    0.30769230769231             8
    0.17857142857143    0.42500000000000    0.30769230769231             8
    0.25000000000000    0.42500000000000    0.30769230769231             8
    0.32142857142857    0.42500000000000    0.30769230769231             8
    0.39285714285715    0.42500000000000    0.30769230769231             8
    0.46428571428572    0.42500000000000    0.30769230769231             8
    0.03571428571428    0.47500000000000    0.30769230769231             8
    0.10714285714285    0.47500000000000    0.30769230769231             8
    0.17857142857143    0.47500000000000    0.30769230769231             8
    0.25000000000000    0.47500000000000    0.30769230769231             8
    0.32142857142857    0.47500000000000    0.30769230769231             8
    0.39285714285715    0.47500000000000    0.30769230769231             8
    0.46428571428572    0.47500000000000    0.30769230769231             8
    0.03571428571428    0.02500000000000    0.38461538461539             8
    0.10714285714285    0.02500000000000    0.38461538461539             8
    0.17857142857143    0.02500000000000    0.38461538461539             8
    0.25000000000000    0.02500000000000    0.38461538461539             8
    0.32142857142857    0.02500000000000    0.38461538461539             8
    0.39285714285715    0.02500000000000    0.38461538461539             8
    0.46428571428572    0.02500000000000    0.38461538461539             8
    0.03571428571428    0.07500000000000    0.38461538461539             8
    0.10714285714285    0.07500000000000    0.38461538461539             8
    0.17857142857143    0.07500000000000    0.38461538461539             8
    0.25000000000000    0.07500000000000    0.38461538461539             8
    0.32142857142857    0.07500000000000    0.38461538461539             8
    0.39285714285715    0.07500000000000    0.38461538461539             8
    0.46428571428572    0.07500000000000    0.38461538461539             8
    0.03571428571428    0.12500000000000    0.38461538461539             8
    0.10714285714285    0.12500000000000    0.38461538461539             8
    0.17857142857143    0.12500000000000    0.38461538461539             8
    0.25000000000000    0.12500000000000    0.38461538461539             8
    0.32142857142857    0.12500000000000    0.38461538461539             8
    0.39285714285715    0.12500000000000    0.38461538461539             8
    0.46428571428572    0.12500000000000    0.38461538461539             8
    0.03571428571428    0.17500000000000    0.38461538461539             8
    0.10714285714285    0.17500000000000    0.38461538461539             8
    0.17857142857143    0.17500000000000    0.38461538461539             8
    0.25000000000000    0.17500000000000    0.38461538461539             8
    0.32142857142857    0.17500000000000    0.38461538461539             8
    0.39285714285715    0.17500000000000    0.38461538461539             8
    0.46428571428572    0.17500000000000    0.38461538461539             8
    0.03571428571428    0.22500000000000    0.38461538461539             8
    0.10714285714285    0.22500000000000    0.38461538461539             8
    0.17857142857143    0.22500000000000    0.38461538461539             8
    0.25000000000000    0.22500000000000    0.38461538461539             8
    0.32142857142857    0.22500000000000    0.38461538461539             8
    0.39285714285715    0.22500000000000    0.38461538461539             8
    0.46428571428572    0.22500000000000    0.38461538461539             8
    0.03571428571428    0.27500000000000    0.38461538461539             8
    0.10714285714285    0.27500000000000    0.38461538461539             8
    0.17857142857143    0.27500000000000    0.38461538461539             8
    0.25000000000000    0.27500000000000    0.38461538461539             8
    0.32142857142857    0.27500000000000    0.38461538461539             8
    0.39285714285715    0.27500000000000    0.38461538461539             8
    0.46428571428572    0.27500000000000    0.38461538461539             8
    0.03571428571428    0.32500000000000    0.38461538461539             8
    0.10714285714285    0.32500000000000    0.38461538461539             8
    0.17857142857143    0.32500000000000    0.38461538461539             8
    0.25000000000000    0.32500000000000    0.38461538461539             8
    0.32142857142857    0.32500000000000    0.38461538461539             8
    0.39285714285715    0.32500000000000    0.38461538461539             8
    0.46428571428572    0.32500000000000    0.38461538461539             8