       N       E                     dE             d eps       ncg     rms          rms(c)
DAV:   1     0.755614237006E+01    0.75561E+01   -0.32814E+02  8400   0.335E+01
DAV:   2     0.701787645745E-01   -0.74860E+01   -0.74626E+01 16800   0.543E+00
DAV:   3    -0.558657701332E-01   -0.12604E+00   -0.10663E+00  8400   0.127E+00
DAV:   4    -0.582449484308E-01   -0.23792E-02   -0.23368E-02  9648   0.148E-01
DAV:   5    -0.582717863775E-01   -0.26838E-04   -0.26832E-04 13056   0.174E-02    0.740E-03
DAV:   6    -0.582720901605E-01   -0.30378E-06   -0.20354E-06 10944   0.173E-03
   1 F= -.58272090E-01 E0= -.31771420E-01  d E =-.530013E-01
