 running   24 mpi-ranks, with    1 threads/rank, on    1 nodes
 distrk:  each k-point on   24 cores,    1 groups
 distr:  one band on    1 cores,   24 groups
 vasp.6.4.3 19Mar24 (build May 31 2024 16:31:43) complex                        
  
 POSCAR found type information on POSCAR B 
 POSCAR found :  1 types and       1 ions
 Reading from existing POTCAR
 scaLAPACK will be used
 Reading from existing POTCAR
 LDA part: xc-table for (Slater+PW92), standard interpolation
 POSCAR, INCAR and KPOINTS ok, starting setup
 FFT: planning ... GRIDC
 FFT: planning ... GRID_SOFT
 FFT: planning ... GRID
 WAVECAR not read
 entering main loop
       N       E                     dE             d eps       ncg     rms          rms(c)
DAV:   1     0.856405460241E+01    0.85641E+01   -0.36869E+02  8400   0.461E+01
DAV:   2     0.147707290053E+00   -0.84163E+01   -0.83707E+01 16080   0.609E+00
DAV:   3    -0.539303225535E-01   -0.20164E+00   -0.17765E+00  8760   0.167E+00
DAV:   4    -0.582071846242E-01   -0.42769E-02   -0.39744E-02  9552   0.207E-01
DAV:   5    -0.582541567899E-01   -0.46972E-04   -0.46943E-04 13440   0.245E-02    0.354E-03
DAV:   6    -0.582567711065E-01   -0.26143E-05   -0.26724E-06 11568   0.276E-03    0.191E-03
DAV:   7    -0.582579393134E-01   -0.11682E-05   -0.35863E-07 11208   0.270E-03    0.173E-04
DAV:   8    -0.582579672066E-01   -0.27893E-07   -0.22356E-09 14136   0.140E-04
   1 F= -.58257967E-01 E0= -.31757297E-01  d E =-.530013E-01
