   14   14    1    1
  0.1021960E+02  0.5697000E-09  0.4047900E-09  0.6204200E-09  0.5000000E-15
  1.000000000000000E-004
  CAR 
 Kpoints                                 
     42     96     48
 
  0.6250000E-01  0.0000000E+00  0.0000000E+00  0.3246753E-02
      1        -12.724949   1.000000
      2        -11.591057   1.000000
      3         -8.658585   1.000000
      4         -8.421560   1.000000
      5         -6.058487   1.000000
      6         -5.169630   1.000000
      7         -4.680790   1.000000
      8         -4.216364   1.000000
      9         -3.962112   1.000000
     10         -3.513963   1.000000
     11         -2.412605   1.000000
     12         -2.238893   1.000000
     13         -2.211637   1.000000
     14         -1.116114   1.000000
     15         -0.028123   1.000000
     16          0.010157   1.000000
     17          0.148163   1.000000
     18          0.161758   1.000000
     19          0.547380   1.000000
     20          2.062168   0.000000
     21          2.109505   0.000000
     22          2.194392   0.000000
     23          5.433236   0.000000
     24          5.792968   0.000000
     25          5.796280   0.000000
     26          6.018913   0.000000
     27          6.769478   0.000000
     28          7.461735   0.000000
     29          7.873991   0.000000
     30          8.663730   0.000000
     31          8.832743   0.000000
     32          8.906058   0.000000
     33          9.045386   0.000000
     34         10.056170   0.000000
     35         11.158717   0.000000
     36         11.315930   0.000000
     37         11.626020   0.000000
     38         11.756891   0.000000
     39         11.947109   0.000000
     40         12.371547   0.000000
     41         12.902044   0.000000
     42         13.494815   0.000000
     43         13.546765   0.000000
     44         15.308712   0.000000
     45         15.617396   0.000000
     46         16.117123   0.000000
     47         16.297073   0.000000
     48         16.382334   0.000000
 
  0.1875000E+00  0.0000000E+00  0.0000000E+00  0.3246753E-02
      1        -12.656906   1.000000
      2        -11.703575   1.000000
      3         -8.625005   1.000000
      4         -8.405101   1.000000
      5         -5.976449   1.000000
      6         -5.604260   1.000000
      7         -4.802760   1.000000
      8         -3.866510   1.000000
      9         -3.620771   1.000000
     10         -3.036468   1.000000
     11         -2.414037   1.000000
     12         -2.381843   1.000000
     13         -2.257610   1.000000
     14         -1.574201   1.000000
     15         -0.053182   1.000000
     16          0.037789   1.000000
     17          0.107781   1.000000
     18          0.195756   1.000000
     19          0.423556   1.000000
     20          1.931008   0.020065
     21          1.992094   0.000078
     22          2.008658   0.000011
     23          5.558552   0.000000
     24          5.726432   0.000000
     25          5.973570   0.000000
     26          6.508069   0.000000
     27          6.644169   0.000000
     28          7.020133   0.000000
     29          8.115907   0.000000
     30          8.850803   0.000000
     31          9.016179   0.000000
     32          9.292080   0.000000
     33          9.303588   0.000000
     34         10.285499   0.000000
     35         10.733104   0.000000
     36         10.910414   0.000000
     37         11.274882   0.000000
     38         11.696239   0.000000
     39         12.250786   0.000000
     40         12.532104   0.000000
     41         12.969732   0.000000
     42         13.130989   0.000000
     43         14.324373   0.000000
     44         14.756820   0.000000
     45         15.582743   0.000000
     46         15.912177   0.000000
     47         16.289260   0.000000
     48         16.602648   0.000000
 
  0.3125000E+00  0.0000000E+00  0.0000000E+00  0.3246753E-02
      1        -12.525504   1.000000
      2        -11.895695   1.000000
      3         -8.557749   1.000000
      4         -8.391817   1.000000
      5         -6.019996   1.000000
      6         -5.958924   1.000000
      7         -4.564990   1.000000
      8         -3.680123   1.000000
      9         -3.013035   1.000000
     10         -2.734811   1.000000
     11         -2.444964   1.000000
     12         -2.360800   1.000000
     13         -2.280562   1.000000
     14         -2.198123   1.000000
     15         -0.403154   1.000000
     16         -0.098152   1.000000
     17          0.151894   1.000000
     18          0.236207   1.000000
     19          0.538184   1.000000
     20          1.661005   1.000000
     21          1.742882   0.999460
     22          1.810579   0.912105
     23          5.677034   0.000000
     24          5.694681   0.000000
     25          6.492277   0.000000
     26          6.507486   0.000000
     27          6.705753   0.000000
     28          7.196951   0.000000
     29          8.289058   0.000000
     30          8.848748   0.000000
     31          8.879946   0.000000
     32          9.844527   0.000000
     33          9.870211   0.000000
     34          9.921270   0.000000
     35         10.400819   0.000000
     36         10.877379   0.000000
     37         11.404005   0.000000
     38         12.011398   0.000000
     39         12.216874   0.000000
     40         12.452701   0.000000
     41         12.527608   0.000000
     42         13.067995   0.000000
     43         14.859335   0.000000
     44         14.949514   0.000000
     45         15.222565   0.000000
     46         15.636092   0.000000
     47         15.680444   0.000000
     48         16.281831   0.000000
 
  0.4375000E+00  0.0000000E+00  0.0000000E+00  0.3246753E-02
      1        -12.341040   1.000000
      2        -12.121592   1.000000
      3         -8.474607   1.000000
      4         -8.411163   1.000000
      5         -6.139388   1.000000
      6         -6.134994   1.000000
      7         -3.968993   1.000000
      8         -3.413789   1.000000
      9         -3.226745   1.000000
     10         -3.087268   1.000000
     11         -2.479012   1.000000
     12         -2.370885   1.000000
     13         -2.013934   1.000000
     14         -1.933438   1.000000
     15         -0.726784   1.000000
     16         -0.559896   1.000000
     17          0.268263   1.000000
     18          0.309268   1.000000
     19          0.841681   1.000000
     20          1.237661   1.000000
     21          1.619593   1.000000
     22          1.652911   1.000000
     23          5.696058   0.000000
     24          5.736341   0.000000
     25          6.435572   0.000000
     26          6.515674   0.000000
     27          7.305975   0.000000
     28          8.009643   0.000000
     29          8.214497   0.000000
     30          8.439245   0.000000
     31          8.621676   0.000000
     32          8.902504   0.000000
     33         10.467137   0.000000
     34         10.477315   0.000000
     35         10.710588   0.000000
     36         11.318007   0.000000
     37         11.418065   0.000000
     38         11.663844   0.000000
     39         11.832582   0.000000
     40         12.487344   0.000000
     41         12.603469   0.000000
     42         13.267827   0.000000
     43         14.554740   0.000000
     44         14.765297   0.000000
     45         14.940593   0.000000
     46         14.944305   0.000000
     47         16.027389   0.000000
     48         16.464690   0.000000
 
  0.6250000E-01  0.9090909E-01  0.0000000E+00  0.6493506E-02
      1        -12.705288   1.000000
      2        -11.573376   1.000000
      3         -8.643156   1.000000
      4         -8.402606   1.000000
      5         -6.036449   1.000000
      6         -5.142493   1.000000
      7         -4.662871   1.000000
      8         -4.451270   1.000000
      9         -4.132683   1.000000
     10         -3.494774   1.000000
     11         -3.140633   1.000000
     12         -1.932060   1.000000
     13         -1.225229   1.000000
     14         -1.112328   1.000000
     15         -0.235585   1.000000
     16         -0.207202   1.000000
     17          0.174279   1.000000
     18          0.227839   1.000000
     19          0.621038   1.000000
     20          1.820543   0.858143
     21          1.898493   0.128660
     22          2.254715   0.000000
     23          5.625343   0.000000
     24          5.642324   0.000000
     25          5.827411   0.000000
     26          5.971105   0.000000
     27          7.011123   0.000000
     28          7.706901   0.000000
     29          8.118405   0.000000
     30          8.198630   0.000000
     31          8.837902   0.000000
     32          9.080060   0.000000
     33          9.131176   0.000000
     34         10.457485   0.000000
     35         11.253944   0.000000
     36         11.342317   0.000000
     37         11.568548   0.000000
     38         11.842815   0.000000
     39         12.035322   0.000000
     40         12.603230   0.000000
     41         12.907830   0.000000
     42         13.242506   0.000000
     43         13.316161   0.000000
     44         15.331199   0.000000
     45         15.425977   0.000000
     46         15.947224   0.000000
     47         15.983181   0.000000
     48         16.291320   0.000000
 
  0.1875000E+00  0.9090909E-01  0.0000000E+00  0.6493506E-02
      1        -12.637369   1.000000
      2        -11.685713   1.000000
      3         -8.609399   1.000000
      4         -8.386628   1.000000
      5         -5.952165   1.000000
      6         -5.579495   1.000000
      7         -4.787400   1.000000
      8         -4.330090   1.000000
      9         -3.564794   1.000000
     10         -3.257873   1.000000
     11         -3.003234   1.000000
     12         -1.898373   1.000000
     13         -1.569116   1.000000
     14         -1.374673   1.000000
     15         -0.180546   1.000000
     16         -0.143195   1.000000
     17          0.087603   1.000000
     18          0.235668   1.000000
     19          0.479387   1.000000
     20          1.698009   0.999997
     21          1.782549   0.984090
     22          2.055167   0.000000
     23          5.775201   0.000000
     24          5.778582   0.000000
     25          5.905837   0.000000
     26          6.327111   0.000000
     27          6.888397   0.000000
     28          7.307562   0.000000
     29          8.330988   0.000000
     30          8.408164   0.000000
     31          9.112062   0.000000
     32          9.317957   0.000000
     33          9.524750   0.000000
     34         10.417631   0.000000
     35         10.683651   0.000000
     36         10.888390   0.000000
     37         11.433210   0.000000
     38         11.867686   0.000000
     39         12.349700   0.000000
     40         12.689290   0.000000
     41         12.789404   0.000000
     42         13.157975   0.000000
     43         14.026849   0.000000
     44         14.899142   0.000000
     45         15.458795   0.000000
     46         15.768935   0.000000
     47         15.873078   0.000000
     48         16.539128   0.000000
 
  0.3125000E+00  0.9090909E-01  0.0000000E+00  0.6493506E-02
      1        -12.506198   1.000000
      2        -11.877503   1.000000
      3         -8.541921   1.000000
      4         -8.374174   1.000000
      5         -5.993568   1.000000
      6         -5.933549   1.000000
      7         -4.552581   1.000000
      8         -4.165423   1.000000
      9         -3.446229   1.000000
     10         -2.940033   1.000000
     11         -2.397738   1.000000
     12         -2.240845   1.000000
     13         -1.826620   1.000000
     14         -1.568458   1.000000
     15         -0.381784   1.000000
     16         -0.195870   1.000000
     17          0.116743   1.000000
     18          0.123067   1.000000
     19          0.549143   1.000000
     20          1.515521   1.000000
     21          1.603533   1.000000
     22          1.695181   0.999998
     23          5.821334   0.000000
     24          5.914868   0.000000
     25          6.356773   0.000000
     26          6.743883   0.000000
     27          6.823097   0.000000
     28          7.207647   0.000000
     29          8.487678   0.000000
     30          8.562494   0.000000
     31          8.978436   0.000000
     32          9.695174   0.000000
     33          9.902498   0.000000
     34         10.082342   0.000000
     35         10.279449   0.000000
     36         10.986607   0.000000
     37         11.467689   0.000000
     38         12.035150   0.000000
     39         12.260849   0.000000
     40         12.568823   0.000000
     41         12.612692   0.000000
     42         13.237665   0.000000
     43         14.694078   0.000000
     44         14.939980   0.000000
     45         15.346406   0.000000
     46         15.454000   0.000000
     47         15.589713   0.000000
     48         16.344926   0.000000
 
  0.4375000E+00  0.9090909E-01  0.0000000E+00  0.6493506E-02
      1        -12.322064   1.000000
      2        -12.103000   1.000000
      3         -8.458466   1.000000
      4         -8.394425   1.000000
      5         -6.113170   1.000000
      6         -6.108310   1.000000
      7         -3.958533   1.000000
      8         -3.944972   1.000000
      9         -3.690969   1.000000
     10         -3.213376   1.000000
     11         -2.176754   1.000000
     12         -1.933210   1.000000
     13         -1.727201   1.000000
     14         -1.726270   1.000000
     15         -0.695853   1.000000
     16         -0.559189   1.000000
     17          0.148908   1.000000
     18          0.186909   1.000000
     19          0.849448   1.000000
     20          1.243149   1.000000
     21          1.417084   1.000000
     22          1.447467   1.000000
     23          5.863715   0.000000
     24          5.932490   0.000000
     25          6.698548   0.000000
     26          6.768028   0.000000
     27          7.151688   0.000000
     28          7.894932   0.000000
     29          8.041459   0.000000
     30          8.614472   0.000000
     31          8.727723   0.000000
     32          8.801418   0.000000
     33         10.331957   0.000000
     34         10.511526   0.000000
     35         10.746365   0.000000
     36         11.043345   0.000000
     37         11.546027   0.000000
     38         11.704906   0.000000
     39         11.898596   0.000000
     40         12.639564   0.000000
     41         12.875331   0.000000
     42         13.461975   0.000000
     43         14.593136   0.000000
     44         14.782579   0.000000
     45         14.820281   0.000000
     46         15.043224   0.000000
     47         16.075245   0.000000
     48         16.444515   0.000000
 
  0.6250000E-01  0.1818182E+00  0.0000000E+00  0.6493506E-02
      1        -12.651082   1.000000
      2        -11.524741   1.000000
      3         -8.601036   1.000000
      4         -8.350466   1.000000
      5         -5.975645   1.000000
      6         -5.158257   1.000000
      7         -5.029555   1.000000
      8         -4.612170   1.000000
      9         -4.112258   1.000000
     10         -3.939476   1.000000
     11         -3.432130   1.000000
     12         -1.185152   1.000000
     13         -1.099542   1.000000
     14         -0.671239   1.000000
     15         -0.539642   1.000000
     16         -0.133518   1.000000
     17          0.200633   1.000000
     18          0.296371   1.000000
     19          0.721451   1.000000
     20          1.344563   1.000000
     21          1.405682   1.000000
     22          2.304321   0.000000
     23          5.269915   0.000000
     24          5.473321   0.000000
     25          6.155617   0.000000
     26          6.202155   0.000000
     27          7.549340   0.000000
     28          7.621215   0.000000
     29          8.309006   0.000000
     30          8.752152   0.000000
     31          8.945421   0.000000
     32          9.248516   0.000000
     33          9.408147   0.000000
     34         10.852409   0.000000
     35         11.265739   0.000000
     36         11.565372   0.000000
     37         11.717820   0.000000
     38         12.094797   0.000000
     39         12.296461   0.000000
     40         12.716694   0.000000
     41         12.783687   0.000000
     42         13.050933   0.000000
     43         13.252286   0.000000
     44         14.640519   0.000000
     45         15.094892   0.000000
     46         15.324930   0.000000
     47         15.426952   0.000000
     48         15.935523   0.000000
 
  0.1875000E+00  0.1818182E+00  0.0000000E+00  0.6493506E-02
      1        -12.583513   1.000000
      2        -11.636561   1.000000
      3         -8.566789   1.000000
      4         -8.335828   1.000000
      5         -5.884939   1.000000
      6         -5.516083   1.000000
      7         -5.027341   1.000000
      8         -4.744374   1.000000
      9         -4.041347   1.000000
     10         -3.506738   1.000000
     11         -2.953326   1.000000
     12         -1.555786   1.000000
     13         -1.145236   1.000000
     14         -0.807543   1.000000
     15         -0.485867   1.000000
     16         -0.038786   1.000000
     17          0.099174   1.000000
     18          0.275617   1.000000
     19          0.555756   1.000000
     20          1.225659   1.000000
     21          1.301739   1.000000
     22          2.094238   0.000000
     23          5.447176   0.000000
     24          5.951931   0.000000
     25          6.131491   0.000000
     26          6.315527   0.000000
     27          7.437408   0.000000
     28          7.850968   0.000000
     29          7.995805   0.000000
     30          8.887877   0.000000
     31          9.267896   0.000000
     32          9.460796   0.000000
     33          9.826863   0.000000
     34         10.297800   0.000000
     35         10.553729   0.000000
     36         11.176329   0.000000
     37         11.718008   0.000000
     38         12.281299   0.000000
     39         12.320060   0.000000
     40         12.616393   0.000000
     41         13.225887   0.000000
     42         13.339501   0.000000
     43         13.605260   0.000000
     44         14.630826   0.000000
     45         14.754993   0.000000
     46         15.258937   0.000000
     47         15.513151   0.000000
     48         16.040235   0.000000
 
  0.3125000E+00  0.1818182E+00  0.0000000E+00  0.6493506E-02
      1        -12.452993   1.000000
      2        -11.827432   1.000000
      3         -8.498639   1.000000
      4         -8.325752   1.000000
      5         -5.920066   1.000000
      6         -5.864120   1.000000
      7         -4.884154   1.000000
      8         -4.518120   1.000000
      9         -4.224182   1.000000
     10         -2.875735   1.000000
     11         -2.345076   1.000000
     12         -2.208643   1.000000
     13         -1.082572   1.000000
     14         -0.973266   1.000000
     15         -0.439688   1.000000
     16         -0.253099   1.000000
     17          0.054765   1.000000
     18          0.140042   1.000000
     19          0.572694   1.000000
     20          1.054301   1.000000
     21          1.141515   1.000000
     22          1.717144   0.999968
     23          5.981291   0.000000
     24          6.115885   0.000000
     25          6.425051   0.000000
     26          6.592826   0.000000
     27          7.334078   0.000000
     28          7.825625   0.000000
     29          8.085808   0.000000
     30          9.038983   0.000000
     31          9.196587   0.000000
     32          9.389196   0.000000
     33          9.957664   0.000000
     34         10.013073   0.000000
     35         10.540659   0.000000
     36         11.163272   0.000000
     37         11.279650   0.000000
     38         12.018679   0.000000
     39         12.578066   0.000000
     40         12.877670   0.000000
     41         12.977131   0.000000
     42         13.682181   0.000000
     43         14.251437   0.000000
     44         14.443173   0.000000
     45         14.966547   0.000000
     46         15.307536   0.000000
     47         15.465850   0.000000
     48         16.331740   0.000000
 
  0.4375000E+00  0.1818182E+00  0.0000000E+00  0.6493506E-02
      1        -12.269792   1.000000
      2        -12.051825   1.000000
      3         -8.414293   1.000000
      4         -8.348533   1.000000
      5         -6.040553   1.000000
      6         -6.034153   1.000000
      7         -4.683528   1.000000
      8         -4.452038   1.000000
      9         -3.927054   1.000000
     10         -3.185662   1.000000
     11         -2.078635   1.000000
     12         -1.884145   1.000000
     13         -1.088409   1.000000
     14         -1.019474   1.000000
     15         -0.606861   1.000000
     16         -0.594657   1.000000
     17          0.007184   1.000000
     18          0.060063   1.000000
     19          0.869448   1.000000
     20          0.951204   1.000000
     21          0.998956   1.000000
     22          1.275454   1.000000
     23          6.200916   0.000000
     24          6.349886   0.000000
     25          6.778167   0.000000
     26          7.183520   0.000000
     27          7.301161   0.000000
     28          7.687353   0.000000
     29          7.904941   0.000000
     30          8.512115   0.000000
     31          9.119737   0.000000
     32          9.153305   0.000000
     33          9.959107   0.000000
     34         10.537415   0.000000
     35         10.652498   0.000000
     36         10.977528   0.000000
     37         11.770546   0.000000
     38         11.798029   0.000000
     39         12.044253   0.000000
     40         12.984499   0.000000
     41         13.378687   0.000000
     42         13.803334   0.000000
     43         14.209981   0.000000
     44         14.384344   0.000000
     45         14.975925   0.000000
     46         15.127033   0.000000
     47         15.940331   0.000000
     48         16.316886   0.000000
 
  0.6250000E-01  0.2727273E+00  0.0000000E+00  0.6493506E-02
      1        -12.576550   1.000000
      2        -11.458122   1.000000
      3         -8.544153   1.000000
      4         -8.278929   1.000000
      5         -5.891798   1.000000
      6         -5.748981   1.000000
      7         -4.943353   1.000000
      8         -4.579901   1.000000
      9         -4.536508   1.000000
     10         -4.056628   1.000000
     11         -3.350926   1.000000
     12         -1.308724   1.000000
     13         -1.116880   1.000000
     14         -1.082624   1.000000
     15         -0.007569   1.000000
     16          0.240446   1.000000
     17          0.349717   1.000000
     18          0.720124   1.000000
     19          0.795250   1.000000
     20          0.867832   1.000000
     21          0.973915   1.000000
     22          2.347402   0.000000
     23          4.839389   0.000000
     24          5.100979   0.000000
     25          6.395407   0.000000
     26          6.739447   0.000000
     27          7.192292   0.000000
     28          8.079351   0.000000
     29          8.715798   0.000000
     30          9.273088   0.000000
     31          9.543100   0.000000
     32          9.761992   0.000000
     33          9.845144   0.000000
     34         10.656350   0.000000
     35         11.169930   0.000000
     36         12.109016   0.000000
     37         12.117135   0.000000
     38         12.319276   0.000000
     39         12.343393   0.000000
     40         12.468742   0.000000
     41         12.520848   0.000000
     42         13.084734   0.000000
     43         13.539938   0.000000
     44         14.096500   0.000000
     45         14.236583   0.000000
     46         15.047100   0.000000
     47         15.470593   0.000000
     48         15.806907   0.000000
 
  0.1875000E+00  0.2727273E+00  0.0000000E+00  0.6493506E-02
      1        -12.509478   1.000000
      2        -11.569226   1.000000
      3         -8.509165   1.000000
      4         -8.266233   1.000000
      5         -5.791641   1.000000
      6         -5.688381   1.000000
      7         -5.375951   1.000000
      8         -4.694465   1.000000
      9         -4.667658   1.000000
     10         -3.432724   1.000000
     11         -2.872748   1.000000
     12         -1.541206   1.000000
     13         -1.229879   1.000000
     14         -1.123738   1.000000
     15         -0.045026   1.000000
     16          0.132085   1.000000
     17          0.323566   1.000000
     18          0.606982   1.000000
     19          0.609671   1.000000
     20          0.845836   1.000000
     21          0.939401   1.000000
     22          2.133825   0.000000
     23          5.035226   0.000000
     24          5.563339   0.000000
     25          6.330555   0.000000
     26          6.918836   0.000000
     27          7.389202   0.000000
     28          8.043457   0.000000
     29          8.763211   0.000000
     30          9.374075   0.000000
     31          9.449859   0.000000
     32          9.897529   0.000000
     33         10.088618   0.000000
     34         10.200536   0.000000
     35         10.591606   0.000000
     36         11.701262   0.000000
     37         11.715334   0.000000
     38         12.297922   0.000000
     39         12.590755   0.000000
     40         12.745888   0.000000
     41         13.050941   0.000000
     42         13.422557   0.000000
     43         13.565704   0.000000
     44         14.108830   0.000000
     45         14.140885   0.000000
     46         15.039786   0.000000
     47         15.459878   0.000000
     48         15.780713   0.000000
 
  0.3125000E+00  0.2727273E+00  0.0000000E+00  0.6493506E-02
      1        -12.379910   1.000000
      2        -11.758796   1.000000
      3         -8.440021   1.000000
      4         -8.259623   1.000000
      5         -5.817231   1.000000
      6         -5.780831   1.000000
      7         -5.492338   1.000000
      8         -4.860516   1.000000
      9         -4.469916   1.000000
     10         -2.800989   1.000000
     11         -2.268308   1.000000
     12         -2.172950   1.000000
     13         -1.132864   1.000000
     14         -1.116145   1.000000
     15         -0.247383   1.000000
     16         -0.173592   1.000000
     17          0.226023   1.000000
     18          0.411227   1.000000
     19          0.597607   1.000000
     20          0.821843   1.000000
     21          0.896557   1.000000
     22          1.750912   0.998823
     23          5.576221   0.000000
     24          6.201306   0.000000
     25          6.367921   0.000000
     26          6.938335   0.000000
     27          7.547355   0.000000
     28          8.122146   0.000000
     29          8.763198   0.000000
     30          9.083545   0.000000
     31          9.281175   0.000000
     32          9.657880   0.000000
     33         10.030286   0.000000
     34         10.328226   0.000000
     35         10.980698   0.000000
     36         11.029534   0.000000
     37         11.444539   0.000000
     38         12.298854   0.000000
     39         12.660644   0.000000
     40         12.982283   0.000000
     41         13.135779   0.000000
     42         13.514028   0.000000
     43         13.698697   0.000000
     44         14.245092   0.000000
     45         14.560372   0.000000
     46         15.113297   0.000000
     47         15.254863   0.000000
     48         16.246705   0.000000
 
  0.4375000E+00  0.2727273E+00  0.0000000E+00  0.6493506E-02
      1        -12.198028   1.000000
      2        -11.981631   1.000000
      3         -8.354346   1.000000
      4         -8.286095   1.000000
      5         -5.940957   1.000000
      6         -5.930741   1.000000
      7         -5.309875   1.000000
      8         -5.084571   1.000000
      9         -3.884654   1.000000
     10         -3.146094   1.000000
     11         -2.003842   1.000000
     12         -1.823422   1.000000
     13         -1.029615   1.000000
     14         -1.005902   1.000000
     15         -0.658803   1.000000
     16         -0.551404   1.000000
     17          0.118023   1.000000
     18          0.213888   1.000000
     19          0.822073   1.000000
     20          0.854277   1.000000
     21          0.901689   1.000000
     22          1.304557   1.000000
     23          6.363136   0.000000
     24          6.490449   0.000000
     25          6.728225   0.000000
     26          6.989325   0.000000
     27          7.184880   0.000000
     28          7.749852   0.000000
     29          8.742691   0.000000
     30          8.751733   0.000000
     31          9.413535   0.000000
     32          9.803427   0.000000
     33          9.924894   0.000000
     34         10.113890   0.000000
     35         10.884739   0.000000
     36         11.353576   0.000000
     37         11.938283   0.000000
     38         12.052868   0.000000
     39         12.189906   0.000000
     40         13.225566   0.000000
     41         13.226814   0.000000
     42         13.462510   0.000000
     43         13.814489   0.000000
     44         13.916047   0.000000
     45         15.077126   0.000000
     46         15.126135   0.000000
     47         15.527929   0.000000
     48         15.894597   0.000000
 
  0.6250000E-01  0.3636364E+00  0.0000000E+00  0.6493506E-02
      1        -12.504085   1.000000
      2        -11.393645   1.000000
      3         -8.490033   1.000000
      4         -8.209369   1.000000
      5         -6.200162   1.000000
      6         -5.809394   1.000000
      7         -5.031285   1.000000
      8         -4.833727   1.000000