  14  14   0   0
  0.1021318E+02  0.5700971E-09  0.4044058E-09  0.6201871E-09  0.5000000E-15
  1.000000000000000E-004
  CAR 
 SC                                      
     17.93914784    -14.14980859  301      1.91916361      1.00000000
    -14.150  0.0000E+00  0.0000E+00
    -14.043  0.0000E+00  0.0000E+00
    -13.936  0.0000E+00  0.0000E+00
    -13.829  0.0000E+00  0.0000E+00
    -13.722  0.0000E+00  0.0000E+00
    -13.615  0.0000E+00  0.0000E+00
    -13.508  0.0000E+00  0.0000E+00
    -13.401  0.0000E+00  0.0000E+00
    -13.294  0.0000E+00  0.0000E+00
    -13.187  0.1276E-12  0.1365E-13
    -13.080  0.2481E-08  0.2654E-09
    -12.973  0.5657E-05  0.6054E-06
    -12.866  0.1672E-02  0.1795E-03
    -12.759  0.7691E-01  0.8406E-02
    -12.652  0.7390E+00  0.8745E-01
    -12.545  0.2226E+01  0.3255E+00
    -12.438  0.3467E+01  0.6964E+00
    -12.331  0.4015E+01  0.1126E+01
    -12.224  0.3534E+01  0.1504E+01
    -12.118  0.2875E+01  0.1811E+01
    -12.011  0.2629E+01  0.2092E+01
    -11.904  0.2536E+01  0.2364E+01
    -11.797  0.2706E+01  0.2653E+01
    -11.690  0.3110E+01  0.2986E+01
    -11.583  0.3426E+01  0.3352E+01
    -11.476  0.3082E+01  0.3682E+01
    -11.369  0.2011E+01  0.3897E+01
    -11.262  0.8112E+00  0.3984E+01
    -11.155  0.1438E+00  0.3999E+01
    -11.048  0.6785E-02  0.4000E+01
    -10.941  0.5572E-04  0.4000E+01
    -10.834  0.6187E-07  0.4000E+01
    -10.727  0.8220E-11  0.4000E+01
    -10.620  0.1186E-15  0.4000E+01
    -10.513  0.0000E+00  0.4000E+01
    -10.406  0.0000E+00  0.4000E+01
    -10.299  0.0000E+00  0.4000E+01
    -10.192  0.0000E+00  0.4000E+01
    -10.085  0.0000E+00  0.4000E+01
     -9.978  0.0000E+00  0.4000E+01
     -9.871  0.0000E+00  0.4000E+01
     -9.764  0.0000E+00  0.4000E+01
     -9.657  0.0000E+00  0.4000E+01
     -9.550  0.0000E+00  0.4000E+01
     -9.443  0.0000E+00  0.4000E+01
     -9.336  0.2032E-13  0.4000E+01
     -9.230  0.5633E-09  0.4000E+01
     -9.123  0.1824E-05  0.4000E+01
     -9.016  0.7596E-03  0.4000E+01
     -8.909  0.4772E-01  0.4005E+01
     -8.802  0.6015E+00  0.4070E+01
     -8.695  0.2473E+01  0.4334E+01
     -8.588  0.5155E+01  0.4885E+01
     -8.481  0.6340E+01  0.5563E+01
     -8.374  0.5495E+01  0.6151E+01
     -8.267  0.4781E+01  0.6663E+01
     -8.160  0.4660E+01  0.7161E+01
     -8.053  0.3971E+01  0.7586E+01
     -7.946  0.2435E+01  0.7846E+01
     -7.839  0.1071E+01  0.7961E+01
     -7.732  0.3240E+00  0.7995E+01
     -7.625  0.4116E-01  0.8000E+01
     -7.518  0.1205E-02  0.8000E+01
     -7.411  0.5236E-05  0.8000E+01
     -7.304  0.3915E-08  0.8000E+01
     -7.197  0.2626E-05  0.8000E+01
     -7.090  0.7089E-03  0.8000E+01
     -6.983  0.2532E-01  0.8003E+01
     -6.876  0.1507E+00  0.8019E+01
     -6.769  0.2778E+00  0.8049E+01
     -6.662  0.4933E+00  0.8101E+01
     -6.555  0.7512E+00  0.8182E+01
     -6.448  0.9574E+00  0.8284E+01
     -6.341  0.1447E+01  0.8439E+01
     -6.235  0.2168E+01  0.8671E+01
     -6.128  0.3223E+01  0.9016E+01
     -6.021  0.3783E+01  0.9420E+01
     -5.914  0.4058E+01  0.9854E+01
     -5.807  0.4108E+01  0.1029E+02
     -5.700  0.3992E+01  0.1072E+02
     -5.593  0.4029E+01  0.1115E+02
     -5.486  0.4346E+01  0.1162E+02
     -5.379  0.4603E+01  0.1211E+02
     -5.272  0.4605E+01  0.1260E+02
     -5.165  0.4285E+01  0.1306E+02
     -5.058  0.3656E+01  0.1345E+02
     -4.951  0.3119E+01  0.1378E+02
     -4.844  0.2779E+01  0.1408E+02
     -4.737  0.2806E+01  0.1438E+02
     -4.630  0.3178E+01  0.1472E+02
     -4.523  0.3333E+01  0.1508E+02
     -4.416  0.3367E+01  0.1544E+02
     -4.309  0.3101E+01  0.1577E+02
     -4.202  0.2954E+01  0.1609E+02
     -4.095  0.2963E+01  0.1640E+02
     -3.988  0.2899E+01  0.1671E+02
     -3.881  0.2938E+01  0.1703E+02
     -3.774  0.3081E+01  0.1736E+02
     -3.667  0.2800E+01  0.1766E+02
     -3.560  0.2834E+01  0.1796E+02
     -3.453  0.2755E+01  0.1825E+02
     -3.347  0.2687E+01  0.1854E+02
     -3.240  0.2886E+01  0.1885E+02
     -3.133  0.2634E+01  0.1913E+02
     -3.026  0.2693E+01  0.1942E+02
     -2.919  0.2972E+01  0.1974E+02
     -2.812  0.2791E+01  0.2004E+02
     -2.705  0.2466E+01  0.2030E+02
     -2.598  0.2514E+01  0.2057E+02
     -2.491  0.2922E+01  0.2088E+02
     -2.384  0.3104E+01  0.2121E+02
     -2.277  0.3373E+01  0.2157E+02
     -2.170  0.3848E+01  0.2199E+02
     -2.063  0.3640E+01  0.2238E+02
     -1.956  0.3670E+01  0.2277E+02
     -1.849  0.4727E+01  0.2327E+02
     -1.742  0.5524E+01  0.2386E+02
     -1.635  0.5879E+01  0.2449E+02
     -1.528  0.6207E+01  0.2516E+02
     -1.421  0.6151E+01  0.2582E+02
     -1.314  0.5508E+01  0.2640E+02
     -1.207  0.5066E+01  0.2695E+02
     -1.100  0.5692E+01  0.2755E+02
     -0.993  0.4244E+01  0.2801E+02
     -0.886  0.2742E+01  0.2830E+02
     -0.779  0.2826E+01  0.2860E+02
     -0.672  0.3644E+01  0.2899E+02
     -0.565  0.4892E+01  0.2952E+02
     -0.459  0.5955E+01  0.3015E+02
     -0.352  0.5785E+01  0.3077E+02
     -0.245  0.6111E+01  0.3143E+02
     -0.138  0.6555E+01  0.3213E+02
     -0.031  0.6719E+01  0.3285E+02
      0.076  0.6852E+01  0.3358E+02
      0.183  0.8442E+01  0.3448E+02
      0.290  0.8922E+01  0.3544E+02
      0.397  0.7966E+01  0.3629E+02
      0.504  0.6203E+01  0.3695E+02
      0.611  0.4101E+01  0.3739E+02
      0.718  0.3502E+01  0.3777E+02
      0.825  0.3597E+01  0.3815E+02
      0.932  0.3554E+01  0.3853E+02
      1.039  0.3333E+01  0.3889E+02
      1.146  0.3176E+01  0.3923E+02
      1.253  0.3305E+01  0.3958E+02
      1.360  0.3872E+01  0.3999E+02
      1.467  0.4088E+01  0.4043E+02
      1.574  0.3989E+01  0.4086E+02
      1.681  0.4118E+01  0.4130E+02
      1.788  0.3334E+01  0.4166E+02
      1.895  0.2629E+01  0.4194E+02
      2.002  0.2564E+01  0.4221E+02
      2.109  0.2381E+01  0.4247E+02
      2.216  0.2471E+01  0.4273E+02
      2.323  0.2582E+01  0.4301E+02
      2.429  0.2095E+01  0.4323E+02
      2.536  0.1195E+01  0.4336E+02
      2.643  0.5545E+00  0.4342E+02
      2.750  0.4872E+00  0.4347E+02
      2.857  0.4614E+00  0.4352E+02
      2.964  0.3820E+00  0.4356E+02
      3.071  0.5252E+00  0.4362E+02
      3.178  0.8604E+00  0.4371E+02
      3.285  0.7630E+00  0.4379E+02
      3.392  0.2792E+00  0.4382E+02
      3.499  0.5594E-01  0.4383E+02
      3.606  0.1974E+00  0.4385E+02
      3.713  0.3610E+00  0.4389E+02
      3.820  0.3266E+00  0.4392E+02
      3.927  0.3638E+00  0.4396E+02
      4.034  0.3045E+00  0.4399E+02
      4.141  0.7420E-01  0.4400E+02
      4.248  0.3468E-01  0.4400E+02
      4.355  0.1510E+00  0.4402E+02
      4.462  0.3330E+00  0.4406E+02
      4.569  0.4893E+00  0.4411E+02
      4.676  0.6626E+00  0.4418E+02
      4.783  0.8436E+00  0.4427E+02
      4.890  0.8890E+00  0.4436E+02
      4.997  0.1013E+01  0.4447E+02
      5.104  0.1215E+01  0.4460E+02
      5.211  0.1327E+01  0.4474E+02
      5.317  0.1553E+01  0.4491E+02
      5.424  0.2071E+01  0.4513E+02
      5.531  0.2560E+01  0.4541E+02
      5.638  0.2800E+01  0.4571E+02
      5.745  0.3167E+01  0.4604E+02
      5.852  0.3557E+01  0.4642E+02
      5.959  0.4266E+01  0.4688E+02
      6.066  0.4574E+01  0.4737E+02
      6.173  0.4385E+01  0.4784E+02
      6.280  0.4529E+01  0.4832E+02
      6.387  0.4186E+01  0.4877E+02
      6.494  0.3930E+01  0.4919E+02
      6.601  0.3810E+01  0.4960E+02
      6.708  0.3495E+01  0.4997E+02
      6.815  0.3996E+01  0.5040E+02
      6.922  0.4466E+01  0.5088E+02
      7.029  0.4555E+01  0.5136E+02
      7.136  0.4356E+01  0.5183E+02
      7.243  0.4869E+01  0.5235E+02
      7.350  0.5207E+01  0.5291E+02
      7.457  0.4425E+01  0.5338E+02
      7.564  0.4194E+01  0.5383E+02
      7.671  0.3676E+01  0.5422E+02
      7.778  0.3338E+01  0.5458E+02
      7.885  0.3134E+01  0.5492E+02
      7.992  0.3216E+01  0.5526E+02
      8.099  0.3716E+01  0.5566E+02
      8.205  0.4011E+01  0.5609E+02
      8.312  0.3745E+01  0.5649E+02
      8.419  0.3877E+01  0.5690E+02
      8.526  0.4241E+01  0.5736E+02
      8.633  0.4140E+01  0.5780E+02
      8.740  0.4176E+01  0.5825E+02
      8.847  0.4441E+01  0.5872E+02
      8.954  0.5361E+01  0.5929E+02
      9.061  0.5571E+01  0.5989E+02
      9.168  0.5416E+01  0.6047E+02
      9.275  0.5133E+01  0.6102E+02
      9.382  0.4922E+01  0.6154E+02
      9.489  0.4681E+01  0.6204E+02
      9.596  0.4968E+01  0.6258E+02
      9.703  0.5316E+01  0.6314E+02
      9.810  0.5236E+01  0.6370E+02
      9.917  0.4870E+01  0.6423E+02
     10.024  0.3972E+01  0.6465E+02
     10.131  0.4544E+01  0.6514E+02
     10.238  0.5169E+01  0.6569E+02
     10.345  0.4611E+01  0.6618E+02
     10.452  0.5078E+01  0.6673E+02
     10.559  0.5231E+01  0.6729E+02
     10.666  0.4266E+01  0.6774E+02
     10.773  0.3622E+01  0.6813E+02
     10.880  0.3568E+01  0.6851E+02
     10.987  0.4333E+01  0.6897E+02
     11.094  0.5199E+01  0.6953E+02
     11.200  0.5540E+01  0.7012E+02
     11.307  0.5762E+01  0.7074E+02
     11.414  0.5302E+01  0.7131E+02
     11.521  0.4783E+01  0.7182E+02
     11.628  0.4579E+01  0.7231E+02
     11.735  0.5002E+01  0.7284E+02
     11.842  0.5274E+01  0.7341E+02
     11.949  0.5583E+01  0.7400E+02
     12.056  0.5825E+01  0.7463E+02
     12.163  0.5932E+01  0.7526E+02
     12.270  0.5617E+01  0.7586E+02
     12.377  0.5573E+01  0.7646E+02
     12.484  0.5495E+01  0.7705E+02
     12.591  0.5860E+01  0.7767E+02
     12.698  0.6311E+01  0.7835E+02
     12.805  0.5695E+01  0.7896E+02
     12.912  0.5377E+01  0.7953E+02
     13.019  0.5572E+01  0.8013E+02
     13.126  0.5898E+01  0.8076E+02
     13.233  0.6326E+01  0.8144E+02
     13.340  0.5635E+01  0.8204E+02
     13.447  0.5695E+01  0.8265E+02
     13.554  0.5932E+01  0.8328E+02
     13.661  0.5392E+01  0.8386E+02
     13.768  0.5768E+01  0.8448E+02
     13.875  0.5808E+01  0.8510E+02
     13.982  0.5310E+01  0.8567E+02
     14.088  0.5322E+01  0.8623E+02
     14.195  0.5041E+01  0.8677E+02
     14.302  0.5252E+01  0.8734E+02
     14.409  0.4967E+01  0.8787E+02
     14.516  0.4867E+01  0.8839E+02
     14.623  0.5229E+01  0.8895E+02
     14.730  0.4975E+01  0.8948E+02
     14.837  0.4401E+01  0.8995E+02
     14.944  0.4753E+01  0.9046E+02
     15.051  0.5833E+01  0.9108E+02
     15.158  0.5939E+01  0.9172E+02
     15.265  0.5690E+01  0.9233E+02
     15.372  0.5785E+01  0.9294E+02
     15.479  0.6297E+01  0.9362E+02
     15.586  0.5760E+01  0.9423E+02
     15.693  0.4630E+01  0.9473E+02
     15.800  0.3284E+01  0.9508E+02
     15.907  0.2611E+01  0.9536E+02
     16.014  0.1997E+01  0.9557E+02
     16.121  0.1221E+01  0.9570E+02
     16.228  0.9486E+00  0.9581E+02
     16.335  0.7875E+00  0.9589E+02
     16.442  0.6930E+00  0.9596E+02
     16.549  0.2995E+00  0.9600E+02
     16.656  0.3790E-01  0.9600E+02
     16.763  0.1007E-02  0.9600E+02
     16.870  0.4144E-05  0.9600E+02
     16.976  0.2144E-08  0.9600E+02
     17.083  0.1253E-12  0.9600E+02
     17.190  0.0000E+00  0.9600E+02
     17.297  0.0000E+00  0.9600E+02
     17.404  0.0000E+00  0.9600E+02
     17.511  0.0000E+00  0.9600E+02
     17.618  0.0000E+00  0.9600E+02
     17.725  0.0000E+00  0.9600E+02
     17.832  0.0000E+00  0.9600E+02
     17.939  0.0000E+00  0.9600E+02
