   14   14    1    1
  0.1021318E+02  0.5700971E-09  0.4044058E-09  0.6201871E-09  0.5000000E-15
  1.000000000000000E-004
  CAR 
 SC                                      
     42    175     48
 
  0.5000000E-01  0.3571429E-01  0.0000000E+00  0.3174603E-02
      1        -12.691220   1.000000
      2        -11.525442   1.000000
      3         -8.654402   1.000000
      4         -8.362590   1.000000
      5         -6.039533   1.000000
      6         -5.162460   1.000000
      7         -4.704878   1.000000
      8         -4.297592   1.000000
      9         -4.000745   1.000000
     10         -3.472853   1.000000
     11         -2.551461   1.000000
     12         -2.309214   1.000000
     13         -1.782159   1.000000
     14         -1.107277   1.000000
     15         -0.080713   1.000000
     16          0.006620   1.000000
     17          0.046219   1.000000
     18          0.100549   1.000000
     19          0.676162   1.000000
     20          2.074372   0.014082
     21          2.087072   0.008784
     22          2.249847   0.000001
     23          5.549720   0.000000
     24          5.686409   0.000000
     25          5.774582   0.000000
     26          5.991270   0.000000
     27          6.752666   0.000000
     28          7.569252   0.000000
     29          7.903655   0.000000
     30          8.527167   0.000000
     31          8.901147   0.000000
     32          8.944302   0.000000
     33          9.063663   0.000000
     34         10.113943   0.000000
     35         11.233139   0.000000
     36         11.340645   0.000000
     37         11.520933   0.000000
     38         11.674316   0.000000
     39         12.000318   0.000000
     40         12.342815   0.000000
     41         12.969841   0.000000
     42         13.407239   0.000000
     43         13.433171   0.000000
     44         15.395549   0.000000
     45         15.529254   0.000000
     46         16.043816   0.000000
     47         16.312879   0.000000
     48         16.333693   0.000000
 
  0.1500000E+00  0.3571429E-01  0.0000000E+00  0.3174603E-02
      1        -12.646956   1.000000
      2        -11.601780   1.000000
      3         -8.628068   1.000000
      4         -8.351051   1.000000
      5         -5.972687   1.000000
      6         -5.502428   1.000000
      7         -4.820847   1.000000
      8         -3.978363   1.000000
      9         -3.814911   1.000000
     10         -3.140331   1.000000
     11         -2.620360   1.000000
     12         -2.289443   1.000000
     13         -1.870067   1.000000
     14         -1.413551   1.000000
     15         -0.138846   1.000000
     16          0.045818   1.000000
     17          0.061500   1.000000
     18          0.148192   1.000000
     19          0.573853   1.000000
     20          1.990255   0.157356
     21          1.994820   0.142323
     22          2.123270   0.001948
     23          5.628948   0.000000
     24          5.698955   0.000000
     25          5.835562   0.000000
     26          6.308871   0.000000
     27          6.673969   0.000000
     28          7.211008   0.000000
     29          8.123622   0.000000
     30          8.666176   0.000000
     31          9.077435   0.000000
     32          9.200985   0.000000
     33          9.208553   0.000000
     34         10.189472   0.000000
     35         10.939486   0.000000
     36         11.125633   0.000000
     37         11.307753   0.000000
     38         11.541886   0.000000
     39         12.214109   0.000000
     40         12.437208   0.000000
     41         13.078278   0.000000
     42         13.191102   0.000000
     43         13.980134   0.000000
     44         14.856659   0.000000
     45         15.723109   0.000000
     46         15.818656   0.000000
     47         16.195975   0.000000
     48         16.478106   0.000000
 
  0.2500000E+00  0.3571429E-01  0.0000000E+00  0.3174603E-02
      1        -12.560258   1.000000
      2        -11.738811   1.000000
      3         -8.575550   1.000000
      4         -8.336964   1.000000
      5         -5.959745   1.000000
      6         -5.828229   1.000000
      7         -4.768282   1.000000
      8         -3.844343   1.000000
      9         -3.309581   1.000000
     10         -2.779131   1.000000
     11         -2.654623   1.000000
     12         -2.249508   1.000000
     13         -1.991986   1.000000
     14         -1.917973   1.000000
     15         -0.356036   1.000000
     16          0.064525   1.000000
     17          0.173608   1.000000
     18          0.183404   1.000000
     19          0.472715   1.000000
     20          1.821189   0.917061
     21          1.859275   0.801491
     22          1.888235   0.669089
     23          5.660186   0.000000
     24          5.730852   0.000000
     25          6.164292   0.000000
     26          6.561491   0.000000
     27          6.764697   0.000000
     28          6.952222   0.000000
     29          8.270900   0.000000
     30          8.823534   0.000000
     31          9.014214   0.000000
     32          9.637852   0.000000
     33          9.650544   0.000000
     34         10.262222   0.000000
     35         10.442842   0.000000
     36         10.583479   0.000000
     37         11.435654   0.000000
     38         11.767540   0.000000
     39         12.390633   0.000000
     40         12.527617   0.000000
     41         12.790900   0.000000
     42         12.986089   0.000000
     43         14.611735   0.000000
     44         14.880472   0.000000
     45         15.218879   0.000000
     46         15.949848   0.000000
     47         15.957335   0.000000
     48         16.245172   0.000000
 
  0.3500000E+00  0.3571429E-01  0.0000000E+00  0.3174603E-02
      1        -12.435056   1.000000
      2        -11.912572   1.000000
      3         -8.502939   1.000000
      4         -8.336487   1.000000
      5         -6.058762   1.000000
      6         -6.054661   1.000000
      7         -4.433222   1.000000
      8         -3.673787   1.000000
      9         -2.980472   1.000000
     10         -2.919520   1.000000
     11         -2.445111   1.000000
     12         -2.180498   1.000000
     13         -2.143991   1.000000
     14         -2.103159   1.000000
     15         -0.638774   1.000000
     16         -0.208168   1.000000
     17          0.254959   1.000000
     18          0.290325   1.000000
     19          0.603362   1.000000
     20          1.536270   1.000000
     21          1.682175   0.999598
     22          1.708397   0.998562
     23          5.656174   0.000000
     24          5.785876   0.000000
     25          6.482839   0.000000
     26          6.692659   0.000000
     27          6.705459   0.000000
     28          7.403609   0.000000
     29          8.383035   0.000000
     30          8.704779   0.000000
     31          8.815150   0.000000
     32          9.511879   0.000000
     33         10.107123   0.000000
     34         10.127278   0.000000
     35         10.369683   0.000000
     36         11.073012   0.000000
     37         11.471776   0.000000
     38         11.914732   0.000000
     39         12.183330   0.000000
     40         12.345400   0.000000
     41         12.478380   0.000000
     42         13.284322   0.000000
     43         14.700026   0.000000
     44         14.936321   0.000000
     45         15.214402   0.000000
     46         15.365867   0.000000
     47         15.533466   0.000000
     48         16.378631   0.000000
 
  0.4500000E+00  0.3571429E-01  0.0000000E+00  0.3174603E-02
      1        -12.277920   1.000000
      2        -12.098890   1.000000
      3         -8.425759   1.000000
      4         -8.365284   1.000000
      5         -6.166447   1.000000
      6         -6.152453   1.000000
      7         -3.913906   1.000000
      8         -3.463256   1.000000
      9         -3.313179   1.000000
     10         -3.222026   1.000000
     11         -2.351798   1.000000
     12         -2.212656   1.000000
     13         -1.960937   1.000000
     14         -1.861124   1.000000
     15         -0.813408   1.000000
     16         -0.598917   1.000000
     17          0.335658   1.000000
     18          0.355213   1.000000
     19          0.862090   1.000000
     20          1.186614   1.000000
     21          1.580973   0.999999
     22          1.596293   0.999998
     23          5.700016   0.000000
     24          5.762368   0.000000
     25          6.486940   0.000000
     26          6.565312   0.000000
     27          7.376970   0.000000
     28          8.059916   0.000000
     29          8.112688   0.000000
     30          8.488429   0.000000
     31          8.618612   0.000000
     32          8.771680   0.000000
     33         10.509645   0.000000
     34         10.545587   0.000000
     35         10.728923   0.000000
     36         11.218105   0.000000
     37         11.453756   0.000000
     38         11.679123   0.000000
     39         11.866485   0.000000
     40         12.417859   0.000000
     41         12.723603   0.000000
     42         13.282377   0.000000
     43         14.584141   0.000000
     44         14.679778   0.000000
     45         14.814669   0.000000
     46         14.924578   0.000000
     47         16.114555   0.000000
     48         16.480559   0.000000
 
  0.5000000E-01  0.1071429E+00  0.0000000E+00  0.3174603E-02
      1        -12.666900   1.000000
      2        -11.503494   1.000000
      3         -8.635398   1.000000
      4         -8.339096   1.000000
      5         -6.012848   1.000000
      6         -5.128458   1.000000
      7         -4.683022   1.000000
      8         -4.546933   1.000000
      9         -4.201296   1.000000
     10         -3.447813   1.000000
     11         -3.247705   1.000000
     12         -1.774069   1.000000
     13         -1.102558   1.000000
     14         -0.982868   1.000000
     15         -0.308715   1.000000
     16         -0.230155   1.000000
     17          0.109031   1.000000
     18          0.114483   1.000000
     19          0.761070   1.000000
     20          1.817464   0.924818
     21          1.823155   0.912731
     22          2.299976   0.000000
     23          5.527245   0.000000
     24          5.768513   0.000000
     25          5.795793   0.000000
     26          5.930035   0.000000
     27          7.033773   0.000000
     28          7.855924   0.000000
     29          8.073725   0.000000
     30          8.220363   0.000000
     31          8.904600   0.000000
     32          9.101576   0.000000
     33          9.146411   0.000000
     34         10.566799   0.000000
     35         11.267029   0.000000
     36         11.457960   0.000000
     37         11.591427   0.000000
     38         11.655160   0.000000
     39         12.102297   0.000000
     40         12.618116   0.000000
     41         12.939457   0.000000
     42         13.145903   0.000000
     43         13.190820   0.000000
     44         15.306796   0.000000
     45         15.387540   0.000000
     46         15.854626   0.000000
     47         15.882219   0.000000
     48         16.198501   0.000000
 
  0.1500000E+00  0.1071429E+00  0.0000000E+00  0.3174603E-02
      1        -12.622729   1.000000
      2        -11.579690   1.000000
      3         -8.608913   1.000000
      4         -8.327951   1.000000
      5         -5.944147   1.000000
      6         -5.472115   1.000000
      7         -4.800968   1.000000
      8         -4.459269   1.000000
      9         -3.783683   1.000000
     10         -3.322551   1.000000
     11         -3.107475   1.000000
     12         -1.752188   1.000000
     13         -1.407851   1.000000
     14         -1.115219   1.000000
     15         -0.237142   1.000000
     16         -0.191881   1.000000
     17          0.033780   1.000000
     18          0.167210   1.000000
     19          0.652903   1.000000
     20          1.727588   0.996629
     21          1.745394   0.993004
     22          2.163048   0.000281
     23          5.630578   0.000000
     24          5.881003   0.000000
     25          5.885238   0.000000
     26          6.098307   0.000000
     27          6.957459   0.000000
     28          7.535564   0.000000
     29          8.221030   0.000000
     30          8.401580   0.000000
     31          9.147091   0.000000
     32          9.233739   0.000000
     33          9.407226   0.000000
     34         10.457346   0.000000
     35         10.854130   0.000000
     36         11.069230   0.000000
     37         11.513495   0.000000
     38         11.750272   0.000000
     39         12.320550   0.000000
     40         12.679666   0.000000
     41         12.824095   0.000000
     42         13.206564   0.000000
     43         13.714721   0.000000
     44         14.934123   0.000000
     45         15.395489   0.000000
     46         15.750137   0.000000
     47         15.793001   0.000000
     48         16.384112   0.000000
 
  0.2500000E+00  0.1071429E+00  0.0000000E+00  0.3174603E-02
      1        -12.536224   1.000000
      2        -11.716471   1.000000
      3         -8.556184   1.000000
      4         -8.314600   1.000000
      5         -5.928394   1.000000
      6         -5.797764   1.000000
      7         -4.751756   1.000000
      8         -4.349393   1.000000
      9         -3.449010   1.000000
     10         -3.259685   1.000000
     11         -2.636884   1.000000
     12         -1.911883   1.000000
     13         -1.708018   1.000000
     14         -1.288279   1.000000
     15         -0.338252   1.000000
     16         -0.150415   1.000000
     17          0.058312   1.000000
     18          0.212458   1.000000
     19          0.517235   1.000000
     20          1.576371   0.999999
     21          1.612967   0.999993
     22          1.904997   0.579398
     23          5.807613   0.000000
     24          5.992976   0.000000
     25          5.997236   0.000000
     26          6.551423   0.000000
     27          6.852238   0.000000
     28          7.306958   0.000000
     29          8.432559   0.000000
     30          8.529806   0.000000
     31          9.119667   0.000000
     32          9.672325   0.000000
     33          9.866921   0.000000
     34         10.108122   0.000000
     35         10.343855   0.000000
     36         10.730223   0.000000
     37         11.580842   0.000000
     38         12.064427   0.000000
     39         12.281000   0.000000
     40         12.558987   0.000000
     41         12.999493   0.000000
     42         13.019185   0.000000
     43         14.293090   0.000000
     44         15.035092   0.000000
     45         15.172346   0.000000
     46         15.640453   0.000000
     47         15.692799   0.000000
     48         16.368321   0.000000
 
  0.3500000E+00  0.1071429E+00  0.0000000E+00  0.3174603E-02
      1        -12.411286   1.000000
      2        -11.889878   1.000000
      3         -8.483325   1.000000
      4         -8.315054   1.000000
      5         -6.027464   1.000000
      6         -6.022161   1.000000
      7         -4.418712   1.000000
      8         -4.201147   1.000000
      9         -3.622864   1.000000
     10         -2.873072   1.000000
     11         -2.377402   1.000000
     12         -2.151616   1.000000
     13         -1.641723   1.000000
     14         -1.455658   1.000000
     15         -0.596064   1.000000
     16         -0.265607   1.000000
     17          0.160590   1.000000
     18          0.161446   1.000000
     19          0.616500   1.000000
     20          1.416465   1.000000
     21          1.465236   1.000000
     22          1.569585   1.000000
     23          5.828958   0.000000
     24          6.033595   0.000000
     25          6.518105   0.000000
     26          6.788939   0.000000
     27          6.890935   0.000000
     28          7.373930   0.000000
     29          8.433159   0.000000
     30          8.625002   0.000000
     31          8.948727   0.000000
     32          9.345816   0.000000
     33         10.070399   0.000000
     34         10.147056   0.000000
     35         10.424292   0.000000
     36         11.140538   0.000000
     37         11.385424   0.000000
     38         11.864187   0.000000
     39         12.381152   0.000000
     40         12.520412   0.000000
     41         12.679347   0.000000
     42         13.476148   0.000000
     43         14.742123   0.000000
     44         14.775067   0.000000
     45         15.116953   0.000000
     46         15.314897   0.000000
     47         15.592347   0.000000
     48         16.379162   0.000000
 
  0.4500000E+00  0.1071429E+00  0.0000000E+00  0.3174603E-02
      1        -12.254478   1.000000
      2        -12.075820   1.000000
      3         -8.405806   1.000000
      4         -8.344729   1.000000
      5         -6.134356   1.000000
      6         -6.119927   1.000000
      7         -4.020749   1.000000
      8         -3.903484   1.000000
      9         -3.817732   1.000000
     10         -3.300790   1.000000
     11         -2.124556   1.000000
     12         -1.886582   1.000000
     13         -1.563308   1.000000
     14         -1.548734   1.000000
     15         -0.776682   1.000000
     16         -0.597535   1.000000
     17          0.199663   1.000000
     18          0.219058   1.000000
     19          0.871530   1.000000
     20          1.194208   1.000000
     21          1.339465   1.000000
     22          1.353936   1.000000
     23          5.893804   0.000000
     24          5.982007   0.000000
     25          6.803688   0.000000
     26          6.865865   0.000000
     27          7.192547   0.000000
     28          7.912763   0.000000
     29          7.929342   0.000000
     30          8.605047   0.000000
     31          8.705670   0.000000
     32          8.811975   0.000000
     33         10.311860   0.000000
     34         10.596033   0.000000
     35         10.782495   0.000000
     36         10.891000   0.000000
     37         11.620120   0.000000
     38         11.744702   0.000000
     39         11.948642   0.000000
     40         12.587966   0.000000
     41         13.033341   0.000000
     42         13.511688   0.000000
     43         14.531305   0.000000
     44         14.700903   0.000000
     45         14.805794   0.000000
     46         15.048265   0.000000
     47         16.109801   0.000000
     48         16.445185   0.000000
 
  0.5000000E-01  0.1785714E+00  0.0000000E+00  0.3174603E-02
      1        -12.621954   1.000000
      2        -11.463001   1.000000
      3         -8.600595   1.000000
      4         -8.295723   1.000000
      5         -5.963515   1.000000
      6         -5.116527   1.000000
      7         -5.023997   1.000000
      8         -4.641626   1.000000
      9         -4.191910   1.000000
     10         -3.869732   1.000000
     11         -3.395933   1.000000
     12         -1.187178   1.000000
     13         -1.092583   1.000000
     14         -0.672419   1.000000
     15         -0.466865   1.000000
     16         -0.118538   1.000000
     17          0.135707   1.000000
     18          0.150876   1.000000
     19          0.846165   1.000000
     20          1.423781   1.000000
     21          1.430524   1.000000
     22          2.335363   0.000000
     23          5.269156   0.000000
     24          5.442101   0.000000
     25          6.121841   0.000000
     26          6.203305   0.000000
     27          7.463160   0.000000
     28          7.624233   0.000000
     29          8.339886   0.000000
     30          8.794216   0.000000
     31          8.947451   0.000000
     32          9.236329   0.000000
     33          9.359410   0.000000
     34         10.882302   0.000000
     35         11.302711   0.000000
     36         11.574425   0.000000
     37         11.773130   0.000000
     38         11.879735   0.000000
     39         12.304110   0.000000
     40         12.716386   0.000000
     41         12.740614   0.000000
     42         13.082030   0.000000
     43         13.153056   0.000000
     44         14.698228   0.000000
     45         15.183930   0.000000
     46         15.351453   0.000000
     47         15.433191   0.000000
     48         15.947372   0.000000
 
  0.1500000E+00  0.1785714E+00  0.0000000E+00  0.3174603E-02
      1        -12.577963   1.000000
      2        -11.538932   1.000000
      3         -8.573797   1.000000
      4         -8.285307   1.000000
      5         -5.891271   1.000000
      6         -5.421408   1.000000
      7         -5.006590   1.000000
      8         -4.763556   1.000000
      9         -3.936917   1.000000
     10         -3.743910   1.000000
     11         -3.063103   1.000000
     12         -1.399185   1.000000
     13         -1.160792   1.000000
     14         -0.769769   1.000000
     15         -0.428423   1.000000
     16         -0.054283   1.000000
     17          0.042341   1.000000
     18          0.190747   1.000000
     19          0.728320   1.000000
     20          1.342123   1.000000
     21          1.353460   1.000000
     22          2.193816   0.000051
     23          5.358393   0.000000
     24          5.783607   0.000000
     25          6.073884   0.000000
     26          6.308543   0.000000
     27          7.390560   0.000000
     28          7.781368   0.000000
     29          8.079112   0.000000
     30          8.878240   0.000000
     31          9.261276   0.000000
     32          9.339876   0.000000
     33          9.638915   0.000000
     34         10.503603   0.000000
     35         10.774640   0.000000
     36         11.192502   0.000000
     37         11.787061   0.000000
     38         12.137069   0.000000
     39         12.412218   0.000000
     40         12.521172   0.000000
     41         13.189858   0.000000
     42         13.203303   0.000000
     43         13.448006   0.000000
     44         14.713696   0.000000
     45         14.814787   0.000000
     46         15.302199   0.000000
     47         15.496639   0.000000
     48         15.966421   0.000000
 
  0.2500000E+00  0.1785714E+00  0.0000000E+00  0.3174603E-02
      1        -12.491800   1.000000
      2        -11.675220   1.000000
      3         -8.520644   1.000000
      4         -8.273350   1.000000
      5         -5.870013   1.000000
      6         -5.742473   1.000000
      7         -4.912011   1.000000
      8         -4.720902   1.000000
      9         -4.062414   1.000000
     10         -3.211647   1.000000
     11         -2.591456   1.000000
     12         -1.895949   1.000000
     13         -1.120664   1.000000
     14         -0.902075   1.000000
     15         -0.375479   1.000000
     16         -0.207004   1.000000
     17          0.065853   1.000000
     18          0.247044   1.000000
     19          0.561970   1.000000
     20          1.194270   1.000000
     21          1.233872   1.000000
     22          1.928069   0.449890
     23          5.686512   0.000000
     24          6.038909   0.000000
     25          6.257730   0.000000
     26          6.414598   0.000000
     27          7.308916   0.000000
     28          7.889028   0.000000
     29          8.018708   0.000000
     30          8.993143   0.000000
     31          9.263281   0.000000
     32          9.768254   0.000000
     33          9.824977   0.000000
     34         10.114028   0.000000
     35         10.280283   0.000000
     36         10.948254   0.000000
     37         11.610273   0.000000
     38         12.128241   0.000000
     39         12.513869   0.000000
     40         12.812365   0.000000
     41         13.086403   0.000000
     42         13.397138   0.000000
     43         13.962610   0.000000
     44         14.622938   0.000000
     45         14.833602   0.000000
     46         15.312241   0.000000
     47         15.521800   0.000000
     48         16.188379   0.000000
 
  0.3500000E+00  0.1785714E+00  0.0000000E+00  0.3174603E-02
      1        -12.367361   1.000000
      2        -11.847990   1.000000
      3         -8.447338   1.000000
      4         -8.275597   1.000000
      5         -5.969656   1.000000
      6         -5.961598   1.000000
      7         -4.774701   1.000000
      8         -4.391967   1.000000
      9         -4.229200   1.000000
     10         -2.834989   1.000000
     11         -2.339123   1.000000
     12         -2.110256   1.000000
     13         -1.063343   1.000000
     14         -1.035366   1.000000
     15         -0.476159   1.000000
     16         -0.393215   1.000000
     17          0.123893   1.000000
     18          0.128652   1.000000
     19          0.635626   1.000000
     20          1.043837   1.000000
     21          1.099427   1.000000
     22          1.582526   0.999999
     23          6.062579   0.000000
     24          6.224177   0.000000
     25          6.408446   0.000000
     26          6.785998   0.000000
     27          7.285605   0.000000
     28          7.807037   0.000000
     29          8.081259   0.000000
     30          9.076748   0.000000
     31          9.088766   0.000000
     32          9.181156   0.000000
     33          9.880937   0.000000
     34         10.228719   0.000000
     35         10.693243   0.000000
     36         11.067104   0.000000
     37         11.232865   0.000000
     38         12.015237   0.000000
     39         12.439385   0.000000
     40         12.983133   0.000000
     41         12.999794   0.000000
     42         13.786498   0.000000
     43         14.395850   0.000000
     44         14.400691   0.000000
     45         15.029426   0.000000
     46         15.120744   0.000000
     47         15.583780   0.000000
     48         16.355961   0.000000
 
  0.4500000E+00  0.1785714E+00  0.0000000E+00  0.3174603E-02
      1        -12.211176   1.000000
      2        -12.033217   1.000000
      3         -8.369157   1.000000
      4         -8.306946   1.000000
      5         -6.074752   1.000000
      6         -6.059360   1.000000
      7         -4.605363   1.000000
      8         -4.417861   1.000000
      9         -3.875062   1.000000
     10         -3.278174   1.000000
     11         -2.058231   1.000000
     12         -1.840510   1.000000
     13         -1.077463   1.000000
     14         -1.007588   1.000000
     15         -0.691752   1.000000
     16         -0.622985   1.000000
     17          0.089264   1.000000
     18          0.133716   1.000000
     19          0.887970   1.000000
     20          0.963139   1.000000
     21          0.993618   1.000000
     22          1.218800   1.000000
     23          6.161983   0.000000
     24          6.296921   0.000000
     25          6.888434   0.000000
     26          7.208625   0.000000
     27          7.286569   0.000000
     28          7.627387   0.000000
     29          7.937938   0.000000
     30          8.427435   0.000000
     31          9.120576   0.000000
     32          9.147361   0.000000
     33          9.995072   0.000000
     34         10.469742   0.000000
     35         10.723549   0.000000
     36         10.955383   0.000000
     37         11.807014   0.000000
     38         11.841509   0.000000
     39         12.072283   0.000000
     40         12.847303   0.000000
     41         13.431527   0.000000
     42         13.783011   0.000000
     43         14.238508   0.000000
     44         14.379574   0.000000
     45         14.990544   0.000000
     46         15.145068   0.000000
     47         15.959615   0.000000
     48         16.299127   0.000000
 
  0.5000000E-01  0.2500000E+00  0.0000000E+00  0.3174603E-02
      1        -12.563694   1.000000
      2        -11.410657   1.000000
      3         -8.556111   1.000000
      4         -8.239551   1.000000
      5         -5.899479   1.000000
      6         -5.586241   1.000000
      7         -4.968385   1.000000
      8         -4.585880   1.000000
      9         -4.393663   1.000000
     10         -4.154120   1.000000
     11         -3.330861   1.000000
     12         -1.183006   1.000000
     13         -1.077199   1.000000
     14         -1.024231   1.000000
     15         -0.142465   1.000000
     16          0.166129   1.000000
     17          0.187743   1.000000
     18          0.673129   1.000000
     19          0.912787   1.000000
     20          0.990109   1.000000
     21          1.025659   1.000000
     22          2.368357   0.000000
     23          4.955542   0.000000
     24          5.113993   0.000000
     25          6.287525   0.000000
     26          6.654424   0.000000
     27          7.272839   0.000000
     28          7.890090   0.000000
     29          8.798218   0.000000
     30          9.077224   0.000000
     31          9.431467   0.000000
     32          9.613773   0.000000
     33          9.632508   0.000000
     34         10.744892   0.000000
     35         11.269363   0.000000
     36         11.969288   0.000000
     37         12.090945   0.000000
     38         12.146420   0.000000
     39         12.394286   0.000000
     40         12.474984   0.000000
     41         12.569377   0.000000
     42         13.035092   0.000000
     43         13.775932   0.000000
     44         13.845979   0.000000
     45         14.467910   0.000000
     46         15.076868   0.000000
     47         15.413078   0.000000
     48         15.856739   0.000000
 
  0.1500000E+00  0.2500000E+00  0.0000000E+00  0.3174603E-02
      1        -12.519939   1.000000
      2        -11.486243   1.000000
      3         -8.528912   1.000000
      4         -8.230137   1.000000
      5         -5.822445   1.000000
      6         -5.555060   1.000000
      7         -5.301049   1.000000
      8         -4.713928   1.000000