 vasp.6.4.3 19Mar24 (build May 31 2024 16:31:43) complex                        
  
 executed on             LinuxIFC date 2024.11.01  17:02:49
 running   24 mpi-ranks, with    1 threads/rank, on    1 nodes
 distrk:  each k-point on   24 cores,    1 groups
 distr:  one band on NCORE=   1 cores,   24 groups


--------------------------------------------------------------------------------------------------------


 INCAR:
   SYSTEM = Convergence
   ISTART = 0
   ICHARG = 2
   PREC = Accurate
   ENCUT = 480
   LCHARG = .FALSE.
   LWAVE = .FALSE.
   ALGO = Normal
   NELM = 100
   EDIFF = 1E-6
   EDIFFG = -1E-3
   SIGMA = 0.05
   ISMEAR = 0
   ISPIN = 1
   NSW = 0
   IBRION = -1
   POTIM = .5
   ISIF = 2
   GGA = PE

 POTCAR:    PAW_PBE B 06Sep2000                   
 POTCAR:    PAW_PBE B 06Sep2000                   
   SHA256 =  a32ced30f5ae56fd4d10b4325ff17eb3e4e38ee0f4288bc219fb012fddfa6e97 B/POTCAR              
   COPYR  = (c) Copyright 06Sep2000 Georg Kresse                                                    
   COPYR  = This file is part of the software VASP. Any use, copying, and all other rights are regul
   COPYR  = If you do not have a valid VASP license, you may not use, copy or distribute this file. 
   VRHFIN =B: s2p1                                                                                  
   LEXCH  = PE                                                                                      
   EATOM  =    71.1703 eV,    5.2309 Ry                                                             
                                                                                                    
   TITEL  = PAW_PBE B 06Sep2000                                                                     
   LULTRA =        F    use ultrasoft PP ?                                                          
   IUNSCR =        1    unscreen: 0-lin 1-nonlin 2-no                                               
   RPACOR =    1.200    partial core radius                                                         
   POMASS =   10.811; ZVAL   =    3.000    mass and valenz                                          
   RCORE  =    1.700    outmost cutoff radius                                                       
   RWIGS  =    1.710; RWIGS  =    0.905    wigner-seitz radius (au A)                               
   ENMAX  =  318.614; ENMIN  =  238.960 eV                                                          
   ICORE  =        2    local potential                                                             
   LCOR   =        T    correct aug charges                                                         
   LPAW   =        T    paw PP                                                                      
   EAUG   =  535.514                                                                                
   DEXC   =    0.000                                                                                
   RMAX   =    1.732    core radius for proj-oper                                                   
   RAUG   =    1.300    factor for augmentation sphere                                              
   RDEP   =    1.757    radius for radial grids                                                     
   RDEPT  =    1.436    core radius for aug-charge                                                  
                                                                                                    
   Atomic configuration                                                                             
    4 entries                                                                                       
     n  l   j            E        occ.                                                              
     1  0  0.50      -180.5896   2.0000                                                             
     2  0  0.50        -9.4431   2.0000                                                             
     2  1  0.50        -3.6068   1.0000                                                             
     3  2  1.50        -4.0817   0.0000                                                             
   Description                                                                                      
     l       E           TYP  RCUT    TYP  RCUT                                                     
     0     -9.4430752     23  1.500                                                                 
     0      0.8675899     23  1.500                                                                 
     1     -3.6067955     23  1.700                                                                 
     1      6.1086146     23  1.700                                                                 
     2     -4.0817478      7  1.700                                                                 
  local pseudopotential read in
  partial core-charges read in
  partial kinetic energy density read in
  atomic valenz-charges read in
  non local Contribution for L=           0  read in
    real space projection operators read in
  non local Contribution for L=           0  read in
    real space projection operators read in
  non local Contribution for L=           1  read in
    real space projection operators read in
  non local Contribution for L=           1  read in
    real space projection operators read in
    PAW grid and wavefunctions read in
 
   number of l-projection  operators is LMAX  =           4
   number of lm-projection operators is LMMAX =           8
 
  PAW_PBE B 06Sep2000                   :
 energy of atom  1       EATOM=  -71.1703
 kinetic energy error for atom=    0.0013 (will be added to EATOM!!)
 
 
 POSCAR: B1
  positions in direct lattice
  No initial velocities read in


 exchange-correlation table for PE
   RHO(1)=    0.500       N(1)  =     2000
   RHO(2)=  100.500       N(2)  =     4000
 


--------------------------------------------------------------------------------------------------------


 ion  position               nearest neighbor table
   1  0.521  0.545  0.638-
 
  LATTYP: Found a simple orthorhombic cell.
 ALAT       =    12.5000000000
 B/A-ratio  =     1.2000000000
 C/A-ratio  =     1.4400000000
  
  Lattice vectors:
  
 A1 = (   0.0000000000, -12.5000000000,   0.0000000000)
 A2 = (  15.0000000000,   0.0000000000,   0.0000000000)
 A3 = (   0.0000000000,   0.0000000000,  18.0000000000)


Analysis of symmetry for initial positions (statically):
=====================================================================
 Subroutine PRICEL returns:
 Original cell was already a primitive cell.
 

 Routine SETGRP: Setting up the symmetry group for a 
 simple orthorhombic supercell.


 Subroutine GETGRP returns: Found  8 space group operations
 (whereof  1 operations were pure point group operations)
 out of a pool of  8 trial point group operations.


The static configuration has the point symmetry C_1 .
 The point group associated with its full space group is D_2h.


Analysis of symmetry for dynamics (positions and initial velocities):
=====================================================================
 Subroutine PRICEL returns:
 Original cell was already a primitive cell.
 

 Routine SETGRP: Setting up the symmetry group for a 
 simple orthorhombic supercell.


 Subroutine GETGRP returns: Found  8 space group operations
 (whereof  1 operations were pure point group operations)
 out of a pool of  8 trial point group operations.


The dynamic configuration has the point symmetry C_1 .
 The point group associated with its full space group is D_2h.


 Subroutine INISYM returns: Found  8 space group operations
 (whereof  1 operations are pure point group operations),
 and found     1 'primitive' translations


----------------------------------------------------------------------------------------

                                     Primitive cell                                     

  volume of cell :    3375.0000

  direct lattice vectors                    reciprocal lattice vectors
    15.000000000  0.000000000  0.000000000     0.066666667  0.000000000  0.000000000
     0.000000000 12.500000000  0.000000000     0.000000000  0.080000000  0.000000000
     0.000000000  0.000000000 18.000000000     0.000000000  0.000000000  0.055555556

  length of vectors
    15.000000000 12.500000000 18.000000000     0.066666667  0.080000000  0.055555556

  position of ions in fractional coordinates (direct lattice)
     0.521230000  0.545000000  0.637960000

  ion indices of the primitive-cell ions
   primitive index   ion index
                 1           1

----------------------------------------------------------------------------------------

 
 
 KPOINTS: k-points                                

Automatic generation of k-mesh.
 Grid dimensions read from file:
 generate k-points for:    8   11    7

 Generating k-lattice:

  Cartesian coordinates                     Fractional coordinates (reciprocal lattice)
     0.008333333  0.000000000  0.000000000     0.125000000  0.000000000  0.000000000
     0.000000000  0.007272727  0.000000000     0.000000000  0.090909091  0.000000000
     0.000000000  0.000000000  0.007936508     0.000000000  0.000000000  0.142857143

  Length of vectors
     0.008333333  0.007272727  0.007936508

  Shift w.r.t. Gamma in fractional coordinates (k-lattice)
     0.500000000  0.000000000  0.000000000

 
 Subroutine IBZKPT returns following result:
 ===========================================
 
 Found     96 irreducible k-points:
 
 Following reciprocal coordinates:
            Coordinates               Weight
  0.062500  0.000000  0.000000      2.000000
  0.187500  0.000000  0.000000      2.000000
  0.312500  0.000000  0.000000      2.000000
  0.437500  0.000000  0.000000      2.000000
  0.062500  0.090909  0.000000      4.000000
  0.187500  0.090909  0.000000      4.000000
  0.312500  0.090909  0.000000      4.000000
  0.437500  0.090909  0.000000      4.000000
  0.062500  0.181818  0.000000      4.000000
  0.187500  0.181818  0.000000      4.000000
  0.312500  0.181818  0.000000      4.000000
  0.437500  0.181818  0.000000      4.000000
  0.062500  0.272727  0.000000      4.000000
  0.187500  0.272727  0.000000      4.000000
  0.312500  0.272727  0.000000      4.000000
  0.437500  0.272727  0.000000      4.000000
  0.062500  0.363636  0.000000      4.000000
  0.187500  0.363636  0.000000      4.000000
  0.312500  0.363636  0.000000      4.000000
  0.437500  0.363636  0.000000      4.000000
  0.062500  0.454545  0.000000      4.000000
  0.187500  0.454545  0.000000      4.000000
  0.312500  0.454545  0.000000      4.000000
  0.437500  0.454545  0.000000      4.000000
  0.062500  0.000000  0.142857      4.000000
  0.187500  0.000000  0.142857      4.000000
  0.312500  0.000000  0.142857      4.000000
  0.437500  0.000000  0.142857      4.000000
  0.062500  0.090909  0.142857      8.000000
  0.187500  0.090909  0.142857      8.000000
  0.312500  0.090909  0.142857      8.000000
  0.437500  0.090909  0.142857      8.000000
  0.062500  0.181818  0.142857      8.000000
  0.187500  0.181818  0.142857      8.000000
  0.312500  0.181818  0.142857      8.000000
  0.437500  0.181818  0.142857      8.000000
  0.062500  0.272727  0.142857      8.000000
  0.187500  0.272727  0.142857      8.000000
  0.312500  0.272727  0.142857      8.000000
  0.437500  0.272727  0.142857      8.000000
  0.062500  0.363636  0.142857      8.000000
  0.187500  0.363636  0.142857      8.000000
  0.312500  0.363636  0.142857      8.000000
  0.437500  0.363636  0.142857      8.000000
  0.062500  0.454545  0.142857      8.000000
  0.187500  0.454545  0.142857      8.000000
  0.312500  0.454545  0.142857      8.000000
  0.437500  0.454545  0.142857      8.000000
  0.062500  0.000000  0.285714      4.000000
  0.187500  0.000000  0.285714      4.000000
  0.312500  0.000000  0.285714      4.000000
  0.437500  0.000000  0.285714      4.000000
  0.062500  0.090909  0.285714      8.000000
  0.187500  0.090909  0.285714      8.000000
  0.312500  0.090909  0.285714      8.000000
  0.437500  0.090909  0.285714      8.000000
  0.062500  0.181818  0.285714      8.000000
  0.187500  0.181818  0.285714      8.000000
  0.312500  0.181818  0.285714      8.000000
  0.437500  0.181818  0.285714      8.000000
  0.062500  0.272727  0.285714      8.000000
  0.187500  0.272727  0.285714      8.000000
  0.312500  0.272727  0.285714      8.000000
  0.437500  0.272727  0.285714      8.000000
  0.062500  0.363636  0.285714      8.000000
  0.187500  0.363636  0.285714      8.000000
  0.312500  0.363636  0.285714      8.000000
  0.437500  0.363636  0.285714      8.000000
  0.062500  0.454545  0.285714      8.000000
  0.187500  0.454545  0.285714      8.000000
  0.312500  0.454545  0.285714      8.000000
  0.437500  0.454545  0.285714      8.000000
  0.062500  0.000000  0.428571      4.000000
  0.187500  0.000000  0.428571      4.000000
  0.312500  0.000000  0.428571      4.000000
  0.437500  0.000000  0.428571      4.000000
  0.062500  0.090909  0.428571      8.000000
  0.187500  0.090909  0.428571      8.000000
  0.312500  0.090909  0.428571      8.000000
  0.437500  0.090909  0.428571      8.000000
  0.062500  0.181818  0.428571      8.000000
  0.187500  0.181818  0.428571      8.000000
  0.312500  0.181818  0.428571      8.000000
  0.437500  0.181818  0.428571      8.000000
  0.062500  0.272727  0.428571      8.000000
  0.187500  0.272727  0.428571      8.000000
  0.312500  0.272727  0.428571      8.000000
  0.437500  0.272727  0.428571      8.000000
  0.062500  0.363636  0.428571      8.000000
  0.187500  0.363636  0.428571      8.000000
  0.312500  0.363636  0.428571      8.000000
  0.437500  0.363636  0.428571      8.000000
  0.062500  0.454545  0.428571      8.000000
  0.187500  0.454545  0.428571      8.000000
  0.312500  0.454545  0.428571      8.000000
  0.437500  0.454545  0.428571      8.000000
 
 Following cartesian coordinates:
            Coordinates               Weight
  0.004167  0.000000  0.000000      2.000000
  0.012500  0.000000  0.000000      2.000000
  0.020833  0.000000  0.000000      2.000000
  0.029167  0.000000  0.000000      2.000000
  0.004167  0.007273  0.000000      4.000000
  0.012500  0.007273  0.000000      4.000000
  0.020833  0.007273  0.000000      4.000000
  0.029167  0.007273  0.000000      4.000000
  0.004167  0.014545  0.000000      4.000000
  0.012500  0.014545  0.000000      4.000000
  0.020833  0.014545  0.000000      4.000000
  0.029167  0.014545  0.000000      4.000000
  0.004167  0.021818  0.000000      4.000000
  0.012500  0.021818  0.000000      4.000000
  0.020833  0.021818  0.000000      4.000000
  0.029167  0.021818  0.000000      4.000000
  0.004167  0.029091  0.000000      4.000000
  0.012500  0.029091  0.000000      4.000000
  0.020833  0.029091  0.000000      4.000000
  0.029167  0.029091  0.000000      4.000000
  0.004167  0.036364  0.000000      4.000000
  0.012500  0.036364  0.000000      4.000000
  0.020833  0.036364  0.000000      4.000000
  0.029167  0.036364  0.000000      4.000000
  0.004167  0.000000  0.007937      4.000000
  0.012500  0.000000  0.007937      4.000000
  0.020833  0.000000  0.007937      4.000000
  0.029167  0.000000  0.007937      4.000000
  0.004167  0.007273  0.007937      8.000000
  0.012500  0.007273  0.007937      8.000000
  0.020833  0.007273  0.007937      8.000000
  0.029167  0.007273  0.007937      8.000000
  0.004167  0.014545  0.007937      8.000000
  0.012500  0.014545  0.007937      8.000000
  0.020833  0.014545  0.007937      8.000000
  0.029167  0.014545  0.007937      8.000000
  0.004167  0.021818  0.007937      8.000000
  0.012500  0.021818  0.007937      8.000000
  0.020833  0.021818  0.007937      8.000000
  0.029167  0.021818  0.007937      8.000000
  0.004167  0.029091  0.007937      8.000000
  0.012500  0.029091  0.007937      8.000000
  0.020833  0.029091  0.007937      8.000000
  0.029167  0.029091  0.007937      8.000000
  0.004167  0.036364  0.007937      8.000000
  0.012500  0.036364  0.007937      8.000000
  0.020833  0.036364  0.007937      8.000000
  0.029167  0.036364  0.007937      8.000000
  0.004167  0.000000  0.015873      4.000000
  0.012500  0.000000  0.015873      4.000000
  0.020833  0.000000  0.015873      4.000000
  0.029167  0.000000  0.015873      4.000000
  0.004167  0.007273  0.015873      8.000000
  0.012500  0.007273  0.015873      8.000000
  0.020833  0.007273  0.015873      8.000000
  0.029167  0.007273  0.015873      8.000000
  0.004167  0.014545  0.015873      8.000000
  0.012500  0.014545  0.015873      8.000000
  0.020833  0.014545  0.015873      8.000000
  0.029167  0.014545  0.015873      8.000000
  0.004167  0.021818  0.015873      8.000000
  0.012500  0.021818  0.015873      8.000000
  0.020833  0.021818  0.015873      8.000000
  0.029167  0.021818  0.015873      8.000000
  0.004167  0.029091  0.015873      8.000000
  0.012500  0.029091  0.015873      8.000000
  0.020833  0.029091  0.015873      8.000000
  0.029167  0.029091  0.015873      8.000000
  0.004167  0.036364  0.015873      8.000000
  0.012500  0.036364  0.015873      8.000000
  0.020833  0.036364  0.015873      8.000000
  0.029167  0.036364  0.015873      8.000000
  0.004167  0.000000  0.023810      4.000000
  0.012500  0.000000  0.023810      4.000000
  0.020833  0.000000  0.023810      4.000000
  0.029167  0.000000  0.023810      4.000000
  0.004167  0.007273  0.023810      8.000000
  0.012500  0.007273  0.023810      8.000000
  0.020833  0.007273  0.023810      8.000000
  0.029167  0.007273  0.023810      8.000000
  0.004167  0.014545  0.023810      8.000000
  0.012500  0.014545  0.023810      8.000000
  0.020833  0.014545  0.023810      8.000000
  0.029167  0.014545  0.023810      8.000000
  0.004167  0.021818  0.023810      8.000000
  0.012500  0.021818  0.023810      8.000000
  0.020833  0.021818  0.023810      8.000000
  0.029167  0.021818  0.023810      8.000000
  0.004167  0.029091  0.023810      8.000000
  0.012500  0.029091  0.023810      8.000000
  0.020833  0.029091  0.023810      8.000000
  0.029167  0.029091  0.023810      8.000000
  0.004167  0.036364  0.023810      8.000000
  0.012500  0.036364  0.023810      8.000000
  0.020833  0.036364  0.023810      8.000000
  0.029167  0.036364  0.023810      8.000000
 


--------------------------------------------------------------------------------------------------------




 Dimension of arrays:
   k-points           NKPTS =     96   k-points in BZ     NKDIM =     96   number of bands    NBANDS=     24
   number of dos      NEDOS =    301   number of ions     NIONS =      1
   non local maximal  LDIM  =      4   non local SUM 2l+1 LMDIM =      8
   total plane-waves  NPLWV = ******
   max r-space proj   IRMAX =      1   max aug-charges    IRDMAX=   6486
   dimension x,y,z NGX =   108 NGY =   90 NGZ =  140
   dimension x,y,z NGXF=   216 NGYF=  180 NGZF=  280
   support grid    NGXF=   216 NGYF=  180 NGZF=  280
   ions per type =               1
   NGX,Y,Z   is equivalent  to a cutoff of  11.97, 11.97, 12.93 a.u.
   NGXF,Y,Z  is equivalent  to a cutoff of  23.94, 23.94, 25.86 a.u.

 SYSTEM =  Convergence                             
 POSCAR =  B1                                      

 Startparameter for this run:
   NWRITE =      2    write-flag & timer
   PREC   = accura    normal or accurate (medium, high low for compatibility)
   ISTART =      0    job   : 0-new  1-cont  2-samecut
   ICHARG =      2    charge: 1-file 2-atom 10-const
   ISPIN  =      1    spin polarized calculation?
   LNONCOLLINEAR =      F non collinear calculations
   LSORBIT =      F    spin-orbit coupling
   INIWAV =      1    electr: 0-lowe 1-rand  2-diag
   LASPH  =      F    aspherical Exc in radial PAW
 Electronic Relaxation 1
   ENCUT  =  480.0 eV  35.28 Ry    5.94 a.u.  26.80 22.33 32.16*2*pi/ulx,y,z
   ENINI  =  480.0     initial cutoff
   ENAUG  =  535.5 eV  augmentation charge cutoff
   NELM   =    100;   NELMIN=  2; NELMDL= -5     # of ELM steps 
   EDIFF  = 0.1E-05   stopping-criterion for ELM
   LREAL  =      F    real-space projection
   NLSPLINE    = F    spline interpolate recip. space projectors
   LCOMPAT=      F    compatible to vasp.4.4
   GGA_COMPAT  = T    GGA compatible to vasp.4.4-vasp.4.6
   LMAXPAW     = -100 max onsite density
   LMAXMIX     =    2 max onsite mixed and CHGCAR
   VOSKOWN=      0    Vosko Wilk Nusair interpolation
   ROPT   =    0.00000
 Ionic relaxation
   EDIFFG = -.1E-02   stopping-criterion for IOM
   NSW    =      0    number of steps for IOM
   NBLOCK =      1;   KBLOCK =      1    inner block; outer block 
   IBRION =     -1    ionic relax: 0-MD 1-quasi-New 2-CG
   NFREE  =      0    steps in history (QN), initial steepest desc. (CG)
   ISIF   =      2    stress and relaxation
   IWAVPR =     10    prediction:  0-non 1-charg 2-wave 3-comb
   ISYM   =      2    0-nonsym 1-usesym 2-fastsym
   LCORR  =      T    Harris-Foulkes like correction to forces

   POTIM  = 0.5000    time-step for ionic-motion
   TEIN   =    0.0    initial temperature
   TEBEG  =    0.0;   TEEND  =   0.0 temperature during run
   SMASS  =  -3.00    Nose mass-parameter (am)
   estimated Nose-frequenzy (Omega)   =  0.10E-29 period in steps = 0.13E+47 mass=  -0.514E-26a.u.
   SCALEE = 1.0000    scale energy and forces
   NPACO  =    256;   APACO  = 10.0  distance and # of slots for P.C.
   PSTRESS=    0.0 pullay stress

  Mass of Ions in am
   POMASS =  10.81
  Ionic Valenz
   ZVAL   =   3.00
  Atomic Wigner-Seitz radii
   RWIGS  =  -1.00
  virtual crystal weights 
   VCA    =   1.00
   NELECT =       3.0000    total number of electrons
   NUPDOWN=      -1.0000    fix difference up-down

 DOS related values:
   EMIN   =  10.00;   EMAX   =-10.00  energy-range for DOS
   EFERMI =   0.00;   METHOD = LEGACY      
   ISMEAR =     0;   SIGMA  =   0.05  broadening in eV -4-tet -1-fermi 0-gaus

 Electronic relaxation 2 (details)
   IALGO  =     38    algorithm
   LDIAG  =      T    sub-space diagonalisation (order eigenvalues)
   LSUBROT=      F    optimize rotation matrix (better conditioning)
   TURBO    =      0    0=normal 1=particle mesh
   IRESTART =      0    0=no restart 2=restart with 2 vectors
   NREBOOT  =      0    no. of reboots
   NMIN     =      0    reboot dimension
   EREF     =   0.00    reference energy to select bands
   IMIX   =      4    mixing-type and parameters
     AMIX     =   0.40;   BMIX     =  1.00
     AMIX_MAG =   1.60;   BMIX_MAG =  1.00
     AMIN     =   0.10
     WC   =   100.;   INIMIX=   1;  MIXPRE=   1;  MAXMIX= -45

 Intra band minimization:
   WEIMIN = 0.0000     energy-eigenvalue tresh-hold
   EBREAK =  0.10E-07  absolut break condition
   DEPER  =   0.30     relativ break condition  

   TIME   =   0.40     timestep for ELM

  volume/ion in A,a.u.               =    3375.00     22775.62
  Fermi-wavevector in a.u.,A,eV,Ry     =   0.157407  0.297456  0.337111  0.024777
  Thomas-Fermi vector in A             =   0.845991
 
 Write flags
   LWAVE        =      F    write WAVECAR
   LDOWNSAMPLE  =      F    k-point downsampling of WAVECAR
   LCHARG       =      F    write CHGCAR
   LVTOT        =      F    write LOCPOT, total local potential
   LVHAR        =      F    write LOCPOT, Hartree potential only
   WRT_POTENTIAL= false  ! write potential to hdf5 file
   LELF         =      F    write electronic localiz. function (ELF)
   LORBIT       =      0    0 simple, 1 ext, 2 COOP (PROOUT), +10 PAW based schemes


 Dipole corrections
   LMONO      =      F    monopole corrections only (constant potential shift)
   LDIPOL     =      F    correct potential (dipole corrections)
   IDIPOL     =      0    1-x, 2-y, 3-z, 4-all directions 
   EPSILON    =  1.0000000 bulk dielectric constant
   LVACPOTAV  =      F  vacuum potentials using an averaging scheme for the charge density
   VACPOTFLAT =  0.1000000 required flatness to determine vacuum potential
 Exchange correlation treatment:
   GGA     = PE    functional components
   XC_C    = 1    coefficients multiplying the functional components
   LIBXC   =     F    Libxc                    
   VOSKOWN =     0    Vosko Wilk Nusair interpolation
   LHFCALC =     F    Hartree Fock is set to
   LHFONE  =     F    Hartree Fock one center treatment
   AEXX    =    0.0000 exact exchange contribution

 Parameters of functionals:
   PE:
     No parameter
 
 Van der Waals corrections
   IVDW    =     0    specifies the selected vdW correction

 Linear response parameters
   LEPSILON=     F    determine dielectric tensor
   LRPA    =     F    only Hartree local field effects (RPA)
   LNABLA  =     F    use nabla operator in PAW spheres
   LVEL    =     F    velocity operator in full k-point grid
   CSHIFT  =0.1000    complex shift for real part using Kramers Kronig
   OMEGAMAX=  -1.0    maximum frequency
   DEG_THRESHOLD= 0.2000000E-02 threshold for treating states as degnerate
   RTIME   =   -0.100 relaxation time in fs
  (WPLASMAI=    0.000 imaginary part of plasma frequency in eV, 0.658/RTIME)
   DFIELD  = 0.0000000 0.0000000 0.0000000 field for delta impulse in time
 
  Optional k-point grid parameters
   LKPOINTS_OPT  =     F    use optional k-point grid
   KPOINTS_OPT_MODE=     1    mode for optional k-point grid
 
 Orbital magnetization related:
   ORBITALMAG=     F  switch on orbital magnetization
   LCHIMAG   =     F  perturbation theory with respect to B field
   DQ        =  0.001000  dq finite difference perturbation B field
   LLRAUG    =     F  two centre corrections for induced B field
   LBONE     =     F  B-component reconstruction in AE one-centre
   LVGVCALC  =     T  calculate vGv susceptibility
   LVGVAPPL  =     F  apply vGv susceptibility instead of pGv for G=0

 Random number generation:
   RANDOM_GENERATOR = DEFAULT
   PCG_SEED         = not used


--------------------------------------------------------------------------------------------------------


 Static calculation
 charge density and potential will be updated during run
 non-spin polarized calculation
 Variant of blocked Davidson
 Davidson routine will perform the subspace rotation
 perform sub-space diagonalisation
    after iterative eigenvector-optimisation
 modified Broyden-mixing scheme, WC =      100.0
 initial mixing is a Kerker type mixing with AMIX =  0.4000 and BMIX =      1.0000
 Hartree-type preconditioning will be used
 using additional bands           22
 reciprocal scheme for non local part
 use partial core corrections
 calculate Harris-corrections to forces 
   (improved forces if not selfconsistent)
 use gradient corrections 
 use of overlap-Matrix (Vanderbilt PP)
 Gauss-broadening in eV      SIGMA  =   0.05


--------------------------------------------------------------------------------------------------------


  energy-cutoff  :      480.00
  volume of cell :     3375.00
      direct lattice vectors                 reciprocal lattice vectors
    15.000000000  0.000000000  0.000000000     0.066666667  0.000000000  0.000000000
     0.000000000 12.500000000  0.000000000     0.000000000  0.080000000  0.000000000
     0.000000000  0.000000000 18.000000000     0.000000000  0.000000000  0.055555556

  length of vectors
    15.000000000 12.500000000 18.000000000     0.066666667  0.080000000  0.055555556


 
 k-points in units of 2pi/SCALE and weight: k-points                                
   0.00416667  0.00000000  0.00000000       0.003
   0.01250000  0.00000000  0.00000000       0.003
   0.02083333  0.00000000  0.00000000       0.003
   0.02916667  0.00000000  0.00000000       0.003
   0.00416667  0.00727273  0.00000000       0.006
   0.01250000  0.00727273  0.00000000       0.006
   0.02083333  0.00727273  0.00000000       0.006
   0.02916667  0.00727273  0.00000000       0.006
   0.00416667  0.01454545  0.00000000       0.006
   0.01250000  0.01454545  0.00000000       0.006
   0.02083333  0.01454545  0.00000000       0.006
   0.02916667  0.01454545  0.00000000       0.006
   0.00416667  0.02181818  0.00000000       0.006
   0.01250000  0.02181818  0.00000000       0.006
   0.02083333  0.02181818  0.00000000       0.006
   0.02916667  0.02181818  0.00000000       0.006
   0.00416667  0.02909091  0.00000000       0.006
   0.01250000  0.02909091  0.00000000       0.006
   0.02083333  0.02909091  0.00000000       0.006
   0.02916667  0.02909091  0.00000000       0.006
   0.00416667  0.03636364  0.00000000       0.006
   0.01250000  0.03636364  0.00000000       0.006
   0.02083333  0.03636364  0.00000000       0.006
   0.02916667  0.03636364  0.00000000       0.006
   0.00416667  0.00000000  0.00793651       0.006
   0.01250000  0.00000000  0.00793651       0.006
   0.02083333  0.00000000  0.00793651       0.006
   0.02916667  0.00000000  0.00793651       0.006
   0.00416667  0.00727273  0.00793651       0.013
   0.01250000  0.00727273  0.00793651       0.013
   0.02083333  0.00727273  0.00793651       0.013
   0.02916667  0.00727273  0.00793651       0.013
   0.00416667  0.01454545  0.00793651       0.013
   0.01250000  0.01454545  0.00793651       0.013
   0.02083333  0.01454545  0.00793651       0.013
   0.02916667  0.01454545  0.00793651       0.013
   0.00416667  0.02181818  0.00793651       0.013
   0.01250000  0.02181818  0.00793651       0.013
   0.02083333  0.02181818  0.00793651       0.013
   0.02916667  0.02181818  0.00793651       0.013
   0.00416667  0.02909091  0.00793651       0.013
   0.01250000  0.02909091  0.00793651       0.013
   0.02083333  0.02909091  0.00793651       0.013
   0.02916667  0.02909091  0.00793651       0.013
   0.00416667  0.03636364  0.00793651       0.013
   0.01250000  0.03636364  0.00793651       0.013
   0.02083333  0.03636364  0.00793651       0.013
   0.02916667  0.03636364  0.00793651       0.013
   0.00416667  0.00000000  0.01587302       0.006
   0.01250000  0.00000000  0.01587302       0.006
   0.02083333  0.00000000  0.01587302       0.006
   0.02916667  0.00000000  0.01587302       0.006
   0.00416667  0.00727273  0.01587302       0.013
   0.01250000  0.00727273  0.01587302       0.013
   0.02083333  0.00727273  0.01587302       0.013
   0.02916667  0.00727273  0.01587302       0.013
   0.00416667  0.01454545  0.01587302       0.013
   0.01250000  0.01454545  0.01587302       0.013
   0.02083333  0.01454545  0.01587302       0.013
   0.02916667  0.01454545  0.01587302       0.013
   0.00416667  0.02181818  0.01587302       0.013
   0.01250000  0.02181818  0.01587302       0.013
   0.02083333  0.02181818  0.01587302       0.013
   0.02916667  0.02181818  0.01587302       0.013
   0.00416667  0.02909091  0.01587302       0.013
   0.01250000  0.02909091  0.01587302       0.013
   0.02083333  0.02909091  0.01587302       0.013
   0.02916667  0.02909091  0.01587302       0.013
   0.00416667  0.03636364  0.01587302       0.013
   0.01250000  0.03636364  0.01587302       0.013
   0.02083333  0.03636364  0.01587302       0.013
   0.02916667  0.03636364  0.01587302       0.013
   0.00416667  0.00000000  0.02380952       0.006
   0.01250000  0.00000000  0.02380952       0.006
   0.02083333  0.00000000  0.02380952       0.006
   0.02916667  0.00000000  0.02380952       0.006
   0.00416667  0.00727273  0.02380952       0.013
   0.01250000  0.00727273  0.02380952       0.013
   0.02083333  0.00727273  0.02380952       0.013
   0.02916667  0.00727273  0.02380952       0.013
   0.00416667  0.01454545  0.02380952       0.013
   0.01250000  0.01454545  0.02380952       0.013
   0.02083333  0.01454545  0.02380952       0.013
   0.02916667  0.01454545  0.02380952       0.013
   0.00416667  0.02181818  0.02380952       0.013
   0.01250000  0.02181818  0.02380952       0.013
   0.02083333  0.02181818  0.02380952       0.013
   0.02916667  0.02181818  0.02380952       0.013
   0.00416667  0.02909091  0.02380952       0.013
   0.01250000  0.02909091  0.02380952       0.013
   0.02083333  0.02909091  0.02380952       0.013
   0.02916667  0.02909091  0.02380952       0.013
   0.00416667  0.03636364  0.02380952       0.013
   0.01250000  0.03636364  0.02380952       0.013
   0.02083333  0.03636364  0.02380952       0.013
   0.02916667  0.03636364  0.02380952       0.013
 
 k-points in reciprocal lattice and weights: k-points                                
   0.06250000  0.00000000  0.00000000       0.003
   0.18750000  0.00000000  0.00000000       0.003
   0.31250000  0.00000000  0.00000000       0.003
   0.43750000  0.00000000  0.00000000       0.003
   0.06250000  0.09090909  0.00000000       0.006
   0.18750000  0.09090909  0.00000000       0.006
   0.31250000  0.09090909  0.00000000       0.006
   0.43750000  0.09090909  0.00000000       0.006
   0.06250000  0.18181818  0.00000000       0.006
   0.18750000  0.18181818  0.00000000       0.006
   0.31250000  0.18181818  0.00000000       0.006
   0.43750000  0.18181818  0.00000000       0.006
   0.06250000  0.27272727  0.00000000       0.006
   0.18750000  0.27272727  0.00000000       0.006
   0.31250000  0.27272727  0.00000000       0.006
   0.43750000  0.27272727  0.00000000       0.006
   0.06250000  0.36363636  0.00000000       0.006
   0.18750000  0.36363636  0.00000000       0.006
   0.31250000  0.36363636  0.00000000       0.006
   0.43750000  0.36363636  0.00000000       0.006
   0.06250000  0.45454545  0.00000000       0.006
   0.18750000  0.45454545  0.00000000       0.006
   0.31250000  0.45454545  0.00000000       0.006
   0.43750000  0.45454545  0.00000000       0.006
   0.06250000  0.00000000  0.14285714       0.006
   0.18750000  0.00000000  0.14285714       0.006
   0.31250000  0.00000000  0.14285714       0.006
   0.43750000  0.00000000  0.14285714       0.006
   0.06250000  0.09090909  0.14285714       0.013
   0.18750000  0.09090909  0.14285714       0.013
   0.31250000  0.09090909  0.14285714       0.013
   0.43750000  0.09090909  0.14285714       0.013
   0.06250000  0.18181818  0.14285714       0.013
   0.18750000  0.18181818  0.14285714       0.013
   0.31250000  0.18181818  0.14285714       0.013
   0.43750000  0.18181818  0.14285714       0.013
   0.06250000  0.27272727  0.14285714       0.013
   0.18750000  0.27272727  0.14285714       0.013
   0.31250000  0.27272727  0.14285714       0.013
   0.43750000  0.27272727  0.14285714       0.013
   0.06250000  0.36363636  0.14285714       0.013
   0.18750000  0.36363636  0.14285714       0.013
   0.31250000  0.36363636  0.14285714       0.013
   0.43750000  0.36363636  0.14285714       0.013
   0.06250000  0.45454545  0.14285714       0.013
   0.18750000  0.45454545  0.14285714       0.013
   0.31250000  0.45454545  0.14285714       0.013
   0.43750000  0.45454545  0.14285714       0.013
   0.06250000  0.00000000  0.28571429       0.006
   0.18750000  0.00000000  0.28571429       0.006
   0.31250000  0.00000000  0.28571429       0.006
   0.43750000  0.00000000  0.28571429       0.006
   0.06250000  0.09090909  0.28571429       0.013
   0.18750000  0.09090909  0.28571429       0.013
   0.31250000  0.09090909  0.28571429       0.013
   0.43750000  0.09090909  0.28571429       0.013
   0.06250000  0.18181818  0.28571429       0.013
   0.18750000  0.18181818  0.28571429       0.013
   0.31250000  0.18181818  0.28571429       0.013
   0.43750000  0.18181818  0.28571429       0.013
   0.06250000  0.27272727  0.28571429       0.013
   0.18750000  0.27272727  0.28571429       0.013
   0.31250000  0.27272727  0.28571429       0.013
   0.43750000  0.27272727  0.28571429       0.013
   0.06250000  0.36363636  0.28571429       0.013
   0.18750000  0.36363636  0.28571429       0.013
   0.31250000  0.36363636  0.28571429       0.013
   0.43750000  0.36363636  0.28571429       0.013
   0.06250000  0.45454545  0.28571429       0.013
   0.18750000  0.45454545  0.28571429       0.013
   0.31250000  0.45454545  0.28571429       0.013
   0.43750000  0.45454545  0.28571429       0.013
   0.06250000  0.00000000  0.42857143       0.006
   0.18750000  0.00000000  0.42857143       0.006
   0.31250000  0.00000000  0.42857143       0.006
   0.43750000  0.00000000  0.42857143       0.006
   0.06250000  0.09090909  0.42857143       0.013
   0.18750000  0.09090909  0.42857143       0.013
   0.31250000  0.09090909  0.42857143       0.013
   0.43750000  0.09090909  0.42857143       0.013
   0.06250000  0.18181818  0.42857143       0.013
   0.18750000  0.18181818  0.42857143       0.013
   0.31250000  0.18181818  0.42857143       0.013
   0.43750000  0.18181818  0.42857143       0.013
   0.06250000  0.27272727  0.42857143       0.013
   0.18750000  0.27272727  0.42857143       0.013
   0.31250000  0.27272727  0.42857143       0.013
   0.43750000  0.27272727  0.42857143       0.013
   0.06250000  0.36363636  0.42857143       0.013
   0.18750000  0.36363636  0.42857143       0.013
   0.31250000  0.36363636  0.42857143       0.013
   0.43750000  0.36363636  0.42857143       0.013
   0.06250000  0.45454545  0.42857143       0.013
   0.18750000  0.45454545  0.42857143       0.013
   0.31250000  0.45454545  0.42857143       0.013
   0.43750000  0.45454545  0.42857143       0.013
 
 position of ions in fractional coordinates (direct lattice) 
   0.52123000  0.54500000  0.63796000
 
 position of ions in cartesian coordinates  (Angst):
   7.81845000  6.81250000 11.48328000
 


--------------------------------------------------------------------------------------------------------


 k-point     1 :   0.0625 0.0000 0.0000  plane waves:   80581
 k-point     2 :   0.1875 0.0000 0.0000  plane waves:   80539
 k-point     3 :   0.3125 0.0000 0.0000  plane waves:   80598
 k-point     4 :   0.4375 0.0000 0.0000  plane waves:   80614
 k-point     5 :   0.0625 0.0909 0.0000  plane waves:   80599
 k-point     6 :   0.1875 0.0909 0.0000  plane waves:   80554
 k-point     7 :   0.3125 0.0909 0.0000  plane waves:   80601
 k-point     8 :   0.4375 0.0909 0.0000  plane waves:   80621
 k-point     9 :   0.0625 0.1818 0.0000  plane waves:   80602
 k-point    10 :   0.1875 0.1818 0.0000  plane waves:   80591
 k-point    11 :   0.3125 0.1818 0.0000  plane waves:   80586
 k-point    12 :   0.4375 0.1818 0.0000  plane waves:   80608
 k-point    13 :   0.0625 0.2727 0.0000  plane waves:   80616
 k-point    14 :   0.1875 0.2727 0.0000  plane waves:   80570
 k-point    15 :   0.3125 0.2727 0.0000  plane waves:   80568
 k-point    16 :   0.4375 0.2727 0.0000  plane waves:   80617
 k-point    17 :   0.0625 0.3636 0.0000  plane waves:   80592
 k-point    18 :   0.1875 0.3636 0.0000  plane waves:   80542
 k-point    19 :   0.3125 0.3636 0.0000  plane waves:   80603
 k-point    20 :   0.4375 0.3636 0.0000  plane waves:   80608
 k-point    21 :   0.0625 0.4545 0.0000  plane waves:   80574
 k-point    22 :   0.1875 0.4545 0.0000  plane waves:   80564
 k-point    23 :   0.3125 0.4545 0.0000  plane waves:   80595
 k-point    24 :   0.4375 0.4545 0.0000  plane waves:   80641
 k-point    25 :   0.0625 0.0000 0.1429  plane waves:   80550
 k-point    26 :   0.1875 0.0000 0.1429  plane waves:   80553
 k-point    27 :   0.3125 0.0000 0.1429  plane waves:   80619
 k-point    28 :   0.4375 0.0000 0.1429  plane waves:   80607
 k-point    29 :   0.0625 0.0909 0.1429  plane waves:   80570
 k-point    30 :   0.1875 0.0909 0.1429  plane waves:   80577
 k-point    31 :   0.3125 0.0909 0.1429  plane waves:   80600
 k-point    32 :   0.4375 0.0909 0.1429  plane waves:   80619
 k-point    33 :   0.0625 0.1818 0.1429  plane waves:   80588
 k-point    34 :   0.1875 0.1818 0.1429  plane waves:   80590
 k-point    35 :   0.3125 0.1818 0.1429  plane waves:   80594
 k-point    36 :   0.4375 0.1818 0.1429  plane waves:   80586
 k-point    37 :   0.0625 0.2727 0.1429  plane waves:   80611
 k-point    38 :   0.1875 0.2727 0.1429  plane waves:   80570
 k-point    39 :   0.3125 0.2727 0.1429  plane waves:   80580
 k-point    40 :   0.4375 0.2727 0.1429  plane waves:   80572
 k-point    41 :   0.0625 0.3636 0.1429  plane waves:   80580
 k-point    42 :   0.1875 0.3636 0.1429  plane waves:   80561
 k-point    43 :   0.3125 0.3636 0.1429  plane waves:   80577
 k-point    44 :   0.4375 0.3636 0.1429  plane waves:   80620
 k-point    45 :   0.0625 0.4545 0.1429  plane waves:   80571
 k-point    46 :   0.1875 0.4545 0.1429  plane waves:   80578
 k-point    47 :   0.3125 0.4545 0.1429  plane waves:   80563
 k-point    48 :   0.4375 0.4545 0.1429  plane waves:   80597
 k-point    49 :   0.0625 0.0000 0.2857  plane waves:   80593
 k-point    50 :   0.1875 0.0000 0.2857  plane waves:   80618
 k-point    51 :   0.3125 0.0000 0.2857  plane waves:   80638
 k-point    52 :   0.4375 0.0000 0.2857  plane waves:   80610
 k-point    53 :   0.0625 0.0909 0.2857  plane waves:   80590
 k-point    54 :   0.1875 0.0909 0.2857  plane waves:   80588
 k-point    55 :   0.3125 0.0909 0.2857  plane waves:   80626
 k-point    56 :   0.4375 0.0909 0.2857  plane waves:   80628
 k-point    57 :   0.0625 0.1818 0.2857  plane waves:   80591
 k-point    58 :   0.1875 0.1818 0.2857  plane waves:   80579
 k-point    59 :   0.3125 0.1818 0.2857  plane waves:   80601
 k-point    60 :   0.4375 0.1818 0.2857  plane waves:   80592
 k-point    61 :   0.0625 0.2727 0.2857  plane waves:   80590
 k-point    62 :   0.1875 0.2727 0.2857  plane waves:   80585
 k-point    63 :   0.3125 0.2727 0.2857  plane waves:   80600
 k-point    64 :   0.4375 0.2727 0.2857  plane waves:   80574
 k-point    65 :   0.0625 0.3636 0.2857  plane waves:   80589
 k-point    66 :   0.1875 0.3636 0.2857  plane waves:   80572
 k-point    67 :   0.3125 0.3636 0.2857  plane waves:   80572
 k-point    68 :   0.4375 0.3636 0.2857  plane waves:   80584
 k-point    69 :   0.0625 0.4545 0.2857  plane waves:   80608
 k-point    70 :   0.1875 0.4545 0.2857  plane waves:   80585
 k-point    71 :   0.3125 0.4545 0.2857  plane waves:   80580
 k-point    72 :   0.4375 0.4545 0.2857  plane waves:   80596
 k-point    73 :   0.0625 0.0000 0.4286  plane waves:   80569
 k-point    74 :   0.1875 0.0000 0.4286  plane waves:   80618
 k-point    75 :   0.3125 0.0000 0.4286  plane waves:   80616
 k-point    76 :   0.4375 0.0000 0.4286  plane waves:   80666
 k-point    77 :   0.0625 0.0909 0.4286  plane waves:   80581
 k-point    78 :   0.1875 0.0909 0.4286  plane waves:   80624
 k-point    79 :   0.3125 0.0909 0.4286  plane waves:   80636
 k-point    80 :   0.4375 0.0909 0.4286  plane waves:   80634
 k-point    81 :   0.0625 0.1818 0.4286  plane waves:   80595
 k-point    82 :   0.1875 0.1818 0.4286  plane waves:   80602
 k-point    83 :   0.3125 0.1818 0.4286  plane waves:   80613
 k-point    84 :   0.4375 0.1818 0.4286  plane waves:   80618
 k-point    85 :   0.0625 0.2727 0.4286  plane waves:   80601
 k-point    86 :   0.1875 0.2727 0.4286  plane waves:   80589
 k-point    87 :   0.3125 0.2727 0.4286  plane waves:   80568
 k-point    88 :   0.4375 0.2727 0.4286  plane waves:   80565
 k-point    89 :   0.0625 0.3636 0.4286  plane waves:   80607
 k-point    90 :   0.1875 0.3636 0.4286  plane waves:   80596
 k-point    91 :   0.3125 0.3636 0.4286  plane waves:   80569
 k-point    92 :   0.4375 0.3636 0.4286  plane waves:   80548
 k-point    93 :   0.0625 0.4545 0.4286  plane waves:   80645
 k-point    94 :   0.1875 0.4545 0.4286  plane waves:   80588
 k-point    95 :   0.3125 0.4545 0.4286  plane waves:   80572
 k-point    96 :   0.4375 0.4545 0.4286  plane waves:   80577

 maximum and minimum number of plane-waves per node :     80666    80539

 maximum number of plane-waves:     80666
 maximum index in each direction: 
   IXMAX=   26   IYMAX=   22   IZMAX=   32
   IXMIN=  -27   IYMIN=  -22   IZMIN=  -32


 serial   3D FFT for wavefunctions
 parallel 3D FFT for charge:
    minimum data exchange during FFTs selected (reduces bandwidth)


 total amount of memory used by VASP MPI-rank0   748350. kBytes
=======================================================================

   base      :      30000. kBytes
   nonl-proj :     497038. kBytes
   fftplans  :      20866. kBytes
   grid      :      76470. kBytes
   one-center:          3. kBytes
   wavefun   :     123973. kBytes
 
     INWAV:  cpu time      0.0001: real time      0.0009
 Broyden mixing: mesh for mixing (old mesh)
   NGX = 53   NGY = 45   NGZ = 65
  (NGX  =216   NGY  =180   NGZ  =280)
  gives a total of 155025 points

 initial charge density was supplied:
 charge density of overlapping atoms calculated
 number of electron       3.0000000 magnetization 
 keeping initial charge density in first step


--------------------------------------------------------------------------------------------------------


 Maximum index for augmentation-charges          229 (set IRDMAX)


--------------------------------------------------------------------------------------------------------


 First call to EWALD:  gamma=   0.118
 Maximum number of real-space cells 3x 3x 2
 Maximum number of reciprocal cells 3x 2x 3

    FEWALD:  cpu time      0.0023: real time      0.0027


--------------------------------------- Ionic step        1  -------------------------------------------




--------------------------------------- Iteration      1(   1)  ---------------------------------------


    POTLOK:  cpu time      0.3276: real time      0.3532
    SETDIJ:  cpu time      0.0023: real time      0.0023
     EDDAV:  cpu time     25.0922: real time     25.6817
       DOS:  cpu time      0.0014: real time      0.0014
    --------------------------------------------
      LOOP:  cpu time     25.4234: real time     26.0387

 eigenvalue-minimisations  :  4608
 total energy-change (2. order) : 0.7546041E+01  (-0.3314462E+02)
 number of electron       3.0000000 magnetization 
 augmentation part        3.0000000 magnetization 

 Free energy of the ion-electron system (eV)
  ---------------------------------------------------
  alpha Z        PSCENC =         0.02038373
  Ewald energy   TEWEN  =       -11.82901664
  -Hartree energ DENC   =       -42.58396533
  -exchange      EXHF   =         0.00000000
  -V(xc)+E(xc)   XCENC  =         4.75549673
  PAW double counting   =        43.49986551      -42.64454556
  entropy T*S    EENTRO =        -0.01145593
  eigenvalues    EBANDS =       -14.82973083
  atomic energy  EATOM  =        71.16900941
  Solvation  Ediel_sol  =         0.00000000
  ---------------------------------------------------
  free energy    TOTEN  =         7.54604109 eV

  energy without entropy =        7.55749702  energy(sigma->0) =        7.55176905


--------------------------------------------------------------------------------------------------------




--------------------------------------- Iteration      1(   2)  ---------------------------------------


     EDDAV:  cpu time     41.4915: real time     42.2724
       DOS:  cpu time      0.0008: real time      0.0008
    --------------------------------------------
      LOOP:  cpu time     41.4923: real time     42.2732

 eigenvalue-minimisations  :  9216
 total energy-change (2. order) :-0.7477481E+01  (-0.7453314E+01)
 number of electron       3.0000000 magnetization 
 augmentation part        3.0000000 magnetization 

 Free energy of the ion-electron system (eV)
  ---------------------------------------------------
  alpha Z        PSCENC =         0.02038373
  Ewald energy   TEWEN  =       -11.82901664
  -Hartree energ DENC   =       -42.58396533
  -exchange      EXHF   =         0.00000000
  -V(xc)+E(xc)   XCENC  =         4.75549673
  PAW double counting   =        43.49986551      -42.64454556
  entropy T*S    EENTRO =        -0.03197655
  eigenvalues    EBANDS =       -22.28669090
  atomic energy  EATOM  =        71.16900941
  Solvation  Ediel_sol  =         0.00000000
  ---------------------------------------------------
  free energy    TOTEN  =         0.06856040 eV

  energy without entropy =        0.10053695  energy(sigma->0) =        0.08454867


--------------------------------------------------------------------------------------------------------




--------------------------------------- Iteration      1(   3)  ---------------------------------------


     EDDAV:  cpu time     25.7070: real time     26.2382
       DOS:  cpu time      0.0007: real time      0.0007
    --------------------------------------------
      LOOP:  cpu time     25.7077: real time     26.2389

 eigenvalue-minimisations  :  4608
 total energy-change (2. order) :-0.1243545E+00  (-0.1047301E+00)
 number of electron       3.0000000 magnetization 
 augmentation part        3.0000000 magnetization 

 Free energy of the ion-electron system (eV)
  ---------------------------------------------------
  alpha Z        PSCENC =         0.02038373
  Ewald energy   TEWEN  =       -11.82901664
  -Hartree energ DENC   =       -42.58396533
  -exchange      EXHF   =         0.00000000
  -V(xc)+E(xc)   XCENC  =         4.75549673
  PAW double counting   =        43.49986551      -42.64454556
  entropy T*S    EENTRO =        -0.05295000
  eigenvalues    EBANDS =       -22.39007193
  atomic energy  EATOM  =        71.16900941
  Solvation  Ediel_sol  =         0.00000000
  ---------------------------------------------------
  free energy    TOTEN  =        -0.05579408 eV

  energy without entropy =       -0.00284408  energy(sigma->0) =       -0.02931908


--------------------------------------------------------------------------------------------------------




--------------------------------------- Iteration      1(   4)  ---------------------------------------


     EDDAV:  cpu time     27.0201: real time     27.6708
       DOS:  cpu time      0.0008: real time      0.0008
    --------------------------------------------
      LOOP:  cpu time     27.0210: real time     27.6716

 eigenvalue-minimisations  :  5040
 total energy-change (2. order) :-0.2448524E-02  (-0.2399978E-02)
 number of electron       3.0000000 magnetization 
 augmentation part        3.0000000 magnetization 

 Free energy of the ion-electron system (eV)
  ---------------------------------------------------
  alpha Z        PSCENC =         0.02038373
  Ewald energy   TEWEN  =       -11.82901664
  -Hartree energ DENC   =       -42.58396533
  -exchange      EXHF   =         0.00000000
  -V(xc)+E(xc)   XCENC  =         4.75549673
  PAW double counting   =        43.49986551      -42.64454556
  entropy T*S    EENTRO =        -0.05300132
  eigenvalues    EBANDS =       -22.39246913
  atomic energy  EATOM  =        71.16900941
  Solvation  Ediel_sol  =         0.00000000
  ---------------------------------------------------
  free energy    TOTEN  =        -0.05824261 eV

  energy without entropy =       -0.00524129  energy(sigma->0) =       -0.03174195


--------------------------------------------------------------------------------------------------------




--------------------------------------- Iteration      1(   5)  ---------------------------------------


     EDDAV:  cpu time     33.8980: real time     35.3720
       DOS:  cpu time      0.0008: real time      0.0007
    CHARGE:  cpu time      1.9190: real time      1.9513
    MIXING:  cpu time      0.0170: real time      0.0197
    --------------------------------------------
      LOOP:  cpu time     35.8348: real time     37.3438

 eigenvalue-minimisations  :  7104
 total energy-change (2. order) :-0.2912840E-04  (-0.2912138E-04)
 number of electron       3.0000000 magnetization 
 augmentation part       -0.0945664 magnetization 

 Broyden mixing:
  rms(total) = 0.74050E-03    rms(broyden)= 0.68597E-03
  rms(prec ) = 0.69178E-03
  weight for this iteration     100.00

 Free energy of the ion-electron system (eV)
  ---------------------------------------------------
  alpha Z        PSCENC =         0.02038373
  Ewald energy   TEWEN  =       -11.82901664
  -Hartree energ DENC   =       -42.58396533
  -exchange      EXHF   =         0.00000000
  -V(xc)+E(xc)   XCENC  =         4.75549673
  PAW double counting   =        43.49986551      -42.64454556
  entropy T*S    EENTRO =        -0.05300134
  eigenvalues    EBANDS =       -22.39249824
  atomic energy  EATOM  =        71.16900941
  Solvation  Ediel_sol  =         0.00000000
  ---------------------------------------------------
  free energy    TOTEN  =        -0.05827173 eV

  energy without entropy =       -0.00527039  energy(sigma->0) =       -0.03177106


--------------------------------------------------------------------------------------------------------




--------------------------------------- Iteration      1(   6)  ---------------------------------------


    POTLOK:  cpu time      0.3332: real time      0.3441
    SETDIJ:  cpu time      0.0008: real time      0.0008
     EDDAV:  cpu time     31.5996: real time     32.2529
       DOS:  cpu time      0.0007: real time      0.0007
    --------------------------------------------
      LOOP:  cpu time     31.9344: real time     32.5986

 eigenvalue-minimisations  :  6312
 total energy-change (2. order) :-0.3494332E-06  (-0.2486107E-06)
 number of electron       3.0000000 magnetization 
 augmentation part       -0.0945664 magnetization 

 Free energy of the ion-electron system (eV)
  ---------------------------------------------------
  alpha Z        PSCENC =         0.02038373
  Ewald energy   TEWEN  =       -11.82901664
  -Hartree energ DENC   =       -42.58385889
  -exchange      EXHF   =         0.00000000
  -V(xc)+E(xc)   XCENC  =         4.75536778
  PAW double counting   =        43.51354379      -42.65832987
  entropy T*S    EENTRO =        -0.05300134
  eigenvalues    EBANDS =       -22.39237005
  atomic energy  EATOM  =        71.16900941
  Solvation  Ediel_sol  =         0.00000000
  ---------------------------------------------------
  free energy    TOTEN  =        -0.05827208 eV

  energy without entropy =       -0.00527074  energy(sigma->0) =       -0.03177141


--------------------------------------------------------------------------------------------------------




 average (electrostatic) potential at core
  the test charge radii are     0.7672
  (the norm of the test charge is              1.0000)
       1 -39.4299
 
 
 
 E-fermi :  -3.6068     XC(G=0):  -0.2675     alpha+bet : -0.0329

 val. band max:       -9.4099027536   @ k =   0.0625   0.4545   0.0000
 cond. band min:      -3.5726747254   @ k =   0.0625   0.4545   0.4286
 fundamental gap:      5.8372280282
 Fermi energy:        -3.6067667735

 k-point     1 :       0.0625    0.0000    0.0000
  band No.  band energies     occupation 
      1      -9.4099      2.00000
      2      -3.5726      0.33346
      3      -3.5726      0.33334
      4      -3.5724      0.33171
      5      -0.2623      0.00000
      6       0.2921      0.00000
      7       0.3093      0.00000
      8       0.4271      0.00000
      9       0.5871      0.00000
     10       0.7271      0.00000
     11       0.7875      0.00000
     12       0.8952      0.00000
     13       0.9276      0.00000
     14       1.0510      0.00000
     15       1.0939      0.00000
     16       1.2027      0.00000
     17       1.2473      0.00000
     18       1.3045      0.00000
     19       1.3052      0.00000
     20       1.3156      0.00000
     21       1.4082      0.00000
     22       1.5356      0.00000
     23       1.5431      0.00000
     24       1.7022      0.00000

 k-point     2 :       0.1875    0.0000    0.0000
  band No.  band energies     occupation 
      1      -9.4099      2.00000
      2      -3.5726      0.33345
      3      -3.5726      0.33340
      4      -3.5724      0.33171
      5      -0.2472      0.00000
      6       0.2442      0.00000
      7       0.3267      0.00000
      8       0.3670      0.00000
      9       0.7384      0.00000
     10       0.7416      0.00000
     11       0.7615      0.00000
     12       0.8012      0.00000
     13       0.8099      0.00000
     14       1.1732      0.00000
     15       1.2082      0.00000
     16       1.2171      0.00000
     17       1.2341      0.00000
     18       1.3034      0.00000
     19       1.3106      0.00000
     20       1.3393      0.00000
     21       1.3397      0.00000
     22       1.6316      0.00000
     23       1.6423      0.00000
     24       1.7077      0.00000

 k-point     3 :       0.3125    0.0000    0.0000
  band No.  band energies     occupation 
      1      -9.4099      2.00000
      2      -3.5726      0.33351
      3      -3.5726      0.33344
      4      -3.5724      0.33171
      5      -0.2211      0.00000
      6       0.1533      0.00000
      7       0.3591      0.00000
      8       0.3919      0.00000
      9       0.6504      0.00000
     10       0.6564      0.00000
     11       0.7673      0.00000
     12       0.8372      0.00000
     13       0.9601      0.00000
     14       1.0828      0.00000
     15       1.1496      0.00000
     16       1.2419      0.00000
     17       1.3151      0.00000
     18       1.3450      0.00000
     19       1.3710      0.00000
     20       1.4517      0.00000
     21       1.4836      0.00000
     22       1.5849      0.00000
     23       1.6118      0.00000
     24       1.6131      0.00000

 k-point     4 :       0.4375    0.0000    0.0000
  band No.  band energies     occupation 
      1      -9.4099      2.00000
      2      -3.5726      0.33357
      3      -3.5726      0.33344
      4      -3.5724      0.33171
      5      -0.1971      0.00000
      6       0.0919      0.00000
      7       0.3946      0.00000
      8       0.4395      0.00000
      9       0.5658      0.00000
     10       0.5753      0.00000
     11       0.7921      0.00000
     12       0.8742      0.00000
     13       1.0231      0.00000
     14       1.0532      0.00000
     15       1.1909      0.00000
     16       1.2647      0.00000
     17       1.3739      0.00000
     18       1.3822      0.00000
     19       1.3961      0.00000
     20       1.4905      0.00000
     21       1.4914      0.00000
     22       1.4980      0.00000
     23       1.5424      0.00000
     24       1.5508      0.00000

 k-point     5 :       0.0625    0.0909    0.0000
  band No.  band energies     occupation 
      1      -9.4099      2.00000
      2      -3.5726      0.33344
      3      -3.5726      0.33332
      4      -3.5725      0.33197
      5      -0.2549      0.00000
      6       0.2988      0.00000
      7       0.3166      0.00000
      8       0.4344      0.00000
      9       0.5834      0.00000
     10       0.6086      0.00000
     11       0.9017      0.00000
     12       0.9240      0.00000
     13       0.9400      0.00000
     14       1.0433      0.00000
     15       1.0989      0.00000
     16       1.1069      0.00000
     17       1.1182      0.00000
     18       1.2042      0.00000
     19       1.3687      0.00000
     20       1.4275      0.00000
     21       1.4603      0.00000
     22       1.5528      0.00000
     23       1.6331      0.00000
     24       1.6893      0.00000

 k-point     6 :       0.1875    0.0909    0.0000
  band No.  band energies     occupation 
      1      -9.4099      2.00000
      2      -3.5726      0.33343
      3      -3.5726      0.33338
      4      -3.5725      0.33197
      5      -0.2398      0.00000
      6       0.2513      0.00000
      7       0.3339      0.00000
      8       0.3742      0.00000
      9       0.6114      0.00000
     10       0.7480      0.00000
     11       0.7687      0.00000
     12       0.8119      0.00000
     13       0.9451      0.00000
     14       1.0535      0.00000
     15       1.0943      0.00000
     16       1.1644      0.00000
     17       1.2399      0.00000
     18       1.2836      0.00000
     19       1.3898      0.00000
     20       1.4466      0.00000
     21       1.4784      0.00000
     22       1.5522      0.00000
     23       1.5624      0.00000
     24       1.6060      0.00000

 k-point     7 :       0.3125    0.0909    0.0000
  band No.  band energies     occupation 
      1      -9.4099      2.00000
      2      -3.5726      0.33349
      3      -3.5726      0.33343
      4      -3.5725      0.33197
      5      -0.2138      0.00000
      6       0.1607      0.00000
      7       0.3662      0.00000
      8       0.3989      0.00000
      9       0.6413      0.00000
     10       0.6579      0.00000
     11       0.6635      0.00000
     12       0.9327      0.00000
     13       0.9778      0.00000
     14       0.9887      0.00000
     15       1.1267      0.00000
     16       1.1984      0.00000
     17       1.2867      0.00000
     18       1.3796      0.00000
     19       1.4431      0.00000
     20       1.4746      0.00000
     21       1.5035      0.00000
     22       1.5106      0.00000
     23       1.5243      0.00000
     24       1.6524      0.00000

 k-point     8 :       0.4375    0.0909    0.0000
  band No.  band energies     occupation 
      1      -9.4099      2.00000
      2      -3.5726      0.33355
      3      -3.5726      0.33342
      4      -3.5725      0.33197
      5      -0.1898      0.00000
      6       0.0996      0.00000
      7       0.4017      0.00000
      8       0.4465      0.00000
      9       0.5729      0.00000
     10       0.5830      0.00000
     11       0.6717      0.00000
     12       0.8799      0.00000
     13       1.0072      0.00000
     14       1.1580      0.00000
     15       1.1695      0.00000
     16       1.2277      0.00000
     17       1.2572      0.00000
     18       1.3603      0.00000
     19       1.3633      0.00000
     20       1.4351      0.00000
     21       1.4956      0.00000
     22       1.6076      0.00000
     23       1.6298      0.00000
     24       1.6802      0.00000

 k-point     9 :       0.0625    0.1818    0.0000
  band No.  band energies     occupation 
      1      -9.4099      2.00000
      2      -3.5726      0.33339
      3      -3.5726      0.33327
      4      -3.5725      0.33267
      5      -0.2331      0.00000
      6       0.3148      0.00000
      7       0.3382      0.00000
      8       0.4551      0.00000
      9       0.4606      0.00000
     10       0.6197      0.00000
     11       0.9086      0.00000
     12       0.9444      0.00000
     13       0.9541      0.00000
     14       0.9657      0.00000
     15       1.0620      0.00000
     16       1.0949      0.00000
     17       1.1114      0.00000
     18       1.1461      0.00000
     19       1.2379      0.00000
     20       1.5332      0.00000
     21       1.5588      0.00000
     22       1.6095      0.00000
     23       1.6485      0.00000
     24       1.6633      0.00000

 k-point    10 :       0.1875    0.1818    0.0000
  band No.  band energies     occupation 
      1      -9.4099      2.00000
      2      -3.5726      0.33338
      3      -3.5726      0.33333
      4      -3.5725      0.33266
      5      -0.2180      0.00000
      6       0.2713      0.00000
      7       0.3555      0.00000
      8       0.3929      0.00000
      9       0.4761      0.00000
     10       0.7659      0.00000
     11       0.7897      0.00000
     12       0.8351      0.00000
     13       0.9089      0.00000
     14       0.9596      0.00000
     15       1.0112      0.00000
     16       1.1405      0.00000
     17       1.2592      0.00000
     18       1.3072      0.00000
     19       1.3700      0.00000
     20       1.4132      0.00000
     21       1.4578      0.00000
     22       1.5944      0.00000
     23       1.6220      0.00000
     24       1.6848      0.00000

 k-point    11 :       0.3125    0.1818    0.0000
  band No.  band energies     occupation 
      1      -9.4099      2.00000
      2      -3.5726      0.33343
      3      -3.5726      0.33338
      4      -3.5725      0.33266
      5      -0.1922      0.00000
      6       0.1829      0.00000
      7       0.3876      0.00000
      8       0.4153      0.00000
      9       0.5070      0.00000
     10       0.6803      0.00000
     11       0.6822      0.00000
     12       0.8078      0.00000
     13       0.9902      0.00000
     14       0.9959      0.00000
     15       1.0407      0.00000
     16       1.1695      0.00000
     17       1.2865      0.00000
     18       1.2960      0.00000
     19       1.4633      0.00000
     20       1.4662      0.00000
     21       1.5333      0.00000
     22       1.5954      0.00000
     23       1.6529      0.00000
     24       1.6794      0.00000

 k-point    12 :       0.4375    0.1818    0.0000
  band No.  band energies     occupation 
      1      -9.4099      2.00000
      2      -3.5726      0.33350
      3      -3.5726      0.33337
      4      -3.5725      0.33265
      5      -0.1684      0.00000
      6       0.1223      0.00000
      7       0.4225      0.00000
      8       0.4606      0.00000
      9       0.5402      0.00000
     10       0.5929      0.00000
     11       0.6061      0.00000
     12       0.7388      0.00000
     13       1.0233      0.00000
     14       1.0858      0.00000
     15       1.1878      0.00000
     16       1.1903      0.00000
     17       1.2179      0.00000
     18       1.2396      0.00000
     19       1.4024      0.00000
     20       1.4765      0.00000
     21       1.6279      0.00000
     22       1.6917      0.00000
     23       1.7273      0.00000
     24       1.7550      0.00000

 k-point    13 :       0.0625    0.2727    0.0000
  band No.  band energies     occupation 
      1      -9.4099      2.00000
      2      -3.5726      0.33358
      3      -3.5726      0.33332
      4      -3.5726      0.33321
      5      -0.1985      0.00000
      6       0.2908      0.00000
      7       0.3737      0.00000
      8       0.3971      0.00000
      9       0.4913      0.00000
     10       0.6562      0.00000
     11       0.8103      0.00000
     12       0.8255      0.00000
     13       0.9261      0.00000
     14       0.9660      0.00000
     15       1.0095      0.00000
     16       1.0975      0.00000
     17       1.1275      0.00000
     18       1.1729      0.00000
     19       1.3218      0.00000
     20       1.4174      0.00000
     21       1.4418      0.00000
     22       1.5719      0.00000
     23       1.6082      0.00000
     24       1.7059      0.00000

 k-point    14 :       0.1875    0.2727    0.0000
  band No.  band energies     occupation 
      1      -9.4099      2.00000
      2      -3.5726      0.33357
      3      -3.5726      0.33331
      4      -3.5726      0.33326
      5      -0.1836      0.00000
      6       0.2859      0.00000
      7       0.3600      0.00000
      8       0.3908      0.00000
      9       0.4441      0.00000
     10       0.7538      0.00000
     11       0.8085      0.00000
     12       0.8250      0.00000
     13       0.8532      0.00000
     14       0.8751      0.00000
     15       0.8857      0.00000
     16       1.2401      0.00000
     17       1.2554      0.00000
     18       1.2921      0.00000
     19       1.3253      0.00000
     20       1.3498      0.00000
     21       1.3789      0.00000
     22       1.7072      0.00000
     23       1.7286      0.00000
     24       1.7705      0.00000

 k-point    15 :       0.3125    0.2727    0.0000
  band No.  band energies     occupation 
      1      -9.4099      2.00000
      2      -3.5726      0.33356
      3      -3.5726      0.33335
      4      -3.5726      0.33331
      5      -0.1581      0.00000
      6       0.2180      0.00000
      7       0.3627      0.00000
      8       0.4224      0.00000
      9       0.4751      0.00000
     10       0.6575      0.00000
     11       0.7165      0.00000
     12       0.7431      0.00000
     13       0.8677      0.00000
     14       0.9118      0.00000
     15       1.0305      0.00000
     16       1.1615      0.00000
     17       1.1673      0.00000
     18       1.3532      0.00000
     19       1.4797      0.00000
     20       1.4960      0.00000
     21       1.5522      0.00000
     22       1.6759      0.00000
     23       1.7300      0.00000
     24       1.7829      0.00000

 k-point    16 :       0.4375    0.2727    0.0000
  band No.  band energies     occupation 
      1      -9.4099      2.00000
      2      -3.5726      0.33356
      3      -3.5726      0.33343
      4      -3.5726      0.33331
      5      -0.1348      0.00000
      6       0.1598      0.00000
      7       0.3932      0.00000
      8       0.4563      0.00000
      9       0.5224      0.00000
     10       0.5833      0.00000
     11       0.6443      0.00000
     12       0.6569      0.00000
     13       0.9017      0.00000
     14       0.9619      0.00000
     15       1.0715      0.00000
     16       1.0873      0.00000
     17       1.2466      0.00000
     18       1.3828      0.00000
     19       1.4796      0.00000
     20       1.6246      0.00000
     21       1.6817      0.00000
     22       1.6914      0.00000
     23       1.7942      0.00000
     24       1.7985      0.00000

 k-point    17 :       0.0625    0.3636    0.0000
  band No.  band energies     occupation 
      1      -9.4099      2.00000
      2      -3.5726      0.33441
      3      -3.5726      0.33325
      4      -3.5725      0.33314
      5      -0.1557      0.00000
      6       0.2022      0.00000
      7       0.4208      0.00000
      8       0.4358      0.00000
      9       0.5379      0.00000
     10       0.7019      0.00000
     11       0.7053      0.00000
     12       0.7125      0.00000
     13       0.8264      0.00000
     14       0.9902      0.00000
     15       1.0114      0.00000
     16       1.0591      0.00000
     17       1.1729      0.00000
     18       1.2235      0.00000
     19       1.3112      0.00000
     20       1.3178      0.00000
     21       1.4671      0.00000
     22       1.4687      0.00000
     23       1.5586      0.00000
     24       1.7565      0.00000

 k-point    18 :       0.1875    0.3636    0.0000
  band No.  band energies     occupation 
      1      -9.4099      2.00000
      2      -3.5726      0.33440
      3      -3.5726      0.33325
      4      -3.5726      0.33319
      5      -0.1411      0.00000
      6       0.2183      0.00000
      7       0.3774      0.00000
      8       0.4375      0.00000
      9       0.4930      0.00000
     10       0.6552      0.00000
     11       0.7225      0.00000
     12       0.7666      0.00000
     13       0.8610      0.00000
     14       0.8816      0.00000
     15       0.9329      0.00000
     16       1.1384      0.00000
     17       1.1622      0.00000
     18       1.2023      0.00000
     19       1.3546      0.00000
     20       1.4035      0.00000
     21       1.5422      0.00000
     22       1.6431      0.00000
     23       1.6770      0.00000
     24       1.7650      0.00000

 k-point    19 :       0.3125    0.3636    0.0000
  band No.  band energies     occupation 
      1      -9.4099      2.00000
      2      -3.5726      0.33440
      3      -3.5726      0.33329
      4      -3.5726      0.33325
      5      -0.1164      0.00000
      6       0.2395      0.00000
      7       0.2931      0.00000
      8       0.4681      0.00000
      9       0.5228      0.00000
     10       0.5564      0.00000
     11       0.7457      0.00000
     12       0.7833      0.00000
     13       0.7871      0.00000
     14       0.7961      0.00000
     15       1.0404      0.00000
     16       1.0505      0.00000
     17       1.0922      0.00000
     18       1.3612      0.00000
     19       1.5400      0.00000
     20       1.5514      0.00000
     21       1.6216      0.00000
     22       1.7215      0.00000
     23       1.8206      0.00000
     24       1.8644      0.00000

 k-point    20 :       0.4375    0.3636    0.0000
  band No.  band energies     occupation 
      1      -9.4099      2.00000
      2      -3.5726      0.33439
      3      -3.5726      0.33336
      4      -3.5726      0.33325
      5      -0.0942      0.00000
      6       0.2104      0.00000
      7       0.2960      0.00000
      8       0.4823      0.00000
      9       0.5003      0.00000
     10       0.5737      0.00000
     11       0.6961      0.00000
     12       0.6971      0.00000
     13       0.7988      0.00000
     14       0.8463      0.00000
     15       0.9578      0.00000
     16       0.9731      0.00000
     17       1.2928      0.00000
     18       1.4994      0.00000
     19       1.5790      0.00000
     20       1.5995      0.00000
     21       1.7249      0.00000
     22       1.7731      0.00000
     23       1.8381      0.00000
     24       1.8659      0.00000

 k-point    21 :       0.0625    0.4545    0.0000
  band No.  band energies     occupation 
      1      -9.4099      2.00000
      2      -3.5727      0.33491
      3      -3.5726      0.33321
      4      -3.5725      0.33310
      5      -0.1191      0.00000
      6       0.1375      0.00000
      7       0.4687      0.00000
      8       0.4961      0.00000
      9       0.5845      0.00000
     10       0.6146      0.00000
     11       0.6278      0.00000
     12       0.7432      0.00000
     13       0.7652      0.00000
     14       0.9087      0.00000
     15       1.0573      0.00000
     16       1.1239      0.00000
     17       1.2099      0.00000
     18       1.2216      0.00000
     19       1.2441      0.00000
     20       1.2914      0.00000
     21       1.3862      0.00000
     22       1.3904      0.00000
     23       1.7042      0.00000
     24       1.8398      0.00000

 k-point    22 :       0.1875    0.4545    0.0000
  band No.  band energies     occupation 
      1      -9.4099      2.00000
      2      -3.5727      0.33490
      3      -3.5726      0.33321
      4      -3.5726      0.33316
      5      -0.1051      0.00000
      6       0.1556      0.00000
      7       0.4276      0.00000
      8       0.4846      0.00000
      9       0.5503      0.00000
     10       0.5740      0.00000
     11       0.6466      0.00000
     12       0.6764      0.00000
     13       0.9067      0.00000
     14       0.9313      0.00000
     15       1.0002      0.00000
     16       1.0601      0.00000
     17       1.0825      0.00000
     18       1.1070      0.00000
     19       1.3978      0.00000
     20       1.4698      0.00000
     21       1.5637      0.00000
     22       1.5698      0.00000
     23       1.7177      0.00000
     24       1.8388      0.00000

 k-point    23 :       0.3125    0.4545    0.0000
  band No.  band energies     occupation 
      1      -9.4099      2.00000
      2      -3.5727      0.33489
      3      -3.5726      0.33325
      4      -3.5726      0.33321
      5      -0.0817      0.00000
      6       0.1896      0.00000
      7       0.3322      0.00000
      8       0.4712      0.00000
      9       0.5133      0.00000
     10       0.5869      0.00000
     11       0.6822      0.00000
     12       0.7019      0.00000
     13       0.8258      0.00000
     14       0.8491      0.00000
     15       0.9542      0.00000
     16       0.9657      0.00000
     17       1.1338      0.00000
     18       1.2866      0.00000
     19       1.5819      0.00000
     20       1.6528      0.00000
     21       1.7271      0.00000
     22       1.7498      0.00000
     23       1.7632      0.00000
     24       1.7938      0.00000

 k-point    24 :       0.4375    0.4545    0.0000
  band No.  band energies     occupation 
      1      -9.4099      2.00000
      2      -3.5727      0.33489
      3      -3.5726      0.33333
      4      -3.5726      0.33322
      5      -0.0610      0.00000
      6       0.2293      0.00000
      7       0.2716      0.00000
      8       0.3957      0.00000
      9       0.5423      0.00000
     10       0.6363      0.00000
     11       0.7246      0.00000
     12       0.7513      0.00000
     13       0.7574      0.00000
     14       0.7600      0.00000
     15       0.8631      0.00000
     16       0.8832      0.00000
     17       1.3374      0.00000
     18       1.4979      0.00000
     19       1.5691      0.00000
     20       1.7199      0.00000
     21       1.7432      0.00000
     22       1.7604      0.00000
     23       1.9020      0.00000
     24       1.9125      0.00000

 k-point    25 :       0.0625    0.0000    0.1429
  band No.  band energies     occupation 
      1      -9.4099      2.00000
      2      -3.5726      0.33345
      3      -3.5726      0.33334
      4      -3.5724      0.33171
      5      -0.2574      0.00000
      6       0.1948      0.00000
      7       0.3969      0.00000
      8       0.4615      0.00000
      9       0.5977      0.00000
     10       0.7321      0.00000
     11       0.7939      0.00000
     12       0.7975      0.00000
     13       0.9572      0.00000
     14       1.0444      0.00000
     15       1.1261      0.00000
     16       1.1687      0.00000
     17       1.2310      0.00000
     18       1.2957      0.00000
     19       1.3610      0.00000
     20       1.3798      0.00000
     21       1.4477      0.00000
     22       1.4597      0.00000
     23       1.5483      0.00000
     24       1.5979      0.00000

 k-point    26 :       0.1875    0.0000    0.1429
  band No.  band energies     occupation 
      1      -9.4099      2.00000
      2      -3.5726      0.33345
      3      -3.5726      0.33340
      4      -3.5724      0.33171
      5      -0.2423      0.00000
      6       0.2040      0.00000
      7       0.2896      0.00000
      8       0.4719      0.00000
      9       0.6556      0.00000
     10       0.7465      0.00000
     11       0.7635      0.00000
     12       0.8151      0.00000
     13       0.9115      0.00000
     14       1.1260      0.00000
     15       1.1368      0.00000
     16       1.1971      0.00000
     17       1.2023      0.00000
     18       1.2770      0.00000
     19       1.3865      0.00000
     20       1.3902      0.00000
     21       1.4604      0.00000
     22       1.4682      0.00000
     23       1.6015      0.00000
     24       1.6243      0.00000

 k-point    27 :       0.3125    0.0000    0.1429
  band No.  band energies     occupation 
      1      -9.4099      2.00000
      2      -3.5726      0.33351
      3      -3.5726      0.33345
      4      -3.5724      0.33171
      5      -0.2166      0.00000
      6       0.1580      0.00000
      7       0.2680      0.00000
      8       0.5006      0.00000
      9       0.5462      0.00000
     10       0.7719      0.00000
     11       0.7858      0.00000
     12       0.8445      0.00000
     13       0.9678      0.00000
     14       1.0878      0.00000
     15       1.1567      0.00000
     16       1.1822      0.00000
     17       1.2279      0.00000
     18       1.3445      0.00000
     19       1.4092      0.00000
     20       1.4692      0.00000
     21       1.4900      0.00000
     22       1.5082      0.00000
     23       1.5282      0.00000
     24       1.5966      0.00000

 k-point    28 :       0.4375    0.0000    0.1429
  band No.  band energies     occupation 
      1      -9.4099      2.00000
      2      -3.5726      0.33357
      3      -3.5726      0.33345
      4      -3.5724      0.33170
      5      -0.1930      0.00000
      6       0.0999      0.00000
      7       0.3057      0.00000
      8       0.4517      0.00000
      9       0.5535      0.00000
     10       0.7062      0.00000
     11       0.7962      0.00000
     12       0.8804      0.00000
     13       1.0302      0.00000
     14       1.0614      0.00000
     15       1.1956      0.00000
     16       1.2114      0.00000
     17       1.2833      0.00000
     18       1.3965      0.00000
     19       1.3970      0.00000
     20       1.4294      0.00000
     21       1.4819      0.00000
     22       1.4981      0.00000
     23       1.5742      0.00000
     24       1.6014      0.00000

 k-point    29 :       0.0625    0.0909    0.1429
  band No.  band energies     occupation 
      1      -9.4099      2.00000
      2      -3.5726      0.33344
      3      -3.5726      0.33332
      4      -3.5725      0.33197
[...]
      7       0.3490      0.00000
      8       0.5042      0.00000
      9       0.5325      0.00000
     10       0.7184      0.00000
     11       0.8132      0.00000
     12       0.8523      0.00000
     13       0.9644      0.00000
     14       1.0030      0.00000
     15       1.0698      0.00000
     16       1.1402      0.00000
     17       1.1656      0.00000
     18       1.2751      0.00000
     19       1.4013      0.00000
     20       1.4339      0.00000
     21       1.4617      0.00000
     22       1.4814      0.00000
     23       1.6089      0.00000
     24       1.6412      0.00000

 k-point    83 :       0.3125    0.1818    0.4286
  band No.  band energies     occupation 
      1      -9.4099      2.00000
      2      -3.5726      0.33343
      3      -3.5726      0.33339
      4      -3.5725      0.33266
      5      -0.1665      0.00000
      6       0.1536      0.00000
      7       0.2467      0.00000
      8       0.4151      0.00000
      9       0.5321      0.00000
     10       0.7541      0.00000
     11       0.8511      0.00000
     12       0.8763      0.00000
     13       1.0188      0.00000
     14       1.0287      0.00000
     15       1.0589      0.00000
     16       1.1568      0.00000
     17       1.1977      0.00000
     18       1.2517      0.00000
     19       1.3631      0.00000
     20       1.4335      0.00000
     21       1.4916      0.00000
     22       1.5269      0.00000
     23       1.6440      0.00000
     24       1.6624      0.00000

 k-point    84 :       0.4375    0.1818    0.4286
  band No.  band energies     occupation 
      1      -9.4099      2.00000
      2      -3.5726      0.33349
      3      -3.5726      0.33339
      4      -3.5725      0.33266
      5      -0.1453      0.00000
      6       0.1812      0.00000
      7       0.2082      0.00000
      8       0.3247      0.00000
      9       0.5602      0.00000
     10       0.7856      0.00000
     11       0.8035      0.00000
     12       0.9151      0.00000
     13       0.9357      0.00000
     14       1.0693      0.00000
     15       1.0992      0.00000
     16       1.2101      0.00000
     17       1.2297      0.00000
     18       1.3000      0.00000
     19       1.4429      0.00000
     20       1.4683      0.00000
     21       1.4757      0.00000
     22       1.5266      0.00000
     23       1.5609      0.00000
     24       1.6342      0.00000

 k-point    85 :       0.0625    0.2727    0.4286
  band No.  band energies     occupation 
      1      -9.4099      2.00000
      2      -3.5726      0.33357
      3      -3.5726      0.33333
      4      -3.5726      0.33320
      5      -0.1706      0.00000
      6       0.1342      0.00000
      7       0.3564      0.00000
      8       0.5190      0.00000
      9       0.5659      0.00000
     10       0.6872      0.00000
     11       0.7180      0.00000
     12       0.8397      0.00000
     13       0.9064      0.00000
     14       0.9669      0.00000
     15       1.0570      0.00000
     16       1.1335      0.00000
     17       1.1545      0.00000
     18       1.2722      0.00000
     19       1.3319      0.00000
     20       1.3794      0.00000
     21       1.4503      0.00000
     22       1.5069      0.00000
     23       1.5937      0.00000
     24       1.6339      0.00000

 k-point    86 :       0.1875    0.2727    0.4286
  band No.  band energies     occupation 
      1      -9.4099      2.00000
      2      -3.5726      0.33357
      3      -3.5726      0.33333
      4      -3.5726      0.33326
      5      -0.1566      0.00000
      6       0.1538      0.00000
      7       0.3598      0.00000
      8       0.4041      0.00000
      9       0.5594      0.00000
     10       0.6034      0.00000
     11       0.8198      0.00000
     12       0.8663      0.00000
     13       0.8908      0.00000
     14       1.0067      0.00000
     15       1.0366      0.00000
     16       1.1141      0.00000
     17       1.2717      0.00000
     18       1.3031      0.00000
     19       1.3287      0.00000
     20       1.3944      0.00000
     21       1.4811      0.00000
     22       1.5139      0.00000
     23       1.5611      0.00000
     24       1.6363      0.00000

 k-point    87 :       0.3125    0.2727    0.4286
  band No.  band energies     occupation 
      1      -9.4099      2.00000
      2      -3.5726      0.33356
      3      -3.5726      0.33336
      4      -3.5726      0.33332
      5      -0.1331      0.00000
      6       0.1915      0.00000
      7       0.2816      0.00000
      8       0.4087      0.00000
      9       0.4529      0.00000
     10       0.6294      0.00000
     11       0.7292      0.00000
     12       0.8849      0.00000
     13       0.9129      0.00000
     14       1.0602      0.00000
     15       1.0945      0.00000
     16       1.1942      0.00000
     17       1.2862      0.00000
     18       1.3284      0.00000
     19       1.3765      0.00000
     20       1.4140      0.00000
     21       1.5150      0.00000
     22       1.5390      0.00000
     23       1.6444      0.00000
     24       1.6809      0.00000

 k-point    88 :       0.4375    0.2727    0.4286
  band No.  band energies     occupation 
      1      -9.4099      2.00000
      2      -3.5726      0.33355
      3      -3.5726      0.33342
      4      -3.5726      0.33331
      5      -0.1123      0.00000
      6       0.2179      0.00000
      7       0.2455      0.00000
      8       0.3636      0.00000
      9       0.4364      0.00000
     10       0.6589      0.00000
     11       0.6808      0.00000
     12       0.8003      0.00000
     13       0.9492      0.00000
     14       1.1047      0.00000
     15       1.1352      0.00000
     16       1.2593      0.00000
     17       1.3194      0.00000
     18       1.3642      0.00000
     19       1.4236      0.00000
     20       1.5076      0.00000
     21       1.5178      0.00000
     22       1.5446      0.00000
     23       1.6351      0.00000
     24       1.6623      0.00000

 k-point    89 :       0.0625    0.3636    0.4286
  band No.  band energies     occupation 
      1      -9.4099      2.00000
      2      -3.5726      0.33441
      3      -3.5726      0.33327
      4      -3.5725      0.33314
      5      -0.1295      0.00000
      6       0.1862      0.00000
      7       0.2555      0.00000
      8       0.4543      0.00000
      9       0.5633      0.00000
     10       0.7352      0.00000
     11       0.7683      0.00000
     12       0.8632      0.00000
     13       0.8873      0.00000
     14       0.9596      0.00000
     15       1.0153      0.00000
     16       1.0462      0.00000
     17       1.1170      0.00000
     18       1.1661      0.00000
     19       1.2364      0.00000
     20       1.3916      0.00000
     21       1.4878      0.00000
     22       1.5622      0.00000
     23       1.6607      0.00000
     24       1.7010      0.00000

 k-point    90 :       0.1875    0.3636    0.4286
  band No.  band energies     occupation 
      1      -9.4099      2.00000
      2      -3.5726      0.33440
      3      -3.5726      0.33327
      4      -3.5726      0.33320
      5      -0.1158      0.00000
      6       0.2056      0.00000
      7       0.2714      0.00000
      8       0.4381      0.00000
      9       0.4731      0.00000
     10       0.6284      0.00000
     11       0.7277      0.00000
     12       0.8884      0.00000
     13       0.9109      0.00000
     14       0.9332      0.00000
     15       1.0848      0.00000
     16       1.1621      0.00000
     17       1.1789      0.00000
     18       1.2307      0.00000
     19       1.3425      0.00000
     20       1.3831      0.00000
     21       1.4382      0.00000
     22       1.5424      0.00000
     23       1.5948      0.00000
     24       1.6547      0.00000

 k-point    91 :       0.3125    0.3636    0.4286
  band No.  band energies     occupation 
      1      -9.4099      2.00000
      2      -3.5726      0.33439
      3      -3.5726      0.33329
      4      -3.5726      0.33325
      5      -0.0929      0.00000
      6       0.2427      0.00000
      7       0.2969      0.00000
      8       0.3412      0.00000
      9       0.4929      0.00000
     10       0.5295      0.00000
     11       0.6213      0.00000
     12       0.7749      0.00000
     13       0.9565      0.00000
     14       1.1029      0.00000
     15       1.1431      0.00000
     16       1.2306      0.00000
     17       1.2435      0.00000
     18       1.3422      0.00000
     19       1.3838      0.00000
     20       1.4379      0.00000
     21       1.4485      0.00000
     22       1.5221      0.00000
     23       1.6173      0.00000
     24       1.6233      0.00000

 k-point    92 :       0.4375    0.3636    0.4286
  band No.  band energies     occupation 
      1      -9.4099      2.00000
      2      -3.5726      0.33438
      3      -3.5726      0.33335
      4      -3.5726      0.33325
      5      -0.0730      0.00000
      6       0.2669      0.00000
      7       0.2959      0.00000
      8       0.3369      0.00000
      9       0.4173      0.00000
     10       0.5488      0.00000
     11       0.5702      0.00000
     12       0.6839      0.00000
     13       0.9958      0.00000
     14       1.1543      0.00000
     15       1.1815      0.00000
     16       1.2668      0.00000
     17       1.3109      0.00000
     18       1.3703      0.00000
     19       1.4317      0.00000
     20       1.4693      0.00000
     21       1.5317      0.00000
     22       1.5694      0.00000
     23       1.6086      0.00000
     24       1.6599      0.00000

 k-point    93 :       0.0625    0.4545    0.4286
  band No.  band energies     occupation 
      1      -9.4099      2.00000
      2      -3.5727      0.33491
      3      -3.5726      0.33324
      4      -3.5725      0.33311
      5      -0.0956      0.00000
      6       0.1886      0.00000
      7       0.2505      0.00000
      8       0.3621      0.00000
      9       0.6062      0.00000
     10       0.7765      0.00000
     11       0.8015      0.00000
     12       0.8267      0.00000
     13       0.9329      0.00000
     14       0.9364      0.00000
     15       0.9560      0.00000
     16       1.0275      0.00000
     17       1.0851      0.00000
     18       1.1377      0.00000
     19       1.1746      0.00000
     20       1.3099      0.00000
     21       1.5358      0.00000
     22       1.6709      0.00000
     23       1.6904      0.00000
     24       1.7586      0.00000

 k-point    94 :       0.1875    0.4545    0.4286
  band No.  band energies     occupation 
      1      -9.4099      2.00000
      2      -3.5727      0.33490
      3      -3.5726      0.33322
      4      -3.5726      0.33317
      5      -0.0823      0.00000
      6       0.2057      0.00000
      7       0.2695      0.00000
      8       0.3820      0.00000
      9       0.4843      0.00000
     10       0.6504      0.00000
     11       0.6903      0.00000
     12       0.8011      0.00000
     13       0.9597      0.00000
     14       0.9775      0.00000
     15       1.0911      0.00000
     16       1.1392      0.00000
     17       1.1530      0.00000
     18       1.2273      0.00000
     19       1.2821      0.00000
     20       1.3500      0.00000
     21       1.4176      0.00000
     22       1.5497      0.00000
     23       1.6088      0.00000
     24       1.7365      0.00000

 k-point    95 :       0.3125    0.4545    0.4286
  band No.  band energies     occupation 
      1      -9.4099      2.00000
      2      -3.5727      0.33490
      3      -3.5726      0.33325
      4      -3.5726      0.33322
      5      -0.0604      0.00000
      6       0.2372      0.00000
      7       0.3058      0.00000
      8       0.3842      0.00000
      9       0.4209      0.00000
     10       0.5406      0.00000
     11       0.5753      0.00000
     12       0.6806      0.00000
     13       1.0082      0.00000
     14       1.1388      0.00000
     15       1.1533      0.00000
     16       1.1977      0.00000
     17       1.2949      0.00000
     18       1.3069      0.00000
     19       1.3693      0.00000
     20       1.4043      0.00000
     21       1.4452      0.00000
     22       1.5033      0.00000
     23       1.5333      0.00000
     24       1.6294      0.00000

 k-point    96 :       0.4375    0.4545    0.4286
  band No.  band energies     occupation 
      1      -9.4099      2.00000
      2      -3.5727      0.33489
      3      -3.5726      0.33332
      4      -3.5726      0.33321
      5      -0.0416      0.00000
      6       0.2716      0.00000
      7       0.3224      0.00000
      8       0.3533      0.00000
      9       0.4578      0.00000
     10       0.4807      0.00000
     11       0.4936      0.00000
     12       0.5863      0.00000
     13       1.0454      0.00000
     14       1.1906      0.00000
     15       1.2094      0.00000
     16       1.2281      0.00000
     17       1.3361      0.00000
     18       1.3563      0.00000
     19       1.3954      0.00000
     20       1.4406      0.00000
     21       1.5143      0.00000
     22       1.5763      0.00000
     23       1.6159      0.00000
     24       1.6437      0.00000


--------------------------------------------------------------------------------------------------------


 soft charge-density along one line, spin component           1
         0         1         2         3         4         5         6         7         8         9
 total charge-density along one line
 
 pseudopotential strength for first ion, spin component:           1
  6.996  10.697   0.000  -0.000  -0.000   0.000  -0.000  -0.000
 10.697  16.353   0.000  -0.000  -0.000   0.000  -0.000  -0.000
  0.000   0.000  -2.483  -0.000   0.000  -4.297  -0.000   0.000
 -0.000  -0.000  -0.000  -2.483   0.000  -0.000  -4.297   0.000
 -0.000  -0.000   0.000   0.000  -2.483   0.000   0.000  -4.297
  0.000   0.000  -4.297  -0.000   0.000  -7.240  -0.000   0.000
 -0.000  -0.000  -0.000  -4.297   0.000  -0.000  -7.240   0.000
 -0.000  -0.000   0.000   0.000  -4.297   0.000   0.000  -7.240
 total augmentation occupancy for first ion, spin component:           1
  2.011  -0.003   0.000   0.000   0.000   0.000   0.000   0.000
 -0.003   0.000   0.000   0.000   0.000   0.000   0.000   0.000
  0.000   0.000   0.330   0.000   0.000   0.001   0.000   0.000
  0.000   0.000   0.000   0.330   0.000   0.000   0.001   0.000
  0.000   0.000   0.000   0.000   0.330   0.000   0.000   0.001
  0.000   0.000   0.001   0.000   0.000   0.000   0.000   0.000
  0.000   0.000   0.000   0.001   0.000   0.000   0.000   0.000
  0.000   0.000   0.000   0.000   0.001   0.000   0.000   0.000


------------------------ aborting loop because EDIFF is reached ----------------------------------------


    CHARGE:  cpu time      1.8656: real time      1.8775
    FORLOC:  cpu time      0.0102: real time      0.0102
    FORNL :  cpu time      0.5412: real time      0.5447
    STRESS:  cpu time     20.4382: real time     20.6020
    FORCOR:  cpu time      0.2856: real time      0.2870
    FORHAR:  cpu time      0.0798: real time      0.0808
    MIXING:  cpu time      0.0102: real time      0.0103
    OFIELD:  cpu time      0.0000: real time      0.0000

  FORCE on cell =-STRESS in cart. coord.  units (eV):
  Direction    XX          YY          ZZ          XY          YZ          ZX
  --------------------------------------------------------------------------------------
  Alpha Z     0.02038     0.02038     0.02038
  Ewald      -3.85600    -1.56275    -6.41027     0.00000    -0.00000    -0.00000
  Hartree    14.28937    16.49874    11.79586     0.00000    -0.00000     0.00000
  E(xc)      -7.33233    -7.33233    -7.33233    -0.00000    -0.00000    -0.00000
  Local     -32.28580   -36.78848   -27.23808    -0.00000     0.00000    -0.00000
  n-local     6.85108     6.85106     6.85106    -0.00000    -0.00001     0.00000
  augment     0.68455     0.68468     0.68457    -0.00000     0.00000     0.00000
  Kinetic    21.62744    21.62752    21.62752     0.00001     0.00004     0.00000
  Fock        0.00000     0.00000     0.00000     0.00000     0.00000     0.00000
  -------------------------------------------------------------------------------------
  Total      -0.00131    -0.00118    -0.00129     0.00000     0.00000     0.00000
  in kB      -0.00062    -0.00056    -0.00061     0.00000     0.00000     0.00000
  external pressure =       -0.00 kB  Pullay stress =        0.00 kB


 VOLUME and BASIS-vectors are now :
 -----------------------------------------------------------------------------
  energy-cutoff  :      480.00
  volume of cell :     3375.00
      direct lattice vectors                 reciprocal lattice vectors
    15.000000000  0.000000000  0.000000000     0.066666667  0.000000000  0.000000000
     0.000000000 12.500000000  0.000000000     0.000000000  0.080000000  0.000000000
     0.000000000  0.000000000 18.000000000     0.000000000  0.000000000  0.055555556

  length of vectors
    15.000000000 12.500000000 18.000000000     0.066666667  0.080000000  0.055555556


 FORCES acting on ions
    electron-ion (+dipol)            ewald-force                    non-local-force                 convergence-correction
 -----------------------------------------------------------------------------------------------
   0.407E-05 -.479E-05 0.365E-05   0.332E-17 -.449E-17 -.121E-17   -.265E-22 -.146E-21 0.132E-21   -.188E-06 0.275E-06 -.197E-06
 -----------------------------------------------------------------------------------------------
   0.407E-05 -.479E-05 0.365E-05   0.332E-17 -.449E-17 -.121E-17   -.265E-22 -.146E-21 0.132E-21   -.188E-06 0.275E-06 -.197E-06
 
 
 POSITION                                       TOTAL-FORCE (eV/Angst)
 -----------------------------------------------------------------------------------
      7.81845      6.81250     11.48328         0.000000      0.000000      0.000000
 -----------------------------------------------------------------------------------
    total drift:                                0.000004     -0.000005      0.000003


--------------------------------------------------------------------------------------------------------



  FREE ENERGIE OF THE ION-ELECTRON SYSTEM (eV)
  ---------------------------------------------------
  free  energy   TOTEN  =        -0.05827208 eV

  energy  without entropy=       -0.00527074  energy(sigma->0) =       -0.03177141
 


--------------------------------------------------------------------------------------------------------


    POTLOK:  cpu time      0.3235: real time      0.3256


--------------------------------------------------------------------------------------------------------


     LOOP+:  cpu time    210.9770: real time    215.9172
    4ORBIT:  cpu time      0.0000: real time      0.0000

 total amount of memory used by VASP MPI-rank0   748350. kBytes
=======================================================================

   base      :      30000. kBytes
   nonl-proj :     497038. kBytes
   fftplans  :      20866. kBytes
   grid      :      76470. kBytes
   one-center:          3. kBytes
   wavefun   :     123973. kBytes
 
  
  
 General timing and accounting informations for this job:
 ========================================================
  
                  Total CPU time used (sec):      225.866
                            User time (sec):      215.903
                          System time (sec):        9.963
                         Elapsed time (sec):      235.943
  
                   Maximum memory used (kb):     1388852.
                   Average memory used (kb):          N/A
  
                          Minor page faults:      3817756
                          Major page faults:         1473
                 Voluntary context switches:        11140
