<?xml version="1.0" encoding="ISO-8859-1"?>
<modeling>
 <generator>
  <i name="program" type="string">vasp </i>
  <i name="version" type="string">6.4.3  </i>
  <i name="subversion" type="string">19Mar24 (build May 31 2024 16:31:43) complex                          parallel </i>
  <i name="platform" type="string">LinuxIFC </i>
  <i name="date" type="string">2024 11 01 </i>
  <i name="time" type="string">17:02:49 </i>
 </generator>
 <incar>
  <i type="string" name="SYSTEM">Convergence</i>
  <i type="int" name="ISTART">     0</i>
  <i type="string" name="PREC">Accurate</i>
  <i type="string" name="ALGO">Normal</i>
  <i type="int" name="ISPIN">     1</i>
  <i type="int" name="ICHARG">     2</i>
  <i type="int" name="NELM">   100</i>
  <i type="int" name="IBRION">    -1</i>
  <i name="EDIFF">      0.00000100</i>
  <i name="EDIFFG">     -0.00100000</i>
  <i type="int" name="NSW">     0</i>
  <i type="int" name="ISIF">     2</i>
  <i name="ENCUT">    480.00000000</i>
  <i name="POTIM">      0.50000000</i>
  <i type="int" name="ISMEAR">     0</i>
  <i name="SIGMA">      0.05000000</i>
  <i type="logical" name="LWAVE"> F  </i>
  <i type="logical" name="LCHARG"> F  </i>
  <i type="string" name="GGA">PE</i>
 </incar>
 <primitive_cell>
  <structure name="primitive_cell" >
   <crystal>
    <varray name="basis" >
     <v>      15.00000000       0.00000000       0.00000000 </v>
     <v>       0.00000000      12.50000000       0.00000000 </v>
     <v>       0.00000000       0.00000000      18.00000000 </v>
    </varray>
    <i name="volume">   3375.00000000 </i>
    <varray name="rec_basis" >
     <v>       0.06666667       0.00000000       0.00000000 </v>
     <v>       0.00000000       0.08000000       0.00000000 </v>
     <v>       0.00000000       0.00000000       0.05555556 </v>
    </varray>
   </crystal>
   <varray name="positions" >
    <v>       0.52123000       0.54500000       0.63796000 </v>
   </varray>
  </structure>
  <varray name="primitive_index" >
   <v type="int" >        1 </v>
  </varray>
 </primitive_cell>
 <kpoints>
  <generation param="Monkhorst-Pack">
   <v type="int" name="divisions">       8       11        7 </v>
   <v name="usershift">      0.00000000       0.00000000       0.00000000 </v>
   <v name="genvec1">      0.12500000       0.00000000       0.00000000 </v>
   <v name="genvec2">      0.00000000       0.09090909       0.00000000 </v>
   <v name="genvec3">      0.00000000       0.00000000       0.14285714 </v>
   <v name="shift">      0.50000000       0.00000000       0.00000000 </v>
  </generation>
  <varray name="kpointlist" >
   <v>       0.06250000       0.00000000       0.00000000 </v>
   <v>       0.18750000       0.00000000       0.00000000 </v>
   <v>       0.31250000       0.00000000       0.00000000 </v>
   <v>       0.43750000       0.00000000       0.00000000 </v>
   <v>       0.06250000       0.09090909       0.00000000 </v>
   <v>       0.18750000       0.09090909       0.00000000 </v>
   <v>       0.31250000       0.09090909       0.00000000 </v>
   <v>       0.43750000       0.09090909       0.00000000 </v>
   <v>       0.06250000       0.18181818       0.00000000 </v>
   <v>       0.18750000       0.18181818       0.00000000 </v>
   <v>       0.31250000       0.18181818       0.00000000 </v>
   <v>       0.43750000       0.18181818       0.00000000 </v>
   <v>       0.06250000       0.27272727       0.00000000 </v>
   <v>       0.18750000       0.27272727       0.00000000 </v>
   <v>       0.31250000       0.27272727       0.00000000 </v>
   <v>       0.43750000       0.27272727       0.00000000 </v>
   <v>       0.06250000       0.36363636       0.00000000 </v>
   <v>       0.18750000       0.36363636       0.00000000 </v>
   <v>       0.31250000       0.36363636       0.00000000 </v>
   <v>       0.43750000       0.36363636       0.00000000 </v>
   <v>       0.06250000       0.45454545       0.00000000 </v>
   <v>       0.18750000       0.45454545       0.00000000 </v>
   <v>       0.31250000       0.45454545       0.00000000 </v>
   <v>       0.43750000       0.45454545       0.00000000 </v>
   <v>       0.06250000       0.00000000       0.14285714 </v>
   <v>       0.18750000       0.00000000       0.14285714 </v>
   <v>       0.31250000       0.00000000       0.14285714 </v>
   <v>       0.43750000       0.00000000       0.14285714 </v>
   <v>       0.06250000       0.09090909       0.14285714 </v>
   <v>       0.18750000       0.09090909       0.14285714 </v>
   <v>       0.31250000       0.09090909       0.14285714 </v>
   <v>       0.43750000       0.09090909       0.14285714 </v>
   <v>       0.06250000       0.18181818       0.14285714 </v>
   <v>       0.18750000       0.18181818       0.14285714 </v>
   <v>       0.31250000       0.18181818       0.14285714 </v>
   <v>       0.43750000       0.18181818       0.14285714 </v>
   <v>       0.06250000       0.27272727       0.14285714 </v>
   <v>       0.18750000       0.27272727       0.14285714 </v>
   <v>       0.31250000       0.27272727       0.14285714 </v>
   <v>       0.43750000       0.27272727       0.14285714 </v>
   <v>       0.06250000       0.36363636       0.14285714 </v>
   <v>       0.18750000       0.36363636       0.14285714 </v>
   <v>       0.31250000       0.36363636       0.14285714 </v>
   <v>       0.43750000       0.36363636       0.14285714 </v>
   <v>       0.06250000       0.45454545       0.14285714 </v>
   <v>       0.18750000       0.45454545       0.14285714 </v>
   <v>       0.31250000       0.45454545       0.14285714 </v>
   <v>       0.43750000       0.45454545       0.14285714 </v>
   <v>       0.06250000       0.00000000       0.28571429 </v>
   <v>       0.18750000       0.00000000       0.28571429 </v>
   <v>       0.31250000       0.00000000       0.28571429 </v>
   <v>       0.43750000       0.00000000       0.28571429 </v>
   <v>       0.06250000       0.09090909       0.28571429 </v>
   <v>       0.18750000       0.09090909       0.28571429 </v>
   <v>       0.31250000       0.09090909       0.28571429 </v>
   <v>       0.43750000       0.09090909       0.28571429 </v>
   <v>       0.06250000       0.18181818       0.28571429 </v>
   <v>       0.18750000       0.18181818       0.28571429 </v>
   <v>       0.31250000       0.18181818       0.28571429 </v>
   <v>       0.43750000       0.18181818       0.28571429 </v>
   <v>       0.06250000       0.27272727       0.28571429 </v>
   <v>       0.18750000       0.27272727       0.28571429 </v>
   <v>       0.31250000       0.27272727       0.28571429 </v>
   <v>       0.43750000       0.27272727       0.28571429 </v>
   <v>       0.06250000       0.36363636       0.28571429 </v>
   <v>       0.18750000       0.36363636       0.28571429 </v>
   <v>       0.31250000       0.36363636       0.28571429 </v>
   <v>       0.43750000       0.36363636       0.28571429 </v>
   <v>       0.06250000       0.45454545       0.28571429 </v>
   <v>       0.18750000       0.45454545       0.28571429 </v>
   <v>       0.31250000       0.45454545       0.28571429 </v>
   <v>       0.43750000       0.45454545       0.28571429 </v>
   <v>       0.06250000       0.00000000       0.42857143 </v>
   <v>       0.18750000       0.00000000       0.42857143 </v>
   <v>       0.31250000       0.00000000       0.42857143 </v>
   <v>       0.43750000       0.00000000       0.42857143 </v>
   <v>       0.06250000       0.09090909       0.42857143 </v>
   <v>       0.18750000       0.09090909       0.42857143 </v>
   <v>       0.31250000       0.09090909       0.42857143 </v>
   <v>       0.43750000       0.09090909       0.42857143 </v>
   <v>       0.06250000       0.18181818       0.42857143 </v>
   <v>       0.18750000       0.18181818       0.42857143 </v>
   <v>       0.31250000       0.18181818       0.42857143 </v>
   <v>       0.43750000       0.18181818       0.42857143 </v>
   <v>       0.06250000       0.27272727       0.42857143 </v>
   <v>       0.18750000       0.27272727       0.42857143 </v>
   <v>       0.31250000       0.27272727       0.42857143 </v>
   <v>       0.43750000       0.27272727       0.42857143 </v>
   <v>       0.06250000       0.36363636       0.42857143 </v>
   <v>       0.18750000       0.36363636       0.42857143 </v>
   <v>       0.31250000       0.36363636       0.42857143 </v>
   <v>       0.43750000       0.36363636       0.42857143 </v>
   <v>       0.06250000       0.45454545       0.42857143 </v>
   <v>       0.18750000       0.45454545       0.42857143 </v>
   <v>       0.31250000       0.45454545       0.42857143 </v>
   <v>       0.43750000       0.45454545       0.42857143 </v>
  </varray>
  <varray name="weights" >
   <v>       0.00324675 </v>
   <v>       0.00324675 </v>
   <v>       0.00324675 </v>
   <v>       0.00324675 </v>
   <v>       0.00649351 </v>
   <v>       0.00649351 </v>
   <v>       0.00649351 </v>
   <v>       0.00649351 </v>
   <v>       0.00649351 </v>
   <v>       0.00649351 </v>
   <v>       0.00649351 </v>
   <v>       0.00649351 </v>
   <v>       0.00649351 </v>
   <v>       0.00649351 </v>
   <v>       0.00649351 </v>
   <v>       0.00649351 </v>
   <v>       0.00649351 </v>
   <v>       0.00649351 </v>
   <v>       0.00649351 </v>
   <v>       0.00649351 </v>
   <v>       0.00649351 </v>
   <v>       0.00649351 </v>
   <v>       0.00649351 </v>
   <v>       0.00649351 </v>
   <v>       0.00649351 </v>
   <v>       0.00649351 </v>
   <v>       0.00649351 </v>
   <v>       0.00649351 </v>
   <v>       0.01298701 </v>
   <v>       0.01298701 </v>
   <v>       0.01298701 </v>
   <v>       0.01298701 </v>
   <v>       0.01298701 </v>
   <v>       0.01298701 </v>
   <v>       0.01298701 </v>
   <v>       0.01298701 </v>
   <v>       0.01298701 </v>
   <v>       0.01298701 </v>
   <v>       0.01298701 </v>
   <v>       0.01298701 </v>
   <v>       0.01298701 </v>
   <v>       0.01298701 </v>
   <v>       0.01298701 </v>
   <v>       0.01298701 </v>
   <v>       0.01298701 </v>
   <v>       0.01298701 </v>
   <v>       0.01298701 </v>
   <v>       0.01298701 </v>
   <v>       0.00649351 </v>
   <v>       0.00649351 </v>
   <v>       0.00649351 </v>
   <v>       0.00649351 </v>
   <v>       0.01298701 </v>
   <v>       0.01298701 </v>
   <v>       0.01298701 </v>
   <v>       0.01298701 </v>
   <v>       0.01298701 </v>
   <v>       0.01298701 </v>
   <v>       0.01298701 </v>
   <v>       0.01298701 </v>
   <v>       0.01298701 </v>
   <v>       0.01298701 </v>
   <v>       0.01298701 </v>
   <v>       0.01298701 </v>
   <v>       0.01298701 </v>
   <v>       0.01298701 </v>
   <v>       0.01298701 </v>
   <v>       0.01298701 </v>
   <v>       0.01298701 </v>
   <v>       0.01298701 </v>
   <v>       0.01298701 </v>
   <v>       0.01298701 </v>
   <v>       0.00649351 </v>
   <v>       0.00649351 </v>
   <v>       0.00649351 </v>
   <v>       0.00649351 </v>
   <v>       0.01298701 </v>
   <v>       0.01298701 </v>
   <v>       0.01298701 </v>
   <v>       0.01298701 </v>
   <v>       0.01298701 </v>
   <v>       0.01298701 </v>
   <v>       0.01298701 </v>
   <v>       0.01298701 </v>
   <v>       0.01298701 </v>
   <v>       0.01298701 </v>
   <v>       0.01298701 </v>
   <v>       0.01298701 </v>
   <v>       0.01298701 </v>
   <v>       0.01298701 </v>
   <v>       0.01298701 </v>
   <v>       0.01298701 </v>
   <v>       0.01298701 </v>
   <v>       0.01298701 </v>
   <v>       0.01298701 </v>
   <v>       0.01298701 </v>
  </varray>
 </kpoints>
 <parameters>
  <separator name="general" >
   <i type="string" name="SYSTEM">Convergence</i>
   <i type="logical" name="LCOMPAT"> F  </i>
  </separator>
  <separator name="electronic" >
   <i type="string" name="PREC">accura</i>
   <i name="ENMAX">    480.00000000</i>
   <i name="ENAUG">    535.51400000</i>
   <i name="EDIFF">      0.00000100</i>
   <i type="int" name="IALGO">    38</i>
   <i type="int" name="IWAVPR">    10</i>
   <i type="int" name="NBANDS">    24</i>
   <i type="int" name="NBANDSLOW">    -1</i>
   <i type="int" name="NBANDSHIGH">    -1</i>
   <i name="NELECT">      3.00000000</i>
   <i type="int" name="TURBO">     0</i>
   <i type="int" name="IRESTART">     0</i>
   <i type="int" name="NREBOOT">     0</i>
   <i type="int" name="NMIN">     0</i>
   <i name="EREF">      0.00000000</i>
   <separator name="electronic smearing" >
    <i type="int" name="ISMEAR">     0</i>
    <i name="SIGMA">      0.05000000</i>
    <i name="KSPACING">      0.50000000</i>
    <i type="logical" name="KGAMMA"> T  </i>
    <i type="logical" name="KBLOWUP"> T  </i>
   </separator>
   <separator name="electronic projectors" >
    <i type="logical" name="LREAL"> F  </i>
    <v name="ROPT">      0.00000000</v>
    <i type="int" name="LMAXPAW">  -100</i>
    <i type="int" name="LMAXMIX">     2</i>
    <i type="logical" name="NLSPLINE"> F  </i>
   </separator>
   <separator name="electronic startup" >
    <i type="int" name="ISTART">     0</i>
    <i type="int" name="ICHARG">     2</i>
    <i type="int" name="INIWAV">     1</i>
   </separator>
   <separator name="electronic spin" >
    <i type="int" name="ISPIN">     1</i>
    <i type="logical" name="LNONCOLLINEAR"> F  </i>
    <v name="MAGMOM">      1.00000000</v>
    <i name="NUPDOWN">     -1.00000000</i>
    <i type="logical" name="LSORBIT"> F  </i>
    <v name="SAXIS">      0.00000000      0.00000000      1.00000000</v>
    <i type="logical" name="LSPIRAL"> F  </i>
    <v name="QSPIRAL">      0.00000000      0.00000000      0.00000000</v>
    <i type="logical" name="LZEROZ"> F  </i>
   </separator>
   <separator name="electronic exchange-correlation" >
    <i type="logical" name="LASPH"> F  </i>
   </separator>
   <separator name="electronic convergence" >
    <i type="int" name="NELM">   100</i>
    <i type="int" name="NELMDL">    -5</i>
    <i type="int" name="NELMIN">     2</i>
    <i name="ENINI">    480.00000000</i>
    <separator name="electronic convergence detail" >
     <i type="logical" name="LDIAG"> T  </i>
     <i type="logical" name="LSUBROT"> F  </i>
     <i name="WEIMIN">      0.00000000</i>
     <i name="EBREAK">      0.00000001</i>
     <i name="DEPER">      0.30000000</i>
     <i type="int" name="NRMM">     4</i>
     <i name="TIME">      0.40000000</i>
    </separator>
   </separator>
   <separator name="electronic mixer" >
    <i name="AMIX">      0.40000000</i>
    <i name="BMIX">      1.00000000</i>
    <i name="AMIN">      0.10000000</i>
    <i name="AMIX_MAG">      1.60000000</i>
    <i name="BMIX_MAG">      1.00000000</i>
    <separator name="electronic mixer details" >
     <i type="int" name="IMIX">     4</i>
     <i type="logical" name="MIXFIRST"> F  </i>
     <i type="int" name="MAXMIX">   -45</i>
     <i name="WC">    100.00000000</i>
     <i type="int" name="INIMIX">     1</i>
     <i type="int" name="MIXPRE">     1</i>
     <i type="int" name="MREMOVE">     5</i>
    </separator>
   </separator>
   <separator name="electronic dipolcorrection" >
    <i type="logical" name="LDIPOL"> F  </i>
    <i type="logical" name="LMONO"> F  </i>
    <i type="int" name="IDIPOL">     0</i>
    <i name="EPSILON">      1.00000000</i>
    <v name="DIPOL">   -100.00000000   -100.00000000   -100.00000000</v>
    <i name="EFIELD">      0.00000000</i>
    <i type="logical" name="LVACPOTAV"> F  </i>
   </separator>
  </separator>
  <separator name="grids" >
   <i type="int" name="NGX">   108</i>
   <i type="int" name="NGY">    90</i>
   <i type="int" name="NGZ">   140</i>
   <i type="int" name="NGXF">   216</i>
   <i type="int" name="NGYF">   180</i>
   <i type="int" name="NGZF">   280</i>
   <i type="logical" name="ADDGRID"> F  </i>
  </separator>
  <separator name="ionic" >
   <i type="int" name="NSW">     0</i>
   <i type="int" name="IBRION">    -1</i>
   <i type="int" name="MDALGO">     0</i>
   <i type="int" name="ISIF">     2</i>
   <i name="PSTRESS">      0.00000000</i>
   <i name="EDIFFG">     -0.00100000</i>
   <i type="int" name="NFREE">     0</i>
   <i name="POTIM">      0.50000000</i>
   <i name="SMASS">     -3.00000000</i>
   <i name="SCALEE">      1.00000000</i>
  </separator>
  <separator name="ionic md" >
   <i name="TEBEG">      0.00010000</i>
   <i name="TEEND">      0.00010000</i>
   <i type="int" name="NBLOCK">     1</i>
   <i type="int" name="KBLOCK">     1</i>
   <i type="int" name="NPACO">   256</i>
   <i name="APACO">     10.00000000</i>
  </separator>
  <separator name="symmetry" >
   <i type="int" name="ISYM">     2</i>
   <i name="SYMPREC">      0.00001000</i>
  </separator>
  <separator name="dos" >
   <i type="int" name="LORBIT">     0</i>
   <v name="RWIGS">     -1.00000000</v>
   <i type="int" name="NEDOS">   301</i>
   <i name="EMIN">     10.00000000</i>
   <i name="EMAX">    -10.00000000</i>
   <i name="EFERMI">      0.00000000</i>
  </separator>
  <separator name="writing" >
   <i type="int" name="NWRITE">     2</i>
   <i type="logical" name="LWAVE"> F  </i>
   <i type="logical" name="LDOWNSAMPLE"> F  </i>
   <i type="logical" name="LCHARG"> F  </i>
   <i type="logical" name="LPARD"> F  </i>
   <i type="logical" name="LVTOT"> F  </i>
   <i type="logical" name="LVHAR"> F  </i>
   <i type="logical" name="LELF"> F  </i>
   <i type="logical" name="LOPTICS"> F  </i>
   <v name="STM">      0.00000000      0.00000000      0.00000000      0.00000000      0.00000000      0.00000000      0.00000000</v>
  </separator>
  <separator name="performance" >
   <i type="int" name="NPAR">    24</i>
   <i type="int" name="NSIM">     4</i>
   <i type="int" name="NBLK">    -1</i>
   <i type="logical" name="LPLANE"> T  </i>
   <i type="logical" name="LSCALAPACK"> T  </i>
   <i type="logical" name="LSCAAWARE"> F  </i>
   <i type="logical" name="LSCALU"> F  </i>
   <i type="logical" name="LASYNC"> F  </i>
   <i type="logical" name="LORBITALREAL"> F  </i>
  </separator>
  <separator name="miscellaneous" >
   <i type="int" name="IDIOT">     3</i>
   <i type="int" name="PHON_NSTRUCT">    -1</i>
   <i type="logical" name="LMUSIC"> F  </i>
   <v name="POMASS">     10.81100000</v>
   <v name="DARWINR">      0.00000000</v>
   <v name="DARWINV">      1.00000000</v>
   <i type="logical" name="LCORR"> T  </i>
  </separator>
  <i type="logical" name="GGA_COMPAT"> T  </i>
  <i type="logical" name="LBERRY"> F  </i>
  <i type="int" name="ICORELEVEL">     0</i>
  <i type="logical" name="LDAU"> F  </i>
  <i type="int" name="I_CONSTRAINED_M">     0</i>
  <separator name="electronic exchange-correlation" >
   <i type="string" name="GGA    ">PE</i>
   <i type="string" name="XC_C">1</i>
   <i type="int" name="VOSKOWN">     0</i>
   <i type="logical" name="LHFCALC"> F  </i>
   <i type="string" name="PRECFOCK"></i>
   <i type="logical" name="LSYMGRAD"> F  </i>
   <i type="logical" name="LHFONE"> F  </i>
   <i type="logical" name="LRHFCALC"> F  </i>
   <i type="logical" name="LTHOMAS"> F  </i>
   <i type="logical" name="LMODELHF"> F  </i>
   <i type="logical" name="LFOCKACE"> F  </i>
   <i name="ENCUT4O">     -1.00000000</i>
   <i type="int" name="EXXOEP">     0</i>
   <i type="int" name="FOURORBIT">     0</i>
   <i name="AEXX">      0.00000000</i>
   <i name="HFALPHA">      0.00000000</i>
   <i name="MCALPHA">      0.00000000</i>
   <i name="ALDAX">      1.00000000</i>
   <i name="AGGAX">      1.00000000</i>
   <i name="AMGGAX">      1.00000000</i>
   <i name="ALDAC">      1.00000000</i>
   <i name="AGGAC">      1.00000000</i>
   <i name="AMGGAC">      1.00000000</i>
   <i type="int" name="NKREDX">     1</i>
   <i type="int" name="NKREDY">     1</i>
   <i type="int" name="NKREDZ">     1</i>
   <i type="logical" name="SHIFTRED"> F  </i>
   <i type="logical" name="ODDONLY"> F  </i>
   <i type="logical" name="EVENONLY"> F  </i>
   <i type="int" name="LMAXFOCK">     0</i>
   <i type="int" name="NMAXFOCKAE">     0</i>
   <i type="logical" name="LFOCKAEDFT"> F  </i>
   <i name="HFSCREEN">      0.00000000</i>
   <i name="HFSCREENC">      0.00000000</i>
   <i type="int" name="NBANDSGWLOW">     0</i>
  </separator>
  <separator name="vdW DFT" >
   <i type="logical" name="LUSE_VDW"> F  </i>
   <i type="int" name="IVDW_NL">    -1</i>
   <i type="logical" name="LSPIN_VDW"> F  </i>
   <i name="ZAB_VDW">     -0.84910000</i>
   <i name="GAMMA_VDW">      1.39626340</i>
   <i name="ALPHA_VDW">      0.00000000</i>
   <i name="PARAM1">      0.12340000</i>
   <i name="PARAM2">      1.00000000</i>
   <i name="BPARAM">      6.30000000</i>
   <i name="CPARAM">      0.00930000</i>
  </separator>
  <separator name="model GW" >
   <i type="int" name="MODEL_GW">     0</i>
   <i name="MODEL_EPS0">   2025.00000000</i>
   <i name="MODEL_ALPHA">      1.00000000</i>
  </separator>
  <separator name="linear response parameters" >
   <i type="logical" name="LEPSILON"> F  </i>
   <i type="logical" name="LRPA"> F  </i>
   <i type="logical" name="LNABLA"> F  </i>
   <i type="logical" name="LVEL"> F  </i>
   <i name="CSHIFT">      0.10000000</i>
   <i name="OMEGAMAX">     -1.00000000</i>
   <i name="DEG_THRESHOLD">      0.00200000</i>
   <i name="RTIME">     -0.10000000</i>
   <i name="WPLASMAI">      0.00000000</i>
   <v name="DFIELD">      0.00000000      0.00000000      0.00000000</v>
   <v name="WPLASMA">      0.00000000      0.00000000      0.00000000      0.00000000      0.00000000      0.00000000      0.00000000      0.00000000      0.00000000</v>
  </separator>
  <separator name="orbital magnetization" >
   <i type="logical" name="NUCIND"> F  </i>
   <v name="MAGPOS">      0.00000000      0.00000000      0.00000000</v>
   <i type="logical" name="LNICSALL"> T  </i>
   <i type="logical" name="ORBITALMAG"> F  </i>
   <i type="logical" name="LMAGBLOCH"> F  </i>
   <i type="logical" name="LCHIMAG"> F  </i>
   <i type="logical" name="LGAUGE"> T  </i>
   <i type="int" name="MAGATOM">     0</i>
   <v name="MAGDIPOL">      0.00000000      0.00000000      0.00000000</v>
   <v name="AVECCONST">      0.00000000      0.00000000      0.00000000</v>
  </separator>
  <separator name="response functions" >
   <i type="logical" name="LALL_IN_ONE"> F  </i>
   <i type="int" name="IALL_IN_ONE">    -1</i>
   <i type="int" name="NBANDS_WAVE">    -1</i>
   <i type="logical" name="LFINITE_TEMPERATURE"> F  </i>
   <i type="logical" name="LADDER"> F  </i>
   <i type="logical" name="LRPAFORCE"> F  </i>
   <i type="logical" name="LFXC"> F  </i>
   <i type="logical" name="LHARTREE"> T  </i>
   <i type="int" name="IBSE">     0</i>
   <v type="int" name="KPOINT">    -1     0     0     0</v>
   <i type="logical" name="LTCTC"> F  </i>
   <i type="logical" name="LTCTE"> F  </i>
   <i type="logical" name="LTETE"> F  </i>
   <i type="logical" name="LTRIPLET"> F  </i>
   <i type="logical" name="LFXCEPS"> F  </i>
   <i type="logical" name="LFXHEG"> F  </i>
   <i type="int" name="NATURALO">     2</i>
   <i type="logical" name="LHOLEGF"> F  </i>
   <i type="logical" name="L2ORDER"> F  </i>
   <i type="logical" name="LDMP1"> F  </i>
   <i type="logical" name="LMP2LT"> F  </i>
   <i type="logical" name="LSMP2LT"> F  </i>
   <i type="logical" name="LGWLF"> F  </i>
   <i name="ENCUTGW">     -1.60000002</i>
   <i name="ENCUTGWSOFT">     -1.60000002</i>
   <i name="ENCUTLF">     -1.00000000</i>
   <i type="logical" name="ESF_SPLINES"> F  </i>
   <i name="ESF_CONV">      0.01000000</i>
   <i type="int" name="ESF_NINTER">    15</i>
   <i type="int" name="LMAXMP2">    -1</i>
   <i name="SCISSOR">      0.00000000</i>
   <i type="int" name="NOMEGA">     0</i>
   <i type="int" name="NOMEGAR">     0</i>
   <i type="int" name="NBANDSGW">    -1</i>
   <i type="int" name="NBANDSO">    -1</i>
   <i type="int" name="NBANDSV">    -1</i>
   <i type="int" name="NELMGW">     1</i>
   <i type="int" name="NELMHF">     1</i>
   <i type="int" name="DIM">     3</i>
   <i type="int" name="IESPILON">     4</i>
   <i type="int" name="ANTIRES">     0</i>
   <i name="OMEGAMAX">    -30.00000000</i>
   <i name="OMEGAMIN">    -30.00000000</i>
   <i name="OMEGATL">   -200.00000000</i>
   <i type="int" name="OMEGAGRID">     0</i>
   <i name="CSHIFT">     -0.10000000</i>
   <i type="logical" name="LSELFENERGY"> F  </i>
   <i type="logical" name="LSPECTRAL"> F  </i>
   <i type="logical" name="LSPECTRALGW"> F  </i>
   <i type="logical" name="LSINGLES"> F  </i>
   <i type="logical" name="LFERMIGW"> F  </i>
   <i type="logical" name="ODDONLYGW"> F  </i>
   <i type="logical" name="EVENONLYGW"> F  </i>
   <i type="int" name="NKREDLFX">     1</i>
   <i type="int" name="NKREDLFY">     1</i>
   <i type="int" name="NKREDLFZ">     1</i>
   <i type="int" name="MAXMEM">  2800</i>
   <i type="int" name="TELESCOPE">     0</i>
   <i type="int" name="NTAUPAR">    -1</i>
   <i type="int" name="NOMEGAPAR">    -1</i>
   <i name="DAMP_NEWTON">      0.80000001</i>
   <i name="LAMBDA">      1.00000000</i>
  </separator>
  <separator name="External order field" >
   <i name="OFIELD_KAPPA">      0.00000000</i>
   <v name="OFIELD_K">      0.00000000      0.00000000      0.00000000</v>
   <i name="OFIELD_Q6_NEAR">      0.00000000</i>
   <i name="OFIELD_Q6_FAR">      0.00000000</i>
   <i name="OFIELD_A">      0.00000000</i>
  </separator>
  <separator name="optional k-points parameters" >
   <i type="int" name="KPOINTS_OPT_MODE">     1</i>
   <i type="logical" name="LKPOINTS_OPT"> F  </i>
  </separator>
 </parameters>
 <atominfo>
  <atoms>       1 </atoms>
  <types>       1 </types>
  <array name="atoms" >
   <dimension dim="1">ion</dimension>
   <field type="string">element</field>
   <field type="int">atomtype</field>
   <set>
    <rc><c>B </c><c>   1</c></rc>
   </set>
  </array>
  <array name="atomtypes" >
   <dimension dim="1">type</dimension>
   <field type="int">atomspertype</field>
   <field type="string">element</field>
   <field>mass</field>
   <field>valence</field>
   <field type="string">pseudopotential</field>
   <set>
    <rc><c>   1</c><c>B </c><c>     10.81100000</c><c>      3.00000000</c><c>  PAW_PBE B 06Sep2000                   </c></rc>
   </set>
  </array>
 </atominfo>
 <structure name="initialpos" >
  <crystal>
   <varray name="basis" >
    <v>      15.00000000       0.00000000       0.00000000 </v>
    <v>       0.00000000      12.50000000       0.00000000 </v>
    <v>       0.00000000       0.00000000      18.00000000 </v>
   </varray>
   <i name="volume">   3375.00000000 </i>
   <varray name="rec_basis" >
    <v>       0.06666667       0.00000000       0.00000000 </v>
    <v>       0.00000000       0.08000000       0.00000000 </v>
    <v>       0.00000000       0.00000000       0.05555556 </v>
   </varray>
  </crystal>
  <varray name="positions" >
   <v>       0.52123000       0.54500000       0.63796000 </v>
  </varray>
 </structure>
 <calculation>
  <scstep>
   <time name="dav">   25.09   25.68</time>
   <time name="total">   25.42   26.04</time>
   <energy>
    <i name="alphaZ">      0.02038373 </i>
    <i name="ewald">    -11.82901664 </i>
    <i name="hartreedc">    -42.58396533 </i>
    <i name="XCdc">      4.75549673 </i>
    <i name="pawpsdc">     43.49986551 </i>
    <i name="pawaedc">    -42.64454556 </i>
    <i name="eentropy">     -0.01145593 </i>
    <i name="bandstr">    -14.82973083 </i>
    <i name="atom">     71.16900941 </i>
    <i name="e_fr_energy">      7.54604109 </i>
    <i name="e_wo_entrp">      7.55749702 </i>
    <i name="e_0_energy">      7.55176905 </i>
   </energy>
  </scstep>
  <scstep>
   <time name="dav">   41.49   42.27</time>
   <time name="total">   41.49   42.27</time>
   <energy>
    <i name="e_fr_energy">      0.06856040 </i>
    <i name="e_wo_entrp">      0.10053695 </i>
    <i name="e_0_energy">      0.08454867 </i>
   </energy>
  </scstep>
  <scstep>
   <time name="dav">   25.71   26.24</time>
   <time name="total">   25.71   26.24</time>
   <energy>
    <i name="e_fr_energy">     -0.05579408 </i>
    <i name="e_wo_entrp">     -0.00284408 </i>
    <i name="e_0_energy">     -0.02931908 </i>
   </energy>
  </scstep>
  <scstep>
   <time name="dav">   27.02   27.67</time>
   <time name="total">   27.02   27.67</time>
   <energy>
    <i name="e_fr_energy">     -0.05824261 </i>
    <i name="e_wo_entrp">     -0.00524129 </i>
    <i name="e_0_energy">     -0.03174195 </i>
   </energy>
  </scstep>
  <scstep>
   <time name="dav">   33.90   35.37</time>
   <time name="total">   35.83   37.34</time>
   <energy>
    <i name="e_fr_energy">     -0.05827173 </i>
    <i name="e_wo_entrp">     -0.00527039 </i>
    <i name="e_0_energy">     -0.03177106 </i>
   </energy>
  </scstep>
  <scstep>
   <time name="dav">   31.60   32.25</time>
   <time name="total">   31.93   32.60</time>
   <energy>
    <i name="alphaZ">      0.02038373 </i>
    <i name="ewald">    -11.82901664 </i>
    <i name="hartreedc">    -42.58385889 </i>
    <i name="XCdc">      4.75536778 </i>
    <i name="pawpsdc">     43.51354379 </i>
    <i name="pawaedc">    -42.65832987 </i>
    <i name="eentropy">     -0.05300134 </i>
    <i name="bandstr">    -22.39237005 </i>
    <i name="atom">     71.16900941 </i>
    <i name="e_fr_energy">     -0.05827208 </i>
    <i name="e_wo_entrp">     -0.00527074 </i>
    <i name="e_0_energy">     -0.03177141 </i>
   </energy>
  </scstep>
  <structure>
   <crystal>
    <varray name="basis" >
     <v>      15.00000000       0.00000000       0.00000000 </v>
     <v>       0.00000000      12.50000000       0.00000000 </v>
     <v>       0.00000000       0.00000000      18.00000000 </v>
    </varray>
    <i name="volume">   3375.00000000 </i>
    <varray name="rec_basis" >
     <v>       0.06666667       0.00000000       0.00000000 </v>
     <v>       0.00000000       0.08000000       0.00000000 </v>
     <v>       0.00000000       0.00000000       0.05555556 </v>
    </varray>
   </crystal>
   <varray name="positions" >
    <v>       0.52123000       0.54500000       0.63796000 </v>
   </varray>
  </structure>
  <varray name="forces" >
   <v>       0.00000000       0.00000000       0.00000000 </v>
  </varray>
  <varray name="stress" >
   <v>      -0.00062160       0.00000000       0.00000000 </v>
   <v>       0.00000000      -0.00055972       0.00000000 </v>
   <v>       0.00000000       0.00000000      -0.00061318 </v>
  </varray>
  <energy>
   <i name="e_fr_energy">     -0.05827208 </i>
   <i name="e_wo_entrp">     -0.00527074 </i>
   <i name="e_0_energy">     -0.03177141 </i>
  </energy>
  <time name="totalsc">  210.98  215.92</time>
  <eigenvalues>
   <array>
    <dimension dim="1">band</dimension>
    <dimension dim="2">kpoint</dimension>
    <dimension dim="3">spin</dimension>
    <field>eigene</field>
    <field>occ</field>
    <set>
     <set comment="spin 1">
      <set comment="kpoint 1">
       <r>   -9.4099    1.0000 </r>
       <r>   -3.5726    0.1667 </r>
       <r>   -3.5726    0.1667 </r>
       <r>   -3.5724    0.1659 </r>
       <r>   -0.2623    0.0000 </r>
       <r>    0.2921    0.0000 </r>
       <r>    0.3093    0.0000 </r>
       <r>    0.4271    0.0000 </r>
       <r>    0.5871    0.0000 </r>
       <r>    0.7271    0.0000 </r>
       <r>    0.7875    0.0000 </r>
       <r>    0.8952    0.0000 </r>
       <r>    0.9276    0.0000 </r>
       <r>    1.0510    0.0000 </r>
       <r>    1.0939    0.0000 </r>
       <r>    1.2027    0.0000 </r>
       <r>    1.2473    0.0000 </r>
       <r>    1.3045    0.0000 </r>
       <r>    1.3052    0.0000 </r>
       <r>    1.3156    0.0000 </r>
       <r>    1.4082    0.0000 </r>
       <r>    1.5356    0.0000 </r>
       <r>    1.5431    0.0000 </r>
       <r>    1.7022    0.0000 </r>
      </set>
      <set comment="kpoint 2">
       <r>   -9.4099    1.0000 </r>
       <r>   -3.5726    0.1667 </r>
       <r>   -3.5726    0.1667 </r>
       <r>   -3.5724    0.1659 </r>
       <r>   -0.2472    0.0000 </r>
       <r>    0.2442    0.0000 </r>
       <r>    0.3267    0.0000 </r>
       <r>    0.3670    0.0000 </r>
       <r>    0.7384    0.0000 </r>
       <r>    0.7416    0.0000 </r>
       <r>    0.7615    0.0000 </r>
       <r>    0.8012    0.0000 </r>
       <r>    0.8099    0.0000 </r>
       <r>    1.1732    0.0000 </r>
       <r>    1.2082    0.0000 </r>
       <r>    1.2171    0.0000 </r>
       <r>    1.2341    0.0000 </r>
       <r>    1.3034    0.0000 </r>
       <r>    1.3106    0.0000 </r>
       <r>    1.3393    0.0000 </r>
       <r>    1.3397    0.0000 </r>
       <r>    1.6316    0.0000 </r>
       <r>    1.6423    0.0000 </r>
       <r>    1.7077    0.0000 </r>
      </set>
      <set comment="kpoint 3">
       <r>   -9.4099    1.0000 </r>
       <r>   -3.5726    0.1668 </r>
       <r>   -3.5726    0.1667 </r>
       <r>   -3.5724    0.1659 </r>
       <r>   -0.2211    0.0000 </r>
       <r>    0.1533    0.0000 </r>
       <r>    0.3591    0.0000 </r>
       <r>    0.3919    0.0000 </r>
       <r>    0.6504    0.0000 </r>
       <r>    0.6564    0.0000 </r>
       <r>    0.7673    0.0000 </r>
       <r>    0.8372    0.0000 </r>
       <r>    0.9601    0.0000 </r>
       <r>    1.0828    0.0000 </r>
       <r>    1.1496    0.0000 </r>
       <r>    1.2419    0.0000 </r>
       <r>    1.3151    0.0000 </r>
       <r>    1.3450    0.0000 </r>
       <r>    1.3710    0.0000 </r>
       <r>    1.4517    0.0000 </r>
       <r>    1.4836    0.0000 </r>
       <r>    1.5849    0.0000 </r>
       <r>    1.6118    0.0000 </r>
       <r>    1.6131    0.0000 </r>
      </set>
      <set comment="kpoint 4">
       <r>   -9.4099    1.0000 </r>
       <r>   -3.5726    0.1668 </r>
       <r>   -3.5726    0.1667 </r>
       <r>   -3.5724    0.1659 </r>
       <r>   -0.1971    0.0000 </r>
       <r>    0.0919    0.0000 </r>
       <r>    0.3946    0.0000 </r>
       <r>    0.4395    0.0000 </r>
       <r>    0.5658    0.0000 </r>
       <r>    0.5753    0.0000 </r>
       <r>    0.7921    0.0000 </r>
       <r>    0.8742    0.0000 </r>
       <r>    1.0231    0.0000 </r>
       <r>    1.0532    0.0000 </r>
       <r>    1.1909    0.0000 </r>
       <r>    1.2647    0.0000 </r>
       <r>    1.3739    0.0000 </r>
       <r>    1.3822    0.0000 </r>
       <r>    1.3961    0.0000 </r>
       <r>    1.4905    0.0000 </r>
       <r>    1.4914    0.0000 </r>
       <r>    1.4980    0.0000 </r>
       <r>    1.5424    0.0000 </r>
       <r>    1.5508    0.0000 </r>
      </set>
      <set comment="kpoint 5">
       <r>   -9.4099    1.0000 </r>
       <r>   -3.5726    0.1667 </r>
       <r>   -3.5726    0.1667 </r>
       <r>   -3.5725    0.1660 </r>
       <r>   -0.2549    0.0000 </r>
       <r>    0.2988    0.0000 </r>
       <r>    0.3166    0.0000 </r>
       <r>    0.4344    0.0000 </r>
       <r>    0.5834    0.0000 </r>
       <r>    0.6086    0.0000 </r>
       <r>    0.9017    0.0000 </r>
       <r>    0.9240    0.0000 </r>
       <r>    0.9400    0.0000 </r>
       <r>    1.0433    0.0000 </r>
       <r>    1.0989    0.0000 </r>
       <r>    1.1069    0.0000 </r>
       <r>    1.1182    0.0000 </r>
       <r>    1.2042    0.0000 </r>
       <r>    1.3687    0.0000 </r>
       <r>    1.4275    0.0000 </r>
       <r>    1.4603    0.0000 </r>
       <r>    1.5528    0.0000 </r>
       <r>    1.6331    0.0000 </r>
       <r>    1.6893    0.0000 </r>
      </set>
      <set comment="kpoint 6">
       <r>   -9.4099    1.0000 </r>
       <r>   -3.5726    0.1667 </r>
       <r>   -3.5726    0.1667 </r>
       <r>   -3.5725    0.1660 </r>
       <r>   -0.2398    0.0000 </r>
       <r>    0.2513    0.0000 </r>
       <r>    0.3339    0.0000 </r>
       <r>    0.3742    0.0000 </r>
       <r>    0.6114    0.0000 </r>
       <r>    0.7480    0.0000 </r>
       <r>    0.7687    0.0000 </r>
       <r>    0.8119    0.0000 </r>
       <r>    0.9451    0.0000 </r>
       <r>    1.0535    0.0000 </r>
       <r>    1.0943    0.0000 </r>
       <r>    1.1644    0.0000 </r>
       <r>    1.2399    0.0000 </r>
       <r>    1.2836    0.0000 </r>
       <r>    1.3898    0.0000 </r>
       <r>    1.4466    0.0000 </r>
       <r>    1.4784    0.0000 </r>
       <r>    1.5522    0.0000 </r>
       <r>    1.5624    0.0000 </r>
       <r>    1.6060    0.0000 </r>
      </set>
      <set comment="kpoint 7">
       <r>   -9.4099    1.0000 </r>
       <r>   -3.5726    0.1667 </r>
       <r>   -3.5726    0.1667 </r>
       <r>   -3.5725    0.1660 </r>
       <r>   -0.2138    0.0000 </r>
       <r>    0.1607    0.0000 </r>
       <r>    0.3662    0.0000 </r>
       <r>    0.3989    0.0000 </r>
       <r>    0.6413    0.0000 </r>
       <r>    0.6579    0.0000 </r>
       <r>    0.6635    0.0000 </r>
       <r>    0.9327    0.0000 </r>
       <r>    0.9778    0.0000 </r>
       <r>    0.9887    0.0000 </r>
       <r>    1.1267    0.0000 </r>
       <r>    1.1984    0.0000 </r>
       <r>    1.2867    0.0000 </r>
       <r>    1.3796    0.0000 </r>
       <r>    1.4431    0.0000 </r>
       <r>    1.4746    0.0000 </r>
       <r>    1.5035    0.0000 </r>
       <r>    1.5106    0.0000 </r>
       <r>    1.5243    0.0000 </r>
       <r>    1.6524    0.0000 </r>
      </set>
      <set comment="kpoint 8">
       <r>   -9.4099    1.0000 </r>
       <r>   -3.5726    0.1668 </r>
       <r>   -3.5726    0.1667 </r>
       <r>   -3.5725    0.1660 </r>
       <r>   -0.1898    0.0000 </r>
       <r>    0.0996    0.0000 </r>
       <r>    0.4017    0.0000 </r>
       <r>    0.4465    0.0000 </r>
       <r>    0.5729    0.0000 </r>
       <r>    0.5830    0.0000 </r>
       <r>    0.6717    0.0000 </r>
       <r>    0.8799    0.0000 </r>
       <r>    1.0072    0.0000 </r>
       <r>    1.1580    0.0000 </r>
       <r>    1.1695    0.0000 </r>
       <r>    1.2277    0.0000 </r>
       <r>    1.2572    0.0000 </r>
       <r>    1.3603    0.0000 </r>
       <r>    1.3633    0.0000 </r>
       <r>    1.4351    0.0000 </r>
       <r>    1.4956    0.0000 </r>
       <r>    1.6076    0.0000 </r>
       <r>    1.6298    0.0000 </r>
       <r>    1.6802    0.0000 </r>
      </set>
      <set comment="kpoint 9">
       <r>   -9.4099    1.0000 </r>
       <r>   -3.5726    0.1667 </r>
       <r>   -3.5726    0.1666 </r>
       <r>   -3.5725    0.1663 </r>
       <r>   -0.2331    0.0000 </r>
       <r>    0.3148    0.0000 </r>
       <r>    0.3382    0.0000 </r>
       <r>    0.4551    0.0000 </r>
       <r>    0.4606    0.0000 </r>
       <r>    0.6197    0.0000 </r>
       <r>    0.9086    0.0000 </r>
       <r>    0.9444    0.0000 </r>
       <r>    0.9541    0.0000 </r>
       <r>    0.9657    0.0000 </r>
       <r>    1.0620    0.0000 </r>
       <r>    1.0949    0.0000 </r>
       <r>    1.1114    0.0000 </r>
       <r>    1.1461    0.0000 </r>
       <r>    1.2379    0.0000 </r>
       <r>    1.5332    0.0000 </r>
       <r>    1.5588    0.0000 </r>
       <r>    1.6095    0.0000 </r>
       <r>    1.6485    0.0000 </r>
       <r>    1.6633    0.0000 </r>
      </set>
      <set comment="kpoint 10">
       <r>   -9.4099    1.0000 </r>
       <r>   -3.5726    0.1667 </r>
       <r>   -3.5726    0.1667 </r>
       <r>   -3.5725    0.1663 </r>
       <r>   -0.2180    0.0000 </r>
       <r>    0.2713    0.0000 </r>
       <r>    0.3555    0.0000 </r>
       <r>    0.3929    0.0000 </r>
       <r>    0.4761    0.0000 </r>
       <r>    0.7659    0.0000 </r>
       <r>    0.7897    0.0000 </r>
       <r>    0.8351    0.0000 </r>
       <r>    0.9089    0.0000 </r>
       <r>    0.9596    0.0000 </r>
       <r>    1.0112    0.0000 </r>
       <r>    1.1405    0.0000 </r>
       <r>    1.2592    0.0000 </r>
       <r>    1.3072    0.0000 </r>
       <r>    1.3700    0.0000 </r>
       <r>    1.4132    0.0000 </r>
       <r>    1.4578    0.0000 </r>
       <r>    1.5944    0.0000 </r>
       <r>    1.6220    0.0000 </r>
       <r>    1.6848    0.0000 </r>
      </set>
      <set comment="kpoint 11">
       <r>   -9.4099    1.0000 </r>
       <r>   -3.5726    0.1667 </r>
       <r>   -3.5726    0.1667 </r>
       <r>   -3.5725    0.1663 </r>
       <r>   -0.1922    0.0000 </r>
       <r>    0.1829    0.0000 </r>
       <r>    0.3876    0.0000 </r>
       <r>    0.4153    0.0000 </r>
       <r>    0.5070    0.0000 </r>
       <r>    0.6803    0.0000 </r>
       <r>    0.6822    0.0000 </r>
       <r>    0.8078    0.0000 </r>
       <r>    0.9902    0.0000 </r>
       <r>    0.9959    0.0000 </r>
       <r>    1.0407    0.0000 </r>
       <r>    1.1695    0.0000 </r>
       <r>    1.2865    0.0000 </r>
       <r>    1.2960    0.0000 </r>
       <r>    1.4633    0.0000 </r>
       <r>    1.4662    0.0000 </r>
       <r>    1.5333    0.0000 </r>
       <r>    1.5954    0.0000 </r>
       <r>    1.6529    0.0000 </r>
       <r>    1.6794    0.0000 </r>
      </set>
      <set comment="kpoint 12">
       <r>   -9.4099    1.0000 </r>
       <r>   -3.5726    0.1667 </r>
       <r>   -3.5726    0.1667 </r>
       <r>   -3.5725    0.1663 </r>
       <r>   -0.1684    0.0000 </r>
       <r>    0.1223    0.0000 </r>
       <r>    0.4225    0.0000 </r>
       <r>    0.4606    0.0000 </r>
       <r>    0.5402    0.0000 </r>
       <r>    0.5929    0.0000 </r>
       <r>    0.6061    0.0000 </r>
       <r>    0.7388    0.0000 </r>
       <r>    1.0233    0.0000 </r>
       <r>    1.0858    0.0000 </r>
       <r>    1.1878    0.0000 </r>
       <r>    1.1903    0.0000 </r>
       <r>    1.2179    0.0000 </r>
       <r>    1.2396    0.0000 </r>
       <r>    1.4024    0.0000 </r>
       <r>    1.4765    0.0000 </r>
       <r>    1.6279    0.0000 </r>
       <r>    1.6917    0.0000 </r>
       <r>    1.7273    0.0000 </r>
       <r>    1.7550    0.0000 </r>
      </set>
      <set comment="kpoint 13">
       <r>   -9.4099    1.0000 </r>
       <r>   -3.5726    0.1668 </r>
       <r>   -3.5726    0.1667 </r>
       <r>   -3.5726    0.1666 </r>
       <r>   -0.1985    0.0000 </r>
       <r>    0.2908    0.0000 </r>
       <r>    0.3737    0.0000 </r>
       <r>    0.3971    0.0000 </r>
       <r>    0.4913    0.0000 </r>
       <r>    0.6562    0.0000 </r>
       <r>    0.8103    0.0000 </r>
       <r>    0.8255    0.0000 </r>
       <r>    0.9261    0.0000 </r>
       <r>    0.9660    0.0000 </r>
       <r>    1.0095    0.0000 </r>
       <r>    1.0975    0.0000 </r>
       <r>    1.1275    0.0000 </r>
       <r>    1.1729    0.0000 </r>
       <r>    1.3218    0.0000 </r>
       <r>    1.4174    0.0000 </r>
       <r>    1.4418    0.0000 </r>
       <r>    1.5719    0.0000 </r>
       <r>    1.6082    0.0000 </r>
       <r>    1.7059    0.0000 </r>
      </set>
      <set comment="kpoint 14">
       <r>   -9.4099    1.0000 </r>
       <r>   -3.5726    0.1668 </r>
       <r>   -3.5726    0.1667 </r>
       <r>   -3.5726    0.1666 </r>
       <r>   -0.1836    0.0000 </r>
       <r>    0.2859    0.0000 </r>
       <r>    0.3600    0.0000 </r>
       <r>    0.3908    0.0000 </r>
       <r>    0.4441    0.0000 </r>
       <r>    0.7538    0.0000 </r>
       <r>    0.8085    0.0000 </r>
       <r>    0.8250    0.0000 </r>
       <r>    0.8532    0.0000 </r>
       <r>    0.8751    0.0000 </r>
       <r>    0.8857    0.0000 </r>
       <r>    1.2401    0.0000 </r>
       <r>    1.2554    0.0000 </r>
       <r>    1.2921    0.0000 </r>
       <r>    1.3253    0.0000 </r>
       <r>    1.3498    0.0000 </r>
       <r>    1.3789    0.0000 </r>
       <r>    1.7072    0.0000 </r>
       <r>    1.7286    0.0000 </r>
       <r>    1.7705    0.0000 </r>
      </set>
      <set comment="kpoint 15">
       <r>   -9.4099    1.0000 </r>
       <r>   -3.5726    0.1668 </r>
       <r>   -3.5726    0.1667 </r>
       <r>   -3.5726    0.1667 </r>
       <r>   -0.1581    0.0000 </r>
       <r>    0.2180    0.0000 </r>
       <r>    0.3627    0.0000 </r>
       <r>    0.4224    0.0000 </r>
       <r>    0.4751    0.0000 </r>
       <r>    0.6575    0.0000 </r>
       <r>    0.7165    0.0000 </r>
       <r>    0.7431    0.0000 </r>
       <r>    0.8677    0.0000 </r>
       <r>    0.9118    0.0000 </r>
       <r>    1.0305    0.0000 </r>
       <r>    1.1615    0.0000 </r>
       <r>    1.1673    0.0000 </r>
       <r>    1.3532    0.0000 </r>
       <r>    1.4797    0.0000 </r>
       <r>    1.4960    0.0000 </r>
       <r>    1.5522    0.0000 </r>
       <r>    1.6759    0.0000 </r>
       <r>    1.7300    0.0000 </r>
       <r>    1.7829    0.0000 </r>
      </set>
      <set comment="kpoint 16">
       <r>   -9.4099    1.0000 </r>
       <r>   -3.5726    0.1668 </r>
       <r>   -3.5726    0.1667 </r>
       <r>   -3.5726    0.1667 </r>
       <r>   -0.1348    0.0000 </r>
       <r>    0.1598    0.0000 </r>
       <r>    0.3932    0.0000 </r>
       <r>    0.4563    0.0000 </r>
       <r>    0.5224    0.0000 </r>
       <r>    0.5833    0.0000 </r>
       <r>    0.6443    0.0000 </r>
       <r>    0.6569    0.0000 </r>
       <r>    0.9017    0.0000 </r>
       <r>    0.9619    0.0000 </r>
       <r>    1.0715    0.0000 </r>
       <r>    1.0873    0.0000 </r>
       <r>    1.2466    0.0000 </r>
       <r>    1.3828    0.0000 </r>
       <r>    1.4796    0.0000 </r>
       <r>    1.6246    0.0000 </r>
       <r>    1.6817    0.0000 </r>
       <r>    1.6914    0.0000 </r>
       <r>    1.7942    0.0000 </r>
       <r>    1.7985    0.0000 </r>
      </set>
      <set comment="kpoint 17">
       <r>   -9.4099    1.0000 </r>
       <r>   -3.5726    0.1672 </r>
       <r>   -3.5726    0.1666 </r>
       <r>   -3.5725    0.1666 </r>
       <r>   -0.1557    0.0000 </r>
       <r>    0.2022    0.0000 </r>
       <r>    0.4208    0.0000 </r>
       <r>    0.4358    0.0000 </r>
       <r>    0.5379    0.0000 </r>
       <r>    0.7019    0.0000 </r>
       <r>    0.7053    0.0000 </r>
       <r>    0.7125    0.0000 </r>
       <r>    0.8264    0.0000 </r>
       <r>    0.9902    0.0000 </r>
       <r>    1.0114    0.0000 </r>
       <r>    1.0591    0.0000 </r>
       <r>    1.1729    0.0000 </r>
       <r>    1.2235    0.0000 </r>
       <r>    1.3112    0.0000 </r>
       <r>    1.3178    0.0000 </r>
       <r>    1.4671    0.0000 </r>
       <r>    1.4687    0.0000 </r>
       <r>    1.5586    0.0000 </r>
       <r>    1.7565    0.0000 </r>
      </set>
      <set comment="kpoint 18">
       <r>   -9.4099    1.0000 </r>
       <r>   -3.5726    0.1672 </r>
       <r>   -3.5726    0.1666 </r>
       <r>   -3.5726    0.1666 </r>
       <r>   -0.1411    0.0000 </r>
       <r>    0.2183    0.0000 </r>
       <r>    0.3774    0.0000 </r>
       <r>    0.4375    0.0000 </r>
       <r>    0.4930    0.0000 </r>
       <r>    0.6552    0.0000 </r>
       <r>    0.7225    0.0000 </r>
       <r>    0.7666    0.0000 </r>
       <r>    0.8610    0.0000 </r>
       <r>    0.8816    0.0000 </r>
       <r>    0.9329    0.0000 </r>
       <r>    1.1384    0.0000 </r>
       <r>    1.1622    0.0000 </r>
       <r>    1.2023    0.0000 </r>
       <r>    1.3546    0.0000 </r>
       <r>    1.4035    0.0000 </r>
       <r>    1.5422    0.0000 </r>
       <r>    1.6431    0.0000 </r>
       <r>    1.6770    0.0000 </r>
       <r>    1.7650    0.0000 </r>
      </set>
      <set comment="kpoint 19">
       <r>   -9.4099    1.0000 </r>
       <r>   -3.5726    0.1672 </r>
       <r>   -3.5726    0.1666 </r>
       <r>   -3.5726    0.1666 </r>
       <r>   -0.1164    0.0000 </r>
       <r>    0.2395    0.0000 </r>
       <r>    0.2931    0.0000 </r>
       <r>    0.4681    0.0000 </r>
       <r>    0.5228    0.0000 </r>
       <r>    0.5564    0.0000 </r>
       <r>    0.7457    0.0000 </r>
       <r>    0.7833    0.0000 </r>
       <r>    0.7871    0.0000 </r>
       <r>    0.7961    0.0000 </r>
       <r>    1.0404    0.0000 </r>
       <r>    1.0505    0.0000 </r>
       <r>    1.0922    0.0000 </r>
       <r>    1.3612    0.0000 </r>
       <r>    1.5400    0.0000 </r>
       <r>    1.5514    0.0000 </r>
       <r>    1.6216    0.0000 </r>
       <r>    1.7215    0.0000 </r>
       <r>    1.8206    0.0000 </r>
       <r>    1.8644    0.0000 </r>
      </set>
      <set comment="kpoint 20">
       <r>   -9.4099    1.0000 </r>
       <r>   -3.5726    0.1672 </r>
       <r>   -3.5726    0.1667 </r>
       <r>   -3.5726    0.1666 </r>
       <r>   -0.0942    0.0000 </r>
       <r>    0.2104    0.0000 </r>
       <r>    0.2960    0.0000 </r>
       <r>    0.4823    0.0000 </r>
       <r>    0.5003    0.0000 </r>
       <r>    0.5737    0.0000 </r>
       <r>    0.6961    0.0000 </r>
       <r>    0.6971    0.0000 </r>
       <r>    0.7988    0.0000 </r>
       <r>    0.8463    0.0000 </r>
       <r>    0.9578    0.0000 </r>
       <r>    0.9731    0.0000 </r>
       <r>    1.2928    0.0000 </r>
       <r>    1.4994    0.0000 </r>
       <r>    1.5790    0.0000 </r>
       <r>    1.5995    0.0000 </r>
       <r>    1.7249    0.0000 </r>
       <r>    1.7731    0.0000 </r>
       <r>    1.8381    0.0000 </r>
       <r>    1.8659    0.0000 </r>
      </set>
      <set comment="kpoint 21">
       <r>   -9.4099    1.0000 </r>
       <r>   -3.5727    0.1675 </r>
       <r>   -3.5726    0.1666 </r>
       <r>   -3.5725    0.1665 </r>
       <r>   -0.1191    0.0000 </r>
       <r>    0.1375    0.0000 </r>
       <r>    0.4687    0.0000 </r>
       <r>    0.4961    0.0000 </r>
       <r>    0.5845    0.0000 </r>
       <r>    0.6146    0.0000 </r>
       <r>    0.6278    0.0000 </r>
       <r>    0.7432    0.0000 </r>
       <r>    0.7652    0.0000 </r>
       <r>    0.9087    0.0000 </r>
       <r>    1.0573    0.0000 </r>
       <r>    1.1239    0.0000 </r>
       <r>    1.2099    0.0000 </r>
       <r>    1.2216    0.0000 </r>
       <r>    1.2441    0.0000 </r>
       <r>    1.2914    0.0000 </r>
       <r>    1.3862    0.0000 </r>
       <r>    1.3904    0.0000 </r>
       <r>    1.7042    0.0000 </r>
       <r>    1.8398    0.0000 </r>
      </set>
      <set comment="kpoint 22">
       <r>   -9.4099    1.0000 </r>
       <r>   -3.5727    0.1674 </r>
       <r>   -3.5726    0.1666 </r>
       <r>   -3.5726    0.1666 </r>
       <r>   -0.1051    0.0000 </r>
       <r>    0.1556    0.0000 </r>
       <r>    0.4276    0.0000 </r>
       <r>    0.4846    0.0000 </r>
       <r>    0.5503    0.0000 </r>
       <r>    0.5740    0.0000 </r>
       <r>    0.6466    0.0000 </r>
       <r>    0.6764    0.0000 </r>
       <r>    0.9067    0.0000 </r>
       <r>    0.9313    0.0000 </r>
       <r>    1.0002    0.0000 </r>
       <r>    1.0601    0.0000 </r>
       <r>    1.0825    0.0000 </r>
       <r>    1.1070    0.0000 </r>
       <r>    1.3978    0.0000 </r>
       <r>    1.4698    0.0000 </r>
       <r>    1.5637    0.0000 </r>
       <r>    1.5698    0.0000 </r>
       <r>    1.7177    0.0000 </r>
       <r>    1.8388    0.0000 </r>
      </set>
      <set comment="kpoint 23">
       <r>   -9.4099    1.0000 </r>
       <r>   -3.5727    0.1674 </r>
       <r>   -3.5726    0.1666 </r>
       <r>   -3.5726    0.1666 </r>
       <r>   -0.0817    0.0000 </r>
       <r>    0.1896    0.0000 </r>
       <r>    0.3322    0.0000 </r>
       <r>    0.4712    0.0000 </r>
       <r>    0.5133    0.0000 </r>
       <r>    0.5869    0.0000 </r>
       <r>    0.6822    0.0000 </r>
       <r>    0.7019    0.0000 </r>
       <r>    0.8258    0.0000 </r>
       <r>    0.8491    0.0000 </r>
       <r>    0.9542    0.0000 </r>
       <r>    0.9657    0.0000 </r>
       <r>    1.1338    0.0000 </r>
       <r>    1.2866    0.0000 </r>
       <r>    1.5819    0.0000 </r>
       <r>    1.6528    0.0000 </r>
       <r>    1.7271    0.0000 </r>
       <r>    1.7498    0.0000 </r>
       <r>    1.7632    0.0000 </r>
       <r>    1.7938    0.0000 </r>
      </set>
      <set comment="kpoint 24">
       <r>   -9.4099    1.0000 </r>
       <r>   -3.5727    0.1674 </r>
       <r>   -3.5726    0.1667 </r>
       <r>   -3.5726    0.1666 </r>
       <r>   -0.0610    0.0000 </r>
       <r>    0.2293    0.0000 </r>
       <r>    0.2716    0.0000 </r>
       <r>    0.3957    0.0000 </r>
       <r>    0.5423    0.0000 </r>
       <r>    0.6363    0.0000 </r>
       <r>    0.7246    0.0000 </r>
       <r>    0.7513    0.0000 </r>
       <r>    0.7574    0.0000 </r>
       <r>    0.7600    0.0000 </r>
       <r>    0.8631    0.0000 </r>
       <r>    0.8832    0.0000 </r>
       <r>    1.3374    0.0000 </r>
       <r>    1.4979    0.0000 </r>
       <r>    1.5691    0.0000 </r>
       <r>    1.7199    0.0000 </r>
       <r>    1.7432    0.0000 </r>
       <r>    1.7604    0.0000 </r>
       <r>    1.9020    0.0000 </r>
       <r>    1.9125    0.0000 </r>
      </set>
      <set comment="kpoint 25">
       <r>   -9.4099    1.0000 </r>
       <r>   -3.5726    0.1667 </r>
       <r>   -3.5726    0.1667 </r>
       <r>   -3.5724    0.1659 </r>
       <r>   -0.2574    0.0000 </r>
       <r>    0.1948    0.0000 </r>
       <r>    0.3969    0.0000 </r>
       <r>    0.4615    0.0000 </r>
       <r>    0.5977    0.0000 </r>
       <r>    0.7321    0.0000 </r>
       <r>    0.7939    0.0000 </r>
       <r>    0.7975    0.0000 </r>
       <r>    0.9572    0.0000 </r>
       <r>    1.0444    0.0000 </r>
       <r>    1.1261    0.0000 </r>
       <r>    1.1687    0.0000 </r>
       <r>    1.2310    0.0000 </r>
       <r>    1.2957    0.0000 </r>
       <r>    1.3610    0.0000 </r>
       <r>    1.3798    0.0000 </r>
       <r>    1.4477    0.0000 </r>
       <r>    1.4597    0.0000 </r>
       <r>    1.5483    0.0000 </r>
       <r>    1.5979    0.0000 </r>
      </set>
      <set comment="kpoint 26">
       <r>   -9.4099    1.0000 </r>
       <r>   -3.5726    0.1667 </r>
       <r>   -3.5726    0.1667 </r>
       <r>   -3.5724    0.1659 </r>
       <r>   -0.2423    0.0000 </r>
       <r>    0.2040    0.0000 </r>
       <r>    0.2896    0.0000 </r>
       <r>    0.4719    0.0000 </r>
       <r>    0.6556    0.0000 </r>
       <r>    0.7465    0.0000 </r>
       <r>    0.7635    0.0000 </r>
       <r>    0.8151    0.0000 </r>
       <r>    0.9115    0.0000 </r>
       <r>    1.1260    0.0000 </r>
       <r>    1.1368    0.0000 </r>
       <r>    1.1971    0.0000 </r>
       <r>    1.2023    0.0000 </r>
       <r>    1.2770    0.0000 </r>
       <r>    1.3865    0.0000 </r>
       <r>    1.3902    0.0000 </r>
       <r>    1.4604    0.0000 </r>
       <r>    1.4682    0.0000 </r>
       <r>    1.6015    0.0000 </r>
       <r>    1.6243    0.0000 </r>
      </set>
      <set comment="kpoint 27">
       <r>   -9.4099    1.0000 </r>
       <r>   -3.5726    0.1668 </r>
       <r>   -3.5726    0.1667 </r>
       <r>   -3.5724    0.1659 </r>
       <r>   -0.2166    0.0000 </r>
       <r>    0.1580    0.0000 </r>
       <r>    0.2680    0.0000 </r>
       <r>    0.5006    0.0000 </r>
       <r>    0.5462    0.0000 </r>
       <r>    0.7719    0.0000 </r>
       <r>    0.7858    0.0000 </r>
       <r>    0.8445    0.0000 </r>
       <r>    0.9678    0.0000 </r>
       <r>    1.0878    0.0000 </r>
       <r>    1.1567    0.0000 </r>
       <r>    1.1822    0.0000 </r>
       <r>    1.2279    0.0000 </r>
       <r>    1.3445    0.0000 </r>
       <r>    1.4092    0.0000 </r>
       <r>    1.4692    0.0000 </r>
       <r>    1.4900    0.0000 </r>
       <r>    1.5082    0.0000 </r>
       <r>    1.5282    0.0000 </r>
       <r>    1.5966    0.0000 </r>
      </set>
      <set comment="kpoint 28">
       <r>   -9.4099    1.0000 </r>
       <r>   -3.5726    0.1668 </r>
       <r>   -3.5726    0.1667 </r>
       <r>   -3.5724    0.1659 </r>
       <r>   -0.1930    0.0000 </r>
       <r>    0.0999    0.0000 </r>
       <r>    0.3057    0.0000 </r>
       <r>    0.4517    0.0000 </r>
       <r>    0.5535    0.0000 </r>
       <r>    0.7062    0.0000 </r>
       <r>    0.7962    0.0000 </r>
       <r>    0.8804    0.0000 </r>
       <r>    1.0302    0.0000 </r>
       <r>    1.0614    0.0000 </r>
       <r>    1.1956    0.0000 </r>
       <r>    1.2114    0.0000 </r>
       <r>    1.2833    0.0000 </r>
       <r>    1.3965    0.0000 </r>
       <r>    1.3970    0.0000 </r>
       <r>    1.4294    0.0000 </r>
       <r>    1.4819    0.0000 </r>
       <r>    1.4981    0.0000 </r>
       <r>    1.5742    0.0000 </r>
       <r>    1.6014    0.0000 </r>
      </set>
      <set comment="kpoint 29">
       <r>   -9.4099    1.0000 </r>
       <r>   -3.5726    0.1667 </r>
       <r>   -3.5726    0.1667 </r>
       <r>   -3.5725    0.1660 </r>
       <r>   -0.2500    0.0000 </r>
       <r>    0.2022    0.0000 </r>
       <r>    0.4033    0.0000 </r>
       <r>    0.4682    0.0000 </r>
       <r>    0.5937    0.0000 </r>
       <r>    0.6155    0.0000 </r>
       <r>    0.8041    0.0000 </r>
       <r>    0.9316    0.0000 </r>
       <r>    0.9608    0.0000 </r>
       <r>    0.9999    0.0000 </r>
       <r>    1.0544    0.0000 </r>
       <r>    1.1889    0.0000 </r>
       <r>    1.2115    0.0000 </r>
       <r>    1.2468    0.0000 </r>
       <r>    1.3327    0.0000 </r>
       <r>    1.3809    0.0000 </r>
       <r>    1.4520    0.0000 </r>
       <r>    1.5435    0.0000 </r>
       <r>    1.5829    0.0000 </r>
       <r>    1.6111    0.0000 </r>
      </set>
      <set comment="kpoint 30">
       <r>   -9.4099    1.0000 </r>
       <r>   -3.5726    0.1667 </r>
       <r>   -3.5726    0.1667 </r>
       <r>   -3.5725    0.1660 </r>
       <r>   -0.2350    0.0000 </r>
       <r>    0.2114    0.0000 </r>
       <r>    0.2969    0.0000 </r>
       <r>    0.4781    0.0000 </r>
       <r>    0.6179    0.0000 </r>
       <r>    0.6631    0.0000 </r>
       <r>    0.7749    0.0000 </r>
       <r>    0.9171    0.0000 </r>
       <r>    0.9490    0.0000 </r>
       <r>    1.0093    0.0000 </r>
       <r>    1.0716    0.0000 </r>
       <r>    1.1501    0.0000 </r>
       <r>    1.2563    0.0000 </r>
       <r>    1.3326    0.0000 </r>
       <r>    1.3842    0.0000 </r>
       <r>    1.4159    0.0000 </r>
       <r>    1.4626    0.0000 </r>
       <r>    1.4832    0.0000 </r>
       <r>    1.5565    0.0000 </r>
       <r>    1.6142    0.0000 </r>
      </set>
      <set comment="kpoint 31">
       <r>   -9.4099    1.0000 </r>
       <r>   -3.5726    0.1667 </r>
       <r>   -3.5726    0.1667 </r>
       <r>   -3.5725    0.1660 </r>
       <r>   -0.2092    0.0000 </r>
       <r>    0.1655    0.0000 </r>
       <r>    0.2754    0.0000 </r>
       <r>    0.5070    0.0000 </r>
       <r>    0.5533    0.0000 </r>
       <r>    0.6476    0.0000 </r>
       <r>    0.7924    0.0000 </r>
       <r>    0.9397    0.0000 </r>
       <r>    0.9828    0.0000 </r>
       <r>    0.9960    0.0000 </r>
       <r>    1.0523    0.0000 </r>
       <r>    1.2737    0.0000 </r>
       <r>    1.2918    0.0000 </r>
       <r>    1.3108    0.0000 </r>
       <r>    1.3747    0.0000 </r>
       <r>    1.4088    0.0000 </r>
       <r>    1.4985    0.0000 </r>
       <r>    1.5559    0.0000 </r>
       <r>    1.6018    0.0000 </r>
       <r>    1.6327    0.0000 </r>
      </set>
      <set comment="kpoint 32">
       <r>   -9.4099    1.0000 </r>
       <r>   -3.5726    0.1668 </r>
       <r>   -3.5726    0.1667 </r>
       <r>   -3.5725    0.1660 </r>
       <r>   -0.1857    0.0000 </r>
       <r>    0.1075    0.0000 </r>
       <r>    0.3130    0.0000 </r>
       <r>    0.4593    0.0000 </r>
       <r>    0.5595    0.0000 </r>
       <r>    0.6773    0.0000 </r>
       <r>    0.7128    0.0000 </r>
       <r>    0.8885    0.0000 </r>
       <r>    1.0111    0.0000 </r>
       <r>    1.0903    0.0000 </r>
       <r>    1.1774    0.0000 </r>
       <r>    1.2233    0.0000 </r>
       <r>    1.2561    0.0000 </r>
       <r>    1.3459    0.0000 </r>
       <r>    1.4099    0.0000 </r>
       <r>    1.4525    0.0000 </r>
       <r>    1.4891    0.0000 </r>
       <r>    1.5378    0.0000 </r>
       <r>    1.5583    0.0000 </r>
       <r>    1.6146    0.0000 </r>
      </set>
      <set comment="kpoint 33">
       <r>   -9.4099    1.0000 </r>
       <r>   -3.5726    0.1667 </r>
       <r>   -3.5726    0.1666 </r>
       <r>   -3.5725    0.1663 </r>
       <r>   -0.2282    0.0000 </r>
       <r>    0.2238    0.0000 </r>
       <r>    0.4111    0.0000 </r>
       <r>    0.4663    0.0000 </r>
       <r>    0.4989    0.0000 </r>
       <r>    0.6296    0.0000 </r>
       <r>    0.8175    0.0000 </r>
       <r>    0.8513    0.0000 </r>
       <r>    0.9888    0.0000 </r>
       <r>    1.0293    0.0000 </r>
       <r>    1.0847    0.0000 </r>
       <r>    1.0953    0.0000 </r>
       <r>    1.1403    0.0000 </r>
       <r>    1.2386    0.0000 </r>
       <r>    1.2538    0.0000 </r>
       <r>    1.4391    0.0000 </r>
       <r>    1.4613    0.0000 </r>
       <r>    1.5338    0.0000 </r>
       <r>    1.6122    0.0000 </r>
       <r>    1.6724    0.0000 </r>
      </set>
      <set comment="kpoint 34">
       <r>   -9.4099    1.0000 </r>
       <r>   -3.5726    0.1667 </r>
       <r>   -3.5726    0.1667 </r>
       <r>   -3.5725    0.1663 </r>
       <r>   -0.2133    0.0000 </r>
       <r>    0.2327    0.0000 </r>
       <r>    0.3185    0.0000 </r>
       <r>    0.4629    0.0000 </r>
       <r>    0.5150    0.0000 </r>
       <r>    0.6849    0.0000 </r>
       <r>    0.7952    0.0000 </r>
       <r>    0.8580    0.0000 </r>
       <r>    0.9162    0.0000 </r>
       <r>    0.9592    0.0000 </r>
       <r>    1.1016    0.0000 </r>
       <r>    1.1479    0.0000 </r>
       <r>    1.1756    0.0000 </r>
       <r>    1.3023    0.0000 </r>
       <r>    1.3814    0.0000 </r>
       <r>    1.4306    0.0000 </r>
       <r>    1.4872    0.0000 </r>
       <r>    1.5492    0.0000 </r>
       <r>    1.5536    0.0000 </r>
       <r>    1.6430    0.0000 </r>
      </set>
      <set comment="kpoint 35">
       <r>   -9.4099    1.0000 </r>
       <r>   -3.5726    0.1667 </r>
       <r>   -3.5726    0.1667 </r>
       <r>   -3.5725    0.1663 </r>
       <r>   -0.1877    0.0000 </r>
       <r>    0.1876    0.0000 </r>
       <r>    0.2973    0.0000 </r>
       <r>    0.4928    0.0000 </r>
       <r>    0.5395    0.0000 </r>
       <r>    0.5797    0.0000 </r>
       <r>    0.7895    0.0000 </r>
       <r>    0.8348    0.0000 </r>
       <r>    0.9089    0.0000 </r>
       <r>    1.0036    0.0000 </r>
       <r>    1.1288    0.0000 </r>
       <r>    1.1645    0.0000 </r>
       <r>    1.2077    0.0000 </r>
       <r>    1.3627    0.0000 </r>
       <r>    1.4219    0.0000 </r>
       <r>    1.4790    0.0000 </r>
       <r>    1.5011    0.0000 </r>
       <r>    1.6058    0.0000 </r>
       <r>    1.6322    0.0000 </r>
       <r>    1.6433    0.0000 </r>
      </set>
      <set comment="kpoint 36">
       <r>   -9.4099    1.0000 </r>
       <r>   -3.5726    0.1667 </r>
       <r>   -3.5726    0.1667 </r>
       <r>   -3.5725    0.1663 </r>
       <r>   -0.1643    0.0000 </r>
       <r>    0.1302    0.0000 </r>
       <r>    0.3345    0.0000 </r>
       <r>    0.4818    0.0000 </r>
       <r>    0.5265    0.0000 </r>
       <r>    0.5930    0.0000 </r>
       <r>    0.7165    0.0000 </r>
       <r>    0.7638    0.0000 </r>
       <r>    0.9462    0.0000 </r>
       <r>    1.0901    0.0000 </r>
       <r>    1.1666    0.0000 </r>
       <r>    1.1989    0.0000 </r>
       <r>    1.2460    0.0000 </r>
       <r>    1.3418    0.0000 </r>
       <r>    1.4063    0.0000 </r>
       <r>    1.4770    0.0000 </r>
       <r>    1.5395    0.0000 </r>
       <r>    1.5912    0.0000 </r>
       <r>    1.6377    0.0000 </r>
       <r>    1.7148    0.0000 </r>
      </set>
      <set comment="kpoint 37">
       <r>   -9.4099    1.0000 </r>
       <r>   -3.5726    0.1668 </r>
       <r>   -3.5726    0.1667 </r>
       <r>   -3.5726    0.1666 </r>
       <r>   -0.1937    0.0000 </r>
       <r>    0.2526    0.0000 </r>
       <r>    0.3300    0.0000 </r>
       <r>    0.4723    0.0000 </r>
       <r>    0.5287    0.0000 </r>
       <r>    0.6660    0.0000 </r>
       <r>    0.7114    0.0000 </r>
       <r>    0.8655    0.0000 </r>
       <r>    0.9129    0.0000 </r>
       <r>    0.9726    0.0000 </r>
       <r>    1.0298    0.0000 </r>
       <r>    1.1069    0.0000 </r>
       <r>    1.1256    0.0000 </r>
       <r>    1.2754    0.0000 </r>
       <r>    1.3089    0.0000 </r>
       <r>    1.3427    0.0000 </r>
       <r>    1.4725    0.0000 </r>
       <r>    1.5005    0.0000 </r>
       <r>    1.5674    0.0000 </r>
       <r>    1.7146    0.0000 </r>
      </set>
      <set comment="kpoint 38">
       <r>   -9.4099    1.0000 </r>
       <r>   -3.5726    0.1668 </r>
       <r>   -3.5726    0.1667 </r>
       <r>   -3.5726    0.1666 </r>
       <r>   -0.1789    0.0000 </r>
       <r>    0.2611    0.0000 </r>
       <r>    0.3416    0.0000 </r>
       <r>    0.3677    0.0000 </r>
       <r>    0.5427    0.0000 </r>
       <r>    0.7065    0.0000 </r>
       <r>    0.7440    0.0000 </r>
       <r>    0.7916    0.0000 </r>
       <r>    0.8445    0.0000 </r>
       <r>    0.9764    0.0000 </r>
       <r>    0.9923    0.0000 </r>
       <r>    1.1592    0.0000 </r>
       <r>    1.2165    0.0000 </r>
       <r>    1.2697    0.0000 </r>
       <r>    1.3487    0.0000 </r>
       <r>    1.4218    0.0000 </r>
       <r>    1.4673    0.0000 </r>
       <r>    1.5249    0.0000 </r>
       <r>    1.6502    0.0000 </r>
       <r>    1.7525    0.0000 </r>
      </set>
      <set comment="kpoint 39">
       <r>   -9.4099    1.0000 </r>
       <r>   -3.5726    0.1668 </r>
       <r>   -3.5726    0.1667 </r>
       <r>   -3.5726    0.1667 </r>
       <r>   -0.1537    0.0000 </r>
       <r>    0.2226    0.0000 </r>
       <r>    0.3304    0.0000 </r>
       <r>    0.3808    0.0000 </r>
       <r>    0.5671    0.0000 </r>
       <r>    0.6151    0.0000 </r>
       <r>    0.6803    0.0000 </r>
       <r>    0.7772    0.0000 </r>
       <r>    0.8614    0.0000 </r>
       <r>    1.0109    0.0000 </r>
       <r>    1.0318    0.0000 </r>
       <r>    1.0693    0.0000 </r>
       <r>    1.2926    0.0000 </r>
       <r>    1.3544    0.0000 </r>
       <r>    1.4131    0.0000 </r>
       <r>    1.4716    0.0000 </r>
       <r>    1.5688    0.0000 </r>
       <r>    1.6405    0.0000 </r>
       <r>    1.7250    0.0000 </r>
       <r>    1.7599    0.0000 </r>
      </set>
      <set comment="kpoint 40">
       <r>   -9.4099    1.0000 </r>
       <r>   -3.5726    0.1668 </r>
       <r>   -3.5726    0.1667 </r>
       <r>   -3.5726    0.1667 </r>
       <r>   -0.1308    0.0000 </r>
       <r>    0.1677    0.0000 </r>
       <r>    0.3640    0.0000 </r>
       <r>    0.4137    0.0000 </r>
       <r>    0.5167    0.0000 </r>
       <r>    0.6109    0.0000 </r>
       <r>    0.6248    0.0000 </r>
       <r>    0.7799    0.0000 </r>
       <r>    0.8215    0.0000 </r>
       <r>    0.9601    0.0000 </r>
       <r>    1.0676    0.0000 </r>
       <r>    1.2122    0.0000 </r>
       <r>    1.2544    0.0000 </r>
       <r>    1.3854    0.0000 </r>
       <r>    1.4693    0.0000 </r>
       <r>    1.5887    0.0000 </r>
       <r>    1.6224    0.0000 </r>
       <r>    1.6347    0.0000 </r>
       <r>    1.7258    0.0000 </r>
       <r>    1.7614    0.0000 </r>
      </set>
      <set comment="kpoint 41">
       <r>   -9.4099    1.0000 </r>
       <r>   -3.5726    0.1672 </r>
       <r>   -3.5726    0.1666 </r>
       <r>   -3.5725    0.1666 </r>
       <r>   -0.1511    0.0000 </r>
       <r>    0.2074    0.0000 </r>
       <r>    0.3251    0.0000 </r>
       <r>    0.5183    0.0000 </r>
       <r>    0.5697    0.0000 </r>
       <r>    0.6066    0.0000 </r>
       <r>    0.7146    0.0000 </r>
       <r>    0.8058    0.0000 </r>
       <r>    0.8582    0.0000 </r>
       <r>    0.9241    0.0000 </r>
       <r>    1.0004    0.0000 </r>
       <r>    1.0825    0.0000 </r>
       <r>    1.1599    0.0000 </r>
       <r>    1.2105    0.0000 </r>
       <r>    1.3244    0.0000 </r>
       <r>    1.3663    0.0000 </r>
       <r>    1.4475    0.0000 </r>
       <r>    1.5116    0.0000 </r>
       <r>    1.5754    0.0000 </r>
       <r>    1.6265    0.0000 </r>
      </set>
      <set comment="kpoint 42">
       <r>   -9.4099    1.0000 </r>
       <r>   -3.5726    0.1672 </r>
       <r>   -3.5726    0.1666 </r>
       <r>   -3.5726    0.1666 </r>
       <r>   -0.1367    0.0000 </r>
       <r>    0.2234    0.0000 </r>
       <r>    0.3379    0.0000 </r>
       <r>    0.4058    0.0000 </r>
       <r>    0.5810    0.0000 </r>
       <r>    0.6231    0.0000 </r>
       <r>    0.6870    0.0000 </r>
       <r>    0.7805    0.0000 </r>
       <r>    0.8731    0.0000 </r>
       <r>    0.8863    0.0000 </r>
       <r>    1.0251    0.0000 </r>
       <r>    1.0640    0.0000 </r>
       <r>    1.1711    0.0000 </r>
       <r>    1.2589    0.0000 </r>
       <r>    1.3136    0.0000 </r>
       <r>    1.4970    0.0000 </r>
       <r>    1.5139    0.0000 </r>
       <r>    1.5507    0.0000 </r>
       <r>    1.6167    0.0000 </r>
       <r>    1.7784    0.0000 </r>
      </set>
      <set comment="kpoint 43">
       <r>   -9.4099    1.0000 </r>
       <r>   -3.5726    0.1672 </r>
       <r>   -3.5726    0.1666 </r>
       <r>   -3.5726    0.1666 </r>
       <r>   -0.1123    0.0000 </r>
       <r>    0.2448    0.0000 </r>
       <r>    0.2995    0.0000 </r>
       <r>    0.3872    0.0000 </r>
       <r>    0.5564    0.0000 </r>
       <r>    0.6180    0.0000 </r>
       <r>    0.6731    0.0000 </r>
       <r>    0.6746    0.0000 </r>
       <r>    0.8909    0.0000 </r>
       <r>    0.9195    0.0000 </r>
       <r>    0.9449    0.0000 </r>
       <r>    1.0892    0.0000 </r>
       <r>    1.1860    0.0000 </r>
       <r>    1.3675    0.0000 </r>
       <r>    1.4513    0.0000 </r>
       <r>    1.5509    0.0000 </r>
       <r>    1.6136    0.0000 </r>
       <r>    1.6868    0.0000 </r>
       <r>    1.7503    0.0000 </r>
       <r>    1.8088    0.0000 </r>
      </set>
      <set comment="kpoint 44">
       <r>   -9.4099    1.0000 </r>
       <r>   -3.5726    0.1672 </r>
       <r>   -3.5726    0.1667 </r>
       <r>   -3.5726    0.1666 </r>
       <r>   -0.0904    0.0000 </r>
       <r>    0.2181    0.0000 </r>
       <r>    0.3014    0.0000 </r>
       <r>    0.4246    0.0000 </r>
       <r>    0.4886    0.0000 </r>
       <r>    0.5800    0.0000 </r>
       <r>    0.6670    0.0000 </r>
       <r>    0.7189    0.0000 </r>
       <r>    0.8274    0.0000 </r>
       <r>    0.8500    0.0000 </r>
       <r>    0.9582    0.0000 </r>
       <r>    1.1018    0.0000 </r>
       <r>    1.2981    0.0000 </r>
       <r>    1.5004    0.0000 </r>
       <r>    1.5494    0.0000 </r>
       <r>    1.5957    0.0000 </r>
       <r>    1.6571    0.0000 </r>
       <r>    1.6994    0.0000 </r>
       <r>    1.7939    0.0000 </r>
       <r>    1.8228    0.0000 </r>
      </set>
      <set comment="kpoint 45">
       <r>   -9.4099    1.0000 </r>
       <r>   -3.5727    0.1675 </r>
       <r>   -3.5726    0.1666 </r>
       <r>   -3.5725    0.1666 </r>
       <r>   -0.1149    0.0000 </r>
       <r>    0.1448    0.0000 </r>
       <r>    0.3776    0.0000 </r>
       <r>    0.5084    0.0000 </r>
       <r>    0.5689    0.0000 </r>
       <r>    0.6308    0.0000 </r>
       <r>    0.7205    0.0000 </r>
       <r>    0.7692    0.0000 </r>
       <r>    0.7830    0.0000 </r>
       <r>    0.9196    0.0000 </r>
       <r>    0.9777    0.0000 </r>
       <r>    1.0995    0.0000 </r>
       <r>    1.1470    0.0000 </r>
       <r>    1.2288    0.0000 </r>
       <r>    1.2674    0.0000 </r>
       <r>    1.3566    0.0000 </r>
       <r>    1.4057    0.0000 </r>
       <r>    1.5208    0.0000 </r>
       <r>    1.5777    0.0000 </r>
       <r>    1.7372    0.0000 </r>
      </set>
      <set comment="kpoint 46">
       <r>   -9.4099    1.0000 </r>
       <r>   -3.5727    0.1675 </r>
       <r>   -3.5726    0.1666 </r>
       <r>   -3.5726    0.1666 </r>
       <r>   -0.1010    0.0000 </r>
       <r>    0.1628    0.0000 </r>
       <r>    0.3885    0.0000 </r>
       <r>    0.4555    0.0000 </r>
       <r>    0.5211    0.0000 </r>
       <r>    0.6083    0.0000 </r>
       <r>    0.6506    0.0000 </r>
       <r>    0.7880    0.0000 </r>
       <r>    0.8390    0.0000 </r>
       <r>    0.9327    0.0000 </r>
       <r>    0.9612    0.0000 </r>
       <r>    1.0892    0.0000 </r>
       <r>    1.1040    0.0000 </r>
       <r>    1.2185    0.0000 </r>
       <r>    1.3193    0.0000 </r>
       <r>    1.4472    0.0000 </r>
       <r>    1.5706    0.0000 </r>
       <r>    1.5936    0.0000 </r>
       <r>    1.6934    0.0000 </r>
       <r>    1.7585    0.0000 </r>
      </set>
      <set comment="kpoint 47">
       <r>   -9.4099    1.0000 </r>
       <r>   -3.5727    0.1674 </r>
       <r>   -3.5726    0.1666 </r>
       <r>   -3.5726    0.1666 </r>
       <r>   -0.0778    0.0000 </r>
       <r>    0.1965    0.0000 </r>
       <r>    0.3374    0.0000 </r>
       <r>    0.4391    0.0000 </r>
       <r>    0.4765    0.0000 </r>
       <r>    0.5788    0.0000 </r>
       <r>    0.6777    0.0000 </r>
       <r>    0.7360    0.0000 </r>
       <r>    0.8171    0.0000 </r>
       <r>    0.8504    0.0000 </r>
       <r>    0.9681    0.0000 </r>
       <r>    1.0943    0.0000 </r>
       <r>    1.1435    0.0000 </r>
       <r>    1.2943    0.0000 </r>
       <r>    1.5028    0.0000 </r>
       <r>    1.6223    0.0000 </r>
       <r>    1.6405    0.0000 </r>
       <r>    1.7173    0.0000 </r>
       <r>    1.7829    0.0000 </r>
       <r>    1.8090    0.0000 </r>
      </set>
      <set comment="kpoint 48">
       <r>   -9.4099    1.0000 </r>
       <r>   -3.5727    0.1674 </r>
       <r>   -3.5726    0.1667 </r>
       <r>   -3.5726    0.1666 </r>
       <r>   -0.0575    0.0000 </r>
       <r>    0.2357    0.0000 </r>
       <r>    0.2788    0.0000 </r>
       <r>    0.4040    0.0000 </r>
       <r>    0.4736    0.0000 </r>
       <r>    0.6202    0.0000 </r>
       <r>    0.6424    0.0000 </r>
       <r>    0.7344    0.0000 </r>
       <r>    0.7528    0.0000 </r>
       <r>    0.8728    0.0000 </r>
       <r>    0.8931    0.0000 </r>
       <r>    1.0115    0.0000 </r>
       <r>    1.3415    0.0000 </r>
       <r>    1.5031    0.0000 </r>
       <r>    1.5655    0.0000 </r>
       <r>    1.6366    0.0000 </r>
       <r>    1.7077    0.0000 </r>
       <r>    1.7460    0.0000 </r>
       <r>    1.7857    0.0000 </r>
       <r>    1.8519    0.0000 </r>
      </set>
      <set comment="kpoint 49">
       <r>   -9.4099    1.0000 </r>
       <r>   -3.5726    0.1667 </r>
       <r>   -3.5726    0.1667 </r>
       <r>   -3.5724    0.1659 </r>
       <r>   -0.2449    0.0000 </r>
       <r>    0.1125    0.0000 </r>
       <r>    0.4309    0.0000 </r>
       <r>    0.5642    0.0000 </r>
       <r>    0.6433    0.0000 </r>
       <r>    0.7111    0.0000 </r>
       <r>    0.7450    0.0000 </r>
       <r>    0.8127    0.0000 </r>
       <r>    0.8682    0.0000 </r>
       <r>    1.0496    0.0000 </r>
       <r>    1.0826    0.0000 </r>
       <r>    1.1975    0.0000 </r>
       <r>    1.2087    0.0000 </r>
       <r>    1.3127    0.0000 </r>
       <r>    1.3633    0.0000 </r>
       <r>    1.4544    0.0000 </r>
       <r>    1.4581    0.0000 </r>
       <r>    1.5832    0.0000 </r>
       <r>    1.5870    0.0000 </r>
       <r>    1.6146    0.0000 </r>
      </set>
      <set comment="kpoint 50">
       <r>   -9.4099    1.0000 </r>
       <r>   -3.5726    0.1667 </r>
       <r>   -3.5726    0.1667 </r>
       <r>   -3.5724    0.1659 </r>
       <r>   -0.2303    0.0000 </r>
       <r>    0.1302    0.0000 </r>
       <r>    0.3014    0.0000 </r>
       <r>    0.5538    0.0000 </r>
       <r>    0.6315    0.0000 </r>
       <r>    0.7590    0.0000 </r>
       <r>    0.7835    0.0000 </r>
       <r>    0.8324    0.0000 </r>
       <r>    1.0341    0.0000 </r>
       <r>    1.0581    0.0000 </r>
       <r>    1.0667    0.0000 </r>
       <r>    1.1229    0.0000 </r>
       <r>    1.2082    0.0000 </r>
       <r>    1.2207    0.0000 </r>
       <r>    1.3140    0.0000 </r>
       <r>    1.4626    0.0000 </r>
       <r>    1.5159    0.0000 </r>
       <r>    1.5421    0.0000 </r>
       <r>    1.5804    0.0000 </r>
       <r>    1.6290    0.0000 </r>
      </set>
      <set comment="kpoint 51">
       <r>   -9.4099    1.0000 </r>
       <r>   -3.5726    0.1668 </r>
       <r>   -3.5726    0.1667 </r>
       <r>   -3.5724    0.1659 </r>
       <r>   -0.2054    0.0000 </r>
       <r>    0.1543    0.0000 </r>
       <r>    0.2096    0.0000 </r>
       <r>    0.4428    0.0000 </r>
       <r>    0.6627    0.0000 </r>
       <r>    0.7833    0.0000 </r>
       <r>    0.8602    0.0000 </r>
       <r>    0.9268    0.0000 </r>
       <r>    0.9973    0.0000 </r>
       <r>    1.0891    0.0000 </r>
       <r>    1.1249    0.0000 </r>
       <r>    1.1289    0.0000 </r>
       <r>    1.1713    0.0000 </r>
       <r>    1.2583    0.0000 </r>
       <r>    1.2901    0.0000 </r>
       <r>    1.3830    0.0000 </r>
       <r>    1.4085    0.0000 </r>
       <r>    1.5491    0.0000 </r>
       <r>    1.5831    0.0000 </r>
       <r>    1.6268    0.0000 </r>
      </set>
      <set comment="kpoint 52">
       <r>   -9.4099    1.0000 </r>
       <r>   -3.5726    0.1668 </r>
       <r>   -3.5726    0.1667 </r>
       <r>   -3.5724    0.1659 </r>
       <r>   -0.1828    0.0000 </r>
       <r>    0.1223    0.0000 </r>
       <r>    0.2248    0.0000 </r>
       <r>    0.3571    0.0000 </r>
       <r>    0.7038    0.0000 </r>
       <r>    0.8064    0.0000 </r>
       <r>    0.8580    0.0000 </r>
       <r>    0.8967    0.0000 </r>
       <r>    1.0492    0.0000 </r>
       <r>    1.0848    0.0000 </r>
       <r>    1.1430    0.0000 </r>
       <r>    1.1756    0.0000 </r>
       <r>    1.2189    0.0000 </r>
       <r>    1.3063    0.0000 </r>
       <r>    1.3114    0.0000 </r>
       <r>    1.3119    0.0000 </r>
       <r>    1.4441    0.0000 </r>
       <r>    1.4557    0.0000 </r>
       <r>    1.5274    0.0000 </r>
       <r>    1.6092    0.0000 </r>
      </set>
      <set comment="kpoint 53">
       <r>   -9.4099    1.0000 </r>
       <r>   -3.5726    0.1667 </r>
       <r>   -3.5726    0.1667 </r>
       <r>   -3.5725    0.1660 </r>
       <r>   -0.2376    0.0000 </r>
       <r>    0.1201    0.0000 </r>
       <r>    0.4375    0.0000 </r>
       <r>    0.5645    0.0000 </r>
       <r>    0.6248    0.0000 </r>
       <r>    0.6506    0.0000 </r>
       <r>    0.7189    0.0000 </r>
       <r>    0.8691    0.0000 </r>
       <r>    0.9128    0.0000 </r>
       <r>    0.9556    0.0000 </r>
       <r>    1.1731    0.0000 </r>
       <r>    1.2069    0.0000 </r>
       <r>    1.2240    0.0000 </r>
       <r>    1.2614    0.0000 </r>
       <r>    1.3492    0.0000 </r>
       <r>    1.3830    0.0000 </r>
       <r>    1.4421    0.0000 </r>
       <r>    1.5115    0.0000 </r>
       <r>    1.5753    0.0000 </r>
       <r>    1.6599    0.0000 </r>
      </set>
      <set comment="kpoint 54">
       <r>   -9.4099    1.0000 </r>
       <r>   -3.5726    0.1667 </r>
       <r>   -3.5726    0.1667 </r>
       <r>   -3.5725    0.1660 </r>
       <r>   -0.2229    0.0000 </r>
       <r>    0.1378    0.0000 </r>
       <r>    0.3087    0.0000 </r>
       <r>    0.5607    0.0000 </r>
       <r>    0.6185    0.0000 </r>
       <r>    0.6531    0.0000 </r>
       <r>    0.7937    0.0000 </r>
       <r>    0.9185    0.0000 </r>
       <r>    0.9707    0.0000 </r>
       <r>    1.0507    0.0000 </r>
       <r>    1.0633    0.0000 </r>
       <r>    1.1047    0.0000 </r>
       <r>    1.2197    0.0000 </r>
       <r>    1.2722    0.0000 </r>
       <r>    1.3456    0.0000 </r>
       <r>    1.4117    0.0000 </r>
       <r>    1.4527    0.0000 </r>
       <r>    1.5555    0.0000 </r>
       <r>    1.5838    0.0000 </r>
       <r>    1.6317    0.0000 </r>
      </set>
      <set comment="kpoint 55">
       <r>   -9.4099    1.0000 </r>
       <r>   -3.5726    0.1667 </r>
       <r>   -3.5726    0.1667 </r>
       <r>   -3.5725    0.1660 </r>
       <r>   -0.1981    0.0000 </r>
       <r>    0.1619    0.0000 </r>
       <r>    0.2171    0.0000 </r>
       <r>    0.4504    0.0000 </r>
[...]
       <r>    1.2668    0.0000 </r>
       <r>    1.3109    0.0000 </r>
       <r>    1.3703    0.0000 </r>
       <r>    1.4317    0.0000 </r>
       <r>    1.4693    0.0000 </r>
       <r>    1.5317    0.0000 </r>
       <r>    1.5694    0.0000 </r>
       <r>    1.6086    0.0000 </r>
       <r>    1.6599    0.0000 </r>
      </set>
      <set comment="kpoint 93">
       <r>   -9.4099    1.0000 </r>
       <r>   -3.5727    0.1675 </r>
       <r>   -3.5726    0.1666 </r>
       <r>   -3.5725    0.1666 </r>
       <r>   -0.0956    0.0000 </r>
       <r>    0.1886    0.0000 </r>
       <r>    0.2505    0.0000 </r>
       <r>    0.3621    0.0000 </r>
       <r>    0.6062    0.0000 </r>
       <r>    0.7765    0.0000 </r>
       <r>    0.8015    0.0000 </r>
       <r>    0.8267    0.0000 </r>
       <r>    0.9329    0.0000 </r>
       <r>    0.9364    0.0000 </r>
       <r>    0.9560    0.0000 </r>
       <r>    1.0275    0.0000 </r>
       <r>    1.0851    0.0000 </r>
       <r>    1.1377    0.0000 </r>
       <r>    1.1746    0.0000 </r>
       <r>    1.3099    0.0000 </r>
       <r>    1.5358    0.0000 </r>
       <r>    1.6709    0.0000 </r>
       <r>    1.6904    0.0000 </r>
       <r>    1.7586    0.0000 </r>
      </set>
      <set comment="kpoint 94">
       <r>   -9.4099    1.0000 </r>
       <r>   -3.5727    0.1674 </r>
       <r>   -3.5726    0.1666 </r>
       <r>   -3.5726    0.1666 </r>
       <r>   -0.0823    0.0000 </r>
       <r>    0.2057    0.0000 </r>
       <r>    0.2695    0.0000 </r>
       <r>    0.3820    0.0000 </r>
       <r>    0.4843    0.0000 </r>
       <r>    0.6504    0.0000 </r>
       <r>    0.6903    0.0000 </r>
       <r>    0.8011    0.0000 </r>
       <r>    0.9597    0.0000 </r>
       <r>    0.9775    0.0000 </r>
       <r>    1.0911    0.0000 </r>
       <r>    1.1392    0.0000 </r>
       <r>    1.1530    0.0000 </r>
       <r>    1.2273    0.0000 </r>
       <r>    1.2821    0.0000 </r>
       <r>    1.3500    0.0000 </r>
       <r>    1.4176    0.0000 </r>
       <r>    1.5497    0.0000 </r>
       <r>    1.6088    0.0000 </r>
       <r>    1.7365    0.0000 </r>
      </set>
      <set comment="kpoint 95">
       <r>   -9.4099    1.0000 </r>
       <r>   -3.5727    0.1674 </r>
       <r>   -3.5726    0.1666 </r>
       <r>   -3.5726    0.1666 </r>
       <r>   -0.0604    0.0000 </r>
       <r>    0.2372    0.0000 </r>
       <r>    0.3058    0.0000 </r>
       <r>    0.3842    0.0000 </r>
       <r>    0.4209    0.0000 </r>
       <r>    0.5406    0.0000 </r>
       <r>    0.5753    0.0000 </r>
       <r>    0.6806    0.0000 </r>
       <r>    1.0082    0.0000 </r>
       <r>    1.1388    0.0000 </r>
       <r>    1.1533    0.0000 </r>
       <r>    1.1977    0.0000 </r>
       <r>    1.2949    0.0000 </r>
       <r>    1.3069    0.0000 </r>
       <r>    1.3693    0.0000 </r>
       <r>    1.4043    0.0000 </r>
       <r>    1.4452    0.0000 </r>
       <r>    1.5033    0.0000 </r>
       <r>    1.5333    0.0000 </r>
       <r>    1.6294    0.0000 </r>
      </set>
      <set comment="kpoint 96">
       <r>   -9.4099    1.0000 </r>
       <r>   -3.5727    0.1674 </r>
       <r>   -3.5726    0.1667 </r>
       <r>   -3.5726    0.1666 </r>
       <r>   -0.0416    0.0000 </r>
       <r>    0.2716    0.0000 </r>
       <r>    0.3224    0.0000 </r>
       <r>    0.3533    0.0000 </r>
       <r>    0.4578    0.0000 </r>
       <r>    0.4807    0.0000 </r>
       <r>    0.4936    0.0000 </r>
       <r>    0.5863    0.0000 </r>
       <r>    1.0454    0.0000 </r>
       <r>    1.1906    0.0000 </r>
       <r>    1.2094    0.0000 </r>
       <r>    1.2281    0.0000 </r>
       <r>    1.3361    0.0000 </r>
       <r>    1.3563    0.0000 </r>
       <r>    1.3954    0.0000 </r>
       <r>    1.4406    0.0000 </r>
       <r>    1.5143    0.0000 </r>
       <r>    1.5763    0.0000 </r>
       <r>    1.6159    0.0000 </r>
       <r>    1.6437    0.0000 </r>
      </set>
     </set>
    </set>
   </array>
  </eigenvalues>
  <separator name="orbital magnetization" >
   <v name="MAGDIPOLOUT">      0.00000000      0.00000000      0.00000000</v>
  </separator>
  <dos>
   <i name="efermi">     -3.60676677 </i>
   <total>
    <array>
     <dimension dim="1">gridpoints</dimension>
     <dimension dim="2">spin</dimension>
     <field>energy</field>
     <field>total</field>
     <field>integrated</field>
     <set>
      <set comment="spin 1">
       <r>    -9.9760     0.0000     0.0000 </r>
       <r>    -9.9345     0.0000     0.0000 </r>
       <r>    -9.8930     0.0000     0.0000 </r>
       <r>    -9.8515     0.0000     0.0000 </r>
       <r>    -9.8100     0.0000     0.0000 </r>
       <r>    -9.7684     0.0000     0.0000 </r>
       <r>    -9.7269     0.0000     0.0000 </r>
       <r>    -9.6854     0.0000     0.0000 </r>
       <r>    -9.6439     0.0000     0.0000 </r>
       <r>    -9.6024     0.0000     0.0000 </r>
       <r>    -9.5609     0.0005     0.0000 </r>
       <r>    -9.5194     0.0468     0.0020 </r>
       <r>    -9.4778     1.2695     0.0547 </r>
       <r>    -9.4363     9.6406     0.4549 </r>
       <r>    -9.3948    21.0932     1.3306 </r>
       <r>    -9.3533    13.4907     1.8907 </r>
       <r>    -9.3118     2.5008     1.9945 </r>
       <r>    -9.2703     0.1309     1.9999 </r>
       <r>    -9.2287     0.0019     2.0000 </r>
       <r>    -9.1872     0.0000     2.0000 </r>
       <r>    -9.1457     0.0000     2.0000 </r>
       <r>    -9.1042     0.0000     2.0000 </r>
       <r>    -9.0627     0.0000     2.0000 </r>
       <r>    -9.0212     0.0000     2.0000 </r>
       <r>    -8.9797     0.0000     2.0000 </r>
       <r>    -8.9381     0.0000     2.0000 </r>
       <r>    -8.8966     0.0000     2.0000 </r>
       <r>    -8.8551     0.0000     2.0000 </r>
       <r>    -8.8136     0.0000     2.0000 </r>
       <r>    -8.7721     0.0000     2.0000 </r>
       <r>    -8.7306     0.0000     2.0000 </r>
       <r>    -8.6890     0.0000     2.0000 </r>
       <r>    -8.6475     0.0000     2.0000 </r>
       <r>    -8.6060     0.0000     2.0000 </r>
       <r>    -8.5645     0.0000     2.0000 </r>
       <r>    -8.5230     0.0000     2.0000 </r>
       <r>    -8.4815     0.0000     2.0000 </r>
       <r>    -8.4400     0.0000     2.0000 </r>
       <r>    -8.3984     0.0000     2.0000 </r>
       <r>    -8.3569     0.0000     2.0000 </r>
       <r>    -8.3154     0.0000     2.0000 </r>
       <r>    -8.2739     0.0000     2.0000 </r>
       <r>    -8.2324     0.0000     2.0000 </r>
       <r>    -8.1909     0.0000     2.0000 </r>
       <r>    -8.1493     0.0000     2.0000 </r>
       <r>    -8.1078     0.0000     2.0000 </r>
       <r>    -8.0663     0.0000     2.0000 </r>
       <r>    -8.0248     0.0000     2.0000 </r>
       <r>    -7.9833     0.0000     2.0000 </r>
       <r>    -7.9418     0.0000     2.0000 </r>
       <r>    -7.9003     0.0000     2.0000 </r>
       <r>    -7.8587     0.0000     2.0000 </r>
       <r>    -7.8172     0.0000     2.0000 </r>
       <r>    -7.7757     0.0000     2.0000 </r>
       <r>    -7.7342     0.0000     2.0000 </r>
       <r>    -7.6927     0.0000     2.0000 </r>
       <r>    -7.6512     0.0000     2.0000 </r>
       <r>    -7.6096     0.0000     2.0000 </r>
       <r>    -7.5681     0.0000     2.0000 </r>
       <r>    -7.5266     0.0000     2.0000 </r>
       <r>    -7.4851     0.0000     2.0000 </r>
       <r>    -7.4436     0.0000     2.0000 </r>
       <r>    -7.4021     0.0000     2.0000 </r>
       <r>    -7.3606     0.0000     2.0000 </r>
       <r>    -7.3190     0.0000     2.0000 </r>
       <r>    -7.2775     0.0000     2.0000 </r>
       <r>    -7.2360     0.0000     2.0000 </r>
       <r>    -7.1945     0.0000     2.0000 </r>
       <r>    -7.1530     0.0000     2.0000 </r>
       <r>    -7.1115     0.0000     2.0000 </r>
       <r>    -7.0699     0.0000     2.0000 </r>
       <r>    -7.0284     0.0000     2.0000 </r>
       <r>    -6.9869     0.0000     2.0000 </r>
       <r>    -6.9454     0.0000     2.0000 </r>
       <r>    -6.9039     0.0000     2.0000 </r>
       <r>    -6.8624     0.0000     2.0000 </r>
       <r>    -6.8209     0.0000     2.0000 </r>
       <r>    -6.7793     0.0000     2.0000 </r>
       <r>    -6.7378     0.0000     2.0000 </r>
       <r>    -6.6963     0.0000     2.0000 </r>
       <r>    -6.6548     0.0000     2.0000 </r>
       <r>    -6.6133     0.0000     2.0000 </r>
       <r>    -6.5718     0.0000     2.0000 </r>
       <r>    -6.5302     0.0000     2.0000 </r>
       <r>    -6.4887     0.0000     2.0000 </r>
       <r>    -6.4472     0.0000     2.0000 </r>
       <r>    -6.4057     0.0000     2.0000 </r>
       <r>    -6.3642     0.0000     2.0000 </r>
       <r>    -6.3227     0.0000     2.0000 </r>
       <r>    -6.2812     0.0000     2.0000 </r>
       <r>    -6.2396     0.0000     2.0000 </r>
       <r>    -6.1981     0.0000     2.0000 </r>
       <r>    -6.1566     0.0000     2.0000 </r>
       <r>    -6.1151     0.0000     2.0000 </r>
       <r>    -6.0736     0.0000     2.0000 </r>
       <r>    -6.0321     0.0000     2.0000 </r>
       <r>    -5.9906     0.0000     2.0000 </r>
       <r>    -5.9490     0.0000     2.0000 </r>
       <r>    -5.9075     0.0000     2.0000 </r>
       <r>    -5.8660     0.0000     2.0000 </r>
       <r>    -5.8245     0.0000     2.0000 </r>
       <r>    -5.7830     0.0000     2.0000 </r>
       <r>    -5.7415     0.0000     2.0000 </r>
       <r>    -5.6999     0.0000     2.0000 </r>
       <r>    -5.6584     0.0000     2.0000 </r>
       <r>    -5.6169     0.0000     2.0000 </r>
       <r>    -5.5754     0.0000     2.0000 </r>
       <r>    -5.5339     0.0000     2.0000 </r>
       <r>    -5.4924     0.0000     2.0000 </r>
       <r>    -5.4509     0.0000     2.0000 </r>
       <r>    -5.4093     0.0000     2.0000 </r>
       <r>    -5.3678     0.0000     2.0000 </r>
       <r>    -5.3263     0.0000     2.0000 </r>
       <r>    -5.2848     0.0000     2.0000 </r>
       <r>    -5.2433     0.0000     2.0000 </r>
       <r>    -5.2018     0.0000     2.0000 </r>
       <r>    -5.1602     0.0000     2.0000 </r>
       <r>    -5.1187     0.0000     2.0000 </r>
       <r>    -5.0772     0.0000     2.0000 </r>
       <r>    -5.0357     0.0000     2.0000 </r>
       <r>    -4.9942     0.0000     2.0000 </r>
       <r>    -4.9527     0.0000     2.0000 </r>
       <r>    -4.9112     0.0000     2.0000 </r>
       <r>    -4.8696     0.0000     2.0000 </r>
       <r>    -4.8281     0.0000     2.0000 </r>
       <r>    -4.7866     0.0000     2.0000 </r>
       <r>    -4.7451     0.0000     2.0000 </r>
       <r>    -4.7036     0.0000     2.0000 </r>
       <r>    -4.6621     0.0000     2.0000 </r>
       <r>    -4.6205     0.0000     2.0000 </r>
       <r>    -4.5790     0.0000     2.0000 </r>
       <r>    -4.5375     0.0000     2.0000 </r>
       <r>    -4.4960     0.0000     2.0000 </r>
       <r>    -4.4545     0.0000     2.0000 </r>
       <r>    -4.4130     0.0000     2.0000 </r>
       <r>    -4.3715     0.0000     2.0000 </r>
       <r>    -4.3299     0.0000     2.0000 </r>
       <r>    -4.2884     0.0000     2.0000 </r>
       <r>    -4.2469     0.0000     2.0000 </r>
       <r>    -4.2054     0.0000     2.0000 </r>
       <r>    -4.1639     0.0000     2.0000 </r>
       <r>    -4.1224     0.0000     2.0000 </r>
       <r>    -4.0808     0.0000     2.0000 </r>
       <r>    -4.0393     0.0000     2.0000 </r>
       <r>    -3.9978     0.0000     2.0000 </r>
       <r>    -3.9563     0.0000     2.0000 </r>
       <r>    -3.9148     0.0000     2.0000 </r>
       <r>    -3.8733     0.0000     2.0000 </r>
       <r>    -3.8318     0.0000     2.0000 </r>
       <r>    -3.7902     0.0000     2.0000 </r>
       <r>    -3.7487     0.0000     2.0000 </r>
       <r>    -3.7072     0.0101     2.0004 </r>
       <r>    -3.6657     0.5996     2.0253 </r>
       <r>    -3.6242     9.8206     2.4330 </r>
       <r>    -3.5827    45.5869     4.3256 </r>
       <r>    -3.5411    61.4673     6.8774 </r>
       <r>    -3.4996    24.2132     7.8826 </r>
       <r>    -3.4581     2.7400     7.9964 </r>
       <r>    -3.4166     0.0865     8.0000 </r>
       <r>    -3.3751     0.0007     8.0000 </r>
       <r>    -3.3336     0.0000     8.0000 </r>
       <r>    -3.2921     0.0000     8.0000 </r>
       <r>    -3.2505     0.0000     8.0000 </r>
       <r>    -3.2090     0.0000     8.0000 </r>
       <r>    -3.1675     0.0000     8.0000 </r>
       <r>    -3.1260     0.0000     8.0000 </r>
       <r>    -3.0845     0.0000     8.0000 </r>
       <r>    -3.0430     0.0000     8.0000 </r>
       <r>    -3.0014     0.0000     8.0000 </r>
       <r>    -2.9599     0.0000     8.0000 </r>
       <r>    -2.9184     0.0000     8.0000 </r>
       <r>    -2.8769     0.0000     8.0000 </r>
       <r>    -2.8354     0.0000     8.0000 </r>
       <r>    -2.7939     0.0000     8.0000 </r>
       <r>    -2.7524     0.0000     8.0000 </r>
       <r>    -2.7108     0.0000     8.0000 </r>
       <r>    -2.6693     0.0000     8.0000 </r>
       <r>    -2.6278     0.0000     8.0000 </r>
       <r>    -2.5863     0.0000     8.0000 </r>
       <r>    -2.5448     0.0000     8.0000 </r>
       <r>    -2.5033     0.0000     8.0000 </r>
       <r>    -2.4617     0.0000     8.0000 </r>
       <r>    -2.4202     0.0000     8.0000 </r>
       <r>    -2.3787     0.0000     8.0000 </r>
       <r>    -2.3372     0.0000     8.0000 </r>
       <r>    -2.2957     0.0000     8.0000 </r>
       <r>    -2.2542     0.0000     8.0000 </r>
       <r>    -2.2127     0.0000     8.0000 </r>
       <r>    -2.1711     0.0000     8.0000 </r>
       <r>    -2.1296     0.0000     8.0000 </r>
       <r>    -2.0881     0.0000     8.0000 </r>
       <r>    -2.0466     0.0000     8.0000 </r>
       <r>    -2.0051     0.0000     8.0000 </r>
       <r>    -1.9636     0.0000     8.0000 </r>
       <r>    -1.9220     0.0000     8.0000 </r>
       <r>    -1.8805     0.0000     8.0000 </r>
       <r>    -1.8390     0.0000     8.0000 </r>
       <r>    -1.7975     0.0000     8.0000 </r>
       <r>    -1.7560     0.0000     8.0000 </r>
       <r>    -1.7145     0.0000     8.0000 </r>
       <r>    -1.6730     0.0000     8.0000 </r>
       <r>    -1.6314     0.0000     8.0000 </r>
       <r>    -1.5899     0.0000     8.0000 </r>
       <r>    -1.5484     0.0000     8.0000 </r>
       <r>    -1.5069     0.0000     8.0000 </r>
       <r>    -1.4654     0.0000     8.0000 </r>
       <r>    -1.4239     0.0000     8.0000 </r>
       <r>    -1.3823     0.0000     8.0000 </r>
       <r>    -1.3408     0.0000     8.0000 </r>
       <r>    -1.2993     0.0000     8.0000 </r>
       <r>    -1.2578     0.0000     8.0000 </r>
       <r>    -1.2163     0.0000     8.0000 </r>
       <r>    -1.1748     0.0000     8.0000 </r>
       <r>    -1.1333     0.0000     8.0000 </r>
       <r>    -1.0917     0.0000     8.0000 </r>
       <r>    -1.0502     0.0000     8.0000 </r>
       <r>    -1.0087     0.0000     8.0000 </r>
       <r>    -0.9672     0.0000     8.0000 </r>
       <r>    -0.9257     0.0000     8.0000 </r>
       <r>    -0.8842     0.0000     8.0000 </r>
       <r>    -0.8426     0.0000     8.0000 </r>
       <r>    -0.8011     0.0000     8.0000 </r>
       <r>    -0.7596     0.0000     8.0000 </r>
       <r>    -0.7181     0.0000     8.0000 </r>
       <r>    -0.6766     0.0000     8.0000 </r>
       <r>    -0.6351     0.0000     8.0000 </r>
       <r>    -0.5936     0.0000     8.0000 </r>
       <r>    -0.5520     0.0000     8.0000 </r>
       <r>    -0.5105     0.0000     8.0000 </r>
       <r>    -0.4690     0.0000     8.0000 </r>
       <r>    -0.4275     0.0000     8.0000 </r>
       <r>    -0.3860     0.0002     8.0000 </r>
       <r>    -0.3445     0.0134     8.0006 </r>
       <r>    -0.3029     0.2761     8.0120 </r>
       <r>    -0.2614     2.0418     8.0968 </r>
       <r>    -0.2199     6.3538     8.3606 </r>
       <r>    -0.1784    10.2248     8.7851 </r>
       <r>    -0.1369    10.7363     9.2308 </r>
       <r>    -0.0954     9.1840     9.6121 </r>
       <r>    -0.0539     6.2362     9.8709 </r>
       <r>    -0.0123     2.5835     9.9782 </r>
       <r>     0.0292     0.7130    10.0078 </r>
       <r>     0.0707     1.4251    10.0670 </r>
       <r>     0.1122     4.5000    10.2538 </r>
       <r>     0.1537     9.0076    10.6277 </r>
       <r>     0.1952    13.1071    11.1719 </r>
       <r>     0.2368    15.4061    11.8115 </r>
       <r>     0.2783    15.6221    12.4600 </r>
       <r>     0.3198    15.9955    13.1241 </r>
       <r>     0.3613    16.1905    13.7962 </r>
       <r>     0.4028    16.1865    14.4682 </r>
       <r>     0.4443    17.1763    15.1813 </r>
       <r>     0.4858    18.5319    15.9507 </r>
       <r>     0.5274    18.6350    16.7243 </r>
       <r>     0.5689    18.3872    17.4877 </r>
       <r>     0.6104    19.3046    18.2891 </r>
       <r>     0.6519    20.9636    19.1594 </r>
       <r>     0.6934    21.2370    20.0411 </r>
       <r>     0.7349    20.8241    20.9056 </r>
       <r>     0.7765    22.0346    21.8204 </r>
       <r>     0.8180    23.4403    22.7935 </r>
       <r>     0.8595    23.2035    23.7568 </r>
       <r>     0.9010    22.8237    24.7043 </r>
       <r>     0.9425    24.0352    25.7022 </r>
       <r>     0.9840    25.6537    26.7672 </r>
       <r>     1.0255    25.5570    27.8282 </r>
       <r>     1.0671    25.8457    28.9012 </r>
       <r>     1.1086    26.2792    29.9922 </r>
       <r>     1.1501    26.0788    31.0748 </r>
       <r>     1.1916    27.0782    32.1990 </r>
       <r>     1.2331    28.1083    33.3659 </r>
       <r>     1.2746    27.7053    34.5161 </r>
       <r>     1.3161    27.8009    35.6703 </r>
       <r>     1.3577    28.8730    36.8689 </r>
       <r>     1.3992    28.5635    38.0548 </r>
       <r>     1.4407    28.2858    39.2291 </r>
       <r>     1.4822    29.7862    40.4656 </r>
       <r>     1.5237    30.7360    41.7417 </r>
       <r>     1.5652    31.4483    43.0473 </r>
       <r>     1.6068    30.6684    44.3205 </r>
       <r>     1.6483    28.1626    45.4896 </r>
       <r>     1.6898    22.1081    46.4075 </r>
       <r>     1.7313    16.0054    47.0719 </r>
       <r>     1.7728    10.8458    47.5222 </r>
       <r>     1.8143     6.3833    47.7872 </r>
       <r>     1.8558     3.1535    47.9181 </r>
       <r>     1.8974     1.3405    47.9738 </r>
       <r>     1.9389     0.4950    47.9943 </r>
       <r>     1.9804     0.1233    47.9995 </r>
       <r>     2.0219     0.0128    48.0000 </r>
       <r>     2.0634     0.0004    48.0000 </r>
       <r>     2.1049     0.0000    48.0000 </r>
       <r>     2.1465     0.0000    48.0000 </r>
       <r>     2.1880     0.0000    48.0000 </r>
       <r>     2.2295     0.0000    48.0000 </r>
       <r>     2.2710     0.0000    48.0000 </r>
       <r>     2.3125     0.0000    48.0000 </r>
       <r>     2.3540     0.0000    48.0000 </r>
       <r>     2.3955     0.0000    48.0000 </r>
       <r>     2.4371     0.0000    48.0000 </r>
       <r>     2.4786     0.0000    48.0000 </r>
      </set>
     </set>
    </array>
   </total>
  </dos>
 </calculation>
 <structure name="finalpos" >
  <crystal>
   <varray name="basis" >
    <v>      15.00000000       0.00000000       0.00000000 </v>
    <v>       0.00000000      12.50000000       0.00000000 </v>
    <v>       0.00000000       0.00000000      18.00000000 </v>
   </varray>
   <i name="volume">   3375.00000000 </i>
   <varray name="rec_basis" >
    <v>       0.06666667       0.00000000       0.00000000 </v>
    <v>       0.00000000       0.08000000       0.00000000 </v>
    <v>       0.00000000       0.00000000       0.05555556 </v>
   </varray>
  </crystal>
  <varray name="positions" >
   <v>       0.52123000       0.54500000       0.63796000 </v>
  </varray>
 </structure>
</modeling>
