  14  14   0   0
  0.1021960E+02  0.5697000E-09  0.4047900E-09  0.6204200E-09  0.5000000E-15
  1.000000000000000E-004
  CAR 
 Kpoints                                 
     17.96156147    -14.19145220  301      1.84050987      1.00000000
    -14.191  0.0000E+00  0.0000E+00
    -14.084  0.0000E+00  0.0000E+00
    -13.977  0.0000E+00  0.0000E+00
    -13.870  0.0000E+00  0.0000E+00
    -13.763  0.0000E+00  0.0000E+00
    -13.656  0.0000E+00  0.0000E+00
    -13.548  0.0000E+00  0.0000E+00
    -13.441  0.0000E+00  0.0000E+00
    -13.334  0.0000E+00  0.0000E+00
    -13.227  0.0000E+00  0.0000E+00
    -13.120  0.0000E+00  0.0000E+00
    -13.013  0.2656E-16  0.2847E-17
    -12.905  0.1809E-07  0.1938E-08
    -12.798  0.2610E-02  0.2797E-03
    -12.691  0.4477E+00  0.4826E-01
    -12.584  0.2313E+01  0.2961E+00
    -12.477  0.3493E+01  0.6705E+00
    -12.369  0.4357E+01  0.1137E+01
    -12.262  0.3633E+01  0.1527E+01
    -12.155  0.2697E+01  0.1816E+01
    -12.048  0.2909E+01  0.2128E+01
    -11.941  0.2311E+01  0.2375E+01
    -11.834  0.2971E+01  0.2694E+01
    -11.726  0.3255E+01  0.3043E+01
    -11.619  0.3607E+01  0.3429E+01
    -11.512  0.3160E+01  0.3768E+01
    -11.405  0.1691E+01  0.3949E+01
    -11.298  0.4637E+00  0.3999E+01
    -11.191  0.9356E-02  0.4000E+01
    -11.083  0.4716E-06  0.4000E+01
    -10.976  0.4799E-14  0.4000E+01
    -10.869  0.0000E+00  0.4000E+01
    -10.762  0.0000E+00  0.4000E+01
    -10.655  0.0000E+00  0.4000E+01
    -10.547  0.0000E+00  0.4000E+01
    -10.440  0.0000E+00  0.4000E+01
    -10.333  0.0000E+00  0.4000E+01
    -10.226  0.0000E+00  0.4000E+01
    -10.119  0.0000E+00  0.4000E+01
    -10.012  0.0000E+00  0.4000E+01
     -9.904  0.0000E+00  0.4000E+01
     -9.797  0.0000E+00  0.4000E+01
     -9.690  0.0000E+00  0.4000E+01
     -9.583  0.0000E+00  0.4000E+01
     -9.476  0.0000E+00  0.4000E+01
     -9.369  0.0000E+00  0.4000E+01
     -9.261  0.0000E+00  0.4000E+01
     -9.154  0.0000E+00  0.4000E+01
     -9.047  0.9590E-10  0.4000E+01
     -8.940  0.1927E-03  0.4000E+01
     -8.833  0.1703E+00  0.4018E+01
     -8.725  0.1811E+01  0.4212E+01
     -8.618  0.4862E+01  0.4733E+01
     -8.511  0.6944E+01  0.5478E+01
     -8.404  0.6574E+01  0.6182E+01
     -8.297  0.5297E+01  0.6750E+01
     -8.190  0.5022E+01  0.7288E+01
     -8.082  0.4012E+01  0.7718E+01
     -7.975  0.1875E+01  0.7919E+01
     -7.868  0.6803E+00  0.7992E+01
     -7.761  0.7418E-01  0.8000E+01
     -7.654  0.1062E-03  0.8000E+01
     -7.546  0.5595E-10  0.8000E+01
     -7.439  0.0000E+00  0.8000E+01
     -7.332  0.0000E+00  0.8000E+01
     -7.225  0.2213E-17  0.8000E+01
     -7.118  0.2853E-08  0.8000E+01
     -7.011  0.7444E-03  0.8000E+01
     -6.903  0.9252E-01  0.8010E+01
     -6.796  0.1764E+00  0.8029E+01
     -6.689  0.5006E+00  0.8083E+01
     -6.582  0.7379E+00  0.8162E+01
     -6.475  0.7676E+00  0.8244E+01
     -6.368  0.1229E+01  0.8376E+01
     -6.260  0.2424E+01  0.8635E+01
     -6.153  0.2705E+01  0.8925E+01
     -6.046  0.3790E+01  0.9332E+01
     -5.939  0.4195E+01  0.9781E+01
     -5.832  0.3573E+01  0.1016E+02
     -5.724  0.4466E+01  0.1064E+02
     -5.617  0.4348E+01  0.1111E+02
     -5.510  0.3721E+01  0.1151E+02
     -5.403  0.4320E+01  0.1197E+02
     -5.296  0.4984E+01  0.1250E+02
     -5.189  0.4498E+01  0.1299E+02
     -5.081  0.3864E+01  0.1340E+02
     -4.974  0.3384E+01  0.1376E+02
     -4.867  0.2550E+01  0.1404E+02
     -4.760  0.2228E+01  0.1428E+02
     -4.653  0.3123E+01  0.1461E+02
     -4.546  0.3548E+01  0.1499E+02
     -4.438  0.3492E+01  0.1536E+02
     -4.331  0.3105E+01  0.1570E+02
     -4.224  0.2572E+01  0.1597E+02
     -4.117  0.2923E+01  0.1629E+02
     -4.010  0.3169E+01  0.1663E+02
     -3.902  0.3375E+01  0.1699E+02
     -3.795  0.3072E+01  0.1732E+02
     -3.688  0.3009E+01  0.1764E+02
     -3.581  0.2156E+01  0.1787E+02
     -3.474  0.2217E+01  0.1811E+02
     -3.367  0.2939E+01  0.1842E+02
     -3.259  0.3609E+01  0.1881E+02
     -3.152  0.3092E+01  0.1914E+02
     -3.045  0.2684E+01  0.1943E+02
     -2.938  0.2376E+01  0.1968E+02
     -2.831  0.2544E+01  0.1996E+02
     -2.724  0.2724E+01  0.2025E+02
     -2.616  0.2657E+01  0.2053E+02
     -2.509  0.3171E+01  0.2087E+02
     -2.402  0.3501E+01  0.2125E+02
     -2.295  0.3903E+01  0.2167E+02
     -2.188  0.2976E+01  0.2199E+02
     -2.080  0.2945E+01  0.2230E+02
     -1.973  0.4146E+01  0.2275E+02
     -1.866  0.4435E+01  0.2322E+02
     -1.759  0.5903E+01  0.2385E+02
     -1.652  0.6630E+01  0.2456E+02
     -1.545  0.5425E+01  0.2515E+02
     -1.437  0.5227E+01  0.2571E+02
     -1.330  0.5979E+01  0.2635E+02
     -1.223  0.6013E+01  0.2699E+02
     -1.116  0.4894E+01  0.2752E+02
     -1.009  0.4089E+01  0.2795E+02
     -0.902  0.3007E+01  0.2828E+02
     -0.794  0.3364E+01  0.2864E+02
     -0.687  0.2689E+01  0.2892E+02
     -0.580  0.3533E+01  0.2930E+02
     -0.473  0.5599E+01  0.2990E+02
     -0.366  0.6820E+01  0.3063E+02
     -0.258  0.7168E+01  0.3140E+02
     -0.151  0.6608E+01  0.3211E+02
     -0.044  0.6200E+01  0.3278E+02
      0.063  0.6555E+01  0.3348E+02
      0.170  0.7232E+01  0.3425E+02
      0.277  0.7260E+01  0.3503E+02
      0.385  0.8419E+01  0.3593E+02
      0.492  0.9053E+01  0.3690E+02
      0.599  0.5341E+01  0.3748E+02
      0.706  0.3621E+01  0.3786E+02
      0.813  0.2992E+01  0.3818E+02
      0.920  0.3299E+01  0.3854E+02
      1.028  0.3305E+01  0.3889E+02
      1.135  0.3460E+01  0.3926E+02
      1.242  0.4640E+01  0.3976E+02
      1.349  0.3721E+01  0.4016E+02
      1.456  0.3077E+01  0.4049E+02
      1.564  0.2982E+01  0.4081E+02
      1.671  0.4270E+01  0.4127E+02
      1.778  0.4793E+01  0.4178E+02
      1.885  0.3284E+01  0.4213E+02
      1.992  0.2090E+01  0.4236E+02
      2.099  0.2004E+01  0.4257E+02
      2.207  0.1990E+01  0.4278E+02
      2.314  0.1899E+01  0.4299E+02
      2.421  0.1770E+01  0.4318E+02
      2.528  0.1680E+01  0.4336E+02
      2.635  0.1037E+01  0.4347E+02
      2.742  0.4276E+00  0.4351E+02
      2.850  0.4274E+00  0.4356E+02
      2.957  0.5752E+00  0.4362E+02
      3.064  0.2447E+00  0.4365E+02
      3.171  0.3224E+00  0.4368E+02
      3.278  0.4548E+00  0.4373E+02
      3.386  0.6425E+00  0.4380E+02
      3.493  0.4987E+00  0.4385E+02
      3.600  0.5635E+00  0.4391E+02
      3.707  0.2611E+00  0.4394E+02
      3.814  0.2195E-01  0.4394E+02
      3.921  0.1394E+00  0.4396E+02
      4.029  0.3221E+00  0.4399E+02
      4.136  0.5569E-01  0.4400E+02
      4.243  0.1725E-01  0.4400E+02
      4.350  0.1872E+00  0.4402E+02
      4.457  0.3264E+00  0.4406E+02
      4.564  0.4203E+00  0.4410E+02
      4.672  0.6535E+00  0.4417E+02
      4.779  0.9477E+00  0.4427E+02
      4.886  0.8014E+00  0.4436E+02
      4.993  0.8781E+00  0.4445E+02
      5.100  0.1093E+01  0.4457E+02
      5.208  0.1311E+01  0.4471E+02
      5.315  0.1453E+01  0.4487E+02
      5.422  0.2205E+01  0.4510E+02
      5.529  0.2486E+01  0.4537E+02
      5.636  0.2690E+01  0.4566E+02
      5.743  0.3181E+01  0.4600E+02
      5.851  0.3094E+01  0.4633E+02
      5.958  0.4613E+01  0.4683E+02
      6.065  0.4635E+01  0.4732E+02
      6.172  0.4091E+01  0.4776E+02
      6.279  0.4385E+01  0.4823E+02
      6.386  0.4194E+01  0.4868E+02
      6.494  0.3893E+01  0.4910E+02
      6.601  0.4767E+01  0.4961E+02
      6.708  0.3631E+01  0.5000E+02
      6.815  0.3627E+01  0.5039E+02
      6.922  0.4719E+01  0.5089E+02
      7.030  0.3869E+01  0.5131E+02
      7.137  0.5420E+01  0.5189E+02
      7.244  0.5234E+01  0.5245E+02
      7.351  0.4232E+01  0.5290E+02
      7.458  0.5211E+01  0.5346E+02
      7.565  0.3805E+01  0.5387E+02
      7.673  0.3808E+01  0.5428E+02
      7.780  0.3249E+01  0.5462E+02
      7.887  0.3341E+01  0.5498E+02
      7.994  0.3243E+01  0.5533E+02
      8.101  0.2945E+01  0.5565E+02
      8.208  0.3981E+01  0.5607E+02
      8.316  0.4106E+01  0.5651E+02
      8.423  0.4048E+01  0.5695E+02
      8.530  0.4143E+01  0.5739E+02
      8.637  0.4337E+01  0.5786E+02
      8.744  0.4782E+01  0.5837E+02
      8.852  0.4348E+01  0.5883E+02
      8.959  0.5171E+01  0.5939E+02
      9.066  0.5660E+01  0.5999E+02
      9.173  0.4878E+01  0.6052E+02
      9.280  0.4719E+01  0.6102E+02
      9.387  0.4800E+01  0.6154E+02
      9.495  0.5145E+01  0.6209E+02
      9.602  0.4704E+01  0.6259E+02
      9.709  0.4801E+01  0.6311E+02
      9.816  0.5218E+01  0.6367E+02
      9.923  0.4775E+01  0.6418E+02
     10.030  0.4499E+01  0.6466E+02
     10.138  0.4364E+01  0.6513E+02
     10.245  0.3459E+01  0.6550E+02
     10.352  0.5261E+01  0.6606E+02
     10.459  0.5593E+01  0.6666E+02
     10.566  0.5175E+01  0.6722E+02
     10.674  0.4404E+01  0.6769E+02
     10.781  0.4044E+01  0.6812E+02
     10.888  0.3135E+01  0.6846E+02
     10.995  0.4835E+01  0.6898E+02
     11.102  0.5246E+01  0.6954E+02
     11.209  0.6625E+01  0.7025E+02
     11.317  0.5580E+01  0.7085E+02
     11.424  0.5204E+01  0.7140E+02
     11.531  0.4138E+01  0.7185E+02
     11.638  0.4767E+01  0.7236E+02
     11.745  0.4878E+01  0.7288E+02
     11.852  0.4753E+01  0.7339E+02
     11.960  0.6403E+01  0.7408E+02
     12.067  0.6170E+01  0.7474E+02
     12.174  0.5841E+01  0.7537E+02
     12.281  0.4623E+01  0.7586E+02
     12.388  0.5982E+01  0.7650E+02
     12.496  0.5244E+01  0.7706E+02
     12.603  0.6271E+01  0.7774E+02
     12.710  0.5592E+01  0.7834E+02
     12.817  0.6399E+01  0.7902E+02
     12.924  0.5639E+01  0.7963E+02
     13.031  0.5906E+01  0.8026E+02
     13.139  0.5732E+01  0.8087E+02
     13.246  0.6420E+01  0.8156E+02
     13.353  0.6213E+01  0.8223E+02
     13.460  0.4895E+01  0.8275E+02
     13.567  0.5655E+01  0.8336E+02
     13.674  0.5075E+01  0.8390E+02
     13.782  0.6441E+01  0.8459E+02
     13.889  0.5045E+01  0.8513E+02
     13.996  0.5481E+01  0.8572E+02
     14.103  0.5526E+01  0.8631E+02
     14.210  0.4552E+01  0.8680E+02
     14.318  0.5456E+01  0.8738E+02
     14.425  0.4604E+01  0.8788E+02
     14.532  0.4881E+01  0.8840E+02
     14.639  0.5217E+01  0.8896E+02
     14.746  0.5295E+01  0.8953E+02
     14.853  0.4268E+01  0.8999E+02
     14.961  0.4420E+01  0.9046E+02
     15.068  0.6858E+01  0.9119E+02
     15.175  0.5972E+01  0.9183E+02
     15.282  0.4973E+01  0.9237E+02
     15.389  0.5787E+01  0.9299E+02
     15.496  0.6154E+01  0.9365E+02
     15.604  0.6014E+01  0.9429E+02
     15.711  0.4737E+01  0.9480E+02
     15.818  0.2779E+01  0.9510E+02
     15.925  0.1927E+01  0.9530E+02
     16.032  0.2026E+01  0.9552E+02
     16.140  0.1674E+01  0.9570E+02
     16.247  0.9091E+00  0.9580E+02
     16.354  0.1164E+01  0.9592E+02
     16.461  0.4830E+00  0.9597E+02
     16.568  0.2357E+00  0.9600E+02
     16.675  0.5329E-02  0.9600E+02
     16.783  0.6161E-07  0.9600E+02
     16.890  0.1062E-15  0.9600E+02
     16.997  0.0000E+00  0.9600E+02
     17.104  0.0000E+00  0.9600E+02
     17.211  0.0000E+00  0.9600E+02
     17.319  0.0000E+00  0.9600E+02
     17.426  0.0000E+00  0.9600E+02
     17.533  0.0000E+00  0.9600E+02
     17.640  0.0000E+00  0.9600E+02
     17.747  0.0000E+00  0.9600E+02
     17.854  0.0000E+00  0.9600E+02
     17.962  0.0000E+00  0.9600E+02
