  14  14   0   0
  0.1025643E+02  0.5703836E-09  0.4052758E-09  0.6211645E-09  0.5000000E-15
  1.000000000000000E-004
  CAR 
 Convergence                             
     17.91354166    -14.17950399  301      1.86319944      1.00000000
    -14.180  0.0000E+00  0.0000E+00
    -14.073  0.0000E+00  0.0000E+00
    -13.966  0.0000E+00  0.0000E+00
    -13.859  0.0000E+00  0.0000E+00
    -13.752  0.0000E+00  0.0000E+00
    -13.645  0.0000E+00  0.0000E+00
    -13.538  0.0000E+00  0.0000E+00
    -13.431  0.0000E+00  0.0000E+00
    -13.324  0.0000E+00  0.0000E+00
    -13.217  0.0000E+00  0.0000E+00
    -13.110  0.0000E+00  0.0000E+00
    -13.003  0.5271E-16  0.5639E-17
    -12.896  0.3145E-07  0.3365E-08
    -12.789  0.3873E-02  0.4143E-03
    -12.682  0.5099E+00  0.5497E-01
    -12.575  0.2394E+01  0.3111E+00
    -12.468  0.3573E+01  0.6933E+00
    -12.361  0.4378E+01  0.1162E+01
    -12.254  0.3539E+01  0.1540E+01
    -12.147  0.2737E+01  0.1833E+01
    -12.040  0.2755E+01  0.2128E+01
    -11.933  0.2500E+01  0.2395E+01
    -11.826  0.2772E+01  0.2692E+01
    -11.719  0.3413E+01  0.3057E+01
    -11.612  0.3537E+01  0.3435E+01
    -11.505  0.3136E+01  0.3771E+01
    -11.398  0.1695E+01  0.3952E+01
    -11.291  0.4413E+00  0.3999E+01
    -11.184  0.8469E-02  0.4000E+01
    -11.077  0.2516E-06  0.4000E+01
    -10.970  0.1746E-14  0.4000E+01
    -10.863  0.0000E+00  0.4000E+01
    -10.756  0.0000E+00  0.4000E+01
    -10.649  0.0000E+00  0.4000E+01
    -10.542  0.0000E+00  0.4000E+01
    -10.435  0.0000E+00  0.4000E+01
    -10.328  0.0000E+00  0.4000E+01
    -10.221  0.0000E+00  0.4000E+01
    -10.114  0.0000E+00  0.4000E+01
    -10.007  0.0000E+00  0.4000E+01
     -9.900  0.0000E+00  0.4000E+01
     -9.793  0.0000E+00  0.4000E+01
     -9.686  0.0000E+00  0.4000E+01
     -9.580  0.0000E+00  0.4000E+01
     -9.473  0.0000E+00  0.4000E+01
     -9.366  0.0000E+00  0.4000E+01
     -9.259  0.0000E+00  0.4000E+01
     -9.152  0.0000E+00  0.4000E+01
     -9.045  0.1074E-08  0.4000E+01
     -8.938  0.6572E-03  0.4000E+01
     -8.831  0.2812E+00  0.4030E+01
     -8.724  0.2109E+01  0.4256E+01
     -8.617  0.5373E+01  0.4831E+01
     -8.510  0.7012E+01  0.5581E+01
     -8.403  0.6285E+01  0.6253E+01
     -8.296  0.5329E+01  0.6823E+01
     -8.189  0.4846E+01  0.7342E+01
     -8.082  0.3864E+01  0.7755E+01
     -7.975  0.1662E+01  0.7933E+01
     -7.868  0.5767E+00  0.7994E+01
     -7.761  0.5212E-01  0.8000E+01
     -7.654  0.2471E-04  0.8000E+01
     -7.547  0.2950E-11  0.8000E+01
     -7.440  0.0000E+00  0.8000E+01
     -7.333  0.0000E+00  0.8000E+01
     -7.226  0.0000E+00  0.8000E+01
     -7.119  0.4245E-09  0.8000E+01
     -7.012  0.3638E-03  0.8000E+01
     -6.905  0.1102E+00  0.8012E+01
     -6.798  0.2594E+00  0.8040E+01
     -6.691  0.4245E+00  0.8085E+01
     -6.584  0.7664E+00  0.8167E+01
     -6.477  0.8456E+00  0.8257E+01
     -6.370  0.1434E+01  0.8411E+01
     -6.263  0.1938E+01  0.8618E+01
     -6.156  0.3052E+01  0.8945E+01
     -6.049  0.3799E+01  0.9351E+01
     -5.942  0.4123E+01  0.9792E+01
     -5.835  0.4053E+01  0.1023E+02
     -5.728  0.3885E+01  0.1064E+02
     -5.621  0.4076E+01  0.1108E+02
     -5.514  0.4217E+01  0.1153E+02
     -5.407  0.4566E+01  0.1202E+02
     -5.300  0.4623E+01  0.1251E+02
     -5.193  0.4498E+01  0.1299E+02
     -5.086  0.3883E+01  0.1341E+02
     -4.979  0.3222E+01  0.1375E+02
     -4.873  0.2974E+01  0.1407E+02
     -4.766  0.2309E+01  0.1432E+02
     -4.659  0.2898E+01  0.1463E+02
     -4.552  0.3373E+01  0.1499E+02
     -4.445  0.3448E+01  0.1536E+02
     -4.338  0.3362E+01  0.1572E+02
     -4.231  0.2963E+01  0.1603E+02
     -4.124  0.2912E+01  0.1635E+02
     -4.017  0.2932E+01  0.1666E+02
     -3.910  0.2883E+01  0.1697E+02
     -3.803  0.3107E+01  0.1730E+02
     -3.696  0.2897E+01  0.1761E+02
     -3.589  0.2708E+01  0.1790E+02
     -3.482  0.3078E+01  0.1823E+02
     -3.375  0.2659E+01  0.1851E+02
     -3.268  0.2832E+01  0.1882E+02
     -3.161  0.2792E+01  0.1911E+02
     -3.054  0.2712E+01  0.1940E+02
     -2.947  0.3082E+01  0.1973E+02
     -2.840  0.2986E+01  0.2005E+02
     -2.733  0.2446E+01  0.2032E+02
     -2.626  0.2637E+01  0.2060E+02
     -2.519  0.3011E+01  0.2092E+02
     -2.412  0.3004E+01  0.2124E+02
     -2.305  0.3182E+01  0.2158E+02
     -2.198  0.4001E+01  0.2201E+02
     -2.091  0.3657E+01  0.2240E+02
     -1.984  0.3212E+01  0.2274E+02
     -1.877  0.4997E+01  0.2328E+02
     -1.770  0.5532E+01  0.2387E+02
     -1.663  0.5649E+01  0.2447E+02
     -1.556  0.6171E+01  0.2514E+02
     -1.449  0.6148E+01  0.2579E+02
     -1.342  0.5613E+01  0.2639E+02
     -1.235  0.4688E+01  0.2689E+02
     -1.128  0.6488E+01  0.2759E+02
     -1.021  0.4167E+01  0.2803E+02
     -0.914  0.2287E+01  0.2828E+02
     -0.807  0.2706E+01  0.2857E+02
     -0.700  0.2884E+01  0.2888E+02
     -0.593  0.4432E+01  0.2935E+02
     -0.486  0.6818E+01  0.3008E+02
     -0.379  0.5681E+01  0.3069E+02
     -0.273  0.6639E+01  0.3140E+02
     -0.166  0.6383E+01  0.3208E+02
     -0.059  0.6735E+01  0.3280E+02
      0.048  0.6833E+01  0.3353E+02
      0.155  0.6240E+01  0.3420E+02
      0.262  0.8836E+01  0.3515E+02
      0.369  0.8097E+01  0.3601E+02
      0.476  0.8679E+01  0.3694E+02
      0.583  0.5391E+01  0.3752E+02
      0.690  0.3012E+01  0.3784E+02
      0.797  0.3231E+01  0.3818E+02
      0.904  0.3592E+01  0.3857E+02
      1.011  0.3583E+01  0.3895E+02
      1.118  0.2808E+01  0.3925E+02
      1.225  0.3363E+01  0.3961E+02
      1.332  0.4474E+01  0.4009E+02
      1.439  0.3821E+01  0.4050E+02
      1.546  0.3699E+01  0.4090E+02
      1.653  0.4590E+01  0.4139E+02
      1.760  0.3350E+01  0.4175E+02
      1.867  0.2475E+01  0.4201E+02
      1.974  0.2679E+01  0.4230E+02
      2.081  0.2097E+01  0.4252E+02
      2.188  0.2648E+01  0.4280E+02
      2.295  0.2610E+01  0.4308E+02
      2.402  0.1978E+01  0.4329E+02
      2.509  0.9039E+00  0.4339E+02
      2.616  0.3798E+00  0.4343E+02
      2.723  0.5755E+00  0.4349E+02
      2.830  0.4210E+00  0.4354E+02
      2.937  0.3057E+00  0.4357E+02
      3.044  0.7340E+00  0.4365E+02
      3.151  0.1024E+01  0.4376E+02
      3.258  0.5691E+00  0.4382E+02
      3.365  0.1661E-01  0.4382E+02
      3.472  0.1202E+00  0.4384E+02
      3.579  0.3924E+00  0.4388E+02
      3.686  0.3398E+00  0.4391E+02
      3.793  0.3644E+00  0.4395E+02
      3.900  0.4130E+00  0.4400E+02
      4.007  0.3165E-01  0.4400E+02
      4.114  0.1054E-04  0.4400E+02
      4.221  0.1930E-01  0.4400E+02
      4.327  0.1649E+00  0.4402E+02
      4.434  0.3849E+00  0.4406E+02
      4.541  0.4502E+00  0.4411E+02
      4.648  0.6208E+00  0.4418E+02
      4.755  0.8715E+00  0.4427E+02
      4.862  0.8383E+00  0.4436E+02
      4.969  0.8656E+00  0.4445E+02
      5.076  0.1253E+01  0.4459E+02
      5.183  0.1179E+01  0.4471E+02
      5.290  0.1595E+01  0.4488E+02
      5.397  0.2143E+01  0.4511E+02
      5.504  0.2502E+01  0.4538E+02
      5.611  0.2796E+01  0.4568E+02
      5.718  0.3301E+01  0.4603E+02
      5.825  0.3263E+01  0.4638E+02
      5.932  0.4242E+01  0.4683E+02
      6.039  0.4807E+01  0.4735E+02
      6.146  0.4085E+01  0.4778E+02
      6.253  0.4604E+01  0.4828E+02
      6.360  0.4268E+01  0.4873E+02
      6.467  0.3966E+01  0.4916E+02
      6.574  0.4521E+01  0.4964E+02
      6.681  0.3256E+01  0.4999E+02
      6.788  0.3964E+01  0.5041E+02
      6.895  0.4606E+01  0.5091E+02
      7.002  0.4586E+01  0.5140E+02
      7.109  0.4340E+01  0.5186E+02
      7.216  0.5578E+01  0.5246E+02
      7.323  0.4991E+01  0.5299E+02
      7.430  0.4481E+01  0.5347E+02
      7.537  0.4229E+01  0.5392E+02
      7.644  0.3592E+01  0.5431E+02
      7.751  0.3107E+01  0.5464E+02
      7.858  0.3029E+01  0.5496E+02
      7.965  0.2970E+01  0.5528E+02
      8.072  0.4158E+01  0.5573E+02
      8.179  0.3923E+01  0.5615E+02
      8.286  0.3740E+01  0.5655E+02
      8.393  0.4011E+01  0.5698E+02
      8.500  0.4249E+01  0.5743E+02
      8.607  0.4491E+01  0.5791E+02
      8.714  0.4284E+01  0.5837E+02
      8.821  0.5340E+01  0.5894E+02
      8.927  0.4821E+01  0.5946E+02
      9.034  0.5282E+01  0.6002E+02
      9.141  0.5229E+01  0.6058E+02
      9.248  0.5010E+01  0.6112E+02
      9.355  0.4667E+01  0.6162E+02
      9.462  0.4402E+01  0.6209E+02
      9.569  0.5092E+01  0.6263E+02
      9.676  0.5038E+01  0.6317E+02
      9.783  0.5285E+01  0.6374E+02
      9.890  0.4495E+01  0.6422E+02
      9.997  0.3683E+01  0.6461E+02
     10.104  0.5190E+01  0.6517E+02
     10.211  0.4723E+01  0.6567E+02
     10.318  0.4158E+01  0.6612E+02
     10.425  0.5344E+01  0.6669E+02
     10.532  0.5831E+01  0.6731E+02
     10.639  0.4082E+01  0.6775E+02
     10.746  0.3911E+01  0.6817E+02
     10.853  0.3275E+01  0.6852E+02
     10.960  0.4689E+01  0.6902E+02
     11.067  0.5418E+01  0.6960E+02
     11.174  0.6280E+01  0.7027E+02
     11.281  0.6007E+01  0.7091E+02
     11.388  0.5202E+01  0.7147E+02
     11.495  0.4405E+01  0.7194E+02
     11.602  0.4477E+01  0.7242E+02
     11.709  0.4977E+01  0.7295E+02
     11.816  0.4824E+01  0.7347E+02
     11.923  0.5999E+01  0.7411E+02
     12.030  0.6008E+01  0.7475E+02
     12.137  0.6054E+01  0.7540E+02
     12.244  0.5557E+01  0.7599E+02
     12.351  0.4998E+01  0.7653E+02
     12.458  0.5719E+01  0.7714E+02
     12.565  0.5971E+01  0.7778E+02
     12.672  0.5952E+01  0.7842E+02
     12.779  0.5944E+01  0.7905E+02
     12.886  0.5888E+01  0.7968E+02
     12.993  0.5621E+01  0.8028E+02
     13.100  0.6348E+01  0.8096E+02
     13.207  0.6311E+01  0.8164E+02
     13.314  0.5451E+01  0.8222E+02
     13.421  0.6122E+01  0.8288E+02
     13.527  0.5422E+01  0.8346E+02
     13.634  0.4837E+01  0.8397E+02
     13.741  0.6179E+01  0.8463E+02
     13.848  0.5519E+01  0.8522E+02
     13.955  0.5368E+01  0.8580E+02
     14.062  0.5478E+01  0.8638E+02
     14.169  0.4677E+01  0.8688E+02
     14.276  0.4958E+01  0.8742E+02
     14.383  0.4968E+01  0.8795E+02
     14.490  0.4944E+01  0.8848E+02
     14.597  0.5274E+01  0.8904E+02
     14.704  0.5197E+01  0.8960E+02
     14.811  0.4100E+01  0.9003E+02
     14.918  0.5022E+01  0.9057E+02
     15.025  0.6148E+01  0.9123E+02
     15.132  0.5696E+01  0.9184E+02
     15.239  0.5718E+01  0.9245E+02
     15.346  0.6001E+01  0.9309E+02
     15.453  0.5767E+01  0.9371E+02
     15.560  0.6005E+01  0.9435E+02
     15.667  0.4623E+01  0.9485E+02
     15.774  0.2510E+01  0.9511E+02
     15.881  0.2708E+01  0.9540E+02
     15.988  0.1845E+01  0.9560E+02
     16.095  0.1134E+01  0.9572E+02
     16.202  0.8960E+00  0.9582E+02
     16.309  0.6965E+00  0.9589E+02
     16.416  0.8146E+00  0.9598E+02
     16.523  0.1794E+00  0.9600E+02
     16.630  0.1709E-02  0.9600E+02
     16.737  0.2191E-07  0.9600E+02
     16.844  0.4613E-16  0.9600E+02
     16.951  0.0000E+00  0.9600E+02
     17.058  0.0000E+00  0.9600E+02
     17.165  0.0000E+00  0.9600E+02
     17.272  0.0000E+00  0.9600E+02
     17.379  0.0000E+00  0.9600E+02
     17.486  0.0000E+00  0.9600E+02
     17.593  0.0000E+00  0.9600E+02
     17.700  0.0000E+00  0.9600E+02
     17.807  0.0000E+00  0.9600E+02
     17.914  0.0000E+00  0.9600E+02
