   14   14    1    1
  0.1025643E+02  0.5703836E-09  0.4052757E-09  0.6211645E-09  0.5000000E-15
  1.000000000000000E-004
  CAR 
 Convergence                             
     42    175     48
 
  0.5000000E-01  0.3571429E-01  0.0000000E+00  0.3174603E-02
      1        -12.720729   1.000000
      2        -11.579211   1.000000
      3         -8.663075   1.000000
      4         -8.426848   1.000000
      5         -6.073704   1.000000
      6         -5.140387   1.000000
      7         -4.677173   1.000000
      8         -4.281192   1.000000
      9         -4.042363   1.000000
     10         -3.554616   1.000000
     11         -2.609375   1.000000
     12         -2.340715   1.000000
     13         -1.850604   1.000000
     14         -1.111333   1.000000
     15         -0.083869   1.000000
     16         -0.053473   1.000000
     17          0.137508   1.000000
     18          0.157852   1.000000
     19          0.546964   1.000000
     20          1.999332   0.000059
     21          2.061869   0.000000
     22          2.194275   0.000000
     23          5.429856   0.000000
     24          5.720558   0.000000
     25          5.807708   0.000000
     26          5.930898   0.000000
     27          6.782388   0.000000
     28          7.516492   0.000000
     29          7.843763   0.000000
     30          8.493936   0.000000
     31          8.753651   0.000000
     32          8.906428   0.000000
     33          8.996724   0.000000
     34         10.088198   0.000000
     35         11.151421   0.000000
     36         11.287911   0.000000
     37         11.616052   0.000000
     38         11.737072   0.000000
     39         11.901236   0.000000
     40         12.366389   0.000000
     41         12.818665   0.000000
     42         13.401192   0.000000
     43         13.428563   0.000000
     44         15.318121   0.000000
     45         15.512287   0.000000
     46         15.999123   0.000000
     47         16.277749   0.000000
     48         16.298584   0.000000
 
  0.1500000E+00  0.3571429E-01  0.0000000E+00  0.3174603E-02
      1        -12.677023   1.000000
      2        -11.653033   1.000000
      3         -8.641886   1.000000
      4         -8.415345   1.000000
      5         -6.005717   1.000000
      6         -5.479785   1.000000
      7         -4.798625   1.000000
      8         -4.018156   1.000000
      9         -3.801091   1.000000
     10         -3.218310   1.000000
     11         -2.679302   1.000000
     12         -2.320860   1.000000
     13         -1.928391   1.000000
     14         -1.417875   1.000000
     15         -0.043786   1.000000
     16         -0.036125   1.000000
     17          0.077245   1.000000
     18          0.179184   1.000000
     19          0.451796   1.000000
     20          1.913297   0.078244
     21          1.984115   0.000313
     22          2.073504   0.000000
     23          5.519106   0.000000
     24          5.726678   0.000000
     25          5.838170   0.000000
     26          6.275020   0.000000
     27          6.697338   0.000000
     28          7.155795   0.000000
     29          8.050953   0.000000
     30          8.630369   0.000000
     31          9.006307   0.000000
     32          9.084089   0.000000
     33          9.161216   0.000000
     34         10.196261   0.000000
     35         10.896972   0.000000
     36         11.084020   0.000000
     37         11.223847   0.000000
     38         11.654958   0.000000
     39         12.118168   0.000000
     40         12.454368   0.000000
     41         13.069593   0.000000
     42         13.077545   0.000000
     43         13.957545   0.000000
     44         14.808487   0.000000
     45         15.694405   0.000000
     46         15.776747   0.000000
     47         16.167071   0.000000
     48         16.454767   0.000000
 
  0.2500000E+00  0.3571429E-01  0.0000000E+00  0.3174603E-02
      1        -12.591473   1.000000
      2        -11.786022   1.000000
      3         -8.598219   1.000000
      4         -8.400603   1.000000
      5         -5.983960   1.000000
      6         -5.805606   1.000000
      7         -4.752342   1.000000
      8         -3.891591   1.000000
      9         -3.290628   1.000000
     10         -2.847042   1.000000
     11         -2.727582   1.000000
     12         -2.280899   1.000000
     13         -2.037971   1.000000
     14         -1.921563   1.000000
     15         -0.239416   1.000000
     16         -0.002179   1.000000
     17          0.125820   1.000000
     18          0.142205   1.000000
     19          0.421655   1.000000
     20          1.765599   0.997115
     21          1.844944   0.697190
     22          1.851694   0.627573
     23          5.640293   0.000000
     24          5.683066   0.000000
     25          6.147035   0.000000
     26          6.572000   0.000000
     27          6.732184   0.000000
     28          6.901632   0.000000
     29          8.200186   0.000000
     30          8.779217   0.000000
     31          8.952616   0.000000
     32          9.528530   0.000000
     33          9.606014   0.000000
     34         10.237872   0.000000
     35         10.440110   0.000000
     36         10.579031   0.000000
     37         11.342038   0.000000
     38         11.798274   0.000000
     39         12.352777   0.000000
     40         12.514713   0.000000
     41         12.751856   0.000000
     42         12.866031   0.000000
     43         14.581759   0.000000
     44         14.860600   0.000000
     45         15.177021   0.000000
     46         15.925380   0.000000
     47         15.946226   0.000000
     48         16.229175   0.000000
 
  0.3500000E+00  0.3571429E-01  0.0000000E+00  0.3174603E-02
      1        -12.468065   1.000000
      2        -11.955371   1.000000
      3         -8.536424   1.000000
      4         -8.397293   1.000000
      5         -6.063896   1.000000
      6         -6.038399   1.000000
      7         -4.425489   1.000000
      8         -3.723379   1.000000
      9         -3.040290   1.000000
     10         -2.907273   1.000000
     11         -2.456540   1.000000
     12         -2.267176   1.000000
     13         -2.163436   1.000000
     14         -2.137836   1.000000
     15         -0.538520   1.000000
     16         -0.264524   1.000000
     17          0.157657   1.000000
     18          0.232749   1.000000
     19          0.594419   1.000000
     20          1.509427   1.000000
     21          1.643762   1.000000
     22          1.703829   0.999997
     23          5.668368   0.000000
     24          5.725262   0.000000
     25          6.471486   0.000000
     26          6.643893   0.000000
     27          6.669500   0.000000
     28          7.379436   0.000000
     29          8.323440   0.000000
     30          8.650853   0.000000
     31          8.765674   0.000000
     32          9.494654   0.000000
     33         10.009735   0.000000
     34         10.076983   0.000000
     35         10.352502   0.000000
     36         11.096316   0.000000
     37         11.364652   0.000000
     38         11.895641   0.000000
     39         12.158257   0.000000
     40         12.226914   0.000000
     41         12.479564   0.000000
     42         13.214072   0.000000
     43         14.667256   0.000000
     44         14.925095   0.000000
     45         15.202902   0.000000
     46         15.321695   0.000000
     47         15.516865   0.000000
     48         16.320523   0.000000
 
  0.4500000E+00  0.3571429E-01  0.0000000E+00  0.3174603E-02
      1        -12.313437   1.000000
      2        -12.137690   1.000000
      3         -8.470464   1.000000
      4         -8.419712   1.000000
      5         -6.152201   1.000000
      6         -6.148351   1.000000
      7         -3.911017   1.000000
      8         -3.515037   1.000000
      9         -3.312511   1.000000
     10         -3.278146   1.000000
     11         -2.372931   1.000000
     12         -2.246287   1.000000
     13         -1.978548   1.000000
     14         -1.923396   1.000000
     15         -0.759108   1.000000
     16         -0.623127   1.000000
     17          0.240565   1.000000
     18          0.273934   1.000000
     19          0.854621   1.000000
     20          1.171323   1.000000
     21          1.563311   1.000000
     22          1.590444   1.000000
     23          5.697163   0.000000
     24          5.735575   0.000000
     25          6.450825   0.000000
     26          6.515061   0.000000
     27          7.336492   0.000000
     28          8.038158   0.000000
     29          8.061241   0.000000
     30          8.440109   0.000000
     31          8.577456   0.000000
     32          8.751560   0.000000
     33         10.459996   0.000000
     34         10.474220   0.000000
     35         10.714143   0.000000
     36         11.171371   0.000000
     37         11.355455   0.000000
     38         11.547705   0.000000
     39         11.880139   0.000000
     40         12.435412   0.000000
     41         12.674453   0.000000
     42         13.208181   0.000000
     43         14.545595   0.000000
     44         14.681265   0.000000
     45         14.820610   0.000000
     46         14.880032   0.000000
     47         16.041398   0.000000
     48         16.386788   0.000000
 
  0.5000000E-01  0.1071429E+00  0.0000000E+00  0.3174603E-02
      1        -12.696791   1.000000
      2        -11.557658   1.000000
      3         -8.644399   1.000000
      4         -8.403821   1.000000
      5         -6.047081   1.000000
      6         -5.106707   1.000000
      7         -4.655231   1.000000
      8         -4.579931   1.000000
      9         -4.185941   1.000000
     10         -3.531910   1.000000
     11         -3.301581   1.000000
     12         -1.809817   1.000000
     13         -1.106771   1.000000
     14         -1.052792   1.000000
     15         -0.316946   1.000000
     16         -0.288954   1.000000
     17          0.151024   1.000000
     18          0.228115   1.000000
     19          0.625065   1.000000
     20          1.732476   0.999891
     21          1.811863   0.926751
     22          2.246325   0.000000
     23          5.549664   0.000000
     24          5.678616   0.000000
     25          5.714320   0.000000
     26          5.974710   0.000000
     27          7.067059   0.000000
     28          7.801639   0.000000
     29          8.038880   0.000000
     30          8.152670   0.000000
     31          8.758389   0.000000
     32          9.047552   0.000000
     33          9.102683   0.000000
     34         10.537765   0.000000
     35         11.220269   0.000000
     36         11.364466   0.000000
     37         11.550380   0.000000
     38         11.839537   0.000000
     39         12.012145   0.000000
     40         12.644959   0.000000
     41         12.819748   0.000000
     42         13.140105   0.000000
     43         13.144481   0.000000
     44         15.272063   0.000000
     45         15.319205   0.000000
     46         15.801870   0.000000
     47         15.804964   0.000000
     48         16.160562   0.000000
 
  0.1500000E+00  0.1071429E+00  0.0000000E+00  0.3174603E-02
      1        -12.653177   1.000000
      2        -11.631335   1.000000
      3         -8.623060   1.000000
      4         -8.392693   1.000000
      5         -5.977318   1.000000
      6         -5.449744   1.000000
      7         -4.778697   1.000000
      8         -4.498416   1.000000
      9         -3.762483   1.000000
     10         -3.381799   1.000000
     11         -3.180508   1.000000
     12         -1.788224   1.000000
     13         -1.412476   1.000000
     14         -1.170645   1.000000
     15         -0.278270   1.000000
     16         -0.210348   1.000000
     17          0.118242   1.000000
     18          0.200696   1.000000
     19          0.522258   1.000000
     20          1.652177   1.000000
     21          1.735577   0.999847
     22          2.115907   0.000000
     23          5.625735   0.000000
     24          5.777765   0.000000
     25          5.903220   0.000000
     26          6.082618   0.000000
     27          6.984020   0.000000
     28          7.477015   0.000000
     29          8.184732   0.000000
     30          8.320737   0.000000
     31          9.077122   0.000000
     32          9.114199   0.000000
     33          9.371373   0.000000
     34         10.459399   0.000000
     35         10.829039   0.000000
     36         11.037072   0.000000
     37         11.418610   0.000000
     38         11.827752   0.000000
     39         12.231324   0.000000
     40         12.696280   0.000000
     41         12.819546   0.000000
     42         13.101500   0.000000
     43         13.676516   0.000000
     44         14.893186   0.000000
     45         15.340428   0.000000
     46         15.696989   0.000000
     47         15.736131   0.000000
     48         16.340609   0.000000
 
  0.2500000E+00  0.1071429E+00  0.0000000E+00  0.3174603E-02
      1        -12.567819   1.000000
      2        -11.764067   1.000000
      3         -8.579179   1.000000
      4         -8.378647   1.000000
      5         -5.952809   1.000000
      6         -5.775301   1.000000
      7         -4.735783   1.000000
      8         -4.390466   1.000000
      9         -3.503199   1.000000
     10         -3.237523   1.000000
     11         -2.715118   1.000000
     12         -1.916960   1.000000
     13         -1.744159   1.000000
     14         -1.332552   1.000000
     15         -0.241492   1.000000
     16         -0.232048   1.000000
     17          0.037079   1.000000
     18          0.187814   1.000000
     19          0.446063   1.000000
     20          1.517533   1.000000
     21          1.605800   1.000000
     22          1.868356   0.442023
     23          5.824541   0.000000
     24          5.905770   0.000000
     25          5.984098   0.000000
     26          6.529868   0.000000
     27          6.863939   0.000000
     28          7.249826   0.000000
     29          8.391304   0.000000
     30          8.452521   0.000000
     31          9.051156   0.000000
     32          9.566812   0.000000
     33          9.830861   0.000000
     34         10.082617   0.000000
     35         10.308664   0.000000
     36         10.775182   0.000000
     37         11.482230   0.000000
     38         12.062747   0.000000
     39         12.259283   0.000000
     40         12.514260   0.000000
     41         12.905652   0.000000
     42         12.980570   0.000000
     43         14.252530   0.000000
     44         15.026554   0.000000
     45         15.107729   0.000000
     46         15.588279   0.000000
     47         15.654517   0.000000
     48         16.361065   0.000000
 
  0.3500000E+00  0.1071429E+00  0.0000000E+00  0.3174603E-02
      1        -12.444674   1.000000
      2        -11.933065   1.000000
      3         -8.517136   1.000000
      4         -8.376225   1.000000
      5         -6.031540   1.000000
      6         -6.007245   1.000000
      7         -4.411064   1.000000
      8         -4.244016   1.000000
      9         -3.673881   1.000000
     10         -2.859008   1.000000
     11         -2.375335   1.000000
     12         -2.232783   1.000000
     13         -1.680248   1.000000
     14         -1.494805   1.000000
     15         -0.500466   1.000000
     16         -0.325880   1.000000
     17          0.068387   1.000000
     18          0.099168   1.000000
     19          0.605026   1.000000
     20          1.378100   1.000000
     21          1.460813   1.000000
     22          1.545316   1.000000
     23          5.842163   0.000000
     24          5.978931   0.000000
     25          6.488725   0.000000
     26          6.775215   0.000000
     27          6.848606   0.000000
     28          7.339607   0.000000
     29          8.381679   0.000000
     30          8.559573   0.000000
     31          8.894825   0.000000
     32          9.331093   0.000000
     33         10.027856   0.000000
     34         10.052282   0.000000
     35         10.398806   0.000000
     36         11.172833   0.000000
     37         11.320725   0.000000
     38         11.794704   0.000000
     39         12.238634   0.000000
     40         12.503320   0.000000
     41         12.678697   0.000000
     42         13.415224   0.000000
     43         14.712779   0.000000
     44         14.721781   0.000000
     45         15.097329   0.000000
     46         15.254447   0.000000
     47         15.593405   0.000000
     48         16.334293   0.000000
 
  0.4500000E+00  0.1071429E+00  0.0000000E+00  0.3174603E-02
      1        -12.290376   1.000000
      2        -12.115001   1.000000
      3         -8.450827   1.000000
      4         -8.399484   1.000000
      5         -6.120239   1.000000
      6         -6.115956   1.000000
      7         -4.065783   1.000000
      8         -3.903556   1.000000
      9         -3.862898   1.000000
     10         -3.299770   1.000000
     11         -2.120375   1.000000
     12         -1.927930   1.000000
     13         -1.612131   1.000000
     14         -1.607451   1.000000
     15         -0.721140   1.000000
     16         -0.619112   1.000000
     17          0.102221   1.000000
     18          0.133305   1.000000
     19          0.863973   1.000000
     20          1.177773   1.000000
     21          1.324834   1.000000
     22          1.348791   1.000000
     23          5.893978   0.000000
     24          5.960705   0.000000
     25          6.765055   0.000000
     26          6.815741   0.000000
     27          7.154325   0.000000
     28          7.864185   0.000000
     29          7.907570   0.000000
     30          8.587520   0.000000
     31          8.651326   0.000000
     32          8.763235   0.000000
     33         10.275518   0.000000
     34         10.524591   0.000000
     35         10.762653   0.000000
     36         10.862662   0.000000
     37         11.502768   0.000000
     38         11.606517   0.000000
     39         11.958205   0.000000
     40         12.602926   0.000000
     41         12.981404   0.000000
     42         13.438207   0.000000
     43         14.497301   0.000000
     44         14.682471   0.000000
     45         14.780993   0.000000
     46         14.998771   0.000000
     47         16.066803   0.000000
     48         16.361536   0.000000
 
  0.5000000E-01  0.1785714E+00  0.0000000E+00  0.3174603E-02
      1        -12.652566   1.000000
      2        -11.517910   1.000000
      3         -8.610209   1.000000
      4         -8.361341   1.000000
      5         -5.997871   1.000000
      6         -5.136467   1.000000
      7         -5.016404   1.000000
      8         -4.613651   1.000000
      9         -4.169433   1.000000
     10         -3.922813   1.000000
     11         -3.478866   1.000000
     12         -1.219807   1.000000
     13         -1.097521   1.000000
     14         -0.659437   1.000000
     15         -0.555295   1.000000
     16         -0.195537   1.000000
     17          0.172128   1.000000
     18          0.280557   1.000000
     19          0.703147   1.000000
     20          1.351090   1.000000
     21          1.414123   1.000000
     22          2.284162   0.000000
     23          5.262346   0.000000
     24          5.426582   0.000000
     25          6.091433   0.000000
     26          6.161741   0.000000
     27          7.499946   0.000000
     28          7.588828   0.000000
     29          8.282404   0.000000
     30          8.683698   0.000000
     31          8.840782   0.000000
     32          9.187964   0.000000
     33          9.325060   0.000000
     34         10.838522   0.000000
     35         11.273858   0.000000
     36         11.525816   0.000000
     37         11.662821   0.000000
     38         12.039292   0.000000
     39         12.228070   0.000000
     40         12.699949   0.000000
     41         12.712560   0.000000
     42         12.952527   0.000000
     43         13.181939   0.000000
     44         14.612705   0.000000
     45         15.102810   0.000000
     46         15.280416   0.000000
     47         15.379589   0.000000
     48         15.899723   0.000000
 
  0.1500000E+00  0.1785714E+00  0.0000000E+00  0.3174603E-02
      1        -12.609137   1.000000
      2        -11.591323   1.000000
      3         -8.588571   1.000000
      4         -8.350908   1.000000
      5         -5.924718   1.000000
      6         -5.401346   1.000000
      7         -5.039277   1.000000
      8         -4.741185   1.000000
      9         -3.988553   1.000000
     10         -3.720705   1.000000
     11         -3.141142   1.000000
     12         -1.404189   1.000000
     13         -1.193740   1.000000
     14         -0.767313   1.000000
     15         -0.517402   1.000000
     16         -0.114037   1.000000
     17          0.151429   1.000000
     18          0.225758   1.000000
     19          0.590604   1.000000
     20          1.272176   1.000000
     21          1.344537   1.000000
     22          2.148756   0.000000
     23          5.342765   0.000000
     24          5.771028   0.000000
     25          6.107837   0.000000
     26          6.206557   0.000000
     27          7.419480   0.000000
     28          7.745348   0.000000
     29          8.014754   0.000000
     30          8.775639   0.000000
     31          9.201323   0.000000
     32          9.242928   0.000000
     33          9.608802   0.000000
     34         10.474171   0.000000
     35         10.734896   0.000000
     36         11.230528   0.000000
     37         11.680652   0.000000
     38         12.152626   0.000000
     39         12.384968   0.000000
     40         12.457734   0.000000
     41         13.111794   0.000000
     42         13.228854   0.000000
     43         13.385588   0.000000
     44         14.624735   0.000000
     45         14.765891   0.000000
     46         15.216426   0.000000
     47         15.443644   0.000000
     48         15.930648   0.000000
 
  0.2500000E+00  0.1785714E+00  0.0000000E+00  0.3174603E-02
      1        -12.524120   1.000000
      2        -11.723555   1.000000
      3         -8.544264   1.000000
      4         -8.338187   1.000000
      5         -5.894839   1.000000
      6         -5.720600   1.000000
      7         -4.947747   1.000000
      8         -4.704866   1.000000
      9         -4.111459   1.000000
     10         -3.187800   1.000000
     11         -2.671316   1.000000
     12         -1.900655   1.000000
     13         -1.153330   1.000000
     14         -0.906499   1.000000
     15         -0.464806   1.000000
     16         -0.107462   1.000000
     17         -0.003335   1.000000
     18          0.237159   1.000000
     19          0.475786   1.000000
     20          1.141036   1.000000
     21          1.226472   1.000000
     22          1.892908   0.200376
     23          5.663249   0.000000
     24          6.062906   0.000000
     25          6.245519   0.000000
     26          6.336875   0.000000
     27          7.317718   0.000000
     28          7.826363   0.000000
     29          7.979422   0.000000
     30          8.904503   0.000000
     31          9.198147   0.000000
     32          9.674189   0.000000
     33          9.810820   0.000000
     34         10.091068   0.000000
     35         10.210768   0.000000
     36         11.014481   0.000000
     37         11.544803   0.000000
     38         12.059805   0.000000
     39         12.462558   0.000000
     40         12.758974   0.000000
     41         12.992548   0.000000
     42         13.400244   0.000000
     43         13.907526   0.000000
     44         14.535470   0.000000
     45         14.815080   0.000000
     46         15.239832   0.000000
     47         15.460997   0.000000
     48         16.141410   0.000000
 
  0.3500000E+00  0.1785714E+00  0.0000000E+00  0.3174603E-02
      1        -12.401475   1.000000
      2        -11.891910   1.000000
      3         -8.481759   1.000000
      4         -8.337461   1.000000
      5         -5.971255   1.000000
      6         -5.949788   1.000000
      7         -4.812421   1.000000
      8         -4.384483   1.000000
      9         -4.275130   1.000000
     10         -2.820830   1.000000
     11         -2.334729   1.000000
     12         -2.191707   1.000000
     13         -1.097041   1.000000
     14         -1.043639   1.000000
     15         -0.471575   1.000000
     16         -0.392434   1.000000
     17          0.040294   1.000000
     18          0.042844   1.000000
     19          0.622534   1.000000
     20          1.011732   1.000000
     21          1.094055   1.000000
     22          1.558788   1.000000
     23          6.074764   0.000000
     24          6.196669   0.000000
     25          6.367946   0.000000
     26          6.770624   0.000000
     27          7.262880   0.000000
     28          7.748227   0.000000
     29          8.036130   0.000000
     30          9.003986   0.000000
     31          9.064304   0.000000
     32          9.133872   0.000000
     33          9.842254   0.000000
     34         10.140760   0.000000
     35         10.659173   0.000000
     36         11.033245   0.000000
     37         11.271602   0.000000
     38         11.905605   0.000000
     39         12.300775   0.000000
     40         12.940944   0.000000
     41         12.991952   0.000000
     42         13.742256   0.000000
     43         14.323780   0.000000
     44         14.341991   0.000000
     45         14.974540   0.000000
     46         15.069004   0.000000
     47         15.555255   0.000000
     48         16.319851   0.000000
 
  0.4500000E+00  0.1785714E+00  0.0000000E+00  0.3174603E-02
      1        -12.247802   1.000000
      2        -12.073127   1.000000
      3         -8.414785   1.000000
      4         -8.362317   1.000000
      5         -6.060929   1.000000
      6         -6.055638   1.000000
      7         -4.645347   1.000000
      8         -4.460537   1.000000
      9         -3.872765   1.000000
     10         -3.277330   1.000000
     11         -2.052539   1.000000
     12         -1.887739   1.000000
     13         -1.116453   1.000000
     14         -1.056313   1.000000
     15         -0.647650   1.000000
     16         -0.642554   1.000000
     17         -0.008915   1.000000
     18          0.034591   1.000000
     19          0.879594   1.000000
     20          0.949363   1.000000
     21          0.989810   1.000000
     22          1.206122   1.000000
     23          6.166647   0.000000
     24          6.285640   0.000000
     25          6.847422   0.000000
     26          7.183838   0.000000
     27          7.241602   0.000000
     28          7.590017   0.000000
     29          7.894726   0.000000
     30          8.403833   0.000000
     31          9.059517   0.000000
     32          9.091225   0.000000
     33          9.966782   0.000000
     34         10.439306   0.000000
     35         10.662322   0.000000
     36         10.936340   0.000000
     37         11.682602   0.000000
     38         11.696577   0.000000
     39         12.077602   0.000000
     40         12.857521   0.000000
     41         13.369229   0.000000
     42         13.714658   0.000000
     43         14.174331   0.000000
     44         14.328571   0.000000
     45         14.941692   0.000000
     46         15.080670   0.000000
     47         15.932831   0.000000
     48         16.235625   0.000000
 
  0.5000000E-01  0.2500000E+00  0.0000000E+00  0.3174603E-02
      1        -12.595272   1.000000
      2        -11.466559   1.000000
      3         -8.566539   1.000000
      4         -8.306384   1.000000
      5         -5.934008   1.000000
      6         -5.616757   1.000000
      7         -4.946587   1.000000
      8         -4.557729   1.000000
      9         -4.442296   1.000000
     10         -4.130247   1.000000
     11         -3.417159   1.000000
     12         -1.230844   1.000000
     13         -1.083288   1.000000
     14         -1.012373   1.000000
     15         -0.212086   1.000000
     16          0.200218   1.000000
     17          0.323594   1.000000
     18          0.574401   1.000000
     19          0.766575   1.000000
     20          0.966931   1.000000
     21          0.980940   1.000000
     22          2.318130   0.000000
     23          4.920631   0.000000
     24          5.134296   0.000000
     25          6.321304   0.000000
     26          6.551032   0.000000
     27          7.231855   0.000000
     28          7.927428   0.000000
     29          8.655074   0.000000
     30          9.020971   0.000000
     31          9.412480   0.000000
     32          9.539325   0.000000
     33          9.606176   0.000000
     34         10.699911   0.000000
     35         11.222275   0.000000
     36         11.922104   0.000000
     37         11.977275   0.000000
     38         12.246077   0.000000
     39         12.378592   0.000000
     40         12.404945   0.000000
     41         12.518546   0.000000
     42         12.937448   0.000000
     43         13.731791   0.000000
     44         13.832700   0.000000
     45         14.359792   0.000000
     46         15.051141   0.000000
     47         15.352987   0.000000
     48         15.792993   0.000000
 
  0.1500000E+00  0.2500000E+00  0.0000000E+00  0.3174603E-02
      1        -12.552072   1.000000
      2        -11.539620   1.000000
      3         -8.544487   1.000000
      4         -8.296903   1.000000
      5         -5.856250   1.000000
      6         -5.581991   1.000000
      7         -5.282639   1.000000
      8         -4.691554   1.000000