  14  14   0   0
  0.1017673E+02  0.5689024E-09  0.4042233E-09  0.6195514E-09  0.5000000E-15
  1.000000000000000E-004
  CAR 
 Convergence                             
     18.04732035    -14.19521903  301      1.90856702      1.00000000
    -14.195  0.0000E+00  0.0000E+00
    -14.088  0.0000E+00  0.0000E+00
    -13.980  0.0000E+00  0.0000E+00
    -13.873  0.0000E+00  0.0000E+00
    -13.765  0.0000E+00  0.0000E+00
    -13.658  0.0000E+00  0.0000E+00
    -13.550  0.0000E+00  0.0000E+00
    -13.443  0.0000E+00  0.0000E+00
    -13.335  0.0000E+00  0.0000E+00
    -13.228  0.0000E+00  0.0000E+00
    -13.120  0.0000E+00  0.0000E+00
    -13.013  0.3935E-16  0.4229E-17
    -12.906  0.2767E-07  0.2974E-08
    -12.798  0.3751E-02  0.4032E-03
    -12.691  0.5069E+00  0.5488E-01
    -12.583  0.2386E+01  0.3113E+00
    -12.476  0.3554E+01  0.6932E+00
    -12.368  0.4364E+01  0.1162E+01
    -12.261  0.3539E+01  0.1543E+01
    -12.153  0.2733E+01  0.1836E+01
    -12.046  0.2746E+01  0.2131E+01
    -11.938  0.2511E+01  0.2401E+01
    -11.831  0.2771E+01  0.2699E+01
    -11.723  0.3443E+01  0.3069E+01
    -11.616  0.3533E+01  0.3449E+01
    -11.508  0.3089E+01  0.3781E+01
    -11.401  0.1635E+01  0.3957E+01
    -11.293  0.3972E+00  0.3999E+01
    -11.186  0.5910E-02  0.4000E+01
    -11.078  0.1085E-06  0.4000E+01
    -10.971  0.4066E-15  0.4000E+01
    -10.863  0.0000E+00  0.4000E+01
    -10.756  0.0000E+00  0.4000E+01
    -10.649  0.0000E+00  0.4000E+01
    -10.541  0.0000E+00  0.4000E+01
    -10.434  0.0000E+00  0.4000E+01
    -10.326  0.0000E+00  0.4000E+01
    -10.219  0.0000E+00  0.4000E+01
    -10.111  0.0000E+00  0.4000E+01
    -10.004  0.0000E+00  0.4000E+01
     -9.896  0.0000E+00  0.4000E+01
     -9.789  0.0000E+00  0.4000E+01
     -9.681  0.0000E+00  0.4000E+01
     -9.574  0.0000E+00  0.4000E+01
     -9.466  0.0000E+00  0.4000E+01
     -9.359  0.0000E+00  0.4000E+01
     -9.251  0.0000E+00  0.4000E+01
     -9.144  0.0000E+00  0.4000E+01
     -9.036  0.8082E-09  0.4000E+01
     -8.929  0.5871E-03  0.4000E+01
     -8.821  0.2709E+00  0.4029E+01
     -8.714  0.2071E+01  0.4252E+01
     -8.607  0.5286E+01  0.4820E+01
     -8.499  0.6960E+01  0.5568E+01
     -8.392  0.6311E+01  0.6246E+01
     -8.284  0.5321E+01  0.6818E+01
     -8.177  0.4822E+01  0.7336E+01
     -8.069  0.3880E+01  0.7753E+01
     -7.962  0.1668E+01  0.7933E+01
     -7.854  0.5760E+00  0.7994E+01
     -7.747  0.5121E-01  0.8000E+01
     -7.639  0.2261E-04  0.8000E+01
     -7.532  0.2310E-11  0.8000E+01
     -7.424  0.0000E+00  0.8000E+01
     -7.317  0.0000E+00  0.8000E+01
     -7.209  0.0000E+00  0.8000E+01
     -7.102  0.5761E-09  0.8000E+01
     -6.994  0.4432E-03  0.8000E+01
     -6.887  0.1165E+00  0.8013E+01
     -6.779  0.2556E+00  0.8040E+01
     -6.672  0.4285E+00  0.8086E+01
     -6.564  0.7661E+00  0.8168E+01
     -6.457  0.8590E+00  0.8261E+01
     -6.350  0.1457E+01  0.8417E+01
     -6.242  0.1993E+01  0.8632E+01
     -6.135  0.3064E+01  0.8961E+01
     -6.027  0.3767E+01  0.9366E+01
     -5.920  0.4103E+01  0.9807E+01
     -5.812  0.4037E+01  0.1024E+02
     -5.705  0.3835E+01  0.1065E+02
     -5.597  0.4070E+01  0.1109E+02
     -5.490  0.4224E+01  0.1154E+02
     -5.382  0.4521E+01  0.1203E+02
     -5.275  0.4571E+01  0.1252E+02
     -5.167  0.4483E+01  0.1300E+02
     -5.060  0.3851E+01  0.1342E+02
     -4.952  0.3235E+01  0.1376E+02
     -4.845  0.2924E+01  0.1408E+02
     -4.737  0.2372E+01  0.1433E+02
     -4.630  0.2896E+01  0.1465E+02
     -4.522  0.3362E+01  0.1501E+02
     -4.415  0.3501E+01  0.1538E+02
     -4.308  0.3295E+01  0.1574E+02
     -4.200  0.2946E+01  0.1605E+02
     -4.093  0.2902E+01  0.1637E+02
     -3.985  0.2961E+01  0.1668E+02
     -3.878  0.2836E+01  0.1699E+02
     -3.770  0.3133E+01  0.1733E+02
     -3.663  0.2847E+01  0.1763E+02
     -3.555  0.2704E+01  0.1792E+02
     -3.448  0.3048E+01  0.1825E+02
     -3.340  0.2614E+01  0.1853E+02
     -3.233  0.2897E+01  0.1884E+02
     -3.125  0.2688E+01  0.1913E+02
     -3.018  0.2773E+01  0.1943E+02
     -2.910  0.3003E+01  0.1975E+02
     -2.803  0.2961E+01  0.2007E+02
     -2.695  0.2414E+01  0.2033E+02
     -2.588  0.2679E+01  0.2062E+02
     -2.480  0.3031E+01  0.2094E+02
     -2.373  0.2967E+01  0.2126E+02
     -2.265  0.3209E+01  0.2161E+02
     -2.158  0.4030E+01  0.2204E+02
     -2.051  0.3654E+01  0.2243E+02
     -1.943  0.3326E+01  0.2279E+02
     -1.836  0.5280E+01  0.2336E+02
     -1.728  0.5654E+01  0.2397E+02
     -1.621  0.5553E+01  0.2456E+02
     -1.513  0.6185E+01  0.2523E+02
     -1.406  0.6071E+01  0.2588E+02
     -1.298  0.5505E+01  0.2647E+02
     -1.191  0.4698E+01  0.2698E+02
     -1.083  0.6471E+01  0.2767E+02
     -0.976  0.3758E+01  0.2808E+02
     -0.868  0.2262E+01  0.2832E+02
     -0.761  0.2691E+01  0.2861E+02
     -0.653  0.2884E+01  0.2892E+02
     -0.546  0.4648E+01  0.2942E+02
     -0.438  0.6893E+01  0.3016E+02
     -0.331  0.5644E+01  0.3076E+02
     -0.223  0.6761E+01  0.3149E+02
     -0.116  0.6359E+01  0.3217E+02
     -0.009  0.6759E+01  0.3290E+02
      0.099  0.6651E+01  0.3362E+02
      0.206  0.6375E+01  0.3430E+02
      0.314  0.8765E+01  0.3524E+02
      0.421  0.7846E+01  0.3609E+02
      0.529  0.8716E+01  0.3702E+02
      0.636  0.5069E+01  0.3757E+02
      0.744  0.2850E+01  0.3787E+02
      0.851  0.3365E+01  0.3824E+02
      0.959  0.3583E+01  0.3862E+02
      1.066  0.3518E+01  0.3900E+02
      1.174  0.2783E+01  0.3930E+02
      1.281  0.3436E+01  0.3967E+02
      1.389  0.4506E+01  0.4015E+02
      1.496  0.3735E+01  0.4055E+02
      1.604  0.3761E+01  0.4096E+02
      1.711  0.4552E+01  0.4145E+02
      1.819  0.3084E+01  0.4178E+02
      1.926  0.2491E+01  0.4205E+02
      2.034  0.2628E+01  0.4233E+02
      2.141  0.2098E+01  0.4255E+02
      2.248  0.2652E+01  0.4284E+02
      2.356  0.2521E+01  0.4311E+02
      2.463  0.1879E+01  0.4331E+02
      2.571  0.7893E+00  0.4340E+02
      2.678  0.3799E+00  0.4344E+02
      2.786  0.5667E+00  0.4350E+02
      2.893  0.4178E+00  0.4354E+02
      3.001  0.3073E+00  0.4358E+02
      3.108  0.7902E+00  0.4366E+02
      3.216  0.1000E+01  0.4377E+02
      3.323  0.4944E+00  0.4382E+02
      3.431  0.9411E-02  0.4382E+02
      3.538  0.1466E+00  0.4384E+02
      3.646  0.4003E+00  0.4388E+02
      3.753  0.3172E+00  0.4392E+02
      3.861  0.3829E+00  0.4396E+02
      3.968  0.3858E+00  0.4400E+02
      4.076  0.2049E-01  0.4400E+02
      4.183  0.1111E-03  0.4400E+02
      4.291  0.5064E-01  0.4401E+02
      4.398  0.1927E+00  0.4403E+02
      4.505  0.4103E+00  0.4407E+02
      4.613  0.4975E+00  0.4412E+02
      4.720  0.6560E+00  0.4419E+02
      4.828  0.8993E+00  0.4429E+02
      4.935  0.8527E+00  0.4438E+02
      5.043  0.8591E+00  0.4447E+02
      5.150  0.1291E+01  0.4461E+02
      5.258  0.1131E+01  0.4474E+02
      5.365  0.1675E+01  0.4492E+02
      5.473  0.2236E+01  0.4516E+02
      5.580  0.2478E+01  0.4542E+02
      5.688  0.2779E+01  0.4572E+02
      5.795  0.3447E+01  0.4609E+02
      5.903  0.3190E+01  0.4643E+02
      6.010  0.4378E+01  0.4690E+02
      6.118  0.4684E+01  0.4741E+02
      6.225  0.4023E+01  0.4784E+02
      6.333  0.4641E+01  0.4834E+02
      6.440  0.4009E+01  0.4877E+02
      6.547  0.4096E+01  0.4921E+02
      6.655  0.4408E+01  0.4968E+02
      6.762  0.3211E+01  0.5003E+02
      6.870  0.4041E+01  0.5046E+02
      6.977  0.4616E+01  0.5096E+02
      7.085  0.4513E+01  0.5144E+02
      7.192  0.4346E+01  0.5191E+02
      7.300  0.5627E+01  0.5252E+02
      7.407  0.4837E+01  0.5304E+02
      7.515  0.4423E+01  0.5351E+02
      7.622  0.4136E+01  0.5396E+02
      7.730  0.3537E+01  0.5434E+02
      7.837  0.3148E+01  0.5467E+02
      7.945  0.2979E+01  0.5499E+02
      8.052  0.3004E+01  0.5532E+02
      8.160  0.4174E+01  0.5577E+02
      8.267  0.3847E+01  0.5618E+02
      8.375  0.3627E+01  0.5657E+02
      8.482  0.3982E+01  0.5700E+02
      8.590  0.4167E+01  0.5744E+02
      8.697  0.4421E+01  0.5792E+02
      8.804  0.4154E+01  0.5837E+02
      8.912  0.5175E+01  0.5892E+02
      9.019  0.5091E+01  0.5947E+02
      9.127  0.5293E+01  0.6004E+02
      9.234  0.5256E+01  0.6060E+02
      9.342  0.4912E+01  0.6113E+02
      9.449  0.4720E+01  0.6164E+02
      9.557  0.4335E+01  0.6210E+02
      9.664  0.5118E+01  0.6265E+02
      9.772  0.5013E+01  0.6319E+02
      9.879  0.5320E+01  0.6377E+02
      9.987  0.4454E+01  0.6424E+02
     10.094  0.3587E+01  0.6463E+02
     10.202  0.5163E+01  0.6518E+02
     10.309  0.4701E+01  0.6569E+02
     10.417  0.4070E+01  0.6613E+02
     10.524  0.5519E+01  0.6672E+02
     10.632  0.5765E+01  0.6734E+02
     10.739  0.4046E+01  0.6777E+02
     10.846  0.3852E+01  0.6819E+02
     10.954  0.3194E+01  0.6853E+02
     11.061  0.4662E+01  0.6903E+02
     11.169  0.5556E+01  0.6963E+02
     11.276  0.6088E+01  0.7028E+02
     11.384  0.5969E+01  0.7093E+02
     11.491  0.5375E+01  0.7150E+02
     11.599  0.4186E+01  0.7195E+02
     11.706  0.4470E+01  0.7243E+02
     11.814  0.4885E+01  0.7296E+02
     11.921  0.4793E+01  0.7347E+02
     12.029  0.6060E+01  0.7413E+02
     12.136  0.5919E+01  0.7476E+02
     12.244  0.5886E+01  0.7539E+02
     12.351  0.5686E+01  0.7601E+02
     12.459  0.5044E+01  0.7655E+02
     12.566  0.5639E+01  0.7715E+02
     12.674  0.6023E+01  0.7780E+02
     12.781  0.6096E+01  0.7846E+02
     12.889  0.5820E+01  0.7908E+02
     12.996  0.5837E+01  0.7971E+02
     13.103  0.5564E+01  0.8031E+02
     13.211  0.6356E+01  0.8099E+02
     13.318  0.6204E+01  0.8166E+02
     13.426  0.5319E+01  0.8223E+02
     13.533  0.6147E+01  0.8289E+02
     13.641  0.5237E+01  0.8345E+02
     13.748  0.4792E+01  0.8397E+02
     13.856  0.6074E+01  0.8462E+02
     13.963  0.5515E+01  0.8521E+02
     14.071  0.5326E+01  0.8578E+02
     14.178  0.5468E+01  0.8637E+02
     14.286  0.4696E+01  0.8688E+02
     14.393  0.4847E+01  0.8740E+02
     14.501  0.5079E+01  0.8794E+02
     14.608  0.4984E+01  0.8848E+02
     14.716  0.5269E+01  0.8905E+02
     14.823  0.5127E+01  0.8960E+02
     14.931  0.4085E+01  0.9004E+02
     15.038  0.5160E+01  0.9059E+02
     15.145  0.6229E+01  0.9126E+02
     15.253  0.5576E+01  0.9186E+02
     15.360  0.5620E+01  0.9246E+02
     15.468  0.6060E+01  0.9311E+02
     15.575  0.5695E+01  0.9373E+02
     15.683  0.5887E+01  0.9436E+02
     15.790  0.4548E+01  0.9485E+02
     15.898  0.2424E+01  0.9511E+02
     16.005  0.2699E+01  0.9540E+02
     16.113  0.1874E+01  0.9560E+02
     16.220  0.1155E+01  0.9572E+02
     16.328  0.8796E+00  0.9582E+02
     16.435  0.7043E+00  0.9589E+02
     16.543  0.8085E+00  0.9598E+02
     16.650  0.1725E+00  0.9600E+02
     16.758  0.1651E-02  0.9600E+02
     16.865  0.1936E-07  0.9600E+02
     16.973  0.3279E-16  0.9600E+02
     17.080  0.0000E+00  0.9600E+02
     17.188  0.0000E+00  0.9600E+02
     17.295  0.0000E+00  0.9600E+02
     17.402  0.0000E+00  0.9600E+02
     17.510  0.0000E+00  0.9600E+02
     17.617  0.0000E+00  0.9600E+02
     17.725  0.0000E+00  0.9600E+02
     17.832  0.0000E+00  0.9600E+02
     17.940  0.0000E+00  0.9600E+02
     18.047  0.0000E+00  0.9600E+02
