<?xml version="1.0" encoding="ISO-8859-1"?>
<modeling>
 <generator>
  <i name="program" type="string">vasp </i>
  <i name="version" type="string">6.4.3  </i>
  <i name="subversion" type="string">19Mar24 (build May 31 2024 16:31:43) complex                          parallel </i>
  <i name="platform" type="string">LinuxIFC </i>
  <i name="date" type="string">2024 11 11 </i>
  <i name="time" type="string">16:04:55 </i>
 </generator>
 <incar>
  <i type="string" name="SYSTEM">Convergence</i>
  <i type="int" name="ISTART">     0</i>
  <i type="string" name="PREC">Accurate</i>
  <i type="string" name="ALGO">Normal</i>
  <i type="int" name="ISPIN">     1</i>
  <i type="int" name="ICHARG">     2</i>
  <i type="int" name="NELM">   100</i>
  <i type="int" name="IBRION">    -1</i>
  <i name="EDIFF">      0.00000100</i>
  <i name="EDIFFG">     -0.00100000</i>
  <i type="int" name="NSW">     0</i>
  <i type="int" name="ISIF">     2</i>
  <i name="ENCUT">    600.00000000</i>
  <i name="POTIM">      0.50000000</i>
  <i type="int" name="ISMEAR">     0</i>
  <i name="SIGMA">      0.05000000</i>
  <i type="logical" name="LWAVE"> F  </i>
  <i type="logical" name="LCHARG"> F  </i>
  <i type="string" name="GGA">PE</i>
 </incar>
 <primitive_cell>
  <structure name="primitive_cell" >
   <crystal>
    <varray name="basis" >
     <v>       5.68902420       0.00000000       0.00000000 </v>
     <v>       0.00000000       4.04223294       0.00000000 </v>
     <v>       0.00000000       0.00000000       6.19551412 </v>
    </varray>
    <i name="volume">    142.47427939 </i>
    <varray name="rec_basis" >
     <v>       0.17577707       0.00000000       0.00000000 </v>
     <v>       0.00000000       0.24738802       0.00000000 </v>
     <v>       0.00000000       0.00000000       0.16140711 </v>
    </varray>
   </crystal>
   <varray name="positions" >
    <v>       0.52123000       0.50000000       0.63796000 </v>
    <v>       0.47877000       0.50000000       0.36204000 </v>
    <v>       0.97877000       0.50000000       0.63796000 </v>
    <v>       0.02123000       0.50000000       0.36204000 </v>
    <v>       0.60090000       0.50000000       0.89991000 </v>
    <v>       0.39910000       0.50000000       0.10009000 </v>
    <v>       0.89910000       0.50000000       0.89991000 </v>
    <v>       0.10090000       0.50000000       0.10009000 </v>
    <v>       0.75000000       0.79171000       0.72973000 </v>
    <v>       0.25000000       0.20829000       0.27027000 </v>
    <v>       0.75000000       0.20829000       0.72973000 </v>
    <v>       0.25000000       0.79171000       0.27027000 </v>
    <v>       0.25000000       0.50000000       0.52367000 </v>
    <v>       0.75000000       0.50000000       0.47633000 </v>
   </varray>
  </structure>
  <varray name="primitive_index" >
   <v type="int" >        1 </v>
   <v type="int" >        2 </v>
   <v type="int" >        3 </v>
   <v type="int" >        4 </v>
   <v type="int" >        5 </v>
   <v type="int" >        6 </v>
   <v type="int" >        7 </v>
   <v type="int" >        8 </v>
   <v type="int" >        9 </v>
   <v type="int" >       10 </v>
   <v type="int" >       11 </v>
   <v type="int" >       12 </v>
   <v type="int" >       13 </v>
   <v type="int" >       14 </v>
  </varray>
 </primitive_cell>
 <kpoints>
  <generation param="Monkhorst-Pack">
   <v type="int" name="divisions">      10       14        9 </v>
   <v name="usershift">      0.00000000       0.00000000       0.00000000 </v>
   <v name="genvec1">      0.10000000       0.00000000       0.00000000 </v>
   <v name="genvec2">      0.00000000       0.07142857       0.00000000 </v>
   <v name="genvec3">      0.00000000       0.00000000       0.11111111 </v>
   <v name="shift">      0.50000000       0.50000000       0.00000000 </v>
  </generation>
  <varray name="kpointlist" >
   <v>       0.05000000       0.03571429       0.00000000 </v>
   <v>       0.15000000       0.03571429       0.00000000 </v>
   <v>       0.25000000       0.03571429       0.00000000 </v>
   <v>       0.35000000       0.03571429       0.00000000 </v>
   <v>       0.45000000       0.03571429       0.00000000 </v>
   <v>       0.05000000       0.10714286       0.00000000 </v>
   <v>       0.15000000       0.10714286       0.00000000 </v>
   <v>       0.25000000       0.10714286       0.00000000 </v>
   <v>       0.35000000       0.10714286       0.00000000 </v>
   <v>       0.45000000       0.10714286       0.00000000 </v>
   <v>       0.05000000       0.17857143       0.00000000 </v>
   <v>       0.15000000       0.17857143       0.00000000 </v>
   <v>       0.25000000       0.17857143       0.00000000 </v>
   <v>       0.35000000       0.17857143       0.00000000 </v>
   <v>       0.45000000       0.17857143       0.00000000 </v>
   <v>       0.05000000       0.25000000       0.00000000 </v>
   <v>       0.15000000       0.25000000       0.00000000 </v>
   <v>       0.25000000       0.25000000       0.00000000 </v>
   <v>       0.35000000       0.25000000       0.00000000 </v>
   <v>       0.45000000       0.25000000       0.00000000 </v>
   <v>       0.05000000       0.32142857       0.00000000 </v>
   <v>       0.15000000       0.32142857       0.00000000 </v>
   <v>       0.25000000       0.32142857       0.00000000 </v>
   <v>       0.35000000       0.32142857       0.00000000 </v>
   <v>       0.45000000       0.32142857       0.00000000 </v>
   <v>       0.05000000       0.39285714       0.00000000 </v>
   <v>       0.15000000       0.39285714       0.00000000 </v>
   <v>       0.25000000       0.39285714       0.00000000 </v>
   <v>       0.35000000       0.39285714       0.00000000 </v>
   <v>       0.45000000       0.39285714       0.00000000 </v>
   <v>       0.05000000       0.46428571       0.00000000 </v>
   <v>       0.15000000       0.46428571       0.00000000 </v>
   <v>       0.25000000       0.46428571       0.00000000 </v>
   <v>       0.35000000       0.46428571       0.00000000 </v>
   <v>       0.45000000       0.46428571       0.00000000 </v>
   <v>       0.05000000       0.03571429       0.11111111 </v>
   <v>       0.15000000       0.03571429       0.11111111 </v>
   <v>       0.25000000       0.03571429       0.11111111 </v>
   <v>       0.35000000       0.03571429       0.11111111 </v>
   <v>       0.45000000       0.03571429       0.11111111 </v>
   <v>       0.05000000       0.10714286       0.11111111 </v>
   <v>       0.15000000       0.10714286       0.11111111 </v>
   <v>       0.25000000       0.10714286       0.11111111 </v>
   <v>       0.35000000       0.10714286       0.11111111 </v>
   <v>       0.45000000       0.10714286       0.11111111 </v>
   <v>       0.05000000       0.17857143       0.11111111 </v>
   <v>       0.15000000       0.17857143       0.11111111 </v>
   <v>       0.25000000       0.17857143       0.11111111 </v>
   <v>       0.35000000       0.17857143       0.11111111 </v>
   <v>       0.45000000       0.17857143       0.11111111 </v>
   <v>       0.05000000       0.25000000       0.11111111 </v>
   <v>       0.15000000       0.25000000       0.11111111 </v>
   <v>       0.25000000       0.25000000       0.11111111 </v>
   <v>       0.35000000       0.25000000       0.11111111 </v>
   <v>       0.45000000       0.25000000       0.11111111 </v>
   <v>       0.05000000       0.32142857       0.11111111 </v>
   <v>       0.15000000       0.32142857       0.11111111 </v>
   <v>       0.25000000       0.32142857       0.11111111 </v>
   <v>       0.35000000       0.32142857       0.11111111 </v>
   <v>       0.45000000       0.32142857       0.11111111 </v>
   <v>       0.05000000       0.39285714       0.11111111 </v>
   <v>       0.15000000       0.39285714       0.11111111 </v>
   <v>       0.25000000       0.39285714       0.11111111 </v>
   <v>       0.35000000       0.39285714       0.11111111 </v>
   <v>       0.45000000       0.39285714       0.11111111 </v>
   <v>       0.05000000       0.46428571       0.11111111 </v>
   <v>       0.15000000       0.46428571       0.11111111 </v>
   <v>       0.25000000       0.46428571       0.11111111 </v>
   <v>       0.35000000       0.46428571       0.11111111 </v>
   <v>       0.45000000       0.46428571       0.11111111 </v>
   <v>       0.05000000       0.03571429       0.22222222 </v>
   <v>       0.15000000       0.03571429       0.22222222 </v>
   <v>       0.25000000       0.03571429       0.22222222 </v>
   <v>       0.35000000       0.03571429       0.22222222 </v>
   <v>       0.45000000       0.03571429       0.22222222 </v>
   <v>       0.05000000       0.10714286       0.22222222 </v>
   <v>       0.15000000       0.10714286       0.22222222 </v>
   <v>       0.25000000       0.10714286       0.22222222 </v>
   <v>       0.35000000       0.10714286       0.22222222 </v>
   <v>       0.45000000       0.10714286       0.22222222 </v>
   <v>       0.05000000       0.17857143       0.22222222 </v>
   <v>       0.15000000       0.17857143       0.22222222 </v>
   <v>       0.25000000       0.17857143       0.22222222 </v>
   <v>       0.35000000       0.17857143       0.22222222 </v>
   <v>       0.45000000       0.17857143       0.22222222 </v>
   <v>       0.05000000       0.25000000       0.22222222 </v>
   <v>       0.15000000       0.25000000       0.22222222 </v>
   <v>       0.25000000       0.25000000       0.22222222 </v>
   <v>       0.35000000       0.25000000       0.22222222 </v>
   <v>       0.45000000       0.25000000       0.22222222 </v>
   <v>       0.05000000       0.32142857       0.22222222 </v>
   <v>       0.15000000       0.32142857       0.22222222 </v>
   <v>       0.25000000       0.32142857       0.22222222 </v>
   <v>       0.35000000       0.32142857       0.22222222 </v>
   <v>       0.45000000       0.32142857       0.22222222 </v>
   <v>       0.05000000       0.39285714       0.22222222 </v>
   <v>       0.15000000       0.39285714       0.22222222 </v>
   <v>       0.25000000       0.39285714       0.22222222 </v>
   <v>       0.35000000       0.39285714       0.22222222 </v>
   <v>       0.45000000       0.39285714       0.22222222 </v>
   <v>       0.05000000       0.46428571       0.22222222 </v>
   <v>       0.15000000       0.46428571       0.22222222 </v>
   <v>       0.25000000       0.46428571       0.22222222 </v>
   <v>       0.35000000       0.46428571       0.22222222 </v>
   <v>       0.45000000       0.46428571       0.22222222 </v>
   <v>       0.05000000       0.03571429       0.33333333 </v>
   <v>       0.15000000       0.03571429       0.33333333 </v>
   <v>       0.25000000       0.03571429       0.33333333 </v>
   <v>       0.35000000       0.03571429       0.33333333 </v>
   <v>       0.45000000       0.03571429       0.33333333 </v>
   <v>       0.05000000       0.10714286       0.33333333 </v>
   <v>       0.15000000       0.10714286       0.33333333 </v>
   <v>       0.25000000       0.10714286       0.33333333 </v>
   <v>       0.35000000       0.10714286       0.33333333 </v>
   <v>       0.45000000       0.10714286       0.33333333 </v>
   <v>       0.05000000       0.17857143       0.33333333 </v>
   <v>       0.15000000       0.17857143       0.33333333 </v>
   <v>       0.25000000       0.17857143       0.33333333 </v>
   <v>       0.35000000       0.17857143       0.33333333 </v>
   <v>       0.45000000       0.17857143       0.33333333 </v>
   <v>       0.05000000       0.25000000       0.33333333 </v>
   <v>       0.15000000       0.25000000       0.33333333 </v>
   <v>       0.25000000       0.25000000       0.33333333 </v>
   <v>       0.35000000       0.25000000       0.33333333 </v>
   <v>       0.45000000       0.25000000       0.33333333 </v>
   <v>       0.05000000       0.32142857       0.33333333 </v>
   <v>       0.15000000       0.32142857       0.33333333 </v>
   <v>       0.25000000       0.32142857       0.33333333 </v>
   <v>       0.35000000       0.32142857       0.33333333 </v>
   <v>       0.45000000       0.32142857       0.33333333 </v>
   <v>       0.05000000       0.39285714       0.33333333 </v>
   <v>       0.15000000       0.39285714       0.33333333 </v>
   <v>       0.25000000       0.39285714       0.33333333 </v>
   <v>       0.35000000       0.39285714       0.33333333 </v>
   <v>       0.45000000       0.39285714       0.33333333 </v>
   <v>       0.05000000       0.46428571       0.33333333 </v>
   <v>       0.15000000       0.46428571       0.33333333 </v>
   <v>       0.25000000       0.46428571       0.33333333 </v>
   <v>       0.35000000       0.46428571       0.33333333 </v>
   <v>       0.45000000       0.46428571       0.33333333 </v>
   <v>       0.05000000       0.03571429       0.44444444 </v>
   <v>       0.15000000       0.03571429       0.44444444 </v>
   <v>       0.25000000       0.03571429       0.44444444 </v>
   <v>       0.35000000       0.03571429       0.44444444 </v>
   <v>       0.45000000       0.03571429       0.44444444 </v>
   <v>       0.05000000       0.10714286       0.44444444 </v>
   <v>       0.15000000       0.10714286       0.44444444 </v>
   <v>       0.25000000       0.10714286       0.44444444 </v>
   <v>       0.35000000       0.10714286       0.44444444 </v>
   <v>       0.45000000       0.10714286       0.44444444 </v>
   <v>       0.05000000       0.17857143       0.44444444 </v>
   <v>       0.15000000       0.17857143       0.44444444 </v>
   <v>       0.25000000       0.17857143       0.44444444 </v>
   <v>       0.35000000       0.17857143       0.44444444 </v>
   <v>       0.45000000       0.17857143       0.44444444 </v>
   <v>       0.05000000       0.25000000       0.44444444 </v>
   <v>       0.15000000       0.25000000       0.44444444 </v>
   <v>       0.25000000       0.25000000       0.44444444 </v>
   <v>       0.35000000       0.25000000       0.44444444 </v>
   <v>       0.45000000       0.25000000       0.44444444 </v>
   <v>       0.05000000       0.32142857       0.44444444 </v>
   <v>       0.15000000       0.32142857       0.44444444 </v>
   <v>       0.25000000       0.32142857       0.44444444 </v>
   <v>       0.35000000       0.32142857       0.44444444 </v>
   <v>       0.45000000       0.32142857       0.44444444 </v>
   <v>       0.05000000       0.39285714       0.44444444 </v>
   <v>       0.15000000       0.39285714       0.44444444 </v>
   <v>       0.25000000       0.39285714       0.44444444 </v>
   <v>       0.35000000       0.39285714       0.44444444 </v>
   <v>       0.45000000       0.39285714       0.44444444 </v>
   <v>       0.05000000       0.46428571       0.44444444 </v>
   <v>       0.15000000       0.46428571       0.44444444 </v>
   <v>       0.25000000       0.46428571       0.44444444 </v>
   <v>       0.35000000       0.46428571       0.44444444 </v>
   <v>       0.45000000       0.46428571       0.44444444 </v>
  </varray>
  <varray name="weights" >
   <v>       0.00317460 </v>
   <v>       0.00317460 </v>
   <v>       0.00317460 </v>
   <v>       0.00317460 </v>
   <v>       0.00317460 </v>
   <v>       0.00317460 </v>
   <v>       0.00317460 </v>
   <v>       0.00317460 </v>
   <v>       0.00317460 </v>
   <v>       0.00317460 </v>
   <v>       0.00317460 </v>
   <v>       0.00317460 </v>
   <v>       0.00317460 </v>
   <v>       0.00317460 </v>
   <v>       0.00317460 </v>
   <v>       0.00317460 </v>
   <v>       0.00317460 </v>
   <v>       0.00317460 </v>
   <v>       0.00317460 </v>
   <v>       0.00317460 </v>
   <v>       0.00317460 </v>
   <v>       0.00317460 </v>
   <v>       0.00317460 </v>
   <v>       0.00317460 </v>
   <v>       0.00317460 </v>
   <v>       0.00317460 </v>
   <v>       0.00317460 </v>
   <v>       0.00317460 </v>
   <v>       0.00317460 </v>
   <v>       0.00317460 </v>
   <v>       0.00317460 </v>
   <v>       0.00317460 </v>
   <v>       0.00317460 </v>
   <v>       0.00317460 </v>
   <v>       0.00317460 </v>
   <v>       0.00634921 </v>
   <v>       0.00634921 </v>
   <v>       0.00634921 </v>
   <v>       0.00634921 </v>
   <v>       0.00634921 </v>
   <v>       0.00634921 </v>
   <v>       0.00634921 </v>
   <v>       0.00634921 </v>
   <v>       0.00634921 </v>
   <v>       0.00634921 </v>
   <v>       0.00634921 </v>
   <v>       0.00634921 </v>
   <v>       0.00634921 </v>
   <v>       0.00634921 </v>
   <v>       0.00634921 </v>
   <v>       0.00634921 </v>
   <v>       0.00634921 </v>
   <v>       0.00634921 </v>
   <v>       0.00634921 </v>
   <v>       0.00634921 </v>
   <v>       0.00634921 </v>
   <v>       0.00634921 </v>
   <v>       0.00634921 </v>
   <v>       0.00634921 </v>
   <v>       0.00634921 </v>
   <v>       0.00634921 </v>
   <v>       0.00634921 </v>
   <v>       0.00634921 </v>
   <v>       0.00634921 </v>
   <v>       0.00634921 </v>
   <v>       0.00634921 </v>
   <v>       0.00634921 </v>
   <v>       0.00634921 </v>
   <v>       0.00634921 </v>
   <v>       0.00634921 </v>
   <v>       0.00634921 </v>
   <v>       0.00634921 </v>
   <v>       0.00634921 </v>
   <v>       0.00634921 </v>
   <v>       0.00634921 </v>
   <v>       0.00634921 </v>
   <v>       0.00634921 </v>
   <v>       0.00634921 </v>
   <v>       0.00634921 </v>
   <v>       0.00634921 </v>
   <v>       0.00634921 </v>
   <v>       0.00634921 </v>
   <v>       0.00634921 </v>
   <v>       0.00634921 </v>
   <v>       0.00634921 </v>
   <v>       0.00634921 </v>
   <v>       0.00634921 </v>
   <v>       0.00634921 </v>
   <v>       0.00634921 </v>
   <v>       0.00634921 </v>
   <v>       0.00634921 </v>
   <v>       0.00634921 </v>
   <v>       0.00634921 </v>
   <v>       0.00634921 </v>
   <v>       0.00634921 </v>
   <v>       0.00634921 </v>
   <v>       0.00634921 </v>
   <v>       0.00634921 </v>
   <v>       0.00634921 </v>
   <v>       0.00634921 </v>
   <v>       0.00634921 </v>
   <v>       0.00634921 </v>
   <v>       0.00634921 </v>
   <v>       0.00634921 </v>
   <v>       0.00634921 </v>
   <v>       0.00634921 </v>
   <v>       0.00634921 </v>
   <v>       0.00634921 </v>
   <v>       0.00634921 </v>
   <v>       0.00634921 </v>
   <v>       0.00634921 </v>
   <v>       0.00634921 </v>
   <v>       0.00634921 </v>
   <v>       0.00634921 </v>
   <v>       0.00634921 </v>
   <v>       0.00634921 </v>
   <v>       0.00634921 </v>
   <v>       0.00634921 </v>
   <v>       0.00634921 </v>
   <v>       0.00634921 </v>
   <v>       0.00634921 </v>
   <v>       0.00634921 </v>
   <v>       0.00634921 </v>
   <v>       0.00634921 </v>
   <v>       0.00634921 </v>
   <v>       0.00634921 </v>
   <v>       0.00634921 </v>
   <v>       0.00634921 </v>
   <v>       0.00634921 </v>
   <v>       0.00634921 </v>
   <v>       0.00634921 </v>
   <v>       0.00634921 </v>
   <v>       0.00634921 </v>
   <v>       0.00634921 </v>
   <v>       0.00634921 </v>
   <v>       0.00634921 </v>
   <v>       0.00634921 </v>
   <v>       0.00634921 </v>
   <v>       0.00634921 </v>
   <v>       0.00634921 </v>
   <v>       0.00634921 </v>
   <v>       0.00634921 </v>
   <v>       0.00634921 </v>
   <v>       0.00634921 </v>
   <v>       0.00634921 </v>
   <v>       0.00634921 </v>
   <v>       0.00634921 </v>
   <v>       0.00634921 </v>
   <v>       0.00634921 </v>
   <v>       0.00634921 </v>
   <v>       0.00634921 </v>
   <v>       0.00634921 </v>
   <v>       0.00634921 </v>
   <v>       0.00634921 </v>
   <v>       0.00634921 </v>
   <v>       0.00634921 </v>
   <v>       0.00634921 </v>
   <v>       0.00634921 </v>
   <v>       0.00634921 </v>
   <v>       0.00634921 </v>
   <v>       0.00634921 </v>
   <v>       0.00634921 </v>
   <v>       0.00634921 </v>
   <v>       0.00634921 </v>
   <v>       0.00634921 </v>
   <v>       0.00634921 </v>
   <v>       0.00634921 </v>
   <v>       0.00634921 </v>
   <v>       0.00634921 </v>
   <v>       0.00634921 </v>
   <v>       0.00634921 </v>
   <v>       0.00634921 </v>
   <v>       0.00634921 </v>
   <v>       0.00634921 </v>
   <v>       0.00634921 </v>
  </varray>
 </kpoints>
 <parameters>
  <separator name="general" >
   <i type="string" name="SYSTEM">Convergence</i>
   <i type="logical" name="LCOMPAT"> F  </i>
  </separator>
  <separator name="electronic" >
   <i type="string" name="PREC">accura</i>
   <i name="ENMAX">    600.00000000</i>
   <i name="ENAUG">    535.51400000</i>
   <i name="EDIFF">      0.00000100</i>
   <i type="int" name="IALGO">    38</i>
   <i type="int" name="IWAVPR">    10</i>
   <i type="int" name="NBANDS">    48</i>
   <i type="int" name="NBANDSLOW">    -1</i>
   <i type="int" name="NBANDSHIGH">    -1</i>
   <i name="NELECT">     42.00000000</i>
   <i type="int" name="TURBO">     0</i>
   <i type="int" name="IRESTART">     0</i>
   <i type="int" name="NREBOOT">     0</i>
   <i type="int" name="NMIN">     0</i>
   <i name="EREF">      0.00000000</i>
   <separator name="electronic smearing" >
    <i type="int" name="ISMEAR">     0</i>
    <i name="SIGMA">      0.05000000</i>
    <i name="KSPACING">      0.50000000</i>
    <i type="logical" name="KGAMMA"> T  </i>
    <i type="logical" name="KBLOWUP"> T  </i>
   </separator>
   <separator name="electronic projectors" >
    <i type="logical" name="LREAL"> F  </i>
    <v name="ROPT">      0.00000000</v>
    <i type="int" name="LMAXPAW">  -100</i>
    <i type="int" name="LMAXMIX">     2</i>
    <i type="logical" name="NLSPLINE"> F  </i>
   </separator>
   <separator name="electronic startup" >
    <i type="int" name="ISTART">     0</i>
    <i type="int" name="ICHARG">     2</i>
    <i type="int" name="INIWAV">     1</i>
   </separator>
   <separator name="electronic spin" >
    <i type="int" name="ISPIN">     1</i>
    <i type="logical" name="LNONCOLLINEAR"> F  </i>
    <v name="MAGMOM">      1.00000000      1.00000000      1.00000000      1.00000000      1.00000000      1.00000000      1.00000000      1.00000000      1.00000000      1.00000000      1.00000000      1.00000000      1.00000000      1.00000000</v>
    <i name="NUPDOWN">     -1.00000000</i>
    <i type="logical" name="LSORBIT"> F  </i>
    <v name="SAXIS">      0.00000000      0.00000000      1.00000000</v>
    <i type="logical" name="LSPIRAL"> F  </i>
    <v name="QSPIRAL">      0.00000000      0.00000000      0.00000000</v>
    <i type="logical" name="LZEROZ"> F  </i>
   </separator>
   <separator name="electronic exchange-correlation" >
    <i type="logical" name="LASPH"> F  </i>
   </separator>
   <separator name="electronic convergence" >
    <i type="int" name="NELM">   100</i>
    <i type="int" name="NELMDL">    -5</i>
    <i type="int" name="NELMIN">     2</i>
    <i name="ENINI">    600.00000000</i>
    <separator name="electronic convergence detail" >
     <i type="logical" name="LDIAG"> T  </i>
     <i type="logical" name="LSUBROT"> F  </i>
     <i name="WEIMIN">      0.00000000</i>
     <i name="EBREAK">      0.00000001</i>
     <i name="DEPER">      0.30000000</i>
     <i type="int" name="NRMM">     4</i>
     <i name="TIME">      0.40000000</i>
    </separator>
   </separator>
   <separator name="electronic mixer" >
    <i name="AMIX">      0.40000000</i>
    <i name="BMIX">      1.00000000</i>
    <i name="AMIN">      0.10000000</i>
    <i name="AMIX_MAG">      1.60000000</i>
    <i name="BMIX_MAG">      1.00000000</i>
    <separator name="electronic mixer details" >
     <i type="int" name="IMIX">     4</i>
     <i type="logical" name="MIXFIRST"> F  </i>
     <i type="int" name="MAXMIX">   -45</i>
     <i name="WC">    100.00000000</i>
     <i type="int" name="INIMIX">     1</i>
     <i type="int" name="MIXPRE">     1</i>
     <i type="int" name="MREMOVE">     5</i>
    </separator>
   </separator>
   <separator name="electronic dipolcorrection" >
    <i type="logical" name="LDIPOL"> F  </i>
    <i type="logical" name="LMONO"> F  </i>
    <i type="int" name="IDIPOL">     0</i>
    <i name="EPSILON">      1.00000000</i>
    <v name="DIPOL">   -100.00000000   -100.00000000   -100.00000000</v>
    <i name="EFIELD">      0.00000000</i>
    <i type="logical" name="LVACPOTAV"> F  </i>
   </separator>
  </separator>
  <separator name="grids" >
   <i type="int" name="NGX">    48</i>
   <i type="int" name="NGY">    32</i>
   <i type="int" name="NGZ">    50</i>
   <i type="int" name="NGXF">    96</i>
   <i type="int" name="NGYF">    64</i>
   <i type="int" name="NGZF">   100</i>
   <i type="logical" name="ADDGRID"> F  </i>
  </separator>
  <separator name="ionic" >
   <i type="int" name="NSW">     0</i>
   <i type="int" name="IBRION">    -1</i>
   <i type="int" name="MDALGO">     0</i>
   <i type="int" name="ISIF">     2</i>
   <i name="PSTRESS">      0.00000000</i>
   <i name="EDIFFG">     -0.00100000</i>
   <i type="int" name="NFREE">     0</i>
   <i name="POTIM">      0.50000000</i>
   <i name="SMASS">     -3.00000000</i>
   <i name="SCALEE">      1.00000000</i>
  </separator>
  <separator name="ionic md" >
   <i name="TEBEG">      0.00010000</i>
   <i name="TEEND">      0.00010000</i>
   <i type="int" name="NBLOCK">     1</i>
   <i type="int" name="KBLOCK">     1</i>
   <i type="int" name="NPACO">   256</i>
   <i name="APACO">     10.00000000</i>
  </separator>
  <separator name="symmetry" >
   <i type="int" name="ISYM">     2</i>
   <i name="SYMPREC">      0.00001000</i>
  </separator>
  <separator name="dos" >
   <i type="int" name="LORBIT">     0</i>
   <v name="RWIGS">     -1.00000000</v>
   <i type="int" name="NEDOS">   301</i>
   <i name="EMIN">     10.00000000</i>
   <i name="EMAX">    -10.00000000</i>
   <i name="EFERMI">      0.00000000</i>
  </separator>
  <separator name="writing" >
   <i type="int" name="NWRITE">     2</i>
   <i type="logical" name="LWAVE"> F  </i>
   <i type="logical" name="LDOWNSAMPLE"> F  </i>
   <i type="logical" name="LCHARG"> F  </i>
   <i type="logical" name="LPARD"> F  </i>
   <i type="logical" name="LVTOT"> F  </i>
   <i type="logical" name="LVHAR"> F  </i>
   <i type="logical" name="LELF"> F  </i>
   <i type="logical" name="LOPTICS"> F  </i>
   <v name="STM">      0.00000000      0.00000000      0.00000000      0.00000000      0.00000000      0.00000000      0.00000000</v>
  </separator>
  <separator name="performance" >
   <i type="int" name="NPAR">    24</i>
   <i type="int" name="NSIM">     4</i>
   <i type="int" name="NBLK">    -1</i>
   <i type="logical" name="LPLANE"> T  </i>
   <i type="logical" name="LSCALAPACK"> T  </i>
   <i type="logical" name="LSCAAWARE"> F  </i>
   <i type="logical" name="LSCALU"> F  </i>
   <i type="logical" name="LASYNC"> F  </i>
   <i type="logical" name="LORBITALREAL"> F  </i>
  </separator>
  <separator name="miscellaneous" >
   <i type="int" name="IDIOT">     3</i>
   <i type="int" name="PHON_NSTRUCT">    -1</i>
   <i type="logical" name="LMUSIC"> F  </i>
   <v name="POMASS">     10.81100000</v>
   <v name="DARWINR">      0.00000000</v>
   <v name="DARWINV">      1.00000000</v>
   <i type="logical" name="LCORR"> T  </i>
  </separator>
  <i type="logical" name="GGA_COMPAT"> T  </i>
  <i type="logical" name="LBERRY"> F  </i>
  <i type="int" name="ICORELEVEL">     0</i>
  <i type="logical" name="LDAU"> F  </i>
  <i type="int" name="I_CONSTRAINED_M">     0</i>
  <separator name="electronic exchange-correlation" >
   <i type="string" name="GGA    ">PE</i>
   <i type="string" name="XC_C">1</i>
   <i type="int" name="VOSKOWN">     0</i>
   <i type="logical" name="LHFCALC"> F  </i>
   <i type="string" name="PRECFOCK"></i>
   <i type="logical" name="LSYMGRAD"> F  </i>
   <i type="logical" name="LHFONE"> F  </i>
   <i type="logical" name="LRHFCALC"> F  </i>
   <i type="logical" name="LTHOMAS"> F  </i>
   <i type="logical" name="LMODELHF"> F  </i>
   <i type="logical" name="LFOCKACE"> F  </i>
   <i name="ENCUT4O">     -1.00000000</i>
   <i type="int" name="EXXOEP">     0</i>
   <i type="int" name="FOURORBIT">     0</i>
   <i name="AEXX">      0.00000000</i>
   <i name="HFALPHA">      0.00000000</i>
   <i name="MCALPHA">      0.00000000</i>
   <i name="ALDAX">      1.00000000</i>
   <i name="AGGAX">      1.00000000</i>
   <i name="AMGGAX">      1.00000000</i>
   <i name="ALDAC">      1.00000000</i>
   <i name="AGGAC">      1.00000000</i>
   <i name="AMGGAC">      1.00000000</i>
   <i type="int" name="NKREDX">     1</i>
   <i type="int" name="NKREDY">     1</i>
   <i type="int" name="NKREDZ">     1</i>
   <i type="logical" name="SHIFTRED"> F  </i>
   <i type="logical" name="ODDONLY"> F  </i>
   <i type="logical" name="EVENONLY"> F  </i>
   <i type="int" name="LMAXFOCK">     0</i>
   <i type="int" name="NMAXFOCKAE">     0</i>
   <i type="logical" name="LFOCKAEDFT"> F  </i>
   <i name="HFSCREEN">      0.00000000</i>
   <i name="HFSCREENC">      0.00000000</i>
   <i type="int" name="NBANDSGWLOW">     0</i>
  </separator>
  <separator name="vdW DFT" >
   <i type="logical" name="LUSE_VDW"> F  </i>
   <i type="int" name="IVDW_NL">    -1</i>
   <i type="logical" name="LSPIN_VDW"> F  </i>
   <i name="ZAB_VDW">     -0.84910000</i>
   <i name="GAMMA_VDW">      1.39626340</i>
   <i name="ALPHA_VDW">      0.00000000</i>
   <i name="PARAM1">      0.12340000</i>
   <i name="PARAM2">      1.00000000</i>
   <i name="BPARAM">      6.30000000</i>
   <i name="CPARAM">      0.00930000</i>
  </separator>
  <separator name="model GW" >
   <i type="int" name="MODEL_GW">     0</i>
   <i name="MODEL_EPS0">      6.10604055</i>
   <i name="MODEL_ALPHA">      1.00000000</i>
  </separator>
  <separator name="linear response parameters" >
   <i type="logical" name="LEPSILON"> F  </i>
   <i type="logical" name="LRPA"> F  </i>
   <i type="logical" name="LNABLA"> F  </i>
   <i type="logical" name="LVEL"> F  </i>
   <i name="CSHIFT">      0.10000000</i>
   <i name="OMEGAMAX">     -1.00000000</i>
   <i name="DEG_THRESHOLD">      0.00200000</i>
   <i name="RTIME">     -0.10000000</i>
   <i name="WPLASMAI">      0.00000000</i>
   <v name="DFIELD">      0.00000000      0.00000000      0.00000000</v>
   <v name="WPLASMA">      0.00000000      0.00000000      0.00000000      0.00000000      0.00000000      0.00000000      0.00000000      0.00000000      0.00000000</v>
  </separator>
  <separator name="orbital magnetization" >
   <i type="logical" name="NUCIND"> F  </i>
   <v name="MAGPOS">      0.00000000      0.00000000      0.00000000</v>
   <i type="logical" name="LNICSALL"> T  </i>
   <i type="logical" name="ORBITALMAG"> F  </i>
   <i type="logical" name="LMAGBLOCH"> F  </i>
   <i type="logical" name="LCHIMAG"> F  </i>
   <i type="logical" name="LGAUGE"> T  </i>
   <i type="int" name="MAGATOM">     0</i>
   <v name="MAGDIPOL">      0.00000000      0.00000000      0.00000000</v>
   <v name="AVECCONST">      0.00000000      0.00000000      0.00000000</v>
  </separator>
  <separator name="response functions" >
   <i type="logical" name="LALL_IN_ONE"> F  </i>
   <i type="int" name="IALL_IN_ONE">    -1</i>
   <i type="int" name="NBANDS_WAVE">    -1</i>
   <i type="logical" name="LFINITE_TEMPERATURE"> F  </i>
   <i type="logical" name="LADDER"> F  </i>
   <i type="logical" name="LRPAFORCE"> F  </i>
   <i type="logical" name="LFXC"> F  </i>
   <i type="logical" name="LHARTREE"> T  </i>
   <i type="int" name="IBSE">     0</i>
   <v type="int" name="KPOINT">    -1     0     0     0</v>
   <i type="logical" name="LTCTC"> F  </i>
   <i type="logical" name="LTCTE"> F  </i>
   <i type="logical" name="LTETE"> F  </i>
   <i type="logical" name="LTRIPLET"> F  </i>
   <i type="logical" name="LFXCEPS"> F  </i>
   <i type="logical" name="LFXHEG"> F  </i>
   <i type="int" name="NATURALO">     2</i>
   <i type="logical" name="LHOLEGF"> F  </i>
   <i type="logical" name="L2ORDER"> F  </i>
   <i type="logical" name="LDMP1"> F  </i>
   <i type="logical" name="LMP2LT"> F  </i>
   <i type="logical" name="LSMP2LT"> F  </i>
   <i type="logical" name="LGWLF"> F  </i>
   <i name="ENCUTGW">     -1.60000002</i>
   <i name="ENCUTGWSOFT">     -1.60000002</i>
   <i name="ENCUTLF">     -1.00000000</i>
   <i type="logical" name="ESF_SPLINES"> F  </i>
   <i name="ESF_CONV">      0.01000000</i>
   <i type="int" name="ESF_NINTER">    15</i>
   <i type="int" name="LMAXMP2">    -1</i>
   <i name="SCISSOR">      0.00000000</i>
   <i type="int" name="NOMEGA">     0</i>
   <i type="int" name="NOMEGAR">     0</i>
   <i type="int" name="NBANDSGW">    -1</i>
   <i type="int" name="NBANDSO">    -1</i>
   <i type="int" name="NBANDSV">    -1</i>
   <i type="int" name="NELMGW">     1</i>
   <i type="int" name="NELMHF">     1</i>
   <i type="int" name="DIM">     3</i>
   <i type="int" name="IESPILON">     4</i>
   <i type="int" name="ANTIRES">     0</i>
   <i name="OMEGAMAX">    -30.00000000</i>
   <i name="OMEGAMIN">    -30.00000000</i>
   <i name="OMEGATL">   -200.00000000</i>
   <i type="int" name="OMEGAGRID">     0</i>
   <i name="CSHIFT">     -0.10000000</i>
   <i type="logical" name="LSELFENERGY"> F  </i>
   <i type="logical" name="LSPECTRAL"> F  </i>
   <i type="logical" name="LSPECTRALGW"> F  </i>
   <i type="logical" name="LSINGLES"> F  </i>
   <i type="logical" name="LFERMIGW"> F  </i>
   <i type="logical" name="ODDONLYGW"> F  </i>
   <i type="logical" name="EVENONLYGW"> F  </i>
   <i type="int" name="NKREDLFX">     1</i>
   <i type="int" name="NKREDLFY">     1</i>
   <i type="int" name="NKREDLFZ">     1</i>
   <i type="int" name="MAXMEM">  2800</i>
   <i type="int" name="TELESCOPE">     0</i>
   <i type="int" name="NTAUPAR">    -1</i>
   <i type="int" name="NOMEGAPAR">    -1</i>
   <i name="DAMP_NEWTON">      0.80000001</i>
   <i name="LAMBDA">      1.00000000</i>
  </separator>
  <separator name="External order field" >
   <i name="OFIELD_KAPPA">      0.00000000</i>
   <v name="OFIELD_K">      0.00000000      0.00000000      0.00000000</v>
   <i name="OFIELD_Q6_NEAR">      0.00000000</i>
   <i name="OFIELD_Q6_FAR">      0.00000000</i>
   <i name="OFIELD_A">      0.00000000</i>
  </separator>
  <separator name="optional k-points parameters" >
   <i type="int" name="KPOINTS_OPT_MODE">     1</i>
   <i type="logical" name="LKPOINTS_OPT"> F  </i>
  </separator>
 </parameters>
 <atominfo>
  <atoms>      14 </atoms>
  <types>       1 </types>
  <array name="atoms" >
   <dimension dim="1">ion</dimension>
   <field type="string">element</field>
   <field type="int">atomtype</field>
   <set>
    <rc><c>B </c><c>   1</c></rc>
    <rc><c>B </c><c>   1</c></rc>
    <rc><c>B </c><c>   1</c></rc>
    <rc><c>B </c><c>   1</c></rc>
    <rc><c>B </c><c>   1</c></rc>
    <rc><c>B </c><c>   1</c></rc>
    <rc><c>B </c><c>   1</c></rc>
    <rc><c>B </c><c>   1</c></rc>
    <rc><c>B </c><c>   1</c></rc>
    <rc><c>B </c><c>   1</c></rc>
    <rc><c>B </c><c>   1</c></rc>
    <rc><c>B </c><c>   1</c></rc>
    <rc><c>B </c><c>   1</c></rc>
    <rc><c>B </c><c>   1</c></rc>
   </set>
  </array>
  <array name="atomtypes" >
   <dimension dim="1">type</dimension>
   <field type="int">atomspertype</field>
   <field type="string">element</field>
   <field>mass</field>
   <field>valence</field>
   <field type="string">pseudopotential</field>
   <set>
    <rc><c>  14</c><c>B </c><c>     10.81100000</c><c>      3.00000000</c><c>  PAW_PBE B 06Sep2000                   </c></rc>
   </set>
  </array>
 </atominfo>
 <structure name="initialpos" >
  <crystal>
   <varray name="basis" >
    <v>       5.68902420       0.00000000       0.00000000 </v>
    <v>       0.00000000       4.04223294       0.00000000 </v>
    <v>       0.00000000       0.00000000       6.19551412 </v>
   </varray>
   <i name="volume">    142.47427939 </i>
   <varray name="rec_basis" >
    <v>       0.17577707       0.00000000       0.00000000 </v>
    <v>       0.00000000       0.24738802       0.00000000 </v>
    <v>       0.00000000       0.00000000       0.16140711 </v>
   </varray>
  </crystal>
  <varray name="positions" >
   <v>       0.52123000       0.50000000       0.63796000 </v>
   <v>       0.47877000       0.50000000       0.36204000 </v>
   <v>       0.97877000       0.50000000       0.63796000 </v>
   <v>       0.02123000       0.50000000       0.36204000 </v>
   <v>       0.60090000       0.50000000       0.89991000 </v>
   <v>       0.39910000       0.50000000       0.10009000 </v>
   <v>       0.89910000       0.50000000       0.89991000 </v>
   <v>       0.10090000       0.50000000       0.10009000 </v>
   <v>       0.75000000       0.79171000       0.72973000 </v>
   <v>       0.25000000       0.20829000       0.27027000 </v>
   <v>       0.75000000       0.20829000       0.72973000 </v>
   <v>       0.25000000       0.79171000       0.27027000 </v>
   <v>       0.25000000       0.50000000       0.52367000 </v>
   <v>       0.75000000       0.50000000       0.47633000 </v>
  </varray>
 </structure>
 <calculation>
  <scstep>
   <time name="dav">    4.68    4.71</time>
   <time name="total">    4.70    4.73</time>
   <energy>
    <i name="alphaZ">     94.64051385 </i>
    <i name="ewald">   -796.88221602 </i>
    <i name="hartreedc">   -270.91680364 </i>
    <i name="XCdc">     97.60746603 </i>
    <i name="pawpsdc">    608.99811708 </i>
    <i name="pawaedc">   -597.02363782 </i>
    <i name="eentropy">     -0.00253808 </i>
    <i name="bandstr">    -54.06599728 </i>
    <i name="atom">    996.37441054 </i>
    <i name="e_fr_energy">     78.72931466 </i>
    <i name="e_wo_entrp">     78.73185274 </i>
    <i name="e_0_energy">     78.73058370 </i>
   </energy>
  </scstep>
  <scstep>
   <time name="dav">    6.15    6.19</time>
   <time name="total">    6.15    6.19</time>
   <energy>
    <i name="e_fr_energy">    -91.94306267 </i>
    <i name="e_wo_entrp">    -91.93987883 </i>
    <i name="e_0_energy">    -91.94147075 </i>
   </energy>
  </scstep>
  <scstep>
   <time name="dav">    6.60    6.63</time>
   <time name="total">    6.60    6.63</time>
   <energy>
    <i name="e_fr_energy">    -97.68571165 </i>
    <i name="e_wo_entrp">    -97.68206415 </i>
    <i name="e_0_energy">    -97.68388790 </i>
   </energy>
  </scstep>
  <scstep>
   <time name="dav">    5.38    5.41</time>
   <time name="total">    5.38    5.41</time>
   <energy>
    <i name="e_fr_energy">    -97.71922142 </i>
    <i name="e_wo_entrp">    -97.71557318 </i>
    <i name="e_0_energy">    -97.71739730 </i>
   </energy>
  </scstep>
  <scstep>
   <time name="dav">    6.59    6.63</time>
   <time name="total">    6.69    6.74</time>
   <energy>
    <i name="e_fr_energy">    -97.71959123 </i>
    <i name="e_wo_entrp">    -97.71594300 </i>
    <i name="e_0_energy">    -97.71776712 </i>
   </energy>
  </scstep>
  <scstep>
   <time name="dav">    6.53    6.57</time>
   <time name="total">    6.63    6.68</time>
   <energy>
    <i name="e_fr_energy">    -92.24143740 </i>
    <i name="e_wo_entrp">    -92.23802199 </i>
    <i name="e_0_energy">    -92.23972970 </i>
   </energy>
  </scstep>
  <scstep>
   <time name="dav">    6.75    6.79</time>
   <time name="total">    6.86    6.89</time>
   <energy>
    <i name="e_fr_energy">    -90.57350501 </i>
    <i name="e_wo_entrp">    -90.57038054 </i>
    <i name="e_0_energy">    -90.57194278 </i>
   </energy>
  </scstep>
  <scstep>
   <time name="dav">    5.02    5.05</time>
   <time name="total">    5.12    5.15</time>
   <energy>
    <i name="e_fr_energy">    -90.58579987 </i>
    <i name="e_wo_entrp">    -90.58262543 </i>
    <i name="e_0_energy">    -90.58421265 </i>
   </energy>
  </scstep>
  <scstep>
   <time name="dav">    6.29    6.33</time>
   <time name="total">    6.39    6.42</time>
   <energy>
    <i name="e_fr_energy">    -90.59994580 </i>
    <i name="e_wo_entrp">    -90.59668328 </i>
    <i name="e_0_energy">    -90.59831454 </i>
   </energy>
  </scstep>
  <scstep>
   <time name="dav">    5.25    5.28</time>
   <time name="total">    5.34    5.38</time>
   <energy>
    <i name="e_fr_energy">    -90.60400561 </i>
    <i name="e_wo_entrp">    -90.60078972 </i>
    <i name="e_0_energy">    -90.60239766 </i>
   </energy>
  </scstep>
  <scstep>
   <time name="dav">    5.80    5.83</time>
   <time name="total">    5.90    5.93</time>
   <energy>
    <i name="e_fr_energy">    -90.60507096 </i>
    <i name="e_wo_entrp">    -90.60186614 </i>
    <i name="e_0_energy">    -90.60346855 </i>
   </energy>
  </scstep>
  <scstep>
   <time name="dav">    5.57    5.60</time>
   <time name="total">    5.67    5.70</time>
   <energy>
    <i name="e_fr_energy">    -90.60518784 </i>
    <i name="e_wo_entrp">    -90.60197674 </i>
    <i name="e_0_energy">    -90.60358229 </i>
   </energy>
  </scstep>
  <scstep>
   <time name="dav">    6.28    6.31</time>
   <time name="total">    6.38    6.41</time>
   <energy>
    <i name="e_fr_energy">    -90.60519270 </i>
    <i name="e_wo_entrp">    -90.60198124 </i>
    <i name="e_0_energy">    -90.60358697 </i>
   </energy>
  </scstep>
  <scstep>
   <time name="dav">    5.55    5.58</time>
   <time name="total">    5.57    5.60</time>
   <energy>
    <i name="alphaZ">     94.64051385 </i>
    <i name="ewald">   -796.88221602 </i>
    <i name="hartreedc">   -349.08012960 </i>
    <i name="XCdc">    101.72022831 </i>
    <i name="pawpsdc">   3767.14985325 </i>
    <i name="pawaedc">  -3756.34953630 </i>
    <i name="eentropy">     -0.00321157 </i>
    <i name="bandstr">   -148.17510586 </i>
    <i name="atom">    996.37441054 </i>
    <i name="e_fr_energy">    -90.60519340 </i>
    <i name="e_wo_entrp">    -90.60198183 </i>
    <i name="e_0_energy">    -90.60358761 </i>
   </energy>
  </scstep>
  <structure>
   <crystal>
    <varray name="basis" >
     <v>       5.68902420       0.00000000       0.00000000 </v>
     <v>       0.00000000       4.04223294       0.00000000 </v>
     <v>       0.00000000       0.00000000       6.19551412 </v>
    </varray>
    <i name="volume">    142.47427939 </i>
    <varray name="rec_basis" >
     <v>       0.17577707       0.00000000       0.00000000 </v>
     <v>       0.00000000       0.24738802       0.00000000 </v>
     <v>       0.00000000       0.00000000       0.16140711 </v>
    </varray>
   </crystal>
   <varray name="positions" >
    <v>       0.52123000       0.50000000       0.63796000 </v>
    <v>       0.47877000       0.50000000       0.36204000 </v>
    <v>       0.97877000       0.50000000       0.63796000 </v>
    <v>       0.02123000       0.50000000       0.36204000 </v>
    <v>       0.60090000       0.50000000       0.89991000 </v>
    <v>       0.39910000       0.50000000       0.10009000 </v>
    <v>       0.89910000       0.50000000       0.89991000 </v>
    <v>       0.10090000       0.50000000       0.10009000 </v>
    <v>       0.75000000       0.79171000       0.72973000 </v>
    <v>       0.25000000       0.20829000       0.27027000 </v>
    <v>       0.75000000       0.20829000       0.72973000 </v>
    <v>       0.25000000       0.79171000       0.27027000 </v>
    <v>       0.25000000       0.50000000       0.52367000 </v>
    <v>       0.75000000       0.50000000       0.47633000 </v>
   </varray>
  </structure>
  <varray name="forces" >
   <v>      -0.02702372       0.00000000       0.05983217 </v>
   <v>       0.02702372       0.00000000      -0.05983217 </v>
   <v>       0.02702372       0.00000000       0.05983217 </v>
   <v>      -0.02702372       0.00000000      -0.05983217 </v>
   <v>      -0.84946869       0.00000000       0.30040703 </v>
   <v>       0.84946869       0.00000000      -0.30040703 </v>
   <v>       0.84946869       0.00000000       0.30040703 </v>
   <v>      -0.84946869       0.00000000      -0.30040703 </v>
   <v>       0.00000000       0.06361184      -0.08248291 </v>
   <v>      -0.00000000      -0.06361184       0.08248291 </v>
   <v>       0.00000000      -0.06361184      -0.08248291 </v>
   <v>      -0.00000000       0.06361184       0.08248291 </v>
   <v>       0.00000000       0.00000000       0.09643842 </v>
   <v>      -0.00000000       0.00000000      -0.09643842 </v>
  </varray>
  <varray name="stress" >
   <v>      22.42109384       0.00000000       0.00000000 </v>
   <v>       0.00000000       5.05665420       0.00000000 </v>
   <v>      -0.00000000       0.00000000       0.26526757 </v>
  </varray>
  <energy>
   <i name="e_fr_energy">    -90.60519340 </i>
   <i name="e_wo_entrp">    -90.60198183 </i>
   <i name="e_0_energy">    -90.60358761 </i>
  </energy>
  <time name="totalsc">   88.09   88.61</time>
  <eigenvalues>
   <array>
    <dimension dim="1">band</dimension>
    <dimension dim="2">kpoint</dimension>
    <dimension dim="3">spin</dimension>
    <field>eigene</field>
    <field>occ</field>
    <set>
     <set comment="spin 1">
      <set comment="kpoint 1">
       <r>  -12.7296    1.0000 </r>
       <r>  -11.5872    1.0000 </r>
       <r>   -8.6518    1.0000 </r>
       <r>   -8.4145    1.0000 </r>
       <r>   -6.0518    1.0000 </r>
       <r>   -5.1177    1.0000 </r>
       <r>   -4.6521    1.0000 </r>
       <r>   -4.2673    1.0000 </r>
       <r>   -4.0217    1.0000 </r>
       <r>   -3.5309    1.0000 </r>
       <r>   -2.5749    1.0000 </r>
       <r>   -2.3053    1.0000 </r>
       <r>   -1.8132    1.0000 </r>
       <r>   -1.0775    1.0000 </r>
       <r>   -0.0530    1.0000 </r>
       <r>   -0.0231    1.0000 </r>
       <r>    0.1785    1.0000 </r>
       <r>    0.2016    1.0000 </r>
       <r>    0.5880    1.0000 </r>
       <r>    2.0419    0.0001 </r>
       <r>    2.1056    0.0000 </r>
       <r>    2.2441    0.0000 </r>
       <r>    5.4908    0.0000 </r>
       <r>    5.7825    0.0000 </r>
       <r>    5.8740    0.0000 </r>
       <r>    5.9925    0.0000 </r>
       <r>    6.8521    0.0000 </r>
       <r>    7.5860    0.0000 </r>
       <r>    7.9176    0.0000 </r>
       <r>    8.5839    0.0000 </r>
       <r>    8.8591    0.0000 </r>
       <r>    9.0002    0.0000 </r>
       <r>    9.1166    0.0000 </r>
       <r>   10.1641    0.0000 </r>
       <r>   11.2218    0.0000 </r>
       <r>   11.3887    0.0000 </r>
       <r>   11.7213    0.0000 </r>
       <r>   11.8338    0.0000 </r>
       <r>   11.9872    0.0000 </r>
       <r>   12.4462    0.0000 </r>
       <r>   12.9263    0.0000 </r>
       <r>   13.5117    0.0000 </r>
       <r>   13.5388    0.0000 </r>
       <r>   15.4548    0.0000 </r>
       <r>   15.6383    0.0000 </r>
       <r>   16.1333    0.0000 </r>
       <r>   16.3968    0.0000 </r>
       <r>   16.4227    0.0000 </r>
      </set>
      <set comment="kpoint 2">
       <r>  -12.6859    1.0000 </r>
       <r>  -11.6610    1.0000 </r>
       <r>   -8.6308    1.0000 </r>
       <r>   -8.4030    1.0000 </r>
       <r>   -5.9833    1.0000 </r>
       <r>   -5.4607    1.0000 </r>
       <r>   -4.7759    1.0000 </r>
       <r>   -3.9993    1.0000 </r>
       <r>   -3.7811    1.0000 </r>
       <r>   -3.1918    1.0000 </r>
       <r>   -2.6455    1.0000 </r>
       <r>   -2.2849    1.0000 </r>
       <r>   -1.8929    1.0000 </r>
       <r>   -1.3849    1.0000 </r>
       <r>   -0.0123    1.0000 </r>
       <r>    0.0027    1.0000 </r>
       <r>    0.1139    1.0000 </r>
       <r>    0.2207    1.0000 </r>
       <r>    0.4931    1.0000 </r>
       <r>    1.9555    0.0923 </r>
       <r>    2.0275    0.0004 </r>
       <r>    2.1224    0.0000 </r>
       <r>    5.5790    0.0000 </r>
       <r>    5.7938    0.0000 </r>
       <r>    5.8986    0.0000 </r>
       <r>    6.3398    0.0000 </r>
       <r>    6.7660    0.0000 </r>
       <r>    7.2229    0.0000 </r>
       <r>    8.1308    0.0000 </r>
       <r>    8.7202    0.0000 </r>
       <r>    9.1207    0.0000 </r>
       <r>    9.1868    0.0000 </r>
       <r>    9.2543    0.0000 </r>
       <r>   10.2824    0.0000 </r>
       <r>   10.9946    0.0000 </r>
       <r>   11.1845    0.0000 </r>
       <r>   11.2955    0.0000 </r>
       <r>   11.7501    0.0000 </r>
       <r>   12.2049    0.0000 </r>
       <r>   12.5373    0.0000 </r>
       <r>   13.1810    0.0000 </r>
       <r>   13.1862    0.0000 </r>
       <r>   14.0732    0.0000 </r>
       <r>   14.9405    0.0000 </r>
       <r>   15.8146    0.0000 </r>
       <r>   15.8901    0.0000 </r>
       <r>   16.2953    0.0000 </r>
       <r>   16.5818    0.0000 </r>
      </set>
      <set comment="kpoint 3">
       <r>  -12.6001    1.0000 </r>
       <r>  -11.7939    1.0000 </r>
       <r>   -8.5874    1.0000 </r>
       <r>   -8.3883    1.0000 </r>
       <r>   -5.9620    1.0000 </r>
       <r>   -5.7882    1.0000 </r>
       <r>   -4.7305    1.0000 </r>
       <r>   -3.8708    1.0000 </r>
       <r>   -3.2695    1.0000 </r>
       <r>   -2.8155    1.0000 </r>
       <r>   -2.6976    1.0000 </r>
       <r>   -2.2439    1.0000 </r>
       <r>   -2.0048    1.0000 </r>
       <r>   -1.8899    1.0000 </r>
       <r>   -0.1951    1.0000 </r>
       <r>    0.0334    1.0000 </r>
       <r>    0.1652    1.0000 </r>
       <r>    0.1750    1.0000 </r>
       <r>    0.4627    1.0000 </r>
       <r>    1.8079    0.9978 </r>
       <r>    1.8915    0.6851 </r>
       <r>    1.8944    0.6562 </r>
       <r>    5.6995    0.0000 </r>
       <r>    5.7505    0.0000 </r>
       <r>    6.2079    0.0000 </r>
       <r>    6.6392    0.0000 </r>
       <r>    6.7999    0.0000 </r>
       <r>    6.9678    0.0000 </r>
       <r>    8.2837    0.0000 </r>
       <r>    8.8681    0.0000 </r>
       <r>    9.0563    0.0000 </r>
       <r>    9.6304    0.0000 </r>
       <r>    9.6973    0.0000 </r>
       <r>   10.3308    0.0000 </r>
       <r>   10.5394    0.0000 </r>
       <r>   10.6804    0.0000 </r>
       <r>   11.4183    0.0000 </r>
       <r>   11.8907    0.0000 </r>
       <r>   12.4402    0.0000 </r>
       <r>   12.6256    0.0000 </r>
       <r>   12.8411    0.0000 </r>
       <r>   12.9795    0.0000 </r>
       <r>   14.7006    0.0000 </r>
       <r>   14.9851    0.0000 </r>
       <r>   15.2827    0.0000 </r>
       <r>   16.0500    0.0000 </r>
       <r>   16.0672    0.0000 </r>
       <r>   16.3628    0.0000 </r>
      </set>
      <set comment="kpoint 4">
       <r>  -12.4765    1.0000 </r>
       <r>  -11.9633    1.0000 </r>
       <r>   -8.5255    1.0000 </r>
       <r>   -8.3852    1.0000 </r>
       <r>   -6.0437    1.0000 </r>
       <r>   -6.0216    1.0000 </r>
       <r>   -4.4023    1.0000 </r>
       <r>   -3.7009    1.0000 </r>
       <r>   -3.0106    1.0000 </r>
       <r>   -2.8836    1.0000 </r>
       <r>   -2.4288    1.0000 </r>
       <r>   -2.2351    1.0000 </r>
       <r>   -2.1244    1.0000 </r>
       <r>   -2.1073    1.0000 </r>
       <r>   -0.4941    1.0000 </r>
       <r>   -0.2218    1.0000 </r>
       <r>    0.1909    1.0000 </r>
       <r>    0.2669    1.0000 </r>
       <r>    0.6364    1.0000 </r>
       <r>    1.5554    1.0000 </r>
       <r>    1.6841    1.0000 </r>
       <r>    1.7455    1.0000 </r>
       <r>    5.7346    0.0000 </r>
       <r>    5.7852    0.0000 </r>
       <r>    6.5368    0.0000 </r>
       <r>    6.7075    0.0000 </r>
       <r>    6.7337    0.0000 </r>
       <r>    7.4527    0.0000 </r>
       <r>    8.4095    0.0000 </r>
       <r>    8.7336    0.0000 </r>
       <r>    8.8608    0.0000 </r>
       <r>    9.5824    0.0000 </r>
       <r>   10.1106    0.0000 </r>
       <r>   10.1673    0.0000 </r>
       <r>   10.4525    0.0000 </r>
       <r>   11.2107    0.0000 </r>
       <r>   11.4516    0.0000 </r>
       <r>   12.0049    0.0000 </r>
       <r>   12.2569    0.0000 </r>
       <r>   12.3341    0.0000 </r>
       <r>   12.5703    0.0000 </r>
       <r>   13.3080    0.0000 </r>
       <r>   14.7672    0.0000 </r>
       <r>   15.0375    0.0000 </r>
       <r>   15.3345    0.0000 </r>
       <r>   15.4367    0.0000 </r>
       <r>   15.6390    0.0000 </r>
       <r>   16.4436    0.0000 </r>
      </set>
      <set comment="kpoint 5">
       <r>  -12.3216    1.0000 </r>
       <r>  -12.1457    1.0000 </r>
       <r>   -8.4593    1.0000 </r>
       <r>   -8.4080    1.0000 </r>
       <r>   -6.1350    1.0000 </r>
       <r>   -6.1299    1.0000 </r>
       <r>   -3.8858    1.0000 </r>
       <r>   -3.4906    1.0000 </r>
       <r>   -3.2854    1.0000 </r>
       <r>   -3.2511    1.0000 </r>
       <r>   -2.3479    1.0000 </r>
       <r>   -2.2172    1.0000 </r>
       <r>   -1.9408    1.0000 </r>
       <r>   -1.8902    1.0000 </r>
       <r>   -0.7146    1.0000 </r>
       <r>   -0.5797    1.0000 </r>
       <r>    0.2745    1.0000 </r>
       <r>    0.3085    1.0000 </r>
       <r>    0.8977    1.0000 </r>
       <r>    1.2158    1.0000 </r>
       <r>    1.6033    1.0000 </r>
       <r>    1.6311    1.0000 </r>
       <r>    5.7616    0.0000 </r>
       <r>    5.7977    0.0000 </r>
       <r>    6.5144    0.0000 </r>
       <r>    6.5780    0.0000 </r>
       <r>    7.4054    0.0000 </r>
       <r>    8.1162    0.0000 </r>
       <r>    8.1361    0.0000 </r>
       <r>    8.5286    0.0000 </r>
       <r>    8.6688    0.0000 </r>
       <r>    8.8345    0.0000 </r>
       <r>   10.5503    0.0000 </r>
       <r>   10.5690    0.0000 </r>
       <r>   10.8165    0.0000 </r>
       <r>   11.2754    0.0000 </r>
       <r>   11.4605    0.0000 </r>
       <r>   11.6613    0.0000 </r>
       <r>   11.9962    0.0000 </r>
       <r>   12.5380    0.0000 </r>
       <r>   12.7663    0.0000 </r>
       <r>   13.3051    0.0000 </r>
       <r>   14.6438    0.0000 </r>
       <r>   14.7987    0.0000 </r>
       <r>   14.9266    0.0000 </r>
       <r>   14.9849    0.0000 </r>
       <r>   16.1731    0.0000 </r>
       <r>   16.5166    0.0000 </r>
      </set>
      <set comment="kpoint 6">
       <r>  -12.7055    1.0000 </r>
       <r>  -11.5657    1.0000 </r>
       <r>   -8.6329    1.0000 </r>
       <r>   -8.3912    1.0000 </r>
       <r>   -6.0248    1.0000 </r>
       <r>   -5.0839    1.0000 </r>
       <r>   -4.6299    1.0000 </r>
       <r>   -4.5649    1.0000 </r>
       <r>   -4.1660    1.0000 </r>
       <r>   -3.5078    1.0000 </r>
       <r>   -3.2694    1.0000 </r>
       <r>   -1.7745    1.0000 </r>
       <r>   -1.0729    1.0000 </r>
       <r>   -1.0131    1.0000 </r>
       <r>   -0.2876    1.0000 </r>
       <r>   -0.2596    1.0000 </r>
       <r>    0.1920    1.0000 </r>
       <r>    0.2719    1.0000 </r>
       <r>    0.6667    1.0000 </r>
       <r>    1.7731    0.9999 </r>
       <r>    1.8537    0.9397 </r>
       <r>    2.2965    0.0000 </r>
       <r>    5.6074    0.0000 </r>
       <r>    5.7422    0.0000 </r>
       <r>    5.7737    0.0000 </r>
       <r>    6.0448    0.0000 </r>
       <r>    7.1397    0.0000 </r>
       <r>    7.8721    0.0000 </r>
       <r>    8.1218    0.0000 </r>
       <r>    8.2293    0.0000 </r>
       <r>    8.8626    0.0000 </r>
       <r>    9.1583    0.0000 </r>
       <r>    9.2075    0.0000 </r>
       <r>   10.6195    0.0000 </r>
       <r>   11.3190    0.0000 </r>
       <r>   11.4394    0.0000 </r>
       <r>   11.6547    0.0000 </r>
       <r>   11.9371    0.0000 </r>
       <r>   12.0977    0.0000 </r>
       <r>   12.7285    0.0000 </r>
       <r>   12.9254    0.0000 </r>
       <r>   13.2458    0.0000 </r>
       <r>   13.2541    0.0000 </r>
       <r>   15.3992    0.0000 </r>
       <r>   15.4520    0.0000 </r>
       <r>   15.9236    0.0000 </r>
       <r>   15.9429    0.0000 </r>
       <r>   16.2897    0.0000 </r>
      </set>
      <set comment="kpoint 7">
       <r>  -12.6618    1.0000 </r>
       <r>  -11.6392    1.0000 </r>
       <r>   -8.6118    1.0000 </r>
       <r>   -8.3801    1.0000 </r>
       <r>   -5.9546    1.0000 </r>
       <r>   -5.4305    1.0000 </r>
       <r>   -4.7558    1.0000 </r>
       <r>   -4.4806    1.0000 </r>
       <r>   -3.7408    1.0000 </r>
       <r>   -3.3508    1.0000 </r>
       <r>   -3.1533    1.0000 </r>
       <r>   -1.7526    1.0000 </r>
       <r>   -1.3795    1.0000 </r>
       <r>   -1.1339    1.0000 </r>
       <r>   -0.2483    1.0000 </r>
       <r>   -0.1764    1.0000 </r>
       <r>    0.1601    1.0000 </r>
       <r>    0.2420    1.0000 </r>
       <r>    0.5642    1.0000 </r>
       <r>    1.6923    1.0000 </r>
       <r>    1.7770    0.9999 </r>
       <r>    2.1652    0.0000 </r>
       <r>    5.6830    0.0000 </r>
       <r>    5.8403    0.0000 </r>
       <r>    5.9727    0.0000 </r>
       <r>    6.1459    0.0000 </r>
       <r>    7.0557    0.0000 </r>
       <r>    7.5463    0.0000 </r>
       <r>    8.2677    0.0000 </r>
       <r>    8.4029    0.0000 </r>
       <r>    9.1923    0.0000 </r>
       <r>    9.2151    0.0000 </r>
       <r>    9.4684    0.0000 </r>
       <r>   10.5484    0.0000 </r>
       <r>   10.9248    0.0000 </r>
       <r>   11.1366    0.0000 </r>
       <r>   11.4944    0.0000 </r>
       <r>   11.9230    0.0000 </r>
       <r>   12.3180    0.0000 </r>
       <r>   12.7875    0.0000 </r>
       <r>   12.9220    0.0000 </r>
       <r>   13.2104    0.0000 </r>
       <r>   13.7886    0.0000 </r>
       <r>   15.0262    0.0000 </r>
       <r>   15.4654    0.0000 </r>
       <r>   15.8117    0.0000 </r>
       <r>   15.8650    0.0000 </r>
       <r>   16.4699    0.0000 </r>
      </set>
      <set comment="kpoint 8">
       <r>  -12.5763    1.0000 </r>
       <r>  -11.7719    1.0000 </r>
       <r>   -8.5681    1.0000 </r>
       <r>   -8.3661    1.0000 </r>
       <r>   -5.9304    1.0000 </r>
       <r>   -5.7577    1.0000 </r>
       <r>   -4.7137    1.0000 </r>
       <r>   -4.3712    1.0000 </r>
       <r>   -3.4736    1.0000 </r>
       <r>   -3.2138    1.0000 </r>
       <r>   -2.6855    1.0000 </r>
       <r>   -1.8853    1.0000 </r>
       <r>   -1.7080    1.0000 </r>
       <r>   -1.2987    1.0000 </r>
       <r>   -0.2000    1.0000 </r>
       <r>   -0.1977    1.0000 </r>
       <r>    0.0713    1.0000 </r>
       <r>    0.2293    1.0000 </r>
       <r>    0.4875    1.0000 </r>
       <r>    1.5569    1.0000 </r>
       <r>    1.6465    1.0000 </r>
       <r>    1.9161    0.4158 </r>
       <r>    5.8922    0.0000 </r>
       <r>    5.9674    0.0000 </r>
       <r>    6.0446    0.0000 </r>
       <r>    6.5965    0.0000 </r>
       <r>    6.9342    0.0000 </r>
       <r>    7.3175    0.0000 </r>
       <r>    8.4734    0.0000 </r>
       <r>    8.5376    0.0000 </r>
       <r>    9.1584    0.0000 </r>
       <r>    9.6676    0.0000 </r>
       <r>    9.9240    0.0000 </r>
       <r>   10.1736    0.0000 </r>
       <r>   10.4051    0.0000 </r>
       <r>   10.8792    0.0000 </r>
       <r>   11.5627    0.0000 </r>
       <r>   12.1568    0.0000 </r>
       <r>   12.3653    0.0000 </r>
       <r>   12.6028    0.0000 </r>
       <r>   13.0192    0.0000 </r>
       <r>   13.0728    0.0000 </r>
       <r>   14.3668    0.0000 </r>
       <r>   15.1554    0.0000 </r>
       <r>   15.2251    0.0000 </r>
       <r>   15.7120    0.0000 </r>
       <r>   15.7719    0.0000 </r>
       <r>   16.4896    0.0000 </r>
      </set>
      <set comment="kpoint 9">
       <r>  -12.4530    1.0000 </r>
       <r>  -11.9409    1.0000 </r>
       <r>   -8.5060    1.0000 </r>
       <r>   -8.3639    1.0000 </r>
       <r>   -6.0109    1.0000 </r>
       <r>   -5.9902    1.0000 </r>
       <r>   -4.3877    1.0000 </r>
       <r>   -4.2231    1.0000 </r>
       <r>   -3.6464    1.0000 </r>
       <r>   -2.8326    1.0000 </r>
       <r>   -2.3466    1.0000 </r>
       <r>   -2.2013    1.0000 </r>
       <r>   -1.6433    1.0000 </r>
       <r>   -1.4631    1.0000 </r>
       <r>   -0.4550    1.0000 </r>
       <r>   -0.2868    1.0000 </r>
       <r>    0.1041    1.0000 </r>
       <r>    0.1330    1.0000 </r>
       <r>    0.6471    1.0000 </r>
       <r>    1.4170    1.0000 </r>
       <r>    1.5006    1.0000 </r>
       <r>    1.5909    1.0000 </r>
       <r>    5.9109    0.0000 </r>
       <r>    6.0415    0.0000 </r>
       <r>    6.5505    0.0000 </r>
       <r>    6.8436    0.0000 </r>
       <r>    6.9158    0.0000 </r>
       <r>    7.4098    0.0000 </r>
       <r>    8.4599    0.0000 </r>
       <r>    8.6465    0.0000 </r>
       <r>    8.9915    0.0000 </r>
       <r>    9.4166    0.0000 </r>
       <r>   10.1240    0.0000 </r>
       <r>   10.1529    0.0000 </r>
       <r>   10.4913    0.0000 </r>
       <r>   11.2887    0.0000 </r>
       <r>   11.4142    0.0000 </r>
       <r>   11.8961    0.0000 </r>
       <r>   12.3566    0.0000 </r>
       <r>   12.5950    0.0000 </r>
       <r>   12.7714    0.0000 </r>
       <r>   13.5120    0.0000 </r>
       <r>   14.8272    0.0000 </r>
       <r>   14.8332    0.0000 </r>
       <r>   15.2203    0.0000 </r>
       <r>   15.3695    0.0000 </r>
       <r>   15.7202    0.0000 </r>
       <r>   16.4558    0.0000 </r>
      </set>
      <set comment="kpoint 10">
       <r>  -12.2985    1.0000 </r>
       <r>  -12.1229    1.0000 </r>
       <r>   -8.4394    1.0000 </r>
       <r>   -8.3876    1.0000 </r>
       <r>   -6.1027    1.0000 </r>
       <r>   -6.0972    1.0000 </r>
       <r>   -4.0429    1.0000 </r>
       <r>   -3.8787    1.0000 </r>
       <r>   -3.8372    1.0000 </r>
       <r>   -3.2725    1.0000 </r>
       <r>   -2.0936    1.0000 </r>
       <r>   -1.8979    1.0000 </r>
       <r>   -1.5751    1.0000 </r>
       <r>   -1.5746    1.0000 </r>
       <r>   -0.6760    1.0000 </r>
       <r>   -0.5762    1.0000 </r>
       <r>    0.1360    1.0000 </r>
       <r>    0.1674    1.0000 </r>
       <r>    0.9071    1.0000 </r>
       <r>    1.2221    1.0000 </r>
       <r>    1.3632    1.0000 </r>
       <r>    1.3876    1.0000 </r>
       <r>    5.9611    0.0000 </r>
       <r>    6.0257    0.0000 </r>
       <r>    6.8315    0.0000 </r>
       <r>    6.8817    0.0000 </r>
       <r>    7.2205    0.0000 </r>
       <r>    7.9361    0.0000 </r>
       <r>    7.9834    0.0000 </r>
       <r>    8.6690    0.0000 </r>
       <r>    8.7403    0.0000 </r>
       <r>    8.8542    0.0000 </r>
       <r>   10.3725    0.0000 </r>
       <r>   10.6199    0.0000 </r>
       <r>   10.8553    0.0000 </r>
       <r>   10.9647    0.0000 </r>
       <r>   11.6075    0.0000 </r>
       <r>   11.7210    0.0000 </r>
       <r>   12.0767    0.0000 </r>
       <r>   12.7092    0.0000 </r>
       <r>   13.0768    0.0000 </r>
       <r>   13.5381    0.0000 </r>
       <r>   14.6089    0.0000 </r>
       <r>   14.7930    0.0000 </r>
       <r>   14.8882    0.0000 </r>
       <r>   15.1053    0.0000 </r>
       <r>   16.1962    0.0000 </r>
       <r>   16.4903    0.0000 </r>
      </set>
      <set comment="kpoint 11">
       <r>  -12.6610    1.0000 </r>
       <r>  -11.5259    1.0000 </r>
       <r>   -8.5982    1.0000 </r>
       <r>   -8.3483    1.0000 </r>
       <r>   -5.9750    1.0000 </r>
       <r>   -5.1223    1.0000 </r>
       <r>   -4.9922    1.0000 </r>
       <r>   -4.5878    1.0000 </r>
       <r>   -4.1503    1.0000 </r>
       <r>   -3.8926    1.0000 </r>
       <r>   -3.4543    1.0000 </r>
       <r>   -1.1865    1.0000 </r>
       <r>   -1.0635    1.0000 </r>
       <r>   -0.6335    1.0000 </r>
       <r>   -0.5254    1.0000 </r>
       <r>   -0.1530    1.0000 </r>
       <r>    0.2133    1.0000 </r>
       <r>    0.3254    1.0000 </r>
       <r>    0.7456    1.0000 </r>
       <r>    1.3885    1.0000 </r>
       <r>    1.4529    1.0000 </r>
       <r>    2.3350    0.0000 </r>
       <r>    5.3157    0.0000 </r>
       <r>    5.4830    0.0000 </r>
       <r>    6.1598    0.0000 </r>
       <r>    6.2349    0.0000 </r>
       <r>    7.5783    0.0000 </r>
       <r>    7.6669    0.0000 </r>
       <r>    8.3568    0.0000 </r>
       <r>    8.7756    0.0000 </r>
       <r>    8.9312    0.0000 </r>
       <r>    9.3028    0.0000 </r>
       <r>    9.4248    0.0000 </r>
       <r>   10.9300    0.0000 </r>
       <r>   11.3686    0.0000 </r>
       <r>   11.6250    0.0000 </r>
       <r>   11.7439    0.0000 </r>
       <r>   12.1388    0.0000 </r>
       <r>   12.3142    0.0000 </r>
       <r>   12.7983    0.0000 </r>
       <r>   12.8127    0.0000 </r>
       <r>   13.0673    0.0000 </r>
       <r>   13.2722    0.0000 </r>
       <r>   14.7476    0.0000 </r>
       <r>   15.2266    0.0000 </r>
       <r>   15.4140    0.0000 </r>
       <r>   15.4878    0.0000 </r>
       <r>   16.0322    0.0000 </r>
      </set>
      <set comment="kpoint 12">
       <r>  -12.6175    1.0000 </r>
       <r>  -11.5992    1.0000 </r>
       <r>   -8.5768    1.0000 </r>
       <r>   -8.3379    1.0000 </r>
       <r>   -5.9013    1.0000 </r>
       <r>   -5.3827    1.0000 </r>
       <r>   -5.0218    1.0000 </r>
       <r>   -4.7178    1.0000 </r>
       <r>   -3.9593    1.0000 </r>
       <r>   -3.6983    1.0000 </r>
       <r>   -3.1138    1.0000 </r>
       <r>   -1.3713    1.0000 </r>
       <r>   -1.1597    1.0000 </r>
       <r>   -0.7398    1.0000 </r>
       <r>   -0.4872    1.0000 </r>
       <r>   -0.0725    1.0000 </r>
       <r>    0.1955    1.0000 </r>
       <r>    0.2673    1.0000 </r>
       <r>    0.6333    1.0000 </r>
       <r>    1.3091    1.0000 </r>
       <r>    1.3830    1.0000 </r>
       <r>    2.1986    0.0000 </r>
       <r>    5.3959    0.0000 </r>
       <r>    5.8309    0.0000 </r>
       <r>    6.1808    0.0000 </r>
       <r>    6.2735    0.0000 </r>
       <r>    7.4972    0.0000 </r>
       <r>    7.8235    0.0000 </r>
       <r>    8.0890    0.0000 </r>
       <r>    8.8655    0.0000 </r>
       <r>    9.3130    0.0000 </r>
       <r>    9.3365    0.0000 </r>
       <r>    9.7103    0.0000 </r>
       <r>   10.5653    0.0000 </r>
       <r>   10.8296    0.0000 </r>
       <r>   11.3278    0.0000 </r>
       <r>   11.7621    0.0000 </r>
       <r>   12.2497    0.0000 </r>
       <r>   12.4827    0.0000 </r>
       <r>   12.5495    0.0000 </r>
       <r>   13.2197    0.0000 </r>
       <r>   13.3224    0.0000 </r>
       <r>   13.4961    0.0000 </r>
       <r>   14.7557    0.0000 </r>
       <r>   14.8866    0.0000 </r>
       <r>   15.3604    0.0000 </r>
       <r>   15.5513    0.0000 </r>
       <r>   16.0524    0.0000 </r>
      </set>
      <set comment="kpoint 13">
       <r>  -12.5323    1.0000 </r>
       <r>  -11.7313    1.0000 </r>
       <r>   -8.5328    1.0000 </r>
       <r>   -8.3252    1.0000 </r>
       <r>   -5.8717    1.0000 </r>
       <r>   -5.7027    1.0000 </r>
       <r>   -4.9299    1.0000 </r>
       <r>   -4.6824    1.0000 </r>
       <r>   -4.0839    1.0000 </r>
       <r>   -3.1628    1.0000 </r>
       <r>   -2.6414    1.0000 </r>
       <r>   -1.8689    1.0000 </r>
       <r>   -1.1187    1.0000 </r>
       <r>   -0.8782    1.0000 </r>
       <r>   -0.4338    1.0000 </r>
       <r>   -0.0605    1.0000 </r>
       <r>    0.0337    1.0000 </r>
       <r>    0.2798    1.0000 </r>
       <r>    0.5178    1.0000 </r>
       <r>    1.1772    1.0000 </r>
       <r>    1.2644    1.0000 </r>
       <r>    1.9412    0.1782 </r>
       <r>    5.7180    0.0000 </r>
       <r>    6.1358    0.0000 </r>
       <r>    6.3093    0.0000 </r>
       <r>    6.4028    0.0000 </r>
       <r>    7.3940    0.0000 </r>
       <r>    7.8987    0.0000 </r>
       <r>    8.0572    0.0000 </r>
       <r>    8.9938    0.0000 </r>
       <r>    9.3028    0.0000 </r>
       <r>    9.7716    0.0000 </r>
       <r>    9.8985    0.0000 </r>
       <r>   10.1920    0.0000 </r>
       <r>   10.3036    0.0000 </r>
       <r>   11.1178    0.0000 </r>
       <r>   11.6343    0.0000 </r>
       <r>   12.1566    0.0000 </r>
       <r>   12.5624    0.0000 </r>
       <r>   12.8496    0.0000 </r>
       <r>   13.1041    0.0000 </r>
       <r>   13.4992    0.0000 </r>
       <r>   14.0190    0.0000 </r>
       <r>   14.6619    0.0000 </r>
       <r>   14.9368    0.0000 </r>
       <r>   15.3768    0.0000 </r>
       <r>   15.5726    0.0000 </r>
       <r>   16.2629    0.0000 </r>
      </set>
      <set comment="kpoint 14">
       <r>  -12.4095    1.0000 </r>
       <r>  -11.8996    1.0000 </r>
       <r>   -8.4703    1.0000 </r>
       <r>   -8.3248    1.0000 </r>
       <r>   -5.9499    1.0000 </r>
       <r>   -5.9322    1.0000 </r>
       <r>   -4.7933    1.0000 </r>
       <r>   -4.3608    1.0000 </r>
       <r>   -4.2497    1.0000 </r>
       <r>   -2.7933    1.0000 </r>
       <r>   -2.3051    1.0000 </r>
       <r>   -2.1600    1.0000 </r>
       <r>   -1.0618    1.0000 </r>
       <r>   -1.0146    1.0000 </r>
       <r>   -0.4374    1.0000 </r>
       <r>   -0.3477    1.0000 </r>
       <r>    0.0779    1.0000 </r>
       <r>    0.0833    1.0000 </r>
       <r>    0.6649    1.0000 </r>
       <r>    1.0473    1.0000 </r>
       <r>    1.1313    1.0000 </r>
       <r>    1.6052    1.0000 </r>
       <r>    6.1463    0.0000 </r>
       <r>    6.2554    0.0000 </r>
       <r>    6.4350    0.0000 </r>
       <r>    6.8388    0.0000 </r>
       <r>    7.3368    0.0000 </r>
       <r>    7.8191    0.0000 </r>
       <r>    8.1102    0.0000 </r>
       <r>    9.0935    0.0000 </r>
       <r>    9.1492    0.0000 </r>
       <r>    9.2253    0.0000 </r>
       <r>    9.9408    0.0000 </r>
       <r>   10.2401    0.0000 </r>
       <r>   10.7501    0.0000 </r>
       <r>   11.1292    0.0000 </r>
       <r>   11.3881    0.0000 </r>
       <r>   12.0030    0.0000 </r>
       <r>   12.4195    0.0000 </r>
       <r>   13.0370    0.0000 </r>
       <r>   13.0879    0.0000 </r>
       <r>   13.8458    0.0000 </r>
       <r>   14.4462    0.0000 </r>
       <r>   14.4592    0.0000 </r>
       <r>   15.0945    0.0000 </r>
       <r>   15.1868    0.0000 </r>
       <r>   15.6820    0.0000 </r>
       <r>   16.4387    0.0000 </r>
      </set>
      <set comment="kpoint 15">
       <r>  -12.2557    1.0000 </r>
       <r>  -12.0808    1.0000 </r>
       <r>   -8.4030    1.0000 </r>
       <r>   -8.3501    1.0000 </r>
       <r>   -6.0428    1.0000 </r>
       <r>   -6.0361    1.0000 </r>
       <r>   -4.6244    1.0000 </r>
       <r>   -4.4375    1.0000 </r>
       <r>   -3.8470    1.0000 </r>
       <r>   -3.2497    1.0000 </r>
       <r>   -2.0234    1.0000 </r>
       <r>   -1.8569    1.0000 </r>
       <r>   -1.0849    1.0000 </r>
       <r>   -1.0215    1.0000 </r>
       <r>   -0.6078    1.0000 </r>
       <r>   -0.5994    1.0000 </r>
       <r>    0.0277    1.0000 </r>
       <r>    0.0713    1.0000 </r>
       <r>    0.9229    1.0000 </r>
       <r>    0.9851    1.0000 </r>
       <r>    1.0263    1.0000 </r>
       <r>    1.2508    1.0000 </r>
       <r>    6.2378    0.0000 </r>
       <r>    6.3550    0.0000 </r>
       <r>    6.9107    0.0000 </r>
       <r>    7.2542    0.0000 </r>
       <r>    7.3137    0.0000 </r>
       <r>    7.6575    0.0000 </r>
       <r>    7.9670    0.0000 </r>
       <r>    8.4812    0.0000 </r>
       <r>    9.1502    0.0000 </r>
       <r>    9.1828    0.0000 </r>
       <r>   10.0637    0.0000 </r>
       <r>   10.5351    0.0000 </r>
       <r>   10.7607    0.0000 </r>
       <r>   11.0267    0.0000 </r>
       <r>   11.7882    0.0000 </r>
       <r>   11.8114    0.0000 </r>
       <r>   12.1996    0.0000 </r>
       <r>   12.9700    0.0000 </r>
       <r>   13.4692    0.0000 </r>
       <r>   13.8188    0.0000 </r>
       <r>   14.2902    0.0000 </r>
       <r>   14.4452    0.0000 </r>
       <r>   15.0525    0.0000 </r>
       <r>   15.1935    0.0000 </r>
       <r>   16.0572    0.0000 </r>
       <r>   16.3624    0.0000 </r>
      </set>
      <set comment="kpoint 16">
       <r>  -12.6033    1.0000 </r>
       <r>  -11.4745    1.0000 </r>
       <r>   -8.5540    1.0000 </r>
       <r>   -8.2927    1.0000 </r>
       <r>   -5.9103    1.0000 </r>
       <r>   -5.6041    1.0000 </r>
       <r>   -4.9214    1.0000 </r>
       <r>   -4.5311    1.0000 </r>
       <r>   -4.4137    1.0000 </r>
       <r>   -4.1108    1.0000 </r>
       <r>   -3.3919    1.0000 </r>
       <r>   -1.2073    1.0000 </r>
       <r>   -1.0493    1.0000 </r>
       <r>   -0.9902    1.0000 </r>
       <r>   -0.1734    1.0000 </r>
       <r>    0.2418    1.0000 </r>
       <r>    0.3692    1.0000 </r>
       <r>    0.6188    1.0000 </r>
       <r>    0.8097    1.0000 </r>
       <r>    1.0022    1.0000 </r>
       <r>    1.0165    1.0000 </r>
       <r>    2.3695    0.0000 </r>
       <r>    4.9698    0.0000 </r>
       <r>    5.1878    0.0000 </r>
       <r>    6.3963    0.0000 </r>
       <r>    6.6254    0.0000 </r>
       <r>    7.3066    0.0000 </r>
       <r>    8.0136    0.0000 </r>
       <r>    8.7536    0.0000 </r>
       <r>    9.1011    0.0000 </r>
       <r>    9.5240    0.0000 </r>
       <r>    9.6250    0.0000 </r>
       <r>    9.7061    0.0000 </r>
       <r>   10.7916    0.0000 </r>
       <r>   11.3216    0.0000 </r>
       <r>   12.0155    0.0000 </r>
       <r>   12.0626    0.0000 </r>
       <r>   12.3500    0.0000 </r>
       <r>   12.4738    0.0000 </r>
       <r>   12.4961    0.0000 </r>
       <r>   12.6171    0.0000 </r>
       <r>   13.0532    0.0000 </r>
       <r>   13.8631    0.0000 </r>
       <r>   13.9340    0.0000 </r>
       <r>   14.4832    0.0000 </r>
       <r>   15.1605    0.0000 </r>
       <r>   15.4591    0.0000 </r>
       <r>   15.9364    0.0000 </r>
      </set>
      <set comment="kpoint 17">
       <r>  -12.5600    1.0000 </r>
       <r>  -11.5474    1.0000 </r>
       <r>   -8.5322    1.0000 </r>
       <r>   -8.2833    1.0000 </r>
       <r>   -5.8319    1.0000 </r>
       <r>   -5.5694    1.0000 </r>
       <r>   -5.2601    1.0000 </r>
       <r>   -4.6675    1.0000 </r>
       <r>   -4.4797    1.0000 </r>
       <r>   -3.6439    1.0000 </r>
       <r>   -3.0519    1.0000 </r>
       <r>   -1.3655    1.0000 </r>
       <r>   -1.1490    1.0000 </r>
       <r>   -1.0047    1.0000 </r>
       <r>   -0.1750    1.0000 </r>
       <r>    0.2287    1.0000 </r>
       <r>    0.2991    1.0000 </r>
       <r>    0.5978    1.0000 </r>
       <r>    0.6883    1.0000 </r>
       <r>    0.9370    1.0000 </r>
       <r>    0.9752    1.0000 </r>
       <r>    2.2312    0.0000 </r>
       <r>    5.0658    0.0000 </r>
       <r>    5.5210    0.0000 </r>
       <r>    6.3426    0.0000 </r>
       <r>    6.7560    0.0000 </r>
       <r>    7.4426    0.0000 </r>
       <r>    7.9705    0.0000 </r>
       <r>    8.6803    0.0000 </r>
       <r>    9.2229    0.0000 </r>
       <r>    9.4839    0.0000 </r>
       <r>    9.8364    0.0000 </r>
       <r>    9.9534    0.0000 </r>
       <r>   10.3829    0.0000 </r>
       <r>   10.7564    0.0000 </r>
       <r>   11.7577    0.0000 </r>
       <r>   11.9324    0.0000 </r>
       <r>   12.2945    0.0000 </r>
       <r>   12.5333    0.0000 </r>
       <r>   12.6909    0.0000 </r>
       <r>   13.0171    0.0000 </r>
       <r>   13.4500    0.0000 </r>
       <r>   13.8558    0.0000 </r>
       <r>   13.9836    0.0000 </r>
       <r>   14.3161    0.0000 </r>
       <r>   15.1479    0.0000 </r>
       <r>   15.4881    0.0000 </r>
       <r>   15.7985    0.0000 </r>
      </set>
      <set comment="kpoint 18">
       <r>  -12.4754    1.0000 </r>
       <r>  -11.6788    1.0000 </r>
       <r>   -8.4875    1.0000 </r>
       <r>   -8.2725    1.0000 </r>
       <r>   -5.7947    1.0000 </r>
       <r>   -5.6515    1.0000 </r>
       <r>   -5.4108    1.0000 </r>
       <r>   -4.6422    1.0000 </r>
       <r>   -4.6031    1.0000 </r>
       <r>   -3.1029    1.0000 </r>
       <r>   -2.5807    1.0000 </r>
       <r>   -1.8498    1.0000 </r>
       <r>   -1.0881    1.0000 </r>
       <r>   -1.0229    1.0000 </r>
       <r>   -0.1938    1.0000 </r>
       <r>   -0.0264    1.0000 </r>
       <r>    0.3380    1.0000 </r>
       <r>    0.5283    1.0000 </r>
       <r>    0.5453    1.0000 </r>
       <r>    0.8495    1.0000 </r>
       <r>    0.9085    1.0000 </r>
       <r>    1.9699    0.0413 </r>
       <r>    5.3925    0.0000 </r>
       <r>    5.9980    0.0000 </r>
       <r>    6.3155    0.0000 </r>
       <r>    6.8682    0.0000 </r>
       <r>    7.6111    0.0000 </r>
       <r>    7.9886    0.0000 </r>
       <r>    8.6023    0.0000 </r>
       <r>    9.4144    0.0000 </r>
       <r>    9.4445    0.0000 </r>
       <r>    9.6367    0.0000 </r>
       <r>   10.0922    0.0000 </r>
       <r>   10.1675    0.0000 </r>
       <r>   10.6129    0.0000 </r>
       <r>   11.4404    0.0000 </r>
       <r>   11.4469    0.0000 </r>
       <r>   12.2870    0.0000 </r>
       <r>   12.7998    0.0000 </r>
       <r>   13.0065    0.0000 </r>
       <r>   13.2356    0.0000 </r>
       <r>   13.5823    0.0000 </r>
       <r>   13.8310    0.0000 </r>
       <r>   14.0759    0.0000 </r>
       <r>   14.4519    0.0000 </r>
       <r>   15.2393    0.0000 </r>
       <r>   15.4172    0.0000 </r>
       <r>   16.0570    0.0000 </r>
      </set>
      <set comment="kpoint 19">
       <r>  -12.3532    1.0000 </r>
       <r>  -11.8462    1.0000 </r>
       <r>   -8.4244    1.0000 </r>
       <r>   -8.2743    1.0000 </r>
       <r>   -5.8697    1.0000 </r>
       <r>   -5.8593    1.0000 </r>
       <r>   -5.2980    1.0000 </r>
       <r>   -4.7688    1.0000 </r>
       <r>   -4.3247    1.0000 </r>
       <r>   -2.7480    1.0000 </r>
       <r>   -2.2622    1.0000 </r>
       <r>   -2.1042    1.0000 </r>
       <r>   -1.0299    1.0000 </r>
       <r>   -1.0025    1.0000 </r>
       <r>   -0.3515    1.0000 </r>
       <r>   -0.3087    1.0000 </r>
       <r>    0.1736    1.0000 </r>
       <r>    0.3959    1.0000 </r>
       <r>    0.6850    1.0000 </r>
       <r>    0.7945    1.0000 </r>
       <r>    0.8427    1.0000 </r>
       <r>    1.6301    1.0000 </r>
       <r>    5.9218    0.0000 </r>
       <r>    6.3468    0.0000 </r>
       <r>    6.5803    0.0000 </r>
       <r>    6.8209    0.0000 </r>
       <r>    7.6094    0.0000 </r>
       <r>    8.0438    0.0000 </r>
       <r>    8.5545    0.0000 </r>
       <r>    8.9574    0.0000 </r>
       <r>    9.3168    0.0000 </r>
       <r>    9.6325    0.0000 </r>
       <r>    9.9601    0.0000 </r>
       <r>   10.3964    0.0000 </r>
       <r>   10.8434    0.0000 </r>
       <r>   11.1421    0.0000 </r>
       <r>   11.5044    0.0000 </r>
       <r>   12.2200    0.0000 </r>
       <r>   12.4854    0.0000 </r>
       <r>   13.2143    0.0000 </r>
       <r>   13.3324    0.0000 </r>
       <r>   13.7270    0.0000 </r>
       <r>   13.9644    0.0000 </r>
       <r>   14.2119    0.0000 </r>
       <r>   14.8185    0.0000 </r>
       <r>   15.0540    0.0000 </r>
       <r>   15.5005    0.0000 </r>
       <r>   16.3974    0.0000 </r>
      </set>
      <set comment="kpoint 20">
       <r>  -12.2003    1.0000 </r>
       <r>  -12.0264    1.0000 </r>
       <r>   -8.3563    1.0000 </r>
       <r>   -8.3018    1.0000 </r>
       <r>   -5.9649    1.0000 </r>
       <r>   -5.9562    1.0000 </r>
       <r>   -5.1358    1.0000 </r>
       <r>   -4.9530    1.0000 </r>
       <r>   -3.8146    1.0000 </r>
       <r>   -3.2193    1.0000 </r>
       <r>   -1.9661    1.0000 </r>
       <r>   -1.8109    1.0000 </r>
       <r>   -0.9644    1.0000 </r>
       <r>   -0.9055    1.0000 </r>
       <r>   -0.6505    1.0000 </r>
       <r>   -0.6073    1.0000 </r>
       <r>    0.1473    1.0000 </r>
       <r>    0.2473    1.0000 </r>
       <r>    0.7790    1.0000 </r>
       <r>    0.7945    1.0000 </r>
       <r>    0.9488    1.0000 </r>
       <r>    1.2727    1.0000 </r>
       <r>    6.4800    0.0000 </r>
       <r>    6.5858    0.0000 </r>
       <r>    6.6590    0.0000 </r>
       <r>    7.1724    0.0000 </r>
       <r>    7.2409    0.0000 </r>
       <r>    7.7312    0.0000 </r>
       <r>    8.5425    0.0000 </r>
       <r>    8.6071    0.0000 </r>
       <r>    9.5111    0.0000 </r>
       <r>    9.6878    0.0000 </r>
       <r>    9.8986    0.0000 </r>
       <r>   10.1915    0.0000 </r>
       <r>   10.9096    0.0000 </r>
       <r>   11.2807    0.0000 </r>
       <r>   11.9301    0.0000 </r>
       <r>   12.0009    0.0000 </r>
       <r>   12.3226    0.0000 </r>
       <r>   13.2110    0.0000 </r>
       <r>   13.4976    0.0000 </r>
       <r>   13.6874    0.0000 </r>
       <r>   13.8953    0.0000 </r>
       <r>   14.0084    0.0000 </r>
       <r>   15.1597    0.0000 </r>
       <r>   15.1777    0.0000 </r>
       <r>   15.7319    0.0000 </r>
       <r>   16.0350    0.0000 </r>
      </set>
      <set comment="kpoint 21">
       <r>  -12.5429    1.0000 </r>
[...]
       <r>   -2.2934    1.0000 </r>
       <r>   -2.1406    1.0000 </r>
       <r>   -1.9751    1.0000 </r>
       <r>   -1.4699    1.0000 </r>
       <r>   -0.7214    1.0000 </r>
       <r>   -0.1813    1.0000 </r>
       <r>    0.1813    1.0000 </r>
       <r>    0.4012    1.0000 </r>
       <r>    0.5375    1.0000 </r>
       <r>    1.6121    1.0000 </r>
       <r>    1.6405    1.0000 </r>
       <r>    1.8963    0.6352 </r>
       <r>    5.5407    0.0000 </r>
       <r>    6.1793    0.0000 </r>
       <r>    6.7005    0.0000 </r>
       <r>    7.2634    0.0000 </r>
       <r>    7.8305    0.0000 </r>
       <r>    8.2617    0.0000 </r>
       <r>    9.0330    0.0000 </r>
       <r>    9.1981    0.0000 </r>
       <r>    9.7647    0.0000 </r>
       <r>   10.0022    0.0000 </r>
       <r>   10.6366    0.0000 </r>
       <r>   11.0710    0.0000 </r>
       <r>   11.2667    0.0000 </r>
       <r>   11.5429    0.0000 </r>
       <r>   11.6199    0.0000 </r>
       <r>   11.9983    0.0000 </r>
       <r>   12.8920    0.0000 </r>
       <r>   13.2167    0.0000 </r>
       <r>   13.4241    0.0000 </r>
       <r>   13.8084    0.0000 </r>
       <r>   13.9421    0.0000 </r>
       <r>   14.2146    0.0000 </r>
       <r>   14.5425    0.0000 </r>
       <r>   15.0211    0.0000 </r>
       <r>   15.1570    0.0000 </r>
       <r>   15.4583    0.0000 </r>
      </set>
      <set comment="kpoint 175">
       <r>  -12.0244    1.0000 </r>
       <r>  -11.8854    1.0000 </r>
       <r>   -8.5401    1.0000 </r>
       <r>   -8.4278    1.0000 </r>
       <r>   -5.9178    1.0000 </r>
       <r>   -5.8107    1.0000 </r>
       <r>   -4.8782    1.0000 </r>
       <r>   -4.5530    1.0000 </r>
       <r>   -4.4015    1.0000 </r>
       <r>   -3.9614    1.0000 </r>
       <r>   -2.1927    1.0000 </r>
       <r>   -2.1306    1.0000 </r>
       <r>   -2.0356    1.0000 </r>
       <r>   -1.7514    1.0000 </r>
       <r>   -0.2006    1.0000 </r>
       <r>    0.0151    1.0000 </r>
       <r>    0.4043    1.0000 </r>
       <r>    0.4923    1.0000 </r>
       <r>    0.5703    1.0000 </r>
       <r>    0.8954    1.0000 </r>
       <r>    1.6547    1.0000 </r>
       <r>    1.7544    1.0000 </r>
       <r>    5.8903    0.0000 </r>
       <r>    6.0771    0.0000 </r>
       <r>    6.9020    0.0000 </r>
       <r>    7.4538    0.0000 </r>
       <r>    7.5087    0.0000 </r>
       <r>    7.6249    0.0000 </r>
       <r>    9.4379    0.0000 </r>
       <r>    9.6250    0.0000 </r>
       <r>    9.8350    0.0000 </r>
       <r>   10.0128    0.0000 </r>
       <r>   10.5155    0.0000 </r>
       <r>   10.8689    0.0000 </r>
       <r>   11.2748    0.0000 </r>
       <r>   11.5586    0.0000 </r>
       <r>   11.5827    0.0000 </r>
       <r>   11.6645    0.0000 </r>
       <r>   13.1389    0.0000 </r>
       <r>   13.2467    0.0000 </r>
       <r>   13.7950    0.0000 </r>
       <r>   14.1164    0.0000 </r>
       <r>   14.2529    0.0000 </r>
       <r>   14.3603    0.0000 </r>
       <r>   14.6545    0.0000 </r>
       <r>   14.7941    0.0000 </r>
       <r>   14.9388    0.0000 </r>
       <r>   15.1168    0.0000 </r>
      </set>
     </set>
    </set>
   </array>
  </eigenvalues>
  <separator name="orbital magnetization" >
   <v name="MAGDIPOLOUT">      0.00000000      0.00000000      0.00000000</v>
  </separator>
  <dos>
   <i name="efermi">      1.90856702 </i>
   <total>
    <array>
     <dimension dim="1">gridpoints</dimension>
     <dimension dim="2">spin</dimension>
     <field>energy</field>
     <field>total</field>
     <field>integrated</field>
     <set>
      <set comment="spin 1">
       <r>   -14.1952     0.0000     0.0000 </r>
       <r>   -14.0877     0.0000     0.0000 </r>
       <r>   -13.9803     0.0000     0.0000 </r>
       <r>   -13.8728     0.0000     0.0000 </r>
       <r>   -13.7653     0.0000     0.0000 </r>
       <r>   -13.6578     0.0000     0.0000 </r>
       <r>   -13.5504     0.0000     0.0000 </r>
       <r>   -13.4429     0.0000     0.0000 </r>
       <r>   -13.3354     0.0000     0.0000 </r>
       <r>   -13.2279     0.0000     0.0000 </r>
       <r>   -13.1205     0.0000     0.0000 </r>
       <r>   -13.0130     0.0000     0.0000 </r>
       <r>   -12.9055     0.0000     0.0000 </r>
       <r>   -12.7980     0.0038     0.0004 </r>
       <r>   -12.6906     0.5069     0.0549 </r>
       <r>   -12.5831     2.3856     0.3113 </r>
       <r>   -12.4756     3.5541     0.6932 </r>
       <r>   -12.3681     4.3637     1.1622 </r>
       <r>   -12.2607     3.5388     1.5426 </r>
       <r>   -12.1532     2.7330     1.8363 </r>
       <r>   -12.0457     2.7464     2.1315 </r>
       <r>   -11.9382     2.5114     2.4014 </r>
       <r>   -11.8308     2.7706     2.6992 </r>
       <r>   -11.7233     3.4430     3.0692 </r>
       <r>   -11.6158     3.5334     3.4490 </r>
       <r>   -11.5083     3.0891     3.7810 </r>
       <r>   -11.4009     1.6350     3.9567 </r>
       <r>   -11.2934     0.3972     3.9994 </r>
       <r>   -11.1859     0.0059     4.0000 </r>
       <r>   -11.0784     0.0000     4.0000 </r>
       <r>   -10.9710     0.0000     4.0000 </r>
       <r>   -10.8635     0.0000     4.0000 </r>
       <r>   -10.7560     0.0000     4.0000 </r>
       <r>   -10.6485     0.0000     4.0000 </r>
       <r>   -10.5411     0.0000     4.0000 </r>
       <r>   -10.4336     0.0000     4.0000 </r>
       <r>   -10.3261     0.0000     4.0000 </r>
       <r>   -10.2186     0.0000     4.0000 </r>
       <r>   -10.1112     0.0000     4.0000 </r>
       <r>   -10.0037     0.0000     4.0000 </r>
       <r>    -9.8962     0.0000     4.0000 </r>
       <r>    -9.7887     0.0000     4.0000 </r>
       <r>    -9.6813     0.0000     4.0000 </r>
       <r>    -9.5738     0.0000     4.0000 </r>
       <r>    -9.4663     0.0000     4.0000 </r>
       <r>    -9.3588     0.0000     4.0000 </r>
       <r>    -9.2514     0.0000     4.0000 </r>
       <r>    -9.1439     0.0000     4.0000 </r>
       <r>    -9.0364     0.0000     4.0000 </r>
       <r>    -8.9289     0.0006     4.0001 </r>
       <r>    -8.8215     0.2709     4.0292 </r>
       <r>    -8.7140     2.0705     4.2517 </r>
       <r>    -8.6065     5.2861     4.8198 </r>
       <r>    -8.4990     6.9600     5.5679 </r>
       <r>    -8.3916     6.3111     6.2461 </r>
       <r>    -8.2841     5.3213     6.8181 </r>
       <r>    -8.1766     4.8223     7.3363 </r>
       <r>    -8.0691     3.8802     7.7534 </r>
       <r>    -7.9617     1.6677     7.9326 </r>
       <r>    -7.8542     0.5760     7.9945 </r>
       <r>    -7.7467     0.0512     8.0000 </r>
       <r>    -7.6392     0.0000     8.0000 </r>
       <r>    -7.5318     0.0000     8.0000 </r>
       <r>    -7.4243     0.0000     8.0000 </r>
       <r>    -7.3168     0.0000     8.0000 </r>
       <r>    -7.2093     0.0000     8.0000 </r>
       <r>    -7.1019     0.0000     8.0000 </r>
       <r>    -6.9944     0.0004     8.0000 </r>
       <r>    -6.8869     0.1165     8.0126 </r>
       <r>    -6.7794     0.2556     8.0400 </r>
       <r>    -6.6720     0.4285     8.0861 </r>
       <r>    -6.5645     0.7661     8.1684 </r>
       <r>    -6.4570     0.8590     8.2608 </r>
       <r>    -6.3495     1.4572     8.4174 </r>
       <r>    -6.2421     1.9933     8.6316 </r>
       <r>    -6.1346     3.0644     8.9610 </r>
       <r>    -6.0271     3.7673     9.3659 </r>
       <r>    -5.9196     4.1032     9.8068 </r>
       <r>    -5.8122     4.0372    10.2407 </r>
       <r>    -5.7047     3.8353    10.6529 </r>
       <r>    -5.5972     4.0697    11.0903 </r>
       <r>    -5.4897     4.2241    11.5443 </r>
       <r>    -5.3823     4.5209    12.0302 </r>
       <r>    -5.2748     4.5709    12.5215 </r>
       <r>    -5.1673     4.4833    13.0033 </r>
       <r>    -5.0598     3.8507    13.4172 </r>
       <r>    -4.9524     3.2346    13.7648 </r>
       <r>    -4.8449     2.9243    14.0791 </r>
       <r>    -4.7374     2.3718    14.3340 </r>
       <r>    -4.6299     2.8959    14.6452 </r>
       <r>    -4.5225     3.3618    15.0065 </r>
       <r>    -4.4150     3.5013    15.3828 </r>
       <r>    -4.3075     3.2949    15.7370 </r>
       <r>    -4.2000     2.9458    16.0536 </r>
       <r>    -4.0926     2.9017    16.3654 </r>
       <r>    -3.9851     2.9611    16.6837 </r>
       <r>    -3.8776     2.8364    16.9885 </r>
       <r>    -3.7701     3.1332    17.3252 </r>
       <r>    -3.6627     2.8471    17.6312 </r>
       <r>    -3.5552     2.7045    17.9219 </r>
       <r>    -3.4477     3.0477    18.2494 </r>
       <r>    -3.3402     2.6136    18.5303 </r>
       <r>    -3.2328     2.8973    18.8417 </r>
       <r>    -3.1253     2.6883    19.1307 </r>
       <r>    -3.0178     2.7727    19.4287 </r>
       <r>    -2.9103     3.0032    19.7514 </r>
       <r>    -2.8029     2.9609    20.0696 </r>
       <r>    -2.6954     2.4142    20.3291 </r>
       <r>    -2.5879     2.6793    20.6171 </r>
       <r>    -2.4804     3.0306    20.9428 </r>
       <r>    -2.3730     2.9669    21.2617 </r>
       <r>    -2.2655     3.2089    21.6065 </r>
       <r>    -2.1580     4.0304    22.0397 </r>
       <r>    -2.0505     3.6540    22.4324 </r>
       <r>    -1.9431     3.3263    22.7899 </r>
       <r>    -1.8356     5.2802    23.3574 </r>
       <r>    -1.7281     5.6539    23.9650 </r>
       <r>    -1.6206     5.5534    24.5619 </r>
       <r>    -1.5132     6.1854    25.2267 </r>
       <r>    -1.4057     6.0707    25.8791 </r>
       <r>    -1.2982     5.5047    26.4707 </r>
       <r>    -1.1907     4.6984    26.9757 </r>
       <r>    -1.0833     6.4710    27.6712 </r>
       <r>    -0.9758     3.7583    28.0751 </r>
       <r>    -0.8683     2.2621    28.3182 </r>
       <r>    -0.7608     2.6915    28.6075 </r>
       <r>    -0.6534     2.8838    28.9174 </r>
       <r>    -0.5459     4.6478    29.4169 </r>
       <r>    -0.4384     6.8930    30.1578 </r>
       <r>    -0.3309     5.6443    30.7644 </r>
       <r>    -0.2235     6.7606    31.4910 </r>
       <r>    -0.1160     6.3587    32.1744 </r>
       <r>    -0.0085     6.7586    32.9008 </r>
       <r>     0.0990     6.6510    33.6156 </r>
       <r>     0.2064     6.3748    34.3007 </r>
       <r>     0.3139     8.7654    35.2428 </r>
       <r>     0.4214     7.8456    36.0860 </r>
       <r>     0.5289     8.7159    37.0227 </r>
       <r>     0.6363     5.0690    37.5675 </r>
       <r>     0.7438     2.8505    37.8739 </r>
       <r>     0.8513     3.3648    38.2355 </r>
       <r>     0.9588     3.5830    38.6206 </r>
       <r>     1.0662     3.5177    38.9987 </r>
       <r>     1.1737     2.7830    39.2978 </r>
       <r>     1.2812     3.4358    39.6670 </r>
       <r>     1.3887     4.5064    40.1514 </r>
       <r>     1.4962     3.7348    40.5528 </r>
       <r>     1.6036     3.7607    40.9569 </r>
       <r>     1.7111     4.5518    41.4462 </r>
       <r>     1.8186     3.0836    41.7776 </r>
       <r>     1.9261     2.4912    42.0453 </r>
       <r>     2.0335     2.6282    42.3278 </r>
       <r>     2.1410     2.0982    42.5533 </r>
       <r>     2.2485     2.6524    42.8384 </r>
       <r>     2.3560     2.5212    43.1093 </r>
       <r>     2.4634     1.8790    43.3113 </r>
       <r>     2.5709     0.7893    43.3961 </r>
       <r>     2.6784     0.3799    43.4369 </r>
       <r>     2.7859     0.5667    43.4978 </r>
       <r>     2.8933     0.4178    43.5427 </r>
       <r>     3.0008     0.3073    43.5757 </r>
       <r>     3.1083     0.7902    43.6607 </r>
       <r>     3.2158     1.0002    43.7682 </r>
       <r>     3.3232     0.4944    43.8213 </r>
       <r>     3.4307     0.0094    43.8223 </r>
       <r>     3.5382     0.1466    43.8381 </r>
       <r>     3.6457     0.4003    43.8811 </r>
       <r>     3.7531     0.3172    43.9152 </r>
       <r>     3.8606     0.3829    43.9563 </r>
       <r>     3.9681     0.3858    43.9978 </r>
       <r>     4.0756     0.0205    44.0000 </r>
       <r>     4.1830     0.0001    44.0000 </r>
       <r>     4.2905     0.0506    44.0055 </r>
       <r>     4.3980     0.1927    44.0262 </r>
       <r>     4.5055     0.4103    44.0703 </r>
       <r>     4.6129     0.4975    44.1237 </r>
       <r>     4.7204     0.6560    44.1942 </r>
       <r>     4.8279     0.8993    44.2909 </r>
       <r>     4.9354     0.8527    44.3825 </r>
       <r>     5.0428     0.8591    44.4749 </r>
       <r>     5.1503     1.2906    44.6136 </r>
       <r>     5.2578     1.1309    44.7351 </r>
       <r>     5.3653     1.6746    44.9151 </r>
       <r>     5.4727     2.2356    45.1554 </r>
       <r>     5.5802     2.4779    45.4217 </r>
       <r>     5.6877     2.7786    45.7203 </r>
       <r>     5.7952     3.4465    46.0907 </r>
       <r>     5.9026     3.1905    46.4336 </r>
       <r>     6.0101     4.3785    46.9042 </r>
       <r>     6.1176     4.6837    47.4076 </r>
       <r>     6.2251     4.0231    47.8400 </r>
       <r>     6.3325     4.6409    48.3387 </r>
       <r>     6.4400     4.0090    48.7696 </r>
       <r>     6.5475     4.0961    49.2098 </r>
       <r>     6.6550     4.4082    49.6836 </r>
       <r>     6.7624     3.2110    50.0287 </r>
       <r>     6.8699     4.0414    50.4631 </r>
       <r>     6.9774     4.6165    50.9592 </r>
       <r>     7.0849     4.5126    51.4442 </r>
       <r>     7.1923     4.3456    51.9112 </r>
       <r>     7.2998     5.6268    52.5160 </r>
       <r>     7.4073     4.8372    53.0359 </r>
       <r>     7.5148     4.4225    53.5112 </r>
       <r>     7.6222     4.1363    53.9557 </r>
       <r>     7.7297     3.5372    54.3359 </r>
       <r>     7.8372     3.1481    54.6742 </r>
       <r>     7.9447     2.9791    54.9944 </r>
       <r>     8.0521     3.0040    55.3173 </r>
       <r>     8.1596     4.1735    55.7658 </r>
       <r>     8.2671     3.8466    56.1792 </r>
       <r>     8.3746     3.6269    56.5690 </r>
       <r>     8.4820     3.9817    56.9970 </r>
       <r>     8.5895     4.1667    57.4448 </r>
       <r>     8.6970     4.4206    57.9199 </r>
       <r>     8.8045     4.1539    58.3663 </r>
       <r>     8.9119     5.1755    58.9226 </r>
       <r>     9.0194     5.0906    59.4697 </r>
       <r>     9.1269     5.2933    60.0386 </r>
       <r>     9.2344     5.2564    60.6035 </r>
       <r>     9.3418     4.9120    61.1314 </r>
       <r>     9.4493     4.7197    61.6387 </r>
       <r>     9.5568     4.3350    62.1046 </r>
       <r>     9.6643     5.1181    62.6546 </r>
       <r>     9.7717     5.0130    63.1934 </r>
       <r>     9.8792     5.3203    63.7652 </r>
       <r>     9.9867     4.4542    64.2439 </r>
       <r>    10.0942     3.5871    64.6294 </r>
       <r>    10.2016     5.1633    65.1844 </r>
       <r>    10.3091     4.7015    65.6897 </r>
       <r>    10.4166     4.0702    66.1271 </r>
       <r>    10.5241     5.5188    66.7202 </r>
       <r>    10.6315     5.7647    67.3398 </r>
       <r>    10.7390     4.0464    67.7747 </r>
       <r>    10.8465     3.8525    68.1887 </r>
       <r>    10.9540     3.1939    68.5320 </r>
       <r>    11.0614     4.6621    69.0330 </r>
       <r>    11.1689     5.5557    69.6302 </r>
       <r>    11.2764     6.0876    70.2844 </r>
       <r>    11.3839     5.9693    70.9260 </r>
       <r>    11.4913     5.3746    71.5036 </r>
       <r>    11.5988     4.1857    71.9535 </r>
       <r>    11.7063     4.4701    72.4339 </r>
       <r>    11.8138     4.8849    72.9589 </r>
       <r>    11.9212     4.7933    73.4740 </r>
       <r>    12.0287     6.0604    74.1254 </r>
       <r>    12.1362     5.9186    74.7615 </r>
       <r>    12.2437     5.8863    75.3941 </r>
       <r>    12.3511     5.6860    76.0052 </r>
       <r>    12.4586     5.0437    76.5473 </r>
       <r>    12.5661     5.6394    77.1534 </r>
       <r>    12.6736     6.0232    77.8007 </r>
       <r>    12.7810     6.0960    78.4559 </r>
       <r>    12.8885     5.8202    79.0814 </r>
       <r>    12.9960     5.8368    79.7087 </r>
       <r>    13.1035     5.5643    80.3068 </r>
       <r>    13.2109     6.3557    80.9899 </r>
       <r>    13.3184     6.2036    81.6566 </r>
       <r>    13.4259     5.3190    82.2282 </r>
       <r>    13.5334     6.1471    82.8889 </r>
       <r>    13.6408     5.2367    83.4517 </r>
       <r>    13.7483     4.7918    83.9667 </r>
       <r>    13.8558     6.0741    84.6195 </r>
       <r>    13.9633     5.5149    85.2122 </r>
       <r>    14.0707     5.3264    85.7847 </r>
       <r>    14.1782     5.4682    86.3724 </r>
       <r>    14.2857     4.6960    86.8771 </r>
       <r>    14.3932     4.8466    87.3980 </r>
       <r>    14.5006     5.0794    87.9439 </r>
       <r>    14.6081     4.9838    88.4795 </r>
       <r>    14.7156     5.2693    89.0459 </r>
       <r>    14.8231     5.1268    89.5969 </r>
       <r>    14.9305     4.0850    90.0359 </r>
       <r>    15.0380     5.1598    90.5905 </r>
       <r>    15.1455     6.2291    91.2599 </r>
       <r>    15.2530     5.5759    91.8592 </r>
       <r>    15.3604     5.6198    92.4632 </r>
       <r>    15.4679     6.0600    93.1145 </r>
       <r>    15.5754     5.6946    93.7265 </r>
       <r>    15.6829     5.8870    94.3592 </r>
       <r>    15.7903     4.5477    94.8480 </r>
       <r>    15.8978     2.4238    95.1085 </r>
       <r>    16.0053     2.6994    95.3986 </r>
       <r>    16.1128     1.8743    95.6000 </r>
       <r>    16.2202     1.1551    95.7242 </r>
       <r>    16.3277     0.8796    95.8187 </r>
       <r>    16.4352     0.7043    95.8944 </r>
       <r>    16.5427     0.8085    95.9813 </r>
       <r>    16.6501     0.1725    95.9998 </r>
       <r>    16.7576     0.0017    96.0000 </r>
       <r>    16.8651     0.0000    96.0000 </r>
       <r>    16.9726     0.0000    96.0000 </r>
       <r>    17.0800     0.0000    96.0000 </r>
       <r>    17.1875     0.0000    96.0000 </r>
       <r>    17.2950     0.0000    96.0000 </r>
       <r>    17.4025     0.0000    96.0000 </r>
       <r>    17.5099     0.0000    96.0000 </r>
       <r>    17.6174     0.0000    96.0000 </r>
       <r>    17.7249     0.0000    96.0000 </r>
       <r>    17.8324     0.0000    96.0000 </r>
       <r>    17.9398     0.0000    96.0000 </r>
       <r>    18.0473     0.0000    96.0000 </r>
      </set>
     </set>
    </array>
   </total>
  </dos>
 </calculation>
 <structure name="finalpos" >
  <crystal>
   <varray name="basis" >
    <v>       5.68902420       0.00000000       0.00000000 </v>
    <v>       0.00000000       4.04223294       0.00000000 </v>
    <v>       0.00000000       0.00000000       6.19551412 </v>
   </varray>
   <i name="volume">    142.47427939 </i>
   <varray name="rec_basis" >
    <v>       0.17577707       0.00000000       0.00000000 </v>
    <v>       0.00000000       0.24738802       0.00000000 </v>
    <v>       0.00000000       0.00000000       0.16140711 </v>
   </varray>
  </crystal>
  <varray name="positions" >
   <v>       0.52123000       0.50000000       0.63796000 </v>
   <v>       0.47877000       0.50000000       0.36204000 </v>
   <v>       0.97877000       0.50000000       0.63796000 </v>
   <v>       0.02123000       0.50000000       0.36204000 </v>
   <v>       0.60090000       0.50000000       0.89991000 </v>
   <v>       0.39910000       0.50000000       0.10009000 </v>
   <v>       0.89910000       0.50000000       0.89991000 </v>
   <v>       0.10090000       0.50000000       0.10009000 </v>
   <v>       0.75000000       0.79171000       0.72973000 </v>
   <v>       0.25000000       0.20829000       0.27027000 </v>
   <v>       0.75000000       0.20829000       0.72973000 </v>
   <v>       0.25000000       0.79171000       0.27027000 </v>
   <v>       0.25000000       0.50000000       0.52367000 </v>
   <v>       0.75000000       0.50000000       0.47633000 </v>
  </varray>
 </structure>
</modeling>
