   14   14    1    1
  0.1021960E+02  0.5697000E-09  0.4047900E-09  0.6204200E-09  0.5000000E-15
  1.000000000000000E-004
  CAR 
 Kpoints                                 
     42   1053     48
 
  0.2777778E-01  0.0000000E+00  0.0000000E+00  0.2614379E-03
      1        -12.732039   1.000000
      2        -11.579410   1.000000
      3         -8.662057   1.000000
      4         -8.424737   1.000000
      5         -6.074487   1.000000
      6         -5.085007   1.000000
      7         -4.648633   1.000000
      8         -4.321596   1.000000
      9         -3.970116   1.000000
     10         -3.582787   1.000000
     11         -2.418598   1.000000
     12         -2.240235   1.000000
     13         -2.187390   1.000000
     14         -1.066978   1.000000
     15         -0.034252   1.000000
     16          0.000484   1.000000
     17          0.150317   1.000000
     18          0.167459   1.000000
     19          0.560524   1.000000
     20          2.077805   0.000000
     21          2.124108   0.000000
     22          2.209066   0.000000
     23          5.416853   0.000000
     24          5.799400   0.000000
     25          5.808062   0.000000
     26          5.938104   0.000000
     27          6.783213   0.000000
     28          7.590116   0.000000
     29          7.778184   0.000000
     30          8.640924   0.000000
     31          8.768212   0.000000
     32          8.863670   0.000000
     33          9.042053   0.000000
     34         10.035598   0.000000
     35         11.147435   0.000000
     36         11.383619   0.000000
     37         11.739783   0.000000
     38         11.791210   0.000000
     39         11.908289   0.000000
     40         12.359712   0.000000
     41         12.825135   0.000000
     42         13.428707   0.000000
     43         13.559852   0.000000
     44         15.488506   0.000000
     45         15.578145   0.000000
     46         15.994247   0.000000
     47         16.364621   0.000000
     48         16.466092   0.000000
 
  0.8333333E-01  0.0000000E+00  0.0000000E+00  0.2614379E-03
      1        -12.718453   1.000000
      2        -11.602894   1.000000
      3         -8.655699   1.000000
      4         -8.420783   1.000000
      5         -6.047479   1.000000
      6         -5.237894   1.000000
      7         -4.710037   1.000000
      8         -4.135820   1.000000
      9         -3.951076   1.000000
     10         -3.459183   1.000000
     11         -2.412732   1.000000
     12         -2.244026   1.000000
     13         -2.231203   1.000000
     14         -1.167737   1.000000
     15         -0.020708   1.000000
     16          0.022682   1.000000
     17          0.125964   1.000000
     18          0.165694   1.000000
     19          0.529269   1.000000
     20          2.049347   0.000002
     21          2.098945   0.000000
     22          2.172311   0.000000
     23          5.446927   0.000000
     24          5.782383   0.000000
     25          5.800246   0.000000
     26          6.081639   0.000000
     27          6.754409   0.000000
     28          7.383262   0.000000
     29          7.923538   0.000000
     30          8.685217   0.000000
     31          8.886135   0.000000
     32          8.944686   0.000000
     33          9.047416   0.000000
     34         10.076700   0.000000
     35         11.170577   0.000000
     36         11.253281   0.000000
     37         11.529241   0.000000
     38         11.728596   0.000000
     39         11.980445   0.000000
     40         12.386598   0.000000
     41         12.959197   0.000000
     42         13.436584   0.000000
     43         13.648896   0.000000
     44         15.185370   0.000000
     45         15.651695   0.000000
     46         16.185814   0.000000
     47         16.186796   0.000000
     48         16.399476   0.000000
 
  0.1388889E+00  0.0000000E+00  0.0000000E+00  0.2614379E-03
      1        -12.691455   1.000000
      2        -11.648335   1.000000
      3         -8.642653   1.000000
      4         -8.413738   1.000000
      5         -6.006412   1.000000
      6         -5.435399   1.000000
      7         -4.780474   1.000000
      8         -3.913178   1.000000
      9         -3.873705   1.000000
     10         -3.254743   1.000000
     11         -2.400760   1.000000
     12         -2.314017   1.000000
     13         -2.251507   1.000000
     14         -1.356246   1.000000
     15          0.005776   1.000000
     16          0.044995   1.000000
     17          0.063384   1.000000
     18          0.189615   1.000000
     19          0.470637   1.000000
     20          1.995448   0.000937
     21          2.050971   0.000001
     22          2.098659   0.000000
     23          5.500352   0.000000
     24          5.753134   0.000000
     25          5.859931   0.000000
     26          6.288511   0.000000
     27          6.701858   0.000000
     28          7.180491   0.000000
     29          8.034506   0.000000
     30          8.765783   0.000000
     31          9.035413   0.000000
     32          9.084088   0.000000
     33          9.112474   0.000000
     34         10.163009   0.000000
     35         11.012337   0.000000
     36         11.211654   0.000000
     37         11.217310   0.000000
     38         11.680768   0.000000
     39         12.114023   0.000000
     40         12.442090   0.000000
     41         13.107577   0.000000
     42         13.216807   0.000000
     43         13.987582   0.000000
     44         14.891914   0.000000
     45         15.777258   0.000000
     46         15.872224   0.000000
     47         16.310047   0.000000
     48         16.465443   0.000000
 
  0.1944444E+00  0.0000000E+00  0.0000000E+00  0.2614379E-03
      1        -12.651388   1.000000
      2        -11.712876   1.000000
      3         -8.622580   1.000000
      4         -8.405141   1.000000
      5         -5.975316   1.000000
      6         -5.629031   1.000000
      7         -4.804334   1.000000
      8         -3.856788   1.000000
      9         -3.586728   1.000000
     10         -3.007140   1.000000
     11         -2.427885   1.000000
     12         -2.382161   1.000000
     13         -2.262378   1.000000
     14         -1.611476   1.000000
     15         -0.071428   1.000000
     16          0.043938   1.000000
     17          0.116520   1.000000
     18          0.188630   1.000000
     19          0.416184   1.000000
     20          1.922151   0.150044
     21          1.984665   0.002521
     22          1.989038   0.001705
     23          5.566269   0.000000
     24          5.719934   0.000000
     25          5.994276   0.000000
     26          6.542307   0.000000
     27          6.634359   0.000000
     28          6.999136   0.000000
     29          8.126201   0.000000
     30          8.862606   0.000000
     31          9.010545   0.000000
     32          9.320247   0.000000
     33          9.333751   0.000000
     34         10.306496   0.000000
     35         10.690088   0.000000
     36         10.868754   0.000000
     37         11.284208   0.000000
     38         11.701887   0.000000
     39         12.266950   0.000000
     40         12.552116   0.000000
     41         12.932561   0.000000
     42         13.118106   0.000000
     43         14.374112   0.000000
     44         14.749570   0.000000
     45         15.540800   0.000000
     46         15.931520   0.000000
     47         16.270756   0.000000
     48         16.572139   0.000000
 
  0.2500000E+00  0.0000000E+00  0.0000000E+00  0.2614379E-03
      1        -12.598826   1.000000
      2        -11.792809   1.000000
      3         -8.595648   1.000000
      4         -8.397326   1.000000
      5         -5.977342   1.000000
      6         -5.801690   1.000000
      7         -4.744148   1.000000
      8         -3.782478   1.000000
      9         -3.299480   1.000000
     10         -2.740158   1.000000
     11         -2.563902   1.000000
     12         -2.357002   1.000000
     13         -2.275679   1.000000
     14         -1.907591   1.000000
     15         -0.217383   1.000000
     16          0.091672   1.000000
     17          0.093754   1.000000
     18          0.174974   1.000000
     19          0.436889   1.000000
     20          1.838113   0.909995
     21          1.846993   0.862046
     22          1.906097   0.280226
     23          5.632512   0.000000
     24          5.691797   0.000000
     25          6.199961   0.000000
     26          6.562783   0.000000
     27          6.833677   0.000000
     28          6.845697   0.000000
     29          8.207090   0.000000
     30          8.932158   0.000000
     31          8.949337   0.000000
     32          9.572054   0.000000
     33          9.601749   0.000000
     34         10.310511   0.000000
     35         10.524995   0.000000
     36         10.572379   0.000000
     37         11.355780   0.000000
     38         11.806227   0.000000
     39         12.372872   0.000000
     40         12.608547   0.000000
     41         12.763103   0.000000
     42         12.914541   0.000000
     43         14.775440   0.000000
     44         14.803188   0.000000
     45         15.208038   0.000000
     46         16.038147   0.000000
     47         16.097952   0.000000
     48         16.209576   0.000000
 
  0.3055556E+00  0.0000000E+00  0.0000000E+00  0.2614379E-03
      1        -12.534515   1.000000
      2        -11.883979   1.000000
      3         -8.562889   1.000000
      4         -8.393050   1.000000
      5         -6.014764   1.000000
      6         -5.944947   1.000000
      7         -4.592526   1.000000
      8         -3.691015   1.000000
      9         -3.042151   1.000000
     10         -2.713722   1.000000
     11         -2.477384   1.000000
     12         -2.352042   1.000000
     13         -2.284854   1.000000
     14         -2.182006   1.000000
     15         -0.383725   1.000000
     16         -0.076691   1.000000
     17          0.145771   1.000000
     18          0.231203   1.000000
     19          0.521116   1.000000
     20          1.679239   1.000000
     21          1.753982   0.999901
     22          1.822548   0.962540
     23          5.675651   0.000000
     24          5.687949   0.000000
     25          6.469575   0.000000
     26          6.498707   0.000000
     27          6.720053   0.000000
     28          7.155424   0.000000
     29          8.279832   0.000000
     30          8.860462   0.000000
     31          8.895803   0.000000
     32          9.834420   0.000000
     33          9.885463   0.000000
     34          9.898156   0.000000
     35         10.408403   0.000000
     36         10.831415   0.000000
     37         11.401453   0.000000
     38         11.984085   0.000000
     39         12.261952   0.000000
     40         12.444699   0.000000
     41         12.572991   0.000000
     42         13.034129   0.000000
     43         14.895232   0.000000
     44         14.934656   0.000000
     45         15.173764   0.000000
     46         15.700090   0.000000
     47         15.722633   0.000000
     48         16.261601   0.000000
 
  0.3611111E+00  0.0000000E+00  0.0000000E+00  0.2614379E-03
      1        -12.459474   1.000000
      2        -11.982231   1.000000
      3         -8.526360   1.000000
      4         -8.395136   1.000000
      5         -6.069699   1.000000
      6         -6.053491   1.000000
      7         -4.366140   1.000000
      8         -3.583505   1.000000
      9         -2.913717   1.000000
     10         -2.870171   1.000000
     11         -2.512418   1.000000
     12         -2.346684   1.000000
     13         -2.188732   1.000000
     14         -2.182151   1.000000
     15         -0.554190   1.000000
     16         -0.280606   1.000000
     17          0.201584   1.000000
     18          0.277318   1.000000
     19          0.638313   1.000000
     20          1.495057   1.000000
     21          1.681431   1.000000
     22          1.742315   0.999974
     23          5.674449   0.000000
     24          5.723798   0.000000
     25          6.453394   0.000000
     26          6.619287   0.000000
     27          6.793330   0.000000
     28          7.501839   0.000000
     29          8.346862   0.000000
     30          8.692061   0.000000
     31          8.758467   0.000000
     32          9.476320   0.000000
     33         10.106874   0.000000
     34         10.158717   0.000000
     35         10.435498   0.000000
     36         11.219933   0.000000
     37         11.392608   0.000000
     38         11.905419   0.000000
     39         12.177105   0.000000
     40         12.225374   0.000000
     41         12.505205   0.000000
     42         13.268793   0.000000
     43         14.644139   0.000000
     44         15.012391   0.000000
     45         15.196067   0.000000
     46         15.380191   0.000000
     47         15.555830   0.000000
     48         16.399398   0.000000
 
  0.4166667E+00  0.0000000E+00  0.0000000E+00  0.2614379E-03
      1        -12.375016   1.000000
      2        -12.083668   1.000000
      3         -8.489024   1.000000
      4         -8.405772   1.000000
      5         -6.124276   1.000000
      6         -6.121254   1.000000
      7         -4.086479   1.000000
      8         -3.461321   1.000000
      9         -3.110879   1.000000
     10         -3.027371   1.000000
     11         -2.507172   1.000000
     12         -2.362743   1.000000
     13         -2.069098   1.000000
     14         -1.987812   1.000000
     15         -0.695585   1.000000
     16         -0.489978   1.000000
     17          0.252811   1.000000
     18          0.305699   1.000000
     19          0.779448   1.000000
     20          1.304643   1.000000
     21          1.631743   1.000000
     22          1.674579   1.000000
     23          5.686812   0.000000
     24          5.735907   0.000000
     25          6.435030   0.000000
     26          6.540406   0.000000
     27          7.159895   0.000000
     28          7.868434   0.000000
     29          8.357962   0.000000
     30          8.412889   0.000000
     31          8.656969   0.000000
     32          9.058087   0.000000
     33         10.375754   0.000000
     34         10.400305   0.000000
     35         10.617352   0.000000
     36         11.336925   0.000000
     37         11.549747   0.000000
     38         11.652338   0.000000
     39         11.807594   0.000000
     40         12.492557   0.000000
     41         12.514422   0.000000
     42         13.320752   0.000000
     43         14.540989   0.000000
     44         14.835173   0.000000
     45         14.980916   0.000000
     46         15.052510   0.000000
     47         15.907437   0.000000
     48         16.468548   0.000000
 
  0.4722222E+00  0.0000000E+00  0.0000000E+00  0.2614379E-03
      1        -12.282795   1.000000
      2        -12.184849   1.000000
      3         -8.454380   1.000000
      4         -8.425814   1.000000
      5         -6.156817   1.000000
      6         -6.153745   1.000000
      7         -3.771418   1.000000
      8         -3.437325   1.000000
      9         -3.326269   1.000000
     10         -3.180646   1.000000
     11         -2.443110   1.000000
     12         -2.396146   1.000000
     13         -1.937850   1.000000
     14         -1.891415   1.000000
     15         -0.747679   1.000000
     16         -0.666243   1.000000
     17          0.291712   1.000000
     18          0.310799   1.000000
     19          0.940414   1.000000
     20          1.117283   1.000000
     21          1.613327   1.000000
     22          1.628876   1.000000
     23          5.707314   0.000000
     24          5.727292   0.000000
     25          6.445642   0.000000
     26          6.482067   0.000000
     27          7.555886   0.000000
     28          7.963997   0.000000
     29          8.251720   0.000000
     30          8.483724   0.000000
     31          8.564454   0.000000
     32          8.649009   0.000000
     33         10.571596   0.000000
     34         10.574059   0.000000
     35         10.887750   0.000000
     36         11.205873   0.000000
     37         11.315996   0.000000
     38         11.476906   0.000000
     39         12.083220   0.000000
     40         12.388091   0.000000
     41         12.795953   0.000000
     42         13.110872   0.000000
     43         14.619308   0.000000
     44         14.737489   0.000000
     45         14.786444   0.000000
     46         14.857344   0.000000
     47         16.206078   0.000000
     48         16.409242   0.000000
 
  0.2777778E-01  0.4000000E-01  0.0000000E+00  0.5228758E-03
      1        -12.728173   1.000000
      2        -11.575934   1.000000
      3         -8.659021   1.000000
      4         -8.421001   1.000000
      5         -6.070193   1.000000
      6         -5.079200   1.000000
      7         -4.645082   1.000000
      8         -4.334118   1.000000
      9         -4.056052   1.000000
     10         -3.578798   1.000000
     11         -2.631608   1.000000
     12         -2.305387   1.000000
     13         -1.778688   1.000000
     14         -1.066234   1.000000
     15         -0.080973   1.000000
     16         -0.054554   1.000000
     17          0.153175   1.000000
     18          0.193628   1.000000
     19          0.579133   1.000000
     20          2.017475   0.000095
     21          2.080752   0.000000
     22          2.232445   0.000000
     23          5.458756   0.000000
     24          5.749772   0.000000
     25          5.851673   0.000000
     26          5.907282   0.000000
     27          6.832949   0.000000
     28          7.640507   0.000000
     29          7.825311   0.000000
     30          8.499715   0.000000
     31          8.768171   0.000000
     32          8.938922   0.000000
     33          9.052082   0.000000
     34         10.133791   0.000000
     35         11.186450   0.000000
     36         11.370120   0.000000
     37         11.727661   0.000000
     38         11.808014   0.000000
     39         11.924848   0.000000
     40         12.406160   0.000000
     41         12.826998   0.000000
     42         13.375870   0.000000
     43         13.504976   0.000000
     44         15.487998   0.000000
     45         15.544030   0.000000
     46         15.997311   0.000000
     47         16.336394   0.000000
     48         16.410134   0.000000
 
  0.8333333E-01  0.4000000E-01  0.0000000E+00  0.5228758E-03
      1        -12.714591   1.000000
      2        -11.599417   1.000000
      3         -8.652656   1.000000
      4         -8.417071   1.000000
      5         -6.043111   1.000000
      6         -5.232694   1.000000
      7         -4.706578   1.000000
      8         -4.168945   1.000000
      9         -4.016174   1.000000
     10         -3.455365   1.000000
     11         -2.652895   1.000000
     12         -2.299185   1.000000
     13         -1.806149   1.000000
     14         -1.166991   1.000000
     15         -0.067960   1.000000
     16         -0.036843   1.000000
     17          0.157742   1.000000
     18          0.169150   1.000000
     19          0.547762   1.000000
     20          1.989768   0.001595
     21          2.055612   0.000001
     22          2.194680   0.000000
     23          5.489443   0.000000
     24          5.743410   0.000000
     25          5.834748   0.000000
     26          6.048533   0.000000
     27          6.804244   0.000000
     28          7.434991   0.000000
     29          7.969284   0.000000
     30          8.546261   0.000000
     31          8.887693   0.000000
     32          9.018877   0.000000
     33          9.060800   0.000000
     34         10.165064   0.000000
     35         11.208637   0.000000
     36         11.239936   0.000000
     37         11.516480   0.000000
     38         11.746480   0.000000
     39         11.997193   0.000000
     40         12.432626   0.000000
     41         12.961732   0.000000
     42         13.382381   0.000000
     43         13.596282   0.000000
     44         15.197841   0.000000
     45         15.613905   0.000000
     46         16.140862   0.000000
     47         16.167186   0.000000
     48         16.395558   0.000000
 
  0.1388889E+00  0.4000000E-01  0.0000000E+00  0.5228758E-03
      1        -12.687599   1.000000
      2        -11.644838   1.000000
      3         -8.639596   1.000000
      4         -8.410056   1.000000
      5         -6.001864   1.000000
      6         -5.430453   1.000000
      7         -4.777210   1.000000
      8         -4.045059   1.000000
      9         -3.840448   1.000000
     10         -3.251537   1.000000
     11         -2.695744   1.000000
     12         -2.286666   1.000000
     13         -1.855114   1.000000
     14         -1.355398   1.000000
     15         -0.043420   1.000000
     16         -0.021964   1.000000
     17          0.104407   1.000000
     18          0.195508   1.000000
     19          0.488533   1.000000
     20          1.936915   0.072996
     21          2.007712   0.000274
     22          2.119482   0.000000
     23          5.543930   0.000000
     24          5.760448   0.000000
     25          5.849439   0.000000
     26          6.252282   0.000000
     27          6.751866   0.000000
     28          7.235787   0.000000
     29          8.078188   0.000000
     30          8.630311   0.000000
     31          9.064209   0.000000
     32          9.087562   0.000000
     33          9.177175   0.000000
     34         10.230866   0.000000
     35         10.999382   0.000000
     36         11.197490   0.000000
     37         11.253488   0.000000
     38         11.705527   0.000000
     39         12.131212   0.000000
     40         12.487109   0.000000
     41         13.111639   0.000000
     42         13.163832   0.000000
     43         13.928447   0.000000
     44         14.916684   0.000000
     45         15.725086   0.000000
     46         15.881156   0.000000
     47         16.205886   0.000000
     48         16.497312   0.000000
 
  0.1944444E+00  0.4000000E-01  0.0000000E+00  0.5228758E-03
      1        -12.647546   1.000000
      2        -11.709358   1.000000
      3         -8.619501   1.000000
      4         -8.401515   1.000000
      5         -5.970512   1.000000
      6         -5.624134   1.000000
      7         -4.801362   1.000000
      8         -3.978121   1.000000
      9         -3.564637   1.000000
     10         -3.007466   1.000000
     11         -2.757975   1.000000
     12         -2.267575   1.000000
     13         -1.916423   1.000000
     14         -1.610438   1.000000
     15         -0.084643   1.000000
     16         -0.011734   1.000000
     17          0.105701   1.000000
     18          0.205602   1.000000
     19          0.429334   1.000000
     20          1.864001   0.728574
     21          1.941528   0.056564
     22          2.008840   0.000243
     23          5.610900   0.000000
     24          5.743879   0.000000
     25          5.967980   0.000000
     26          6.500121   0.000000
     27          6.684636   0.000000
     28          7.062009   0.000000
     29          8.168180   0.000000
     30          8.730266   0.000000
     31          9.049897   0.000000
     32          9.325005   0.000000
     33          9.398269   0.000000
     34         10.339083   0.000000
     35         10.680483   0.000000
     36         10.858568   0.000000
     37         11.317311   0.000000
     38         11.736425   0.000000
     39         12.287214   0.000000
     40         12.592502   0.000000
     41         12.882369   0.000000
     42         13.123649   0.000000
     43         14.290480   0.000000
     44         14.802425   0.000000
     45         15.548572   0.000000
     46         15.880605   0.000000
     47         16.170541   0.000000
     48         16.571138   0.000000
 
  0.2500000E+00  0.4000000E-01  0.0000000E+00  0.5228758E-03
      1        -12.595004   1.000000
      2        -11.789264   1.000000
      3         -8.592555   1.000000
      4         -8.393766   1.000000
      5         -5.972305   1.000000
      6         -5.796778   1.000000
      7         -4.741477   1.000000
      8         -3.904138   1.000000
      9         -3.277185   1.000000
     10         -2.868850   1.000000
     11         -2.716015   1.000000
     12         -2.242881   1.000000
     13         -1.981498   1.000000
     14         -1.906019   1.000000
     15         -0.218394   1.000000
     16          0.004432   1.000000
     17          0.150181   1.000000
     18          0.153591   1.000000
     19          0.442069   1.000000
     20          1.776795   0.998948
     21          1.863106   0.736899
     22          1.869248   0.677275
     23          5.677787   0.000000
     24          5.719992   0.000000
     25          6.170360   0.000000
     26          6.613410   0.000000
     27          6.755033   0.000000
     28          6.946982   0.000000
     29          8.247659   0.000000
     30          8.802393   0.000000
     31          9.006518   0.000000
     32          9.577579   0.000000
     33          9.660046   0.000000
     34         10.275445   0.000000
     35         10.480603   0.000000
     36         10.636689   0.000000
     37         11.383768   0.000000
     38         11.850569   0.000000
     39         12.399496   0.000000
     40         12.556878   0.000000
     41         12.801665   0.000000
     42         12.920826   0.000000
     43         14.618906   0.000000
     44         14.933173   0.000000
     45         15.229895   0.000000
     46         15.965036   0.000000
     47         15.992863   0.000000
     48         16.303680   0.000000
 
  0.3055556E+00  0.4000000E-01  0.0000000E+00  0.5228758E-03
      1        -12.530715   1.000000
      2        -11.880405   1.000000
      3         -8.559775   1.000000
      4         -8.389567   1.000000
      5         -6.009588   1.000000
      6         -5.939967   1.000000
      7         -4.590071   1.000000
      8         -3.816544   1.000000
      9         -3.015427   1.000000
     10         -2.966598   1.000000
     11         -2.453094   1.000000
     12         -2.270161   1.000000
     13         -2.148942   1.000000
     14         -2.044664   1.000000
     15         -0.380665   1.000000
     16         -0.095933   1.000000
     17          0.136985   1.000000
     18          0.206959   1.000000
     19          0.523635   1.000000
     20          1.664135   1.000000
     21          1.729347   0.999995
     22          1.779724   0.998615
     23          5.706182   0.000000
     24          5.733048   0.000000
     25          6.438892   0.000000
     26          6.549942   0.000000
     27          6.755199   0.000000
     28          7.144678   0.000000
     29          8.318930   0.000000
     30          8.786393   0.000000
     31          8.921677   0.000000
     32          9.840598   0.000000
     33          9.852503   0.000000
     34          9.946161   0.000000
     35         10.370647   0.000000
     36         10.862070   0.000000
     37         11.420790   0.000000
     38         12.035947   0.000000
     39         12.215951   0.000000
     40         12.477349   0.000000
     41         12.580248   0.000000
     42         13.068173   0.000000
     43         14.859357   0.000000
     44         14.925704   0.000000
     45         15.220925   0.000000
     46         15.646055   0.000000
     47         15.719181   0.000000
     48         16.285255   0.000000
 
  0.3611111E+00  0.4000000E-01  0.0000000E+00  0.5228758E-03
      1        -12.455700   1.000000
      2        -11.978619   1.000000
      3         -8.523225   1.000000
      4         -8.391738   1.000000
      5         -6.064471   1.000000
      6         -6.048441   1.000000
      7         -4.363842   1.000000
      8         -3.715407   1.000000
      9         -3.087003   1.000000
     10         -2.893464   1.000000
     11         -2.457614   1.000000
     12         -2.200567   1.000000
     13         -2.116087   1.000000
     14         -2.101177   1.000000
     15         -0.549237   1.000000
     16         -0.285854   1.000000
     17          0.180028   1.000000
     18          0.251949   1.000000
     19          0.640111   1.000000
     20          1.494240   1.000000
     21          1.641970   1.000000
     22          1.699640   1.000000
     23          5.707017   0.000000
     24          5.767691   0.000000
     25          6.505489   0.000000
     26          6.666005   0.000000
     27          6.762348   0.000000
     28          7.480656   0.000000
     29          8.384202   0.000000
     30          8.633986   0.000000
     31          8.790097   0.000000
     32          9.446819   0.000000
     33         10.113918   0.000000
     34         10.165812   0.000000
     35         10.422491   0.000000
     36         11.234440   0.000000
     37         11.396478   0.000000
     38         11.871852   0.000000
     39         12.185015   0.000000
     40         12.282539   0.000000
     41         12.539902   0.000000
     42         13.303641   0.000000
     43         14.678667   0.000000
     44         14.985946   0.000000
     45         15.167987   0.000000
     46         15.331315   0.000000
     47         15.626492   0.000000
     48         16.400758   0.000000
 
  0.4166667E+00  0.4000000E-01  0.0000000E+00  0.5228758E-03
      1        -12.371271   1.000000
      2        -12.080026   1.000000
      3         -8.485859   1.000000
      4         -8.402451   1.000000
      5         -6.119153   1.000000
      6         -6.116017   1.000000
      7         -4.084314   1.000000
      8         -3.602314   1.000000