  14  14   0   0
  0.1021318E+02  0.5700971E-09  0.4044058E-09  0.6201871E-09  0.5000000E-15
  1.000000000000000E-004
  CAR 
 Dielectric                              
     26.18876217    -14.54344090 4000      1.91649873      1.00000000
    -14.543  0.0000E+00  0.0000E+00
    -14.533  0.0000E+00  0.0000E+00
    -14.523  0.0000E+00  0.0000E+00
    -14.513  0.0000E+00  0.0000E+00
    -14.503  0.0000E+00  0.0000E+00
    -14.493  0.0000E+00  0.0000E+00
    -14.482  0.0000E+00  0.0000E+00
    -14.472  0.0000E+00  0.0000E+00
    -14.462  0.0000E+00  0.0000E+00
    -14.452  0.0000E+00  0.0000E+00
    -14.442  0.0000E+00  0.0000E+00
    -14.431  0.0000E+00  0.0000E+00
    -14.421  0.0000E+00  0.0000E+00
    -14.411  0.0000E+00  0.0000E+00
    -14.401  0.0000E+00  0.0000E+00
    -14.391  0.0000E+00  0.0000E+00
    -14.380  0.0000E+00  0.0000E+00
    -14.370  0.0000E+00  0.0000E+00
    -14.360  0.0000E+00  0.0000E+00
    -14.350  0.0000E+00  0.0000E+00
    -14.340  0.0000E+00  0.0000E+00
    -14.330  0.0000E+00  0.0000E+00
    -14.319  0.0000E+00  0.0000E+00
    -14.309  0.0000E+00  0.0000E+00
    -14.299  0.0000E+00  0.0000E+00
    -14.289  0.0000E+00  0.0000E+00
    -14.279  0.0000E+00  0.0000E+00
    -14.268  0.0000E+00  0.0000E+00
    -14.258  0.0000E+00  0.0000E+00
    -14.248  0.0000E+00  0.0000E+00
    -14.238  0.0000E+00  0.0000E+00
    -14.228  0.0000E+00  0.0000E+00
    -14.218  0.0000E+00  0.0000E+00
    -14.207  0.0000E+00  0.0000E+00
    -14.197  0.0000E+00  0.0000E+00
    -14.187  0.0000E+00  0.0000E+00
    -14.177  0.0000E+00  0.0000E+00
    -14.167  0.0000E+00  0.0000E+00
    -14.156  0.0000E+00  0.0000E+00
    -14.146  0.0000E+00  0.0000E+00
    -14.136  0.0000E+00  0.0000E+00
    -14.126  0.0000E+00  0.0000E+00
    -14.116  0.0000E+00  0.0000E+00
    -14.105  0.0000E+00  0.0000E+00
    -14.095  0.0000E+00  0.0000E+00
    -14.085  0.0000E+00  0.0000E+00
    -14.075  0.0000E+00  0.0000E+00
    -14.065  0.0000E+00  0.0000E+00
    -14.055  0.0000E+00  0.0000E+00
    -14.044  0.0000E+00  0.0000E+00
    -14.034  0.0000E+00  0.0000E+00
    -14.024  0.0000E+00  0.0000E+00
    -14.014  0.0000E+00  0.0000E+00
    -14.004  0.0000E+00  0.0000E+00
    -13.993  0.0000E+00  0.0000E+00
    -13.983  0.0000E+00  0.0000E+00
    -13.973  0.0000E+00  0.0000E+00
    -13.963  0.0000E+00  0.0000E+00
    -13.953  0.0000E+00  0.0000E+00
    -13.942  0.0000E+00  0.0000E+00
    -13.932  0.0000E+00  0.0000E+00
    -13.922  0.0000E+00  0.0000E+00
    -13.912  0.0000E+00  0.0000E+00
    -13.902  0.0000E+00  0.0000E+00
    -13.892  0.0000E+00  0.0000E+00
    -13.881  0.0000E+00  0.0000E+00
    -13.871  0.0000E+00  0.0000E+00
    -13.861  0.0000E+00  0.0000E+00
    -13.851  0.0000E+00  0.0000E+00
    -13.841  0.0000E+00  0.0000E+00
    -13.830  0.0000E+00  0.0000E+00
    -13.820  0.0000E+00  0.0000E+00
    -13.810  0.0000E+00  0.0000E+00
    -13.800  0.0000E+00  0.0000E+00
    -13.790  0.0000E+00  0.0000E+00
    -13.780  0.0000E+00  0.0000E+00
    -13.769  0.0000E+00  0.0000E+00
    -13.759  0.0000E+00  0.0000E+00
    -13.749  0.0000E+00  0.0000E+00
    -13.739  0.0000E+00  0.0000E+00
    -13.729  0.0000E+00  0.0000E+00
    -13.718  0.0000E+00  0.0000E+00
    -13.708  0.0000E+00  0.0000E+00
    -13.698  0.0000E+00  0.0000E+00
    -13.688  0.0000E+00  0.0000E+00
    -13.678  0.0000E+00  0.0000E+00
    -13.667  0.0000E+00  0.0000E+00
    -13.657  0.0000E+00  0.0000E+00
    -13.647  0.0000E+00  0.0000E+00
    -13.637  0.0000E+00  0.0000E+00
    -13.627  0.0000E+00  0.0000E+00
    -13.617  0.0000E+00  0.0000E+00
    -13.606  0.0000E+00  0.0000E+00
    -13.596  0.0000E+00  0.0000E+00
    -13.586  0.0000E+00  0.0000E+00
    -13.576  0.0000E+00  0.0000E+00
    -13.566  0.0000E+00  0.0000E+00
    -13.555  0.0000E+00  0.0000E+00
    -13.545  0.0000E+00  0.0000E+00
    -13.535  0.0000E+00  0.0000E+00
    -13.525  0.0000E+00  0.0000E+00
    -13.515  0.0000E+00  0.0000E+00
    -13.505  0.0000E+00  0.0000E+00
    -13.494  0.0000E+00  0.0000E+00
    -13.484  0.0000E+00  0.0000E+00
    -13.474  0.0000E+00  0.0000E+00
    -13.464  0.0000E+00  0.0000E+00
    -13.454  0.0000E+00  0.0000E+00
    -13.443  0.0000E+00  0.0000E+00
    -13.433  0.0000E+00  0.0000E+00
    -13.423  0.0000E+00  0.0000E+00
    -13.413  0.0000E+00  0.0000E+00
    -13.403  0.0000E+00  0.0000E+00
    -13.392  0.0000E+00  0.0000E+00
    -13.382  0.0000E+00  0.0000E+00
    -13.372  0.0000E+00  0.0000E+00
    -13.362  0.0000E+00  0.0000E+00
    -13.352  0.0000E+00  0.0000E+00
    -13.342  0.0000E+00  0.0000E+00
    -13.331  0.0000E+00  0.0000E+00
    -13.321  0.0000E+00  0.0000E+00
    -13.311  0.0000E+00  0.0000E+00
    -13.301  0.0000E+00  0.0000E+00
    -13.291  0.0000E+00  0.0000E+00
    -13.280  0.0000E+00  0.0000E+00
    -13.270  0.0000E+00  0.0000E+00
    -13.260  0.0000E+00  0.0000E+00
    -13.250  0.0000E+00  0.0000E+00
    -13.240  0.0000E+00  0.0000E+00
    -13.229  0.0000E+00  0.0000E+00
    -13.219  0.0000E+00  0.0000E+00
    -13.209  0.0000E+00  0.0000E+00
    -13.199  0.0000E+00  0.0000E+00
    -13.189  0.0000E+00  0.0000E+00
    -13.179  0.0000E+00  0.0000E+00
    -13.168  0.0000E+00  0.0000E+00
    -13.158  0.0000E+00  0.0000E+00
    -13.148  0.0000E+00  0.0000E+00
    -13.138  0.0000E+00  0.0000E+00
    -13.128  0.0000E+00  0.0000E+00
    -13.117  0.0000E+00  0.0000E+00
    -13.107  0.0000E+00  0.0000E+00
    -13.097  0.0000E+00  0.0000E+00
    -13.087  0.0000E+00  0.0000E+00
    -13.077  0.0000E+00  0.0000E+00
    -13.067  0.0000E+00  0.0000E+00
    -13.056  0.0000E+00  0.0000E+00
    -13.046  0.0000E+00  0.0000E+00
    -13.036  0.0000E+00  0.0000E+00
    -13.026  0.0000E+00  0.0000E+00
    -13.016  0.0000E+00  0.0000E+00
    -13.005  0.0000E+00  0.0000E+00
    -12.995  0.0000E+00  0.0000E+00
    -12.985  0.0000E+00  0.0000E+00
    -12.975  0.0000E+00  0.0000E+00
    -12.965  0.0000E+00  0.0000E+00
    -12.954  0.0000E+00  0.0000E+00
    -12.944  0.0000E+00  0.0000E+00
    -12.934  0.0000E+00  0.0000E+00
    -12.924  0.0000E+00  0.0000E+00
    -12.914  0.0000E+00  0.0000E+00
    -12.904  0.0000E+00  0.0000E+00
    -12.893  0.0000E+00  0.0000E+00
    -12.883  0.0000E+00  0.0000E+00
    -12.873  0.0000E+00  0.0000E+00
    -12.863  0.0000E+00  0.0000E+00
    -12.853  0.0000E+00  0.0000E+00
    -12.842  0.0000E+00  0.0000E+00
    -12.832  0.0000E+00  0.0000E+00
    -12.822  0.0000E+00  0.0000E+00
    -12.812  0.0000E+00  0.0000E+00
    -12.802  0.0000E+00  0.0000E+00
    -12.792  0.0000E+00  0.0000E+00
    -12.781  0.0000E+00  0.0000E+00
    -12.771  0.0000E+00  0.0000E+00
    -12.761  0.0000E+00  0.0000E+00
    -12.751  0.3460E-16  0.3525E-18
    -12.741  0.1933E-11  0.1969E-13
    -12.730  0.1713E-07  0.1745E-09
    -12.720  0.2025E-04  0.2065E-06
    -12.710  0.3332E-02  0.3414E-04
    -12.700  0.8467E-01  0.8965E-03
    -12.690  0.4485E+00  0.5465E-02
    -12.679  0.8369E+00  0.1399E-01
    -12.669  0.7561E+00  0.2169E-01
    -12.659  0.1014E+01  0.3202E-01
    -12.649  0.1626E+01  0.4858E-01
    -12.639  0.1372E+01  0.6255E-01
    -12.629  0.1555E+01  0.7838E-01
    -12.618  0.2387E+01  0.1027E+00
    -12.608  0.2933E+01  0.1326E+00
    -12.598  0.1738E+01  0.1503E+00
    -12.588  0.2274E+01  0.1734E+00
    -12.578  0.2887E+01  0.2028E+00
    -12.567  0.2753E+01  0.2309E+00
    -12.557  0.3112E+01  0.2626E+00
    -12.547  0.3947E+01  0.3028E+00
    -12.537  0.2982E+01  0.3332E+00
    -12.527  0.3368E+01  0.3675E+00
    -12.517  0.3550E+01  0.4036E+00
    -12.506  0.2666E+01  0.4308E+00
    -12.496  0.3291E+01  0.4643E+00
    -12.486  0.3891E+01  0.5039E+00
    -12.476  0.3478E+01  0.5394E+00
    -12.466  0.3340E+01  0.5734E+00
    -12.455  0.3425E+01  0.6083E+00
    -12.445  0.3519E+01  0.6441E+00
    -12.435  0.3330E+01  0.6780E+00
    -12.425  0.4859E+01  0.7275E+00
    -12.415  0.4789E+01  0.7763E+00
    -12.404  0.5227E+01  0.8295E+00
    -12.394  0.4197E+01  0.8723E+00
    -12.384  0.3784E+01  0.9108E+00
    -12.374  0.5027E+01  0.9621E+00
    -12.364  0.5792E+01  0.1021E+01
    -12.354  0.5130E+01  0.1073E+01
    -12.343  0.4436E+01  0.1118E+01
    -12.333  0.3639E+01  0.1156E+01
    -12.323  0.2560E+01  0.1182E+01
    -12.313  0.3839E+01  0.1221E+01
    -12.303  0.3509E+01  0.1256E+01
    -12.292  0.3791E+01  0.1295E+01
    -12.282  0.3620E+01  0.1332E+01
    -12.272  0.2356E+01  0.1356E+01
    -12.262  0.2981E+01  0.1386E+01
    -12.252  0.3795E+01  0.1425E+01
    -12.241  0.4530E+01  0.1471E+01
    -12.231  0.4087E+01  0.1513E+01
    -12.221  0.2840E+01  0.1542E+01
    -12.211  0.2905E+01  0.1571E+01
    -12.201  0.3217E+01  0.1604E+01
    -12.191  0.2775E+01  0.1632E+01
    -12.180  0.2322E+01  0.1656E+01
    -12.170  0.2681E+01  0.1683E+01
    -12.160  0.2458E+01  0.1708E+01
    -12.150  0.2543E+01  0.1734E+01
    -12.140  0.2447E+01  0.1759E+01
    -12.129  0.1987E+01  0.1779E+01
    -12.119  0.1859E+01  0.1798E+01
    -12.109  0.1980E+01  0.1818E+01
    -12.099  0.2719E+01  0.1846E+01
    -12.089  0.3844E+01  0.1885E+01
    -12.079  0.3284E+01  0.1919E+01
    -12.068  0.3465E+01  0.1954E+01
    -12.058  0.3011E+01  0.1985E+01
    -12.048  0.1900E+01  0.2004E+01
    -12.038  0.1992E+01  0.2024E+01
    -12.028  0.3365E+01  0.2059E+01
    -12.017  0.3855E+01  0.2098E+01
    -12.007  0.2740E+01  0.2126E+01
    -11.997  0.1721E+01  0.2143E+01
    -11.987  0.1325E+01  0.2157E+01
    -11.977  0.2623E+01  0.2184E+01
    -11.966  0.3124E+01  0.2215E+01
    -11.956  0.1383E+01  0.2229E+01
    -11.946  0.9449E+00  0.2239E+01
    -11.936  0.1260E+01  0.2252E+01
    -11.926  0.2293E+01  0.2275E+01
    -11.916  0.4636E+01  0.2323E+01
    -11.905  0.4207E+01  0.2365E+01
    -11.895  0.2088E+01  0.2387E+01
    -11.885  0.1719E+01  0.2404E+01
    -11.875  0.2318E+01  0.2428E+01
    -11.865  0.3663E+01  0.2465E+01
    -11.854  0.3237E+01  0.2498E+01
    -11.844  0.2974E+01  0.2528E+01
    -11.834  0.3637E+01  0.2565E+01
    -11.824  0.2833E+01  0.2594E+01
    -11.814  0.1946E+01  0.2614E+01
    -11.804  0.2546E+01  0.2640E+01
    -11.793  0.2081E+01  0.2661E+01
    -11.783  0.1444E+01  0.2676E+01
    -11.773  0.1814E+01  0.2694E+01
    -11.763  0.2396E+01  0.2719E+01
    -11.753  0.2883E+01  0.2748E+01
    -11.742  0.3990E+01  0.2789E+01
    -11.732  0.3051E+01  0.2820E+01
    -11.722  0.2846E+01  0.2849E+01
    -11.712  0.3935E+01  0.2889E+01
    -11.702  0.4153E+01  0.2931E+01
    -11.691  0.4265E+01  0.2975E+01
    -11.681  0.5156E+01  0.3027E+01
    -11.671  0.3779E+01  0.3066E+01
    -11.661  0.3230E+01  0.3099E+01
    -11.651  0.3214E+01  0.3131E+01
    -11.641  0.3035E+01  0.3162E+01
    -11.630  0.3714E+01  0.3200E+01
    -11.620  0.2918E+01  0.3230E+01
    -11.610  0.1839E+01  0.3248E+01
    -11.600  0.3379E+01  0.3283E+01
    -11.590  0.4668E+01  0.3330E+01
    -11.579  0.4027E+01  0.3371E+01
    -11.569  0.3748E+01  0.3410E+01
    -11.559  0.2608E+01  0.3436E+01
    -11.549  0.3098E+01  0.3468E+01
    -11.539  0.3774E+01  0.3506E+01
    -11.529  0.4433E+01  0.3551E+01
    -11.518  0.4215E+01  0.3594E+01
    -11.508  0.2336E+01  0.3618E+01
    -11.498  0.2333E+01  0.3642E+01
    -11.488  0.3619E+01  0.3679E+01
    -11.478  0.4386E+01  0.3723E+01
    -11.467  0.2203E+01  0.3746E+01
    -11.457  0.1355E+01  0.3760E+01
    -11.447  0.1815E+01  0.3778E+01
    -11.437  0.2667E+01  0.3805E+01
    -11.427  0.2713E+01  0.3833E+01
    -11.416  0.1861E+01  0.3852E+01
    -11.406  0.1988E+01  0.3872E+01
    -11.396  0.1591E+01  0.3888E+01
    -11.386  0.9597E+00  0.3898E+01
    -11.376  0.1889E+01  0.3917E+01
    -11.366  0.1811E+01  0.3936E+01
    -11.355  0.1198E+01  0.3948E+01
    -11.345  0.1072E+01  0.3959E+01
    -11.335  0.5557E+00  0.3965E+01
    -11.325  0.6924E+00  0.3972E+01
    -11.315  0.5312E+00  0.3977E+01
    -11.304  0.8254E+00  0.3985E+01
    -11.294  0.7369E+00  0.3993E+01
    -11.284  0.4098E+00  0.3997E+01
    -11.274  0.2460E+00  0.4000E+01
    -11.264  0.3500E-01  0.4000E+01
    -11.253  0.7917E-03  0.4000E+01
    -11.243  0.2577E-05  0.4000E+01
    -11.233  0.1143E-08  0.4000E+01
    -11.223  0.6713E-13  0.4000E+01
    -11.213  0.0000E+00  0.4000E+01
    -11.203  0.0000E+00  0.4000E+01
    -11.192  0.0000E+00  0.4000E+01
    -11.182  0.0000E+00  0.4000E+01
    -11.172  0.0000E+00  0.4000E+01
    -11.162  0.0000E+00  0.4000E+01
    -11.152  0.0000E+00  0.4000E+01
    -11.141  0.0000E+00  0.4000E+01
    -11.131  0.0000E+00  0.4000E+01
    -11.121  0.0000E+00  0.4000E+01
    -11.111  0.0000E+00  0.4000E+01
    -11.101  0.0000E+00  0.4000E+01
    -11.091  0.0000E+00  0.4000E+01
    -11.080  0.0000E+00  0.4000E+01
    -11.070  0.0000E+00  0.4000E+01
    -11.060  0.0000E+00  0.4000E+01
    -11.050  0.0000E+00  0.4000E+01
    -11.040  0.0000E+00  0.4000E+01
    -11.029  0.0000E+00  0.4000E+01
    -11.019  0.0000E+00  0.4000E+01
    -11.009  0.0000E+00  0.4000E+01
    -10.999  0.0000E+00  0.4000E+01
    -10.989  0.0000E+00  0.4000E+01
    -10.978  0.0000E+00  0.4000E+01
    -10.968  0.0000E+00  0.4000E+01
    -10.958  0.0000E+00  0.4000E+01
    -10.948  0.0000E+00  0.4000E+01
    -10.938  0.0000E+00  0.4000E+01
    -10.928  0.0000E+00  0.4000E+01
    -10.917  0.0000E+00  0.4000E+01
    -10.907  0.0000E+00  0.4000E+01
    -10.897  0.0000E+00  0.4000E+01
    -10.887  0.0000E+00  0.4000E+01
    -10.877  0.0000E+00  0.4000E+01
    -10.866  0.0000E+00  0.4000E+01
    -10.856  0.0000E+00  0.4000E+01
    -10.846  0.0000E+00  0.4000E+01
    -10.836  0.0000E+00  0.4000E+01
    -10.826  0.0000E+00  0.4000E+01
    -10.816  0.0000E+00  0.4000E+01
    -10.805  0.0000E+00  0.4000E+01
    -10.795  0.0000E+00  0.4000E+01
    -10.785  0.0000E+00  0.4000E+01
    -10.775  0.0000E+00  0.4000E+01
    -10.765  0.0000E+00  0.4000E+01
    -10.754  0.0000E+00  0.4000E+01
    -10.744  0.0000E+00  0.4000E+01
    -10.734  0.0000E+00  0.4000E+01
    -10.724  0.0000E+00  0.4000E+01
    -10.714  0.0000E+00  0.4000E+01
    -10.703  0.0000E+00  0.4000E+01
    -10.693  0.0000E+00  0.4000E+01
    -10.683  0.0000E+00  0.4000E+01
    -10.673  0.0000E+00  0.4000E+01
    -10.663  0.0000E+00  0.4000E+01
    -10.653  0.0000E+00  0.4000E+01
    -10.642  0.0000E+00  0.4000E+01
    -10.632  0.0000E+00  0.4000E+01
    -10.622  0.0000E+00  0.4000E+01
    -10.612  0.0000E+00  0.4000E+01
    -10.602  0.0000E+00  0.4000E+01
    -10.591  0.0000E+00  0.4000E+01
    -10.581  0.0000E+00  0.4000E+01
    -10.571  0.0000E+00  0.4000E+01
    -10.561  0.0000E+00  0.4000E+01
    -10.551  0.0000E+00  0.4000E+01
    -10.541  0.0000E+00  0.4000E+01
    -10.530  0.0000E+00  0.4000E+01
    -10.520  0.0000E+00  0.4000E+01
    -10.510  0.0000E+00  0.4000E+01
    -10.500  0.0000E+00  0.4000E+01
    -10.490  0.0000E+00  0.4000E+01
    -10.479  0.0000E+00  0.4000E+01
    -10.469  0.0000E+00  0.4000E+01
    -10.459  0.0000E+00  0.4000E+01
    -10.449  0.0000E+00  0.4000E+01
    -10.439  0.0000E+00  0.4000E+01
    -10.428  0.0000E+00  0.4000E+01
    -10.418  0.0000E+00  0.4000E+01
    -10.408  0.0000E+00  0.4000E+01
    -10.398  0.0000E+00  0.4000E+01
    -10.388  0.0000E+00  0.4000E+01
    -10.378  0.0000E+00  0.4000E+01
    -10.367  0.0000E+00  0.4000E+01
    -10.357  0.0000E+00  0.4000E+01
    -10.347  0.0000E+00  0.4000E+01
    -10.337  0.0000E+00  0.4000E+01
    -10.327  0.0000E+00  0.4000E+01
    -10.316  0.0000E+00  0.4000E+01
    -10.306  0.0000E+00  0.4000E+01
    -10.296  0.0000E+00  0.4000E+01
    -10.286  0.0000E+00  0.4000E+01
    -10.276  0.0000E+00  0.4000E+01
    -10.265  0.0000E+00  0.4000E+01
    -10.255  0.0000E+00  0.4000E+01
    -10.245  0.0000E+00  0.4000E+01
    -10.235  0.0000E+00  0.4000E+01
    -10.225  0.0000E+00  0.4000E+01
    -10.215  0.0000E+00  0.4000E+01
    -10.204  0.0000E+00  0.4000E+01
    -10.194  0.0000E+00  0.4000E+01
    -10.184  0.0000E+00  0.4000E+01
    -10.174  0.0000E+00  0.4000E+01
    -10.164  0.0000E+00  0.4000E+01
    -10.153  0.0000E+00  0.4000E+01
    -10.143  0.0000E+00  0.4000E+01
    -10.133  0.0000E+00  0.4000E+01
    -10.123  0.0000E+00  0.4000E+01
    -10.113  0.0000E+00  0.4000E+01
    -10.103  0.0000E+00  0.4000E+01
    -10.092  0.0000E+00  0.4000E+01
    -10.082  0.0000E+00  0.4000E+01
    -10.072  0.0000E+00  0.4000E+01
    -10.062  0.0000E+00  0.4000E+01
    -10.052  0.0000E+00  0.4000E+01
    -10.041  0.0000E+00  0.4000E+01
    -10.031  0.0000E+00  0.4000E+01
    -10.021  0.0000E+00  0.4000E+01
    -10.011  0.0000E+00  0.4000E+01
    -10.001  0.0000E+00  0.4000E+01
     -9.990  0.0000E+00  0.4000E+01
     -9.980  0.0000E+00  0.4000E+01
     -9.970  0.0000E+00  0.4000E+01
     -9.960  0.0000E+00  0.4000E+01
     -9.950  0.0000E+00  0.4000E+01
     -9.940  0.0000E+00  0.4000E+01
     -9.929  0.0000E+00  0.4000E+01
     -9.919  0.0000E+00  0.4000E+01
     -9.909  0.0000E+00  0.4000E+01
     -9.899  0.0000E+00  0.4000E+01
     -9.889  0.0000E+00  0.4000E+01
     -9.878  0.0000E+00  0.4000E+01
     -9.868  0.0000E+00  0.4000E+01
     -9.858  0.0000E+00  0.4000E+01
     -9.848  0.0000E+00  0.4000E+01
     -9.838  0.0000E+00  0.4000E+01
     -9.828  0.0000E+00  0.4000E+01
     -9.817  0.0000E+00  0.4000E+01
     -9.807  0.0000E+00  0.4000E+01
     -9.797  0.0000E+00  0.4000E+01
     -9.787  0.0000E+00  0.4000E+01
     -9.777  0.0000E+00  0.4000E+01
     -9.766  0.0000E+00  0.4000E+01
     -9.756  0.0000E+00  0.4000E+01
     -9.746  0.0000E+00  0.4000E+01
     -9.736  0.0000E+00  0.4000E+01
     -9.726  0.0000E+00  0.4000E+01
     -9.715  0.0000E+00  0.4000E+01
     -9.705  0.0000E+00  0.4000E+01
     -9.695  0.0000E+00  0.4000E+01
     -9.685  0.0000E+00  0.4000E+01
     -9.675  0.0000E+00  0.4000E+01
     -9.665  0.0000E+00  0.4000E+01
     -9.654  0.0000E+00  0.4000E+01
     -9.644  0.0000E+00  0.4000E+01
     -9.634  0.0000E+00  0.4000E+01
     -9.624  0.0000E+00  0.4000E+01
     -9.614  0.0000E+00  0.4000E+01
     -9.603  0.0000E+00  0.4000E+01
     -9.593  0.0000E+00  0.4000E+01
     -9.583  0.0000E+00  0.4000E+01
     -9.573  0.0000E+00  0.4000E+01
     -9.563  0.0000E+00  0.4000E+01
     -9.552  0.0000E+00  0.4000E+01
     -9.542  0.0000E+00  0.4000E+01
     -9.532  0.0000E+00  0.4000E+01
     -9.522  0.0000E+00  0.4000E+01
     -9.512  0.0000E+00  0.4000E+01
     -9.502  0.0000E+00  0.4000E+01
     -9.491  0.0000E+00  0.4000E+01
     -9.481  0.0000E+00  0.4000E+01
     -9.471  0.0000E+00  0.4000E+01
     -9.461  0.0000E+00  0.4000E+01
     -9.451  0.0000E+00  0.4000E+01
     -9.440  0.0000E+00  0.4000E+01
     -9.430  0.0000E+00  0.4000E+01
     -9.420  0.0000E+00  0.4000E+01
     -9.410  0.0000E+00  0.4000E+01
     -9.400  0.0000E+00  0.4000E+01
     -9.390  0.0000E+00  0.4000E+01
     -9.379  0.0000E+00  0.4000E+01
     -9.369  0.0000E+00  0.4000E+01
     -9.359  0.0000E+00  0.4000E+01
     -9.349  0.0000E+00  0.4000E+01
     -9.339  0.0000E+00  0.4000E+01
     -9.328  0.0000E+00  0.4000E+01
     -9.318  0.0000E+00  0.4000E+01
     -9.308  0.0000E+00  0.4000E+01
     -9.298  0.0000E+00  0.4000E+01
     -9.288  0.0000E+00  0.4000E+01
     -9.277  0.0000E+00  0.4000E+01
     -9.267  0.0000E+00  0.4000E+01
     -9.257  0.0000E+00  0.4000E+01
     -9.247  0.0000E+00  0.4000E+01
     -9.237  0.0000E+00  0.4000E+01
     -9.227  0.0000E+00  0.4000E+01
     -9.216  0.0000E+00  0.4000E+01
     -9.206  0.0000E+00  0.4000E+01
     -9.196  0.0000E+00  0.4000E+01
     -9.186  0.0000E+00  0.4000E+01
     -9.176  0.0000E+00  0.4000E+01
     -9.165  0.0000E+00  0.4000E+01
     -9.155  0.0000E+00  0.4000E+01
     -9.145  0.0000E+00  0.4000E+01
     -9.135  0.0000E+00  0.4000E+01
     -9.125  0.0000E+00  0.4000E+01
     -9.115  0.0000E+00  0.4000E+01
     -9.104  0.0000E+00  0.4000E+01
     -9.094  0.0000E+00  0.4000E+01
     -9.084  0.0000E+00  0.4000E+01
     -9.074  0.0000E+00  0.4000E+01
     -9.064  0.0000E+00  0.4000E+01
     -9.053  0.0000E+00  0.4000E+01
     -9.043  0.0000E+00  0.4000E+01
     -9.033  0.0000E+00  0.4000E+01
     -9.023  0.0000E+00  0.4000E+01
     -9.013  0.0000E+00  0.4000E+01
     -9.002  0.0000E+00  0.4000E+01
     -8.992  0.0000E+00  0.4000E+01
     -8.982  0.0000E+00  0.4000E+01
     -8.972  0.0000E+00  0.4000E+01
     -8.962  0.0000E+00  0.4000E+01
     -8.952  0.0000E+00  0.4000E+01
     -8.941  0.0000E+00  0.4000E+01
     -8.931  0.0000E+00  0.4000E+01
     -8.921  0.0000E+00  0.4000E+01
     -8.911  0.0000E+00  0.4000E+01
     -8.901  0.0000E+00  0.4000E+01
     -8.890  0.0000E+00  0.4000E+01
     -8.880  0.6921E-16  0.4000E+01
     -8.870  0.5845E-11  0.4000E+01
     -8.860  0.4765E-07  0.4000E+01
     -8.850  0.5185E-04  0.4000E+01
     -8.840  0.7813E-02  0.4000E+01
     -8.829  0.1741E+00  0.4002E+01
     -8.819  0.6328E+00  0.4008E+01
     -8.809  0.5415E+00  0.4014E+01
     -8.799  0.1002E+01  0.4024E+01
     -8.789  0.1223E+01  0.4036E+01
     -8.778  0.1342E+01  0.4050E+01
     -8.768  0.2628E+01  0.4077E+01
     -8.758  0.2217E+01  0.4099E+01
     -8.748  0.2452E+01  0.4124E+01
     -8.738  0.1760E+01  0.4142E+01
     -8.727  0.8939E+00  0.4151E+01
     -8.717  0.1505E+01  0.4167E+01
     -8.707  0.4486E+01  0.4213E+01
     -8.697  0.4462E+01  0.4258E+01
     -8.687  0.4529E+01  0.4304E+01
     -8.677  0.3520E+01  0.4340E+01
     -8.666  0.2259E+01  0.4363E+01
     -8.656  0.5063E+01  0.4415E+01
     -8.646  0.7480E+01  0.4491E+01
     -8.636  0.6434E+01  0.4556E+01
     -8.626  0.6662E+01  0.4624E+01
     -8.615  0.5099E+01  0.4676E+01
     -8.605  0.6705E+01  0.4744E+01
     -8.595  0.8291E+01  0.4829E+01
     -8.585  0.6801E+01  0.4898E+01
     -8.575  0.7007E+01  0.4969E+01
     -8.564  0.6734E+01  0.5038E+01
     -8.554  0.7432E+01  0.5114E+01
     -8.544  0.6660E+01  0.5182E+01
     -8.534  0.5929E+01  0.5242E+01
     -8.524  0.6320E+01  0.5306E+01
     -8.514  0.6841E+01  0.5376E+01
     -8.503  0.5990E+01  0.5437E+01
     -8.493  0.5430E+01  0.5492E+01
     -8.483  0.7344E+01  0.5567E+01
     -8.473  0.8218E+01  0.5651E+01
     -8.463  0.8174E+01  0.5734E+01
     -8.452  0.6897E+01  0.5804E+01
     -8.442  0.5936E+01  0.5865E+01
     -8.432  0.5058E+01  0.5916E+01
     -8.422  0.5608E+01  0.5973E+01
     -8.412  0.5146E+01  0.6026E+01
     -8.402  0.3993E+01  0.6067E+01
     -8.391  0.3361E+01  0.6101E+01
     -8.381  0.2649E+01  0.6128E+01
     -8.371  0.3831E+01  0.6167E+01
     -8.361  0.5435E+01  0.6222E+01
     -8.351  0.4610E+01  0.6269E+01
     -8.340  0.3701E+01  0.6307E+01
     -8.330  0.4730E+01  0.6355E+01
     -8.320  0.4586E+01  0.6402E+01
     -8.310  0.4389E+01  0.6446E+01
     -8.300  0.5208E+01  0.6499E+01
     -8.289  0.4961E+01  0.6550E+01
     -8.279  0.4851E+01  0.6599E+01
     -8.269  0.4653E+01  0.6647E+01
     -8.259  0.5589E+01  0.6704E+01
     -8.249  0.5252E+01  0.6757E+01
     -8.239  0.5703E+01  0.6815E+01
     -8.228  0.5835E+01  0.6875E+01
     -8.218  0.4618E+01  0.6922E+01
     -8.208  0.4484E+01  0.6967E+01
     -8.198  0.4661E+01  0.7015E+01
     -8.188  0.4348E+01  0.7059E+01
     -8.177  0.3784E+01  0.7098E+01
     -8.167  0.4474E+01  0.7143E+01
     -8.157  0.4054E+01  0.7185E+01
     -8.147  0.4115E+01  0.7226E+01
     -8.137  0.3602E+01  0.7263E+01
     -8.127  0.4396E+01  0.7308E+01
     -8.116  0.5434E+01  0.7363E+01
     -8.106  0.4785E+01  0.7412E+01
     -8.096  0.5888E+01  0.7472E+01
     -8.086  0.5382E+01  0.7527E+01
     -8.076  0.2545E+01  0.7553E+01
     -8.065  0.3150E+01  0.7585E+01
     -8.055  0.5242E+01  0.7638E+01
     -8.045  0.4053E+01  0.7679E+01
     -8.035  0.2068E+01  0.7701E+01
     -8.025  0.1979E+01  0.7721E+01
     -8.014  0.2584E+01  0.7747E+01
     -8.004  0.2817E+01  0.7776E+01
     -7.994  0.2686E+01  0.7803E+01
     -7.984  0.2378E+01  0.7827E+01
     -7.974  0.7738E+00  0.7835E+01
     -7.964  0.7917E+00  0.7843E+01
     -7.953  0.2021E+01  0.7864E+01
     -7.943  0.1721E+01  0.7881E+01
     -7.933  0.5691E+00  0.7887E+01
     -7.923  0.9498E+00  0.7897E+01
     -7.913  0.1951E+01  0.7917E+01
     -7.902  0.1644E+01  0.7933E+01
     -7.892  0.9641E+00  0.7943E+01
     -7.882  0.1171E+01  0.7955E+01
     -7.872  0.7741E+00  0.7963E+01
     -7.862  0.7046E+00  0.7970E+01
     -7.852  0.3867E+00  0.7974E+01
     -7.841  0.4734E-01  0.7975E+01
     -7.831  0.1754E+00  0.7976E+01
     -7.821  0.6317E+00  0.7983E+01
     -7.811  0.4798E+00  0.7988E+01
     -7.801  0.5641E+00  0.7994E+01
     -7.790  0.5378E+00  0.7999E+01
     -7.780  0.9469E-01  0.8000E+01
     -7.770  0.2642E-02  0.8000E+01
     -7.760  0.1069E-04  0.8000E+01
     -7.750  0.5919E-08  0.8000E+01
     -7.739  0.4346E-12  0.8000E+01
     -7.729  0.0000E+00  0.8000E+01
     -7.719  0.0000E+00  0.8000E+01
     -7.709  0.0000E+00  0.8000E+01
     -7.699  0.0000E+00  0.8000E+01
     -7.689  0.0000E+00  0.8000E+01
     -7.678  0.0000E+00  0.8000E+01
     -7.668  0.0000E+00  0.8000E+01
     -7.658  0.0000E+00  0.8000E+01
     -7.648  0.0000E+00  0.8000E+01
     -7.638  0.0000E+00  0.8000E+01
     -7.627  0.0000E+00  0.8000E+01
     -7.617  0.0000E+00  0.8000E+01
     -7.607  0.0000E+00  0.8000E+01
     -7.597  0.0000E+00  0.8000E+01
     -7.587  0.0000E+00  0.8000E+01
     -7.576  0.0000E+00  0.8000E+01
     -7.566  0.0000E+00  0.8000E+01
     -7.556  0.0000E+00  0.8000E+01
     -7.546  0.0000E+00  0.8000E+01
     -7.536  0.0000E+00  0.8000E+01
     -7.526  0.0000E+00  0.8000E+01
     -7.515  0.0000E+00  0.8000E+01
     -7.505  0.0000E+00  0.8000E+01
     -7.495  0.0000E+00  0.8000E+01
     -7.485  0.0000E+00  0.8000E+01
     -7.475  0.0000E+00  0.8000E+01
     -7.464  0.0000E+00  0.8000E+01
     -7.454  0.0000E+00  0.8000E+01
     -7.444  0.0000E+00  0.8000E+01
     -7.434  0.0000E+00  0.8000E+01
     -7.424  0.0000E+00  0.8000E+01
     -7.414  0.0000E+00  0.8000E+01
     -7.403  0.0000E+00  0.8000E+01
     -7.393  0.0000E+00  0.8000E+01
     -7.383  0.0000E+00  0.8000E+01
     -7.373  0.0000E+00  0.8000E+01
     -7.363  0.0000E+00  0.8000E+01
     -7.352  0.0000E+00  0.8000E+01
     -7.342  0.0000E+00  0.8000E+01
     -7.332  0.0000E+00  0.8000E+01
     -7.322  0.0000E+00  0.8000E+01
     -7.312  0.0000E+00  0.8000E+01
     -7.301  0.0000E+00  0.8000E+01
     -7.291  0.0000E+00  0.8000E+01
     -7.281  0.0000E+00  0.8000E+01
     -7.271  0.0000E+00  0.8000E+01
     -7.261  0.0000E+00  0.8000E+01
     -7.251  0.0000E+00  0.8000E+01
     -7.240  0.0000E+00  0.8000E+01
     -7.230  0.0000E+00  0.8000E+01
     -7.220  0.0000E+00  0.8000E+01
     -7.210  0.0000E+00  0.8000E+01
     -7.200  0.0000E+00  0.8000E+01
     -7.189  0.0000E+00  0.8000E+01
     -7.179  0.0000E+00  0.8000E+01
     -7.169  0.0000E+00  0.8000E+01
     -7.159  0.0000E+00  0.8000E+01
     -7.149  0.0000E+00  0.8000E+01
     -7.139  0.0000E+00  0.8000E+01
     -7.128  0.0000E+00  0.8000E+01
     -7.118  0.0000E+00  0.8000E+01
     -7.108  0.0000E+00  0.8000E+01
     -7.098  0.0000E+00  0.8000E+01
     -7.088  0.0000E+00  0.8000E+01
     -7.077  0.0000E+00  0.8000E+01
     -7.067  0.0000E+00  0.8000E+01
     -7.057  0.0000E+00  0.8000E+01
     -7.047  0.0000E+00  0.8000E+01
     -7.037  0.0000E+00  0.8000E+01
     -7.026  0.0000E+00  0.8000E+01
     -7.016  0.0000E+00  0.8000E+01
     -7.006  0.0000E+00  0.8000E+01
     -6.996  0.0000E+00  0.8000E+01
     -6.986  0.0000E+00  0.8000E+01
     -6.976  0.0000E+00  0.8000E+01
     -6.965  0.1384E-15  0.8000E+01
     -6.955  0.7491E-11  0.8000E+01
     -6.945  0.5808E-07  0.8000E+01
     -6.935  0.6013E-04  0.8000E+01
     -6.925  0.8634E-02  0.8000E+01
     -6.914  0.1837E+00  0.8002E+01
     -6.904  0.6352E+00  0.8008E+01
     -6.894  0.4050E+00  0.8013E+01
     -6.884  0.3493E+00  0.8016E+01
     -6.874  0.6566E+00  0.8023E+01
     -6.864  0.2404E+00  0.8025E+01
     -6.853  0.1470E-01  0.8025E+01
     -6.843  0.2000E-01  0.8026E+01
     -6.833  0.2811E+00  0.8028E+01
     -6.823  0.6589E+00  0.8035E+01
     -6.813  0.2683E+00  0.8038E+01
     -6.802  0.1807E-01  0.8038E+01
     -6.792  0.1875E-03  0.8038E+01
     -6.782  0.1374E-02  0.8038E+01
     -6.772  0.6422E-01  0.8039E+01
     -6.762  0.4689E+00  0.8044E+01
     -6.751  0.5833E+00  0.8049E+01
     -6.741  0.1550E+00  0.8051E+01
     -6.731  0.3455E+00  0.8055E+01
     -6.721  0.6514E+00  0.8061E+01
     -6.711  0.3029E+00  0.8064E+01
     -6.701  0.5834E+00  0.8070E+01
     -6.690  0.9540E+00  0.8080E+01
     -6.680  0.7104E+00  0.8087E+01
     -6.670  0.1642E+00  0.8089E+01
     -6.660  0.1650E+00  0.8091E+01
     -6.650  0.9829E+00  0.8101E+01
     -6.639  0.1144E+01  0.8112E+01
     -6.629  0.7064E+00  0.8119E+01
     -6.619  0.1259E+01  0.8132E+01
     -6.609  0.6648E+00  0.8139E+01
     -6.599  0.1761E+00  0.8141E+01
     -6.588  0.8618E+00  0.8150E+01
     -6.578  0.1488E+01  0.8165E+01
     -6.568  0.1480E+01  0.8180E+01
     -6.558  0.9235E+00  0.8189E+01
     -6.548  0.3085E+00  0.8192E+01
     -6.538  0.6361E+00  0.8199E+01
     -6.527  0.4392E+00  0.8203E+01
     -6.517  0.5500E+00  0.8209E+01
     -6.507  0.1140E+01  0.8221E+01
     -6.497  0.8668E+00  0.8229E+01
     -6.487  0.7313E+00  0.8237E+01
     -6.476  0.3988E+00  0.8241E+01
     -6.466  0.1212E+00  0.8242E+01
     -6.456  0.7360E+00  0.8250E+01
     -6.446  0.1415E+01  0.8264E+01
     -6.436  0.1323E+01  0.8277E+01
     -6.426  0.1865E+01  0.8296E+01
     -6.415  0.2420E+01  0.8321E+01
     -6.405  0.1390E+01  0.8335E+01
     -6.395  0.7554E+00  0.8343E+01
     -6.385  0.1100E+01  0.8354E+01
     -6.375  0.1872E+01  0.8373E+01
     -6.364  0.2446E+01  0.8398E+01
     -6.354  0.2130E+01  0.8420E+01
     -6.344  0.1380E+01  0.8434E+01
     -6.334  0.8343E+00  0.8442E+01
     -6.324  0.4620E+00  0.8447E+01
     -6.313  0.1566E+01  0.8463E+01
     -6.303  0.1713E+01  0.8481E+01
     -6.293  0.1492E+01  0.8496E+01
     -6.283  0.3041E+01  0.8527E+01
     -6.273  0.2426E+01  0.8551E+01
     -6.263  0.2144E+01  0.8573E+01
     -6.252  0.2894E+01  0.8603E+01
     -6.242  0.2724E+01  0.8630E+01
     -6.232  0.2252E+01  0.8653E+01
     -6.222  0.2742E+01  0.8681E+01
     -6.212  0.2959E+01  0.8711E+01
     -6.201  0.2124E+01  0.8733E+01
     -6.191  0.1960E+01  0.8753E+01
     -6.181  0.2637E+01  0.8780E+01
     -6.171  0.3740E+01  0.8818E+01
     -6.161  0.3950E+01  0.8858E+01
     -6.151  0.3859E+01  0.8898E+01
     -6.140  0.5547E+01  0.8954E+01