   14   14    1    1
  0.1021318E+02  0.5700971E-09  0.4044058E-09  0.6201871E-09  0.5000000E-15
  1.000000000000000E-004
  CAR 
 Dielectric                              
     42    175     72
 
  0.5000000E-01  0.3571429E-01  0.0000000E+00  0.3174603E-02
      1        -12.691977   1.000000
      2        -11.525729   1.000000
      3         -8.656045   1.000000
      4         -8.363601   1.000000
      5         -6.041043   1.000000
      6         -5.163291   1.000000
      7         -4.706300   1.000000
      8         -4.298973   1.000000
      9         -4.000733   1.000000
     10         -3.474268   1.000000
     11         -2.547170   1.000000
     12         -2.302709   1.000000
     13         -1.778719   1.000000
     14         -1.109754   1.000000
     15         -0.081181   1.000000
     16          0.006560   1.000000
     17          0.045394   1.000000
     18          0.098617   1.000000
     19          0.675256   1.000000
     20          2.074661   0.000000
     21          2.086944   0.000000
     22          2.248103   0.000000
     23          5.550593   0.000000
     24          5.685649   0.000000
     25          5.774052   0.000000
     26          5.990194   0.000000
     27          6.753920   0.000000
     28          7.570450   0.000000
     29          7.904776   0.000000
     30          8.526949   0.000000
     31          8.900008   0.000000
     32          8.943554   0.000000
     33          9.062888   0.000000
     34         10.114790   0.000000
     35         11.232797   0.000000
     36         11.339485   0.000000
     37         11.520460   0.000000
     38         11.673484   0.000000
     39         11.999102   0.000000
     40         12.343287   0.000000
     41         12.968840   0.000000
     42         13.408282   0.000000
     43         13.434530   0.000000
     44         15.394850   0.000000
     45         15.528676   0.000000
     46         16.043819   0.000000
     47         16.313295   0.000000
     48         16.335725   0.000000
     49         16.691289   0.000000
     50         16.721839   0.000000
     51         16.933530   0.000000
     52         17.483491   0.000000
     53         17.668763   0.000000
     54         18.104586   0.000000
     55         18.350965   0.000000
     56         18.527164   0.000000
     57         18.762236   0.000000
     58         18.856346   0.000000
     59         19.597873   0.000000
     60         19.917718   0.000000
     61         19.994391   0.000000
     62         20.250614   0.000000
     63         20.482040   0.000000
     64         20.707564   0.000000
     65         21.126590   0.000000
     66         21.818072   0.000000
     67         22.355133   0.000000
     68         22.516185   0.000000
     69         22.968033   0.000000
     70         23.019259   0.000000
     71         23.438315   0.000000
     72         23.722252   0.000000
 
  0.1500000E+00  0.3571429E-01  0.0000000E+00  0.3174603E-02
      1        -12.647703   1.000000
      2        -11.602116   1.000000
      3         -8.629667   1.000000
      4         -8.352079   1.000000
      5         -5.973966   1.000000
      6         -5.503455   1.000000
      7         -4.822598   1.000000
      8         -3.978208   1.000000
      9         -3.816110   1.000000
     10         -3.141603   1.000000
     11         -2.616728   1.000000
     12         -2.283009   1.000000
     13         -1.866126   1.000000
     14         -1.415956   1.000000
     15         -0.139762   1.000000
     16          0.045707   1.000000
     17          0.061193   1.000000
     18          0.146416   1.000000
     19          0.572729   1.000000
     20          1.990119   0.000000
     21          1.995089   0.000000
     22          2.121500   0.000000
     23          5.629963   0.000000
     24          5.698595   0.000000
     25          5.834325   0.000000
     26          6.308120   0.000000
     27          6.675210   0.000000
     28          7.212425   0.000000
     29          8.124560   0.000000
     30          8.665972   0.000000
     31          9.076780   0.000000
     32          9.200160   0.000000
     33          9.207452   0.000000
     34         10.189553   0.000000
     35         10.938522   0.000000
     36         11.124938   0.000000
     37         11.307358   0.000000
     38         11.542105   0.000000
     39         12.212988   0.000000
     40         12.437610   0.000000
     41         13.079343   0.000000
     42         13.189942   0.000000
     43         13.980956   0.000000
     44         14.856211   0.000000
     45         15.723134   0.000000
     46         15.820386   0.000000
     47         16.196097   0.000000
     48         16.478271   0.000000
     49         16.622385   0.000000
     50         16.667286   0.000000
     51         17.100395   0.000000
     52         17.167576   0.000000
     53         17.795224   0.000000
     54         18.120828   0.000000
     55         18.408575   0.000000
     56         18.689281   0.000000
     57         18.737320   0.000000
     58         18.998513   0.000000
     59         19.428383   0.000000
     60         19.523606   0.000000
     61         19.989448   0.000000
     62         20.056750   0.000000
     63         20.469607   0.000000
     64         20.901886   0.000000
     65         20.924025   0.000000
     66         21.727279   0.000000
     67         21.752310   0.000000
     68         21.983511   0.000000
     69         23.067879   0.000000
     70         23.389340   0.000000
     71         23.659058   0.000000
     72         23.726901   0.000000
 
  0.2500000E+00  0.3571429E-01  0.0000000E+00  0.3174603E-02
      1        -12.560982   1.000000
      2        -11.739225   1.000000
      3         -8.577074   1.000000
      4         -8.338031   1.000000
      5         -5.960714   1.000000
      6         -5.829315   1.000000
      7         -4.770420   1.000000
      8         -3.844017   1.000000
      9         -3.310560   1.000000
     10         -2.776726   1.000000
     11         -2.655588   1.000000
     12         -2.243348   1.000000
     13         -1.987231   1.000000
     14         -1.920254   1.000000
     15         -0.357002   1.000000
     16          0.063857   1.000000
     17          0.173445   1.000000
     18          0.182783   1.000000
     19          0.470861   1.000000
     20          1.820544   1.000000
     21          1.859512   1.000000
     22          1.886907   0.999986
     23          5.659925   0.000000
     24          5.731967   0.000000
     25          6.162847   0.000000
     26          6.562773   0.000000
     27          6.764645   0.000000
     28          6.953422   0.000000
     29          8.271624   0.000000
     30          8.823245   0.000000
     31          9.013688   0.000000
     32          9.636726   0.000000
     33          9.649703   0.000000
     34         10.261629   0.000000
     35         10.442127   0.000000
     36         10.582550   0.000000
     37         11.435192   0.000000
     38         11.768514   0.000000
     39         12.390314   0.000000
     40         12.528353   0.000000
     41         12.790603   0.000000
     42         12.984886   0.000000
     43         14.612299   0.000000
     44         14.880648   0.000000
     45         15.221085   0.000000
     46         15.950130   0.000000
     47         15.956845   0.000000
     48         16.244450   0.000000
     49         16.561207   0.000000
     50         16.724822   0.000000
     51         16.780584   0.000000
     52         17.377862   0.000000
     53         17.885218   0.000000
     54         18.013095   0.000000
     55         18.293130   0.000000
     56         18.800709   0.000000
     57         18.846991   0.000000
     58         18.929650   0.000000
     59         19.245129   0.000000
     60         19.445726   0.000000
     61         19.681216   0.000000
     62         19.953184   0.000000
     63         20.682421   0.000000
     64         20.862472   0.000000
     65         20.936635   0.000000
     66         21.084830   0.000000
     67         21.114432   0.000000
     68         22.064590   0.000000
     69         23.348707   0.000000
     70         23.445509   0.000000
     71         23.849390   0.000000
     72         23.913535   0.000000
 
  0.3500000E+00  0.3571429E-01  0.0000000E+00  0.3174603E-02
      1        -12.435746   1.000000
      2        -11.913072   1.000000
      3         -8.504369   1.000000
      4         -8.337619   1.000000
      5         -6.059837   1.000000
      6         -6.055555   1.000000
      7         -4.435491   1.000000
      8         -3.673333   1.000000
      9         -2.978786   1.000000
     10         -2.920490   1.000000
     11         -2.445461   1.000000
     12         -2.181149   1.000000
     13         -2.139703   1.000000
     14         -2.098171   1.000000
     15         -0.639693   1.000000
     16         -0.209127   1.000000
     17          0.254878   1.000000
     18          0.290215   1.000000
     19          0.601150   1.000000
     20          1.534111   1.000000
     21          1.682292   1.000000
     22          1.708605   1.000000
     23          5.656093   0.000000
     24          5.786829   0.000000
     25          6.484322   0.000000
     26          6.692604   0.000000
     27          6.705840   0.000000
     28          7.403260   0.000000
     29          8.383486   0.000000
     30          8.703992   0.000000
     31          8.814660   0.000000
     32          9.511644   0.000000
     33         10.105941   0.000000
     34         10.126536   0.000000
     35         10.369210   0.000000
     36         11.071506   0.000000
     37         11.471304   0.000000
     38         11.915138   0.000000
     39         12.184733   0.000000
     40         12.344322   0.000000
     41         12.478169   0.000000
     42         13.284180   0.000000
     43         14.701948   0.000000
     44         14.936998   0.000000
     45         15.213298   0.000000
     46         15.366151   0.000000
     47         15.534252   0.000000
     48         16.378514   0.000000
     49         16.753309   0.000000
     50         16.785426   0.000000
     51         16.979551   0.000000
     52         17.433809   0.000000
     53         17.925566   0.000000
     54         18.047940   0.000000
     55         18.099365   0.000000
     56         18.314580   0.000000
     57         18.832425   0.000000
     58         18.916344   0.000000
     59         18.982669   0.000000
     60         19.220011   0.000000
     61         19.913835   0.000000
     62         19.936838   0.000000
     63         20.166625   0.000000
     64         20.251630   0.000000
     65         20.981777   0.000000
     66         21.156036   0.000000
     67         21.577354   0.000000
     68         22.233116   0.000000
     69         23.148407   0.000000
     70         23.345371   0.000000
     71         23.616955   0.000000
     72         24.057975   0.000000
 
  0.4500000E+00  0.3571429E-01  0.0000000E+00  0.3174603E-02
      1        -12.278562   1.000000
      2        -12.099468   1.000000
      3         -8.427086   1.000000
      4         -8.366506   1.000000
      5         -6.167469   1.000000
      6         -6.153402   1.000000
      7         -3.916164   1.000000
      8         -3.462595   1.000000
      9         -3.315349   1.000000
     10         -3.220983   1.000000
     11         -2.347979   1.000000
     12         -2.207157   1.000000
     13         -1.959684   1.000000
     14         -1.861807   1.000000
     15         -0.814305   1.000000
     16         -0.599898   1.000000
     17          0.335594   1.000000
     18          0.355133   1.000000
     19          0.859832   1.000000
     20          1.184361   1.000000
     21          1.581149   1.000000
     22          1.596481   1.000000
     23          5.700215   0.000000
     24          5.762934   0.000000
     25          6.488702   0.000000
     26          6.567204   0.000000
     27          7.375467   0.000000
     28          8.059684   0.000000
     29          8.111304   0.000000
     30          8.488568   0.000000
     31          8.618477   0.000000
     32          8.771522   0.000000
     33         10.508934   0.000000
     34         10.544410   0.000000
     35         10.728722   0.000000
     36         11.218249   0.000000
     37         11.453235   0.000000
     38         11.678134   0.000000
     39         11.865056   0.000000
     40         12.417155   0.000000
     41         12.725002   0.000000
     42         13.283075   0.000000
     43         14.584963   0.000000
     44         14.679678   0.000000
     45         14.815328   0.000000
     46         14.925034   0.000000
     47         16.115405   0.000000
     48         16.481041   0.000000
     49         16.986417   0.000000
     50         17.042459   0.000000
     51         17.193410   0.000000
     52         17.354706   0.000000
     53         17.694448   0.000000
     54         17.921751   0.000000
     55         18.061431   0.000000
     56         18.300565   0.000000
     57         18.403593   0.000000
     58         18.763169   0.000000
     59         19.036467   0.000000
     60         19.054046   0.000000
     61         19.644002   0.000000
     62         19.680288   0.000000
     63         20.167815   0.000000
     64         20.205186   0.000000
     65         21.095049   0.000000
     66         21.157372   0.000000
     67         22.219468   0.000000
     68         22.461547   0.000000
     69         22.879333   0.000000
     70         22.932706   0.000000
     71         23.472928   0.000000
     72         23.638131   0.000000
 
  0.5000000E-01  0.1071429E+00  0.0000000E+00  0.3174603E-02
      1        -12.667679   1.000000
      2        -11.503805   1.000000
      3         -8.637056   1.000000
      4         -8.340124   1.000000
      5         -6.014383   1.000000
      6         -5.129312   1.000000
      7         -4.684453   1.000000
      8         -4.545892   1.000000
      9         -4.202623   1.000000
     10         -3.449174   1.000000
     11         -3.243753   1.000000
     12         -1.768668   1.000000
     13         -1.105037   1.000000
     14         -0.979156   1.000000
     15         -0.308825   1.000000
     16         -0.229951   1.000000
     17          0.107997   1.000000
     18          0.112479   1.000000
     19          0.760117   1.000000
     20          1.817629   1.000000
     21          1.823625   1.000000
     22          2.298094   0.000000
     23          5.526362   0.000000
     24          5.767549   0.000000
     25          5.796472   0.000000
     26          5.929300   0.000000
     27          7.034677   0.000000
     28          7.856744   0.000000
     29          8.073758   0.000000
     30          8.221924   0.000000
     31          8.903488   0.000000
     32          9.100840   0.000000
     33          9.145721   0.000000
     34         10.567237   0.000000
     35         11.266199   0.000000
     36         11.457484   0.000000
     37         11.590712   0.000000
     38         11.654772   0.000000
     39         12.101157   0.000000
     40         12.618525   0.000000
     41         12.939213   0.000000
     42         13.147293   0.000000
     43         13.191051   0.000000
     44         15.307055   0.000000
     45         15.386932   0.000000
     46         15.855217   0.000000
     47         15.884340   0.000000
     48         16.198819   0.000000
     49         16.693934   0.000000
     50         16.830966   0.000000
     51         16.889254   0.000000
     52         17.105411   0.000000
     53         17.500540   0.000000
     54         18.120022   0.000000
     55         18.237505   0.000000
     56         18.496953   0.000000
     57         19.025032   0.000000
     58         19.076500   0.000000
     59         19.713754   0.000000
     60         19.857624   0.000000
     61         20.084056   0.000000
     62         20.537676   0.000000
     63         20.600745   0.000000
     64         20.928587   0.000000
     65         21.021810   0.000000
     66         21.915730   0.000000
     67         22.301332   0.000000
     68         22.615929   0.000000
     69         22.782628   0.000000
     70         22.805673   0.000000
     71         23.345274   0.000000
     72         23.872687   0.000000
 
  0.1500000E+00  0.1071429E+00  0.0000000E+00  0.3174603E-02
      1        -12.623498   1.000000
      2        -11.580050   1.000000
      3         -8.610527   1.000000
      4         -8.328996   1.000000
      5         -5.945453   1.000000
      6         -5.473161   1.000000
      7         -4.802725   1.000000
      8         -4.457876   1.000000
      9         -3.785059   1.000000
     10         -3.318869   1.000000
     11         -3.108698   1.000000
     12         -1.746842   1.000000
     13         -1.410256   1.000000
     14         -1.111616   1.000000
     15         -0.237205   1.000000
     16         -0.191723   1.000000
     17          0.032994   1.000000
     18          0.165289   1.000000
     19          0.651805   1.000000
     20          1.727782   1.000000
     21          1.745841   1.000000
     22          2.161103   0.000000
     23          5.629428   0.000000
     24          5.880240   0.000000
     25          5.886054   0.000000
     26          6.097697   0.000000
     27          6.958369   0.000000
     28          7.536794   0.000000
     29          8.221073   0.000000
     30          8.402674   0.000000
     31          9.146410   0.000000
     32          9.232728   0.000000
     33          9.406438   0.000000
     34         10.456933   0.000000
     35         10.853667   0.000000
     36         11.068426   0.000000
     37         11.512969   0.000000
     38         11.750782   0.000000
     39         12.319467   0.000000
     40         12.680202   0.000000
     41         12.825051   0.000000
     42         13.205522   0.000000
     43         13.715365   0.000000
     44         14.933594   0.000000
     45         15.396752   0.000000
     46         15.751172   0.000000
     47         15.793681   0.000000
     48         16.384795   0.000000
     49         16.654629   0.000000
     50         16.843335   0.000000
     51         16.920034   0.000000
     52         17.195043   0.000000
     53         17.383934   0.000000
     54         17.998302   0.000000
     55         18.310880   0.000000
     56         18.336212   0.000000
     57         18.966844   0.000000
     58         19.274839   0.000000
     59         19.519210   0.000000
     60         19.742363   0.000000
     61         20.011465   0.000000
     62         20.068155   0.000000
     63         20.642739   0.000000
     64         20.786591   0.000000
     65         21.237656   0.000000
     66         21.744696   0.000000
     67         21.852891   0.000000
     68         22.238630   0.000000
     69         22.741272   0.000000
     70         23.167452   0.000000
     71         23.649293   0.000000
     72         24.114767   0.000000
 
  0.2500000E+00  0.1071429E+00  0.0000000E+00  0.3174603E-02
      1        -12.536971   1.000000
      2        -11.716908   1.000000
      3         -8.557723   1.000000
      4         -8.315683   1.000000
      5         -5.929387   1.000000
      6         -5.798870   1.000000
      7         -4.753901   1.000000
      8         -4.347846   1.000000
      9         -3.445662   1.000000
     10         -3.260922   1.000000
     11         -2.638086   1.000000
     12         -1.914188   1.000000
     13         -1.702829   1.000000
     14         -1.284577   1.000000
     15         -0.338863   1.000000
     16         -0.150439   1.000000
     17          0.058284   1.000000
     18          0.211174   1.000000
     19          0.515565   1.000000
     20          1.576583   1.000000
     21          1.613379   1.000000
     22          1.902967   0.972170
     23          5.806956   0.000000
     24          5.993859   0.000000
     25          5.995902   0.000000
     26          6.551230   0.000000
     27          6.853248   0.000000
     28          7.308276   0.000000
     29          8.432529   0.000000
     30          8.530665   0.000000
     31          9.119160   0.000000
     32          9.671268   0.000000
     33          9.866017   0.000000
     34         10.107514   0.000000
     35         10.343293   0.000000
     36         10.729199   0.000000
     37         11.580375   0.000000
     38         12.065534   0.000000
     39         12.281705   0.000000
     40         12.558468   0.000000
     41         12.999346   0.000000
     42         13.017974   0.000000
     43         14.293776   0.000000
     44         15.034935   0.000000
     45         15.174546   0.000000
     46         15.641089   0.000000
     47         15.692617   0.000000
     48         16.368085   0.000000
     49         16.588301   0.000000
     50         16.779859   0.000000
     51         16.807543   0.000000
     52         17.138040   0.000000
     53         17.570456   0.000000
     54         17.609333   0.000000
     55         18.092374   0.000000
     56         18.426420   0.000000
     57         19.026133   0.000000
     58         19.079716   0.000000
     59         19.395580   0.000000
     60         19.598498   0.000000
     61         19.779332   0.000000
     62         19.920740   0.000000
     63         20.450530   0.000000
     64         21.004352   0.000000
     65         21.044121   0.000000
     66         21.557123   0.000000
     67         21.588568   0.000000
     68         22.198262   0.000000
     69         23.129711   0.000000
     70         23.167258   0.000000
     71         23.990315   0.000000
     72         24.052435   0.000000
 
  0.3500000E+00  0.1071429E+00  0.0000000E+00  0.3174603E-02
      1        -12.411997   1.000000
      2        -11.890400   1.000000
      3         -8.484770   1.000000
      4         -8.316202   1.000000
      5         -6.028559   1.000000
      6         -6.023075   1.000000
      7         -4.420989   1.000000
      8         -4.199399   1.000000
      9         -3.620003   1.000000
     10         -2.874575   1.000000
     11         -2.379153   1.000000
     12         -2.152709   1.000000
     13         -1.636849   1.000000
     14         -1.451836   1.000000
     15         -0.596677   1.000000
     16         -0.266303   1.000000
     17          0.160416   1.000000
     18          0.161613   1.000000
     19          0.614307   1.000000
     20          1.416559   1.000000
     21          1.465614   1.000000
     22          1.567604   1.000000
     23          5.828530   0.000000
     24          6.034240   0.000000
     25          6.516678   0.000000
     26          6.790250   0.000000
     27          6.892142   0.000000
     28          7.374185   0.000000
     29          8.432569   0.000000
     30          8.625610   0.000000
     31          8.948433   0.000000
     32          9.345614   0.000000
     33         10.069906   0.000000
     34         10.145902   0.000000
     35         10.423572   0.000000
     36         11.138976   0.000000
     37         11.385636   0.000000
     38         11.863900   0.000000
     39         12.380039   0.000000
     40         12.521793   0.000000
     41         12.679034   0.000000
     42         13.475931   0.000000
     43         14.742909   0.000000
     44         14.776793   0.000000
     45         15.116457   0.000000
     46         15.315244   0.000000
     47         15.592852   0.000000
     48         16.378981   0.000000
     49         16.666055   0.000000
     50         16.753141   0.000000
     51         16.865872   0.000000
     52         17.284449   0.000000
     53         17.328808   0.000000
     54         17.645485   0.000000
     55         17.924960   0.000000
     56         18.438110   0.000000
     57         18.547001   0.000000
     58         18.922057   0.000000
     59         18.941398   0.000000
     60         19.210551   0.000000
     61         19.950835   0.000000
     62         20.091104   0.000000
     63         20.288254   0.000000
     64         20.454478   0.000000
     65         21.470114   0.000000
     66         21.710167   0.000000
     67         21.769396   0.000000
     68         22.314491   0.000000
     69         23.026665   0.000000
     70         23.368177   0.000000
     71         23.837532   0.000000
     72         23.841311   0.000000
 
  0.4500000E+00  0.1071429E+00  0.0000000E+00  0.3174603E-02
      1        -12.255141   1.000000
      2        -12.076419   1.000000
      3         -8.407149   1.000000
      4         -8.345967   1.000000
      5         -6.135397   1.000000
      6         -6.120896   1.000000
      7         -4.018718   1.000000
      8         -3.905557   1.000000
      9         -3.815527   1.000000
     10         -3.303001   1.000000
     11         -2.125086   1.000000
     12         -1.887129   1.000000
     13         -1.559169   1.000000
     14         -1.545141   1.000000
     15         -0.777279   1.000000
     16         -0.598437   1.000000
     17          0.199797   1.000000
     18          0.219244   1.000000
     19          0.869270   1.000000
     20          1.192009   1.000000
     21          1.339742   1.000000
     22          1.354290   1.000000
     23          5.893656   0.000000
     24          5.982228   0.000000
     25          6.805325   0.000000
     26          6.867600   0.000000
     27          7.191151   0.000000
     28          7.911533   0.000000
     29          7.929237   0.000000
     30          8.604993   0.000000
     31          8.705974   0.000000
     32          8.811980   0.000000
     33         10.311808   0.000000
     34         10.594903   0.000000
     35         10.781680   0.000000
     36         10.891318   0.000000
     37         11.619398   0.000000
     38         11.743652   0.000000
     39         11.947136   0.000000
     40         12.587066   0.000000
     41         13.034654   0.000000
     42         13.512197   0.000000
     43         14.531923   0.000000
     44         14.701669   0.000000
     45         14.806300   0.000000
     46         15.048762   0.000000
     47         16.110575   0.000000
     48         16.445617   0.000000
     49         16.781555   0.000000
     50         16.839501   0.000000
     51         17.035815   0.000000
     52         17.166225   0.000000
     53         17.262973   0.000000
     54         17.539956   0.000000
     55         18.123801   0.000000
     56         18.180411   0.000000
     57         18.485038   0.000000
     58         18.507643   0.000000
     59         18.623160   0.000000
     60         18.831435   0.000000
     61         19.968225   0.000000
     62         20.038628   0.000000
     63         20.317544   0.000000
     64         20.364976   0.000000
     65         21.724710   0.000000
     66         21.780383   0.000000
     67         22.299849   0.000000
     68         22.559067   0.000000
     69         22.826676   0.000000
     70         22.915298   0.000000
     71         23.631590   0.000000
     72         23.698638   0.000000
 
  0.5000000E-01  0.1785714E+00  0.0000000E+00  0.3174603E-02
      1        -12.622774   1.000000
      2        -11.463357   1.000000
      3         -8.602281   1.000000
      4         -8.296784   1.000000
      5         -5.965099   1.000000
      6         -5.115735   1.000000
      7         -5.023794   1.000000
      8         -4.643077   1.000000
      9         -4.193519   1.000000
     10         -3.865737   1.000000
     11         -3.397379   1.000000
     12         -1.183268   1.000000
     13         -1.094960   1.000000
     14         -0.672191   1.000000
     15         -0.465559   1.000000
     16         -0.114774   1.000000
     17          0.133678   1.000000
     18          0.149722   1.000000
     19          0.845166   1.000000
     20          1.424502   1.000000
     21          1.431050   1.000000
     22          2.333342   0.000000
     23          5.268251   0.000000
     24          5.441307   0.000000
     25          6.120630   0.000000
     26          6.203614   0.000000
     27          7.463470   0.000000
     28          7.624372   0.000000
     29          8.340714   0.000000
     30          8.795028   0.000000
     31          8.947207   0.000000
     32          9.235762   0.000000
     33          9.358953   0.000000
     34         10.881508   0.000000
     35         11.302785   0.000000
     36         11.574008   0.000000
     37         11.772502   0.000000
     38         11.879818   0.000000
     39         12.303099   0.000000
     40         12.717801   0.000000
     41         12.741561   0.000000
     42         13.081047   0.000000
     43         13.153326   0.000000
     44         14.700845   0.000000
     45         15.184802   0.000000
     46         15.352255   0.000000
     47         15.433310   0.000000
     48         15.947236   0.000000
     49         16.435931   0.000000
     50         16.592023   0.000000
     51         17.074293   0.000000
     52         17.486760   0.000000
     53         17.542088   0.000000
     54         17.872192   0.000000
     55         18.085248   0.000000
     56         18.335044   0.000000
     57         19.240506   0.000000
     58         19.374262   0.000000
     59         19.630837   0.000000
     60         19.929411   0.000000
     61         20.232498   0.000000
     62         20.563182   0.000000
     63         20.582767   0.000000
     64         20.975069   0.000000
     65         21.282529   0.000000
     66         21.984141   0.000000