    1    1    1    1
  0.3375000E+04  0.1500000E-08  0.1250000E-08  0.1800000E-08  0.5000000E-15
  1.000000000000000E-004
  CAR 
 Convergence                             
      3    175      8
 
  0.5000000E-01  0.3571429E-01  0.0000000E+00  0.3174603E-02
      1         -9.409817   1.000000
      2         -3.572516   0.166729
      3         -3.572507   0.166669
      4         -3.572394   0.165872
      5         -0.261684   0.000000
      6          0.296297   0.000000
      7          0.310076   0.000000
      8          0.440002   0.000000
 
  0.1500000E+00  0.3571429E-01  0.0000000E+00  0.3174603E-02
      1         -9.409818   1.000000
      2         -3.572516   0.166728
      3         -3.572511   0.166692
      4         -3.572394   0.165871
      5         -0.251837   0.000000
      6          0.269883   0.000000
      7          0.321300   0.000000
      8          0.375900   0.000000
 
  0.2500000E+00  0.3571429E-01  0.0000000E+00  0.3174603E-02
      1         -9.409818   1.000000
      2         -3.572516   0.166729
      3         -3.572515   0.166727
      4         -3.572394   0.165869
      5         -0.233701   0.000000
      6          0.199649   0.000000
      7          0.342900   0.000000
      8          0.378541   0.000000
 
  0.3500000E+00  0.3571429E-01  0.0000000E+00  0.3174603E-02
      1         -9.409818   1.000000
      2         -3.572521   0.166763
      3         -3.572515   0.166724
      4         -3.572394   0.165868
      5         -0.211529   0.000000
      6          0.131854   0.000000
      7          0.371970   0.000000
      8          0.410096   0.000000
 
  0.4500000E+00  0.3571429E-01  0.0000000E+00  0.3174603E-02
      1         -9.409817   1.000000
      2         -3.572523   0.166783
      3         -3.572515   0.166721
      4         -3.572393   0.165865
      5         -0.194518   0.000000
      6          0.090744   0.000000
      7          0.398385   0.000000
      8          0.449059   0.000000
 
  0.5000000E-01  0.1071429E+00  0.0000000E+00  0.3174603E-02
      1         -9.409817   1.000000
      2         -3.572514   0.166717
      3         -3.572506   0.166657
      4         -3.572417   0.166029
      5         -0.252558   0.000000
      6          0.304392   0.000000
      7          0.319047   0.000000
      8          0.448867   0.000000
 
  0.1500000E+00  0.1071429E+00  0.0000000E+00  0.3174603E-02
      1         -9.409818   1.000000
      2         -3.572514   0.166717
      3         -3.572509   0.166680
      4         -3.572417   0.166029
      5         -0.242725   0.000000
      6          0.278368   0.000000
      7          0.330247   0.000000
      8          0.384847   0.000000
 
  0.2500000E+00  0.1071429E+00  0.0000000E+00  0.3174603E-02
      1         -9.409818   1.000000
      2         -3.572514   0.166716
      3         -3.572514   0.166714
      4         -3.572416   0.166027
      5         -0.224620   0.000000
      6          0.208696   0.000000
      7          0.351793   0.000000
      8          0.387126   0.000000
 
  0.3500000E+00  0.1071429E+00  0.0000000E+00  0.3174603E-02
      1         -9.409818   1.000000
      2         -3.572519   0.166750
      3         -3.572513   0.166711
      4         -3.572416   0.166025
      5         -0.202497   0.000000
      6          0.141140   0.000000
      7          0.380757   0.000000
      8          0.418547   0.000000
 
  0.4500000E+00  0.1071429E+00  0.0000000E+00  0.3174603E-02
      1         -9.409818   1.000000
      2         -3.572522   0.166772
      3         -3.572513   0.166710
      4         -3.572416   0.166024
      5         -0.185537   0.000000
      6          0.100144   0.000000
      7          0.407012   0.000000
      8          0.457393   0.000000
 
  0.5000000E-01  0.1785714E+00  0.0000000E+00  0.3174603E-02
      1         -9.409818   1.000000
      2         -3.572511   0.166696
      3         -3.572503   0.166637
      4         -3.572457   0.166315
      5         -0.234619   0.000000
      6          0.317151   0.000000
      7          0.336877   0.000000
      8          0.462490   0.000000
 
  0.1500000E+00  0.1785714E+00  0.0000000E+00  0.3174603E-02
      1         -9.409818   1.000000
      2         -3.572511   0.166696
      3         -3.572506   0.166659
      4         -3.572457   0.166314
      5         -0.224821   0.000000
      6          0.293499   0.000000
      7          0.348027   0.000000
      8          0.401141   0.000000
 
  0.2500000E+00  0.1785714E+00  0.0000000E+00  0.3174603E-02
      1         -9.409818   1.000000
      2         -3.572511   0.166694
      3         -3.572511   0.166692
      4         -3.572457   0.166311
      5         -0.206793   0.000000
      6          0.226334   0.000000
      7          0.369455   0.000000
      8          0.400945   0.000000
 
  0.3500000E+00  0.1785714E+00  0.0000000E+00  0.3174603E-02
      1         -9.409818   1.000000
      2         -3.572516   0.166728
      3         -3.572510   0.166690
      4         -3.572456   0.166309
      5         -0.184792   0.000000
      6          0.159561   0.000000
      7          0.398193   0.000000
      8          0.431171   0.000000
 
  0.4500000E+00  0.1785714E+00  0.0000000E+00  0.3174603E-02
      1         -9.409817   1.000000
      2         -3.572519   0.166750
      3         -3.572510   0.166688
      4         -3.572456   0.166308
      5         -0.167957   0.000000
      6          0.118884   0.000000
      7          0.424108   0.000000
      8          0.468084   0.000000
 
  0.5000000E-01  0.2500000E+00  0.0000000E+00  0.3174603E-02
      1         -9.409818   1.000000
      2         -3.572508   0.166671
      3         -3.572507   0.166667
      4         -3.572499   0.166610
      5         -0.208666   0.000000
      6          0.308287   0.000000
      7          0.363261   0.000000
      8          0.400987   0.000000
 
  0.1500000E+00  0.2500000E+00  0.0000000E+00  0.3174603E-02
      1         -9.409818   1.000000
      2         -3.572507   0.166669
      3         -3.572507   0.166667
      4         -3.572502   0.166631
      5         -0.198938   0.000000
      6          0.301269   0.000000
      7          0.374325   0.000000
      8          0.384736   0.000000
 
  0.2500000E+00  0.2500000E+00  0.0000000E+00  0.3174603E-02
      1         -9.409818   1.000000
      2         -3.572507   0.166668
      3         -3.572507   0.166666
      4         -3.572507   0.166665
      5         -0.181065   0.000000
      6          0.250374   0.000000
      7          0.375022   0.000000
      8          0.395550   0.000000
 
  0.3500000E+00  0.2500000E+00  0.0000000E+00  0.3174603E-02
      1         -9.409817   1.000000
      2         -3.572512   0.166701
      3         -3.572507   0.166665
      4         -3.572506   0.166663
      5         -0.159314   0.000000
      6          0.186633   0.000000
      7          0.397618   0.000000
      8          0.423900   0.000000
 
  0.4500000E+00  0.2500000E+00  0.0000000E+00  0.3174603E-02
      1         -9.409817   1.000000
      2         -3.572515   0.166723
      3         -3.572506   0.166663
      4         -3.572506   0.166661
      5         -0.142735   0.000000
      6          0.146793   0.000000
      7          0.422213   0.000000
      8          0.449245   0.000000
 
  0.5000000E-01  0.3214286E+00  0.0000000E+00  0.3174603E-02
      1         -9.409818   1.000000
      2         -3.572558   0.167027
      3         -3.572503   0.166641
      4         -3.572495   0.166584
      5         -0.176509   0.000000
      6          0.243487   0.000000
      7          0.397411   0.000000
      8          0.415775   0.000000
 
  0.1500000E+00  0.3214286E+00  0.0000000E+00  0.3174603E-02
      1         -9.409818   1.000000
      2         -3.572558   0.167025
      3         -3.572503   0.166639
      4         -3.572498   0.166605
      5         -0.166914   0.000000
      6          0.252335   0.000000
      7          0.384948   0.000000
      8          0.408328   0.000000
 
  0.2500000E+00  0.3214286E+00  0.0000000E+00  0.3174603E-02
      1         -9.409818   1.000000
      2         -3.572557   0.167023
      3         -3.572503   0.166639
      4         -3.572503   0.166637
      5         -0.149333   0.000000
      6          0.258872   0.000000
      7          0.321749   0.000000
      8          0.429213   0.000000
 
  0.3500000E+00  0.3214286E+00  0.0000000E+00  0.3174603E-02
      1         -9.409817   1.000000
      2         -3.572557   0.167019
      3         -3.572508   0.166674
      4         -3.572502   0.166635
      5         -0.128057   0.000000
      6          0.220240   0.000000
      7          0.319692   0.000000
      8          0.456921   0.000000
 
  0.4500000E+00  0.3214286E+00  0.0000000E+00  0.3174603E-02
      1         -9.409817   1.000000
      2         -3.572556   0.167017
      3         -3.572511   0.166696
      4         -3.572502   0.166635
      5         -0.111965   0.000000
      6          0.183399   0.000000
      7          0.340689   0.000000
      8          0.481349   0.000000
 
  0.5000000E-01  0.3928571E+00  0.0000000E+00  0.3174603E-02
      1         -9.409817   1.000000
      2         -3.572598   0.167312
      3         -3.572500   0.166618
      4         -3.572492   0.166562
      5         -0.142513   0.000000
      6          0.176378   0.000000
      7          0.436893   0.000000
      8          0.458262   0.000000
 
  0.1500000E+00  0.3928571E+00  0.0000000E+00  0.3174603E-02
      1         -9.409817   1.000000
      2         -3.572598   0.167309
      3         -3.572500   0.166616
      4         -3.572495   0.166583
      5         -0.133144   0.000000
      6          0.187424   0.000000
      7          0.422515   0.000000
      8          0.447546   0.000000
 
  0.2500000E+00  0.3928571E+00  0.0000000E+00  0.3174603E-02
      1         -9.409817   1.000000
      2         -3.572597   0.167307
      3         -3.572500   0.166616
      4         -3.572500   0.166615
      5         -0.116068   0.000000
      6          0.208215   0.000000
      7          0.345090   0.000000
      8          0.467827   0.000000
 
  0.3500000E+00  0.3928571E+00  0.0000000E+00  0.3174603E-02
      1         -9.409818   1.000000
      2         -3.572597   0.167305
      3         -3.572505   0.166653
      4         -3.572500   0.166615
      5         -0.095605   0.000000
      6          0.232322   0.000000
      7          0.281765   0.000000
      8          0.497452   0.000000
 
  0.4500000E+00  0.3928571E+00  0.0000000E+00  0.3174603E-02
      1         -9.409818   1.000000
      2         -3.572597   0.167304
      3         -3.572508   0.166675
      4         -3.572500   0.166615
      5         -0.080337   0.000000
      6          0.226669   0.000000
      7          0.273453   0.000000
      8          0.447776   0.000000
 
  0.5000000E-01  0.4642857E+00  0.0000000E+00  0.3174603E-02
      1         -9.409816   1.000000
      2         -3.572620   0.167469
      3         -3.572498   0.166604
      4         -3.572490   0.166551
      5         -0.117308   0.000000
      6          0.133534   0.000000
      7          0.471859   0.000000
      8          0.506605   0.000000
 
  0.1500000E+00  0.4642857E+00  0.0000000E+00  0.3174603E-02
      1         -9.409817   1.000000
      2         -3.572620   0.167468
      3         -3.572498   0.166605
      4         -3.572493   0.166571
      5         -0.108210   0.000000
      6          0.145216   0.000000
      7          0.462535   0.000000
      8          0.482068   0.000000
 
  0.2500000E+00  0.4642857E+00  0.0000000E+00  0.3174603E-02
      1         -9.409817   1.000000
      2         -3.572620   0.167465
      3         -3.572498   0.166604
      4         -3.572498   0.166603
      5         -0.091732   0.000000
      6          0.167883   0.000000
      7          0.381987   0.000000
      8          0.501444   0.000000
 
  0.3500000E+00  0.4642857E+00  0.0000000E+00  0.3174603E-02
      1         -9.409818   1.000000
      2         -3.572620   0.167464
      3         -3.572503   0.166641
      4         -3.572498   0.166605
      5         -0.072214   0.000000
      6          0.199103   0.000000
      7          0.314060   0.000000
      8          0.438759   0.000000
 
  0.4500000E+00  0.4642857E+00  0.0000000E+00  0.3174603E-02
      1         -9.409818   1.000000
      2         -3.572619   0.167463
      3         -3.572506   0.166663
      4         -3.572498   0.166603
      5         -0.057874   0.000000
      6          0.229608   0.000000
      7          0.273670   0.000000
      8          0.385477   0.000000
 
  0.5000000E-01  0.3571429E-01  0.1111111E+00  0.6349206E-02
      1         -9.409817   1.000000
      2         -3.572516   0.166729
      3         -3.572507   0.166670
      4         -3.572394   0.165872
      5         -0.258664   0.000000
      6          0.218918   0.000000
      7          0.388604   0.000000
      8          0.453365   0.000000
 
  0.1500000E+00  0.3571429E-01  0.1111111E+00  0.6349206E-02
      1         -9.409818   1.000000
      2         -3.572516   0.166729
      3         -3.572510   0.166692
      4         -3.572394   0.165871
      5         -0.248865   0.000000
      6          0.224147   0.000000
      7          0.319504   0.000000
      8          0.439985   0.000000
 
  0.2500000E+00  0.3571429E-01  0.1111111E+00  0.6349206E-02
      1         -9.409818   1.000000
      2         -3.572516   0.166728
      3         -3.572515   0.166726
      4         -3.572394   0.165869
      5         -0.230838   0.000000
      6          0.197688   0.000000
      7          0.280067   0.000000
      8          0.459867   0.000000
 
  0.3500000E+00  0.3571429E-01  0.1111111E+00  0.6349206E-02
      1         -9.409818   1.000000
      2         -3.572520   0.166763
      3         -3.572515   0.166725
      4         -3.572394   0.165867
      5         -0.208844   0.000000
      6          0.135850   0.000000
      7          0.302778   0.000000
      8          0.488508   0.000000
 
  0.4500000E+00  0.3571429E-01  0.1111111E+00  0.6349206E-02
      1         -9.409818   1.000000
      2         -3.572523   0.166783
      3         -3.572515   0.166723
      4         -3.572393   0.165865
      5         -0.192022   0.000000
      6          0.095617   0.000000
      7          0.333353   0.000000
      8          0.472591   0.000000
 
  0.5000000E-01  0.1071429E+00  0.1111111E+00  0.6349206E-02
      1         -9.409817   1.000000
      2         -3.572514   0.166718
      3         -3.572506   0.166658
      4         -3.572417   0.166029
      5         -0.249547   0.000000
      6          0.227922   0.000000
      7          0.396097   0.000000
      8          0.462097   0.000000
 
  0.1500000E+00  0.1071429E+00  0.1111111E+00  0.6349206E-02
      1         -9.409818   1.000000
      2         -3.572514   0.166717
      3         -3.572509   0.166680
      4         -3.572417   0.166029
      5         -0.239763   0.000000
      6          0.233108   0.000000
      7          0.328348   0.000000
      8          0.447934   0.000000
 
  0.2500000E+00  0.1071429E+00  0.1111111E+00  0.6349206E-02
      1         -9.409818   1.000000
      2         -3.572514   0.166716
      3         -3.572514   0.166714
      4         -3.572416   0.166027
      5         -0.221766   0.000000
      6          0.206744   0.000000
      7          0.289199   0.000000
      8          0.467611   0.000000
 
  0.3500000E+00  0.1071429E+00  0.1111111E+00  0.6349206E-02
      1         -9.409818   1.000000
      2         -3.572519   0.166750
      3         -3.572513   0.166712
      4         -3.572416   0.166025
      5         -0.199822   0.000000
      6          0.145130   0.000000
      7          0.311811   0.000000
      8          0.496302   0.000000
 
  0.4500000E+00  0.1071429E+00  0.1111111E+00  0.6349206E-02
      1         -9.409818   1.000000
      2         -3.572522   0.166772
      3         -3.572513   0.166711
      4         -3.572416   0.166024
      5         -0.183048   0.000000
      6          0.105010   0.000000
      7          0.342263   0.000000
      8          0.481870   0.000000
 
  0.5000000E-01  0.1785714E+00  0.1111111E+00  0.6349206E-02
      1         -9.409818   1.000000
      2         -3.572511   0.166697
      3         -3.572503   0.166638
      4         -3.572457   0.166314
      5         -0.231632   0.000000
      6          0.245269   0.000000
      7          0.402673   0.000000
      8          0.471403   0.000000
 
  0.1500000E+00  0.1785714E+00  0.1111111E+00  0.6349206E-02
      1         -9.409818   1.000000
      2         -3.572511   0.166694
      3         -3.572506   0.166658
      4         -3.572457   0.166313
      5         -0.221883   0.000000
      6          0.250300   0.000000
      7          0.345294   0.000000
      8          0.450068   0.000000
 
  0.2500000E+00  0.1785714E+00  0.1111111E+00  0.6349206E-02
      1         -9.409818   1.000000
      2         -3.572511   0.166694
      3         -3.572511   0.166693
      4         -3.572457   0.166311
      5         -0.203962   0.000000
      6          0.224394   0.000000
      7          0.307301   0.000000
      8          0.467557   0.000000
 
  0.3500000E+00  0.1785714E+00  0.1111111E+00  0.6349206E-02
      1         -9.409817   1.000000
      2         -3.572516   0.166728
      3         -3.572510   0.166690
      4         -3.572456   0.166309
      5         -0.182139   0.000000
      6          0.163540   0.000000
      7          0.329527   0.000000
      8          0.495904   0.000000
 
  0.4500000E+00  0.1785714E+00  0.1111111E+00  0.6349206E-02
      1         -9.409817   1.000000
      2         -3.572519   0.166750
      3         -3.572510   0.166690
      4         -3.572456   0.166308
      5         -0.165487   0.000000
      6          0.123734   0.000000
      7          0.359660   0.000000
      8          0.500047   0.000000
 
  0.5000000E-01  0.2500000E+00  0.1111111E+00  0.6349206E-02
      1         -9.409818   1.000000
      2         -3.572508   0.166671
      3         -3.572507   0.166669
      4         -3.572499   0.166610
      5         -0.205726   0.000000
      6          0.266415   0.000000
      7          0.351983   0.000000
      8          0.458737   0.000000
 
  0.1500000E+00  0.2500000E+00  0.1111111E+00  0.6349206E-02
      1         -9.409818   1.000000
      2         -3.572507   0.166670
      3         -3.572507   0.166668
      4         -3.572502   0.166631
      5         -0.196047   0.000000
      6          0.271063   0.000000
      7          0.355961   0.000000
      8          0.390412   0.000000
 
  0.2500000E+00  0.2500000E+00  0.1111111E+00  0.6349206E-02
      1         -9.409818   1.000000
      2         -3.572507   0.166667
      3         -3.572507   0.166666
      4         -3.572507   0.166665
      5         -0.178280   0.000000
      6          0.248475   0.000000
      7          0.333398   0.000000
      8          0.389473   0.000000
 
  0.3500000E+00  0.2500000E+00  0.1111111E+00  0.6349206E-02
      1         -9.409817   1.000000
      2         -3.572512   0.166701
      3         -3.572507   0.166664
      4         -3.572506   0.166663
      5         -0.156704   0.000000
      6          0.190585   0.000000
      7          0.353163   0.000000
      8          0.415670   0.000000
 
  0.4500000E+00  0.2500000E+00  0.1111111E+00  0.6349206E-02
      1         -9.409817   1.000000
      2         -3.572515   0.166723
      3         -3.572506   0.166663
      4         -3.572506   0.166661
      5         -0.140304   0.000000
      6          0.151616   0.000000
      7          0.381931   0.000000
      8          0.439465   0.000000
 
  0.5000000E-01  0.3214286E+00  0.1111111E+00  0.6349206E-02
      1         -9.409818   1.000000
      2         -3.572558   0.167027
      3         -3.572503   0.166641
      4         -3.572495   0.166584
      5         -0.173658   0.000000
      6          0.243665   0.000000
      7          0.327490   0.000000
      8          0.489824   0.000000
 
  0.1500000E+00  0.3214286E+00  0.1111111E+00  0.6349206E-02
      1         -9.409818   1.000000
      2         -3.572558   0.167026
      3         -3.572503   0.166640
      4         -3.572498   0.166604
      5         -0.164110   0.000000
      6          0.252414   0.000000
      7          0.336678   0.000000
      8          0.412678   0.000000
 
  0.2500000E+00  0.3214286E+00  0.1111111E+00  0.6349206E-02
      1         -9.409817   1.000000
      2         -3.572557   0.167022
      3         -3.572503   0.166639
      4         -3.572503   0.166638
      5         -0.146634   0.000000
      6          0.259356   0.000000
      7          0.324956   0.000000
      8          0.371849   0.000000
 
  0.3500000E+00  0.3214286E+00  0.1111111E+00  0.6349206E-02
      1         -9.409817   1.000000
      2         -3.572557   0.167020
      3         -3.572508   0.166674
      4         -3.572503   0.166636
      5         -0.125526   0.000000
      6          0.224114   0.000000
      7          0.322308   0.000000
      8          0.398213   0.000000
 
  0.4500000E+00  0.3214286E+00  0.1111111E+00  0.6349206E-02
      1         -9.409818   1.000000
      2         -3.572557   0.167018
      3         -3.572511   0.166696
      4         -3.572502   0.166635
      5         -0.109605   0.000000
      6          0.188172   0.000000
      7          0.342754   0.000000
      8          0.427475   0.000000
 
  0.5000000E-01  0.3928571E+00  0.1111111E+00  0.6349206E-02
      1         -9.409817   1.000000
      2         -3.572598   0.167312
      3         -3.572500   0.166619
      4         -3.572492   0.166563
      5         -0.139815   0.000000
      6          0.180261   0.000000
      7          0.363908   0.000000
      8          0.529819   0.000000
 
  0.1500000E+00  0.3928571E+00  0.1111111E+00  0.6349206E-02
      1         -9.409817   1.000000
      2         -3.572598   0.167310
      3         -3.572500   0.166618
      4         -3.572495   0.166584
      5         -0.130492   0.000000
      6          0.191282   0.000000
      7          0.371306   0.000000
      8          0.452147   0.000000
 
  0.2500000E+00  0.3928571E+00  0.1111111E+00  0.6349206E-02
      1         -9.409817   1.000000
      2         -3.572597   0.167307
      3         -3.572500   0.166617
      4         -3.572500   0.166615
      5         -0.113515   0.000000
      6          0.212016   0.000000
      7          0.345226   0.000000
      8          0.412525   0.000000
 
  0.3500000E+00  0.3928571E+00  0.1111111E+00  0.6349206E-02
      1         -9.409818   1.000000
      2         -3.572597   0.167306
      3         -3.572505   0.166652
      4         -3.572500   0.166614
      5         -0.093207   0.000000
      6          0.236139   0.000000
      7          0.285832   0.000000
      8          0.437164   0.000000
 
  0.4500000E+00  0.3928571E+00  0.1111111E+00  0.6349206E-02
      1         -9.409818   1.000000
      2         -3.572597   0.167304
      3         -3.572508   0.166674
      4         -3.572499   0.166613
      5         -0.078092   0.000000
      6          0.231323   0.000000
      7          0.277017   0.000000
      8          0.452262   0.000000
 
  0.5000000E-01  0.4642857E+00  0.1111111E+00  0.6349206E-02
      1         -9.409817   1.000000
      2         -3.572620   0.167469
      3         -3.572498   0.166606
      4         -3.572490   0.166550
      5         -0.114796   0.000000
      6          0.137973   0.000000
      7          0.404593   0.000000
      8          0.525193   0.000000
 
  0.1500000E+00  0.4642857E+00  0.1111111E+00  0.6349206E-02
      1         -9.409817   1.000000
      2         -3.572620   0.167468
      3         -3.572498   0.166605
      4         -3.572493   0.166571
      5         -0.105739   0.000000
      6          0.149621   0.000000
      7          0.411520   0.000000
      8          0.488319   0.000000
 
  0.2500000E+00  0.4642857E+00  0.1111111E+00  0.6349206E-02
      1         -9.409817   1.000000
      2         -3.572620   0.167466
      3         -3.572498   0.166605
      4         -3.572498   0.166604
      5         -0.089348   0.000000
      6          0.172209   0.000000
      7          0.381983   0.000000
      8          0.451060   0.000000
 
  0.3500000E+00  0.4642857E+00  0.1111111E+00  0.6349206E-02
      1         -9.409818   1.000000
      2         -3.572620   0.167464
      3         -3.572503   0.166640
      4         -3.572498   0.166602
      5         -0.069966   0.000000
      6          0.203265   0.000000
      7          0.317903   0.000000
      8          0.443003   0.000000
 
  0.4500000E+00  0.4642857E+00  0.1111111E+00  0.6349206E-02
      1         -9.409818   1.000000
      2         -3.572619   0.167463
      3         -3.572506   0.166663
      4         -3.572498   0.166602
      5         -0.055755   0.000000
      6          0.233472   0.000000
      7          0.278086   0.000000
      8          0.390637   0.000000
 
  0.5000000E-01  0.3571429E-01  0.2222222E+00  0.6349206E-02
      1         -9.409817   1.000000
      2         -3.572516   0.166732
      3         -3.572507   0.166671
      4         -3.572394   0.165872
      5         -0.250470   0.000000
      6          0.147808   0.000000
      7          0.433342   0.000000
      8          0.516412   0.000000
 
  0.1500000E+00  0.3571429E-01  0.2222222E+00  0.6349206E-02
      1         -9.409817   1.000000
      2         -3.572516   0.166729
      3         -3.572510   0.166692
      4         -3.572394   0.165871
      5         -0.240815   0.000000
      6          0.158320   0.000000
      7          0.330238   0.000000
      8          0.541279   0.000000
 
  0.2500000E+00  0.3571429E-01  0.2222222E+00  0.6349206E-02
      1         -9.409818   1.000000
      2         -3.572516   0.166728
      3         -3.572515   0.166727
      4         -3.572394   0.165870
      5         -0.223107   0.000000
      6          0.172547   0.000000
      7          0.247040   0.000000
      8          0.529585   0.000000
 
  0.3500000E+00  0.3571429E-01  0.2222222E+00  0.6349206E-02
      1         -9.409818   1.000000
      2         -3.572520   0.166763
      3         -3.572515   0.166725
      4         -3.572394   0.165867
      5         -0.201636   0.000000
      6          0.146256   0.000000
      7          0.234656   0.000000
      8          0.452831   0.000000
 
  0.4500000E+00  0.3571429E-01  0.2222222E+00  0.6349206E-02
      1         -9.409818   1.000000
      2         -3.572523   0.166784
      3         -3.572515   0.166724
      4         -3.572393   0.165865
      5         -0.185355   0.000000
      6          0.109803   0.000000
      7          0.263736   0.000000
      8          0.393392   0.000000
 
  0.5000000E-01  0.1071429E+00  0.2222222E+00  0.6349206E-02
      1         -9.409817   1.000000
      2         -3.572514   0.166718
      3         -3.572506   0.166658
      4         -3.572417   0.166030
      5         -0.241382   0.000000
      6          0.157089   0.000000
      7          0.440965   0.000000
      8          0.520235   0.000000
 
  0.1500000E+00  0.1071429E+00  0.2222222E+00  0.6349206E-02
      1         -9.409817   1.000000
      2         -3.572514   0.166717
      3         -3.572509   0.166679
      4         -3.572416   0.166028
      5         -0.231741   0.000000
      6          0.167589   0.000000
      7          0.339008   0.000000
      8          0.544275   0.000000
 
  0.2500000E+00  0.1071429E+00  0.2222222E+00  0.6349206E-02
      1         -9.409817   1.000000
      2         -3.572514   0.166715
      3         -3.572514   0.166714
      4         -3.572416   0.166026
      5         -0.214063   0.000000
      6          0.181780   0.000000
      7          0.256170   0.000000
      8          0.537959   0.000000
 
  0.3500000E+00  0.1071429E+00  0.2222222E+00  0.6349206E-02
      1         -9.409818   1.000000
      2         -3.572519   0.166750
      3         -3.572513   0.166713
      4         -3.572416   0.166025
      5         -0.192639   0.000000
      6          0.155531   0.000000
      7          0.243874   0.000000
      8          0.462147   0.000000
 
  0.4500000E+00  0.1071429E+00  0.2222222E+00  0.6349206E-02
      1         -9.409818   1.000000
      2         -3.572522   0.166772
      3         -3.572513   0.166711
      4         -3.572416   0.166024
      5         -0.176404   0.000000
      6          0.119172   0.000000
      7          0.272861   0.000000
      8          0.402870   0.000000
 
  0.5000000E-01  0.1785714E+00  0.2222222E+00  0.6349206E-02
      1         -9.409817   1.000000
      2         -3.572511   0.166697
      3         -3.572503   0.166637
      4         -3.572457   0.166315
      5         -0.223536   0.000000
      6          0.175410   0.000000
      7          0.440231   0.000000
      8          0.481933   0.000000
 
  0.1500000E+00  0.1785714E+00  0.2222222E+00  0.6349206E-02
      1         -9.409818   1.000000
      2         -3.572511   0.166696
      3         -3.572506   0.166659
      4         -3.572457   0.166314
      5         -0.213929   0.000000
      6          0.185875   0.000000
      7          0.355569   0.000000
      8          0.476308   0.000000
 
  0.2500000E+00  0.1785714E+00  0.2222222E+00  0.6349206E-02
      1         -9.409817   1.000000
      2         -3.572511   0.166694
      3         -3.572511   0.166693
      4         -3.572457   0.166311
      5         -0.196326   0.000000
      6          0.199957   0.000000
      7          0.274284   0.000000
      8          0.495601   0.000000
 