  14  14   0   0
  0.1021960E+02  0.5697000E-09  0.4047900E-09  0.6204200E-09  0.5000000E-15
  1.000000000000000E-004
  CAR 
 Kpoints                                 
     18.05694985    -14.20116860  301      1.89878396      1.00000000
    -14.201  0.0000E+00  0.0000E+00
    -14.094  0.0000E+00  0.0000E+00
    -13.986  0.0000E+00  0.0000E+00
    -13.879  0.0000E+00  0.0000E+00
    -13.771  0.0000E+00  0.0000E+00
    -13.664  0.0000E+00  0.0000E+00
    -13.556  0.0000E+00  0.0000E+00
    -13.448  0.0000E+00  0.0000E+00
    -13.341  0.0000E+00  0.0000E+00
    -13.233  0.0000E+00  0.0000E+00
    -13.126  0.0000E+00  0.0000E+00
    -13.018  0.5900E-16  0.6344E-17
    -12.911  0.3476E-07  0.3738E-08
    -12.803  0.3372E-02  0.3626E-03
    -12.696  0.3892E+00  0.4221E-01
    -12.588  0.2311E+01  0.2907E+00
    -12.481  0.3486E+01  0.6655E+00
    -12.373  0.4058E+01  0.1102E+01
    -12.266  0.4150E+01  0.1548E+01
    -12.158  0.2390E+01  0.1805E+01
    -12.051  0.2737E+01  0.2099E+01
    -11.943  0.2598E+01  0.2379E+01
    -11.836  0.2714E+01  0.2671E+01
    -11.728  0.3568E+01  0.3054E+01
    -11.621  0.3193E+01  0.3398E+01
    -11.513  0.3456E+01  0.3769E+01
    -11.405  0.1679E+01  0.3950E+01
    -11.298  0.4506E+00  0.3998E+01
    -11.190  0.1643E-01  0.4000E+01
    -11.083  0.7828E-06  0.4000E+01
    -10.975  0.5640E-14  0.4000E+01
    -10.868  0.0000E+00  0.4000E+01
    -10.760  0.0000E+00  0.4000E+01
    -10.653  0.0000E+00  0.4000E+01
    -10.545  0.0000E+00  0.4000E+01
    -10.438  0.0000E+00  0.4000E+01
    -10.330  0.0000E+00  0.4000E+01
    -10.223  0.0000E+00  0.4000E+01
    -10.115  0.0000E+00  0.4000E+01
    -10.008  0.0000E+00  0.4000E+01
     -9.900  0.0000E+00  0.4000E+01
     -9.793  0.0000E+00  0.4000E+01
     -9.685  0.0000E+00  0.4000E+01
     -9.578  0.0000E+00  0.4000E+01
     -9.470  0.0000E+00  0.4000E+01
     -9.362  0.0000E+00  0.4000E+01
     -9.255  0.0000E+00  0.4000E+01
     -9.147  0.0000E+00  0.4000E+01
     -9.040  0.4708E-10  0.4000E+01
     -8.932  0.2050E-03  0.4000E+01
     -8.825  0.2450E+00  0.4026E+01
     -8.717  0.2225E+01  0.4266E+01
     -8.610  0.5134E+01  0.4818E+01
     -8.502  0.7147E+01  0.5586E+01
     -8.395  0.6448E+01  0.6280E+01
     -8.287  0.4960E+01  0.6813E+01
     -8.180  0.5076E+01  0.7359E+01
     -8.072  0.3697E+01  0.7756E+01
     -7.965  0.1725E+01  0.7942E+01
     -7.857  0.5033E+00  0.7996E+01
     -7.750  0.3823E-01  0.8000E+01
     -7.642  0.2483E-05  0.8000E+01
     -7.534  0.2398E-13  0.8000E+01
     -7.427  0.0000E+00  0.8000E+01
     -7.319  0.0000E+00  0.8000E+01
     -7.212  0.0000E+00  0.8000E+01
     -7.104  0.1393E-09  0.8000E+01
     -6.997  0.2655E-03  0.8000E+01
     -6.889  0.1349E+00  0.8015E+01
     -6.782  0.4811E+00  0.8066E+01
     -6.674  0.3633E+00  0.8105E+01
     -6.567  0.3713E+00  0.8145E+01
     -6.459  0.3725E+00  0.8185E+01
     -6.352  0.2022E+01  0.8403E+01
     -6.244  0.3270E+01  0.8754E+01
     -6.137  0.2881E+01  0.9064E+01
     -6.029  0.3854E+01  0.9479E+01
     -5.922  0.3773E+01  0.9884E+01
     -5.814  0.2446E+01  0.1015E+02
     -5.707  0.4157E+01  0.1059E+02
     -5.599  0.4584E+01  0.1109E+02
     -5.491  0.5449E+01  0.1167E+02
     -5.384  0.4628E+01  0.1217E+02
     -5.276  0.5150E+01  0.1272E+02
     -5.169  0.3344E+01  0.1308E+02
     -5.061  0.3260E+01  0.1343E+02
     -4.954  0.3130E+01  0.1377E+02
     -4.846  0.1563E+01  0.1394E+02
     -4.739  0.3332E+01  0.1430E+02
     -4.631  0.3975E+01  0.1473E+02
     -4.524  0.4172E+01  0.1517E+02
     -4.416  0.3080E+01  0.1550E+02
     -4.309  0.2939E+01  0.1582E+02
     -4.201  0.1801E+01  0.1601E+02
     -4.094  0.3243E+01  0.1636E+02
     -3.986  0.3216E+01  0.1671E+02
     -3.879  0.2907E+01  0.1702E+02
     -3.771  0.3712E+01  0.1742E+02
     -3.664  0.3519E+01  0.1780E+02
     -3.556  0.2139E+01  0.1803E+02
     -3.448  0.2134E+01  0.1826E+02
     -3.341  0.2381E+01  0.1851E+02
     -3.233  0.2335E+01  0.1877E+02
     -3.126  0.3099E+01  0.1910E+02
     -3.018  0.2863E+01  0.1941E+02
     -2.911  0.4145E+01  0.1985E+02
     -2.803  0.2055E+01  0.2007E+02
     -2.696  0.2231E+01  0.2031E+02
     -2.588  0.2676E+01  0.2060E+02
     -2.481  0.2852E+01  0.2091E+02
     -2.373  0.5330E+01  0.2148E+02
     -2.266  0.5729E+01  0.2210E+02
     -2.158  0.3010E+01  0.2242E+02
     -2.051  0.1931E+01  0.2263E+02
     -1.943  0.2131E+01  0.2286E+02
     -1.836  0.3399E+01  0.2322E+02
     -1.728  0.5192E+01  0.2378E+02
     -1.621  0.5929E+01  0.2442E+02
     -1.513  0.6550E+01  0.2512E+02
     -1.405  0.7813E+01  0.2596E+02
     -1.298  0.7659E+01  0.2679E+02
     -1.190  0.4924E+01  0.2732E+02
     -1.083  0.4477E+01  0.2780E+02
     -0.975  0.3592E+01  0.2818E+02
     -0.868  0.2168E+01  0.2842E+02
     -0.760  0.1173E+01  0.2854E+02
     -0.653  0.3104E+01  0.2888E+02
     -0.545  0.6216E+01  0.2955E+02
     -0.438  0.6844E+01  0.3028E+02
     -0.330  0.7425E+01  0.3108E+02
     -0.223  0.6078E+01  0.3173E+02
     -0.115  0.6705E+01  0.3245E+02
     -0.008  0.5583E+01  0.3305E+02
      0.100  0.5413E+01  0.3364E+02
      0.207  0.7322E+01  0.3442E+02
      0.315  0.8287E+01  0.3531E+02
      0.423  0.9307E+01  0.3632E+02
      0.530  0.8247E+01  0.3720E+02
      0.638  0.4630E+01  0.3770E+02
      0.745  0.1322E+01  0.3784E+02
      0.853  0.3291E+01  0.3820E+02
      0.960  0.2942E+01  0.3851E+02
      1.068  0.5507E+01  0.3910E+02
      1.175  0.3982E+01  0.3953E+02
      1.283  0.3609E+01  0.3992E+02
      1.390  0.4396E+01  0.4039E+02
      1.498  0.4343E+01  0.4086E+02
      1.605  0.3094E+01  0.4119E+02
      1.713  0.3514E+01  0.4157E+02
      1.820  0.2573E+01  0.4185E+02
      1.928  0.2085E+01  0.4207E+02
      2.035  0.2684E+01  0.4236E+02
      2.143  0.2912E+01  0.4267E+02
      2.250  0.1719E+01  0.4286E+02
      2.358  0.9745E+00  0.4296E+02
      2.466  0.1556E+01  0.4313E+02
      2.573  0.1896E+01  0.4333E+02
      2.681  0.1222E+01  0.4347E+02
      2.788  0.1236E+01  0.4360E+02
      2.896  0.7603E+00  0.4368E+02
      3.003  0.3406E+00  0.4372E+02
      3.111  0.6400E+00  0.4379E+02
      3.218  0.4932E+00  0.4384E+02
      3.326  0.7355E-02  0.4384E+02
      3.433  0.5205E-07  0.4384E+02
      3.541  0.8146E-13  0.4384E+02
      3.648  0.3965E-05  0.4384E+02
      3.756  0.3593E-01  0.4384E+02
      3.863  0.6334E+00  0.4391E+02
      3.971  0.7712E+00  0.4399E+02
      4.078  0.4746E-01  0.4400E+02
      4.186  0.9845E-04  0.4400E+02
      4.293  0.8287E-01  0.4401E+02
      4.401  0.2913E+00  0.4404E+02
      4.509  0.2697E+00  0.4407E+02
      4.616  0.6469E+00  0.4414E+02
      4.724  0.7624E+00  0.4422E+02
      4.831  0.7765E+00  0.4430E+02
      4.939  0.8377E+00  0.4439E+02
      5.046  0.1532E+01  0.4456E+02
      5.154  0.1112E+01  0.4468E+02
      5.261  0.1306E+01  0.4482E+02
      5.369  0.1924E+01  0.4503E+02
      5.476  0.1908E+01  0.4523E+02
      5.584  0.1800E+01  0.4542E+02
      5.691  0.3756E+01  0.4583E+02
      5.799  0.3672E+01  0.4622E+02
      5.906  0.3427E+01  0.4659E+02
      6.014  0.2220E+01  0.4683E+02
      6.121  0.6949E+01  0.4758E+02
      6.229  0.5325E+01  0.4815E+02
      6.337  0.4300E+01  0.4861E+02
      6.444  0.3698E+01  0.4901E+02
      6.552  0.3738E+01  0.4941E+02
      6.659  0.3050E+01  0.4974E+02
      6.767  0.4462E+01  0.5022E+02
      6.874  0.3732E+01  0.5062E+02
      6.982  0.4574E+01  0.5111E+02
      7.089  0.4840E+01  0.5163E+02
      7.197  0.5423E+01  0.5222E+02
      7.304  0.5012E+01  0.5276E+02
      7.412  0.4385E+01  0.5323E+02
      7.519  0.3284E+01  0.5358E+02
      7.627  0.3748E+01  0.5398E+02
      7.734  0.4536E+01  0.5447E+02
      7.842  0.5389E+01  0.5505E+02
      7.949  0.1827E+01  0.5525E+02
      8.057  0.2472E+01  0.5551E+02
      8.164  0.4332E+01  0.5598E+02
      8.272  0.2948E+01  0.5630E+02
      8.380  0.4125E+01  0.5674E+02
      8.487  0.3057E+01  0.5707E+02
      8.595  0.4120E+01  0.5751E+02
      8.702  0.7202E+01  0.5829E+02
      8.810  0.4966E+01  0.5882E+02
      8.917  0.4315E+01  0.5928E+02
      9.025  0.4864E+01  0.5981E+02
      9.132  0.5282E+01  0.6037E+02
      9.240  0.4887E+01  0.6090E+02
      9.347  0.4030E+01  0.6133E+02
      9.455  0.4033E+01  0.6177E+02
      9.562  0.3478E+01  0.6214E+02
      9.670  0.5757E+01  0.6276E+02
      9.777  0.6591E+01  0.6347E+02
      9.885  0.5344E+01  0.6404E+02
      9.992  0.6694E+01  0.6476E+02
     10.100  0.3083E+01  0.6509E+02
     10.207  0.2543E+01  0.6537E+02
     10.315  0.4746E+01  0.6588E+02
     10.423  0.6363E+01  0.6656E+02
     10.530  0.4703E+01  0.6707E+02
     10.638  0.4605E+01  0.6756E+02
     10.745  0.4239E+01  0.6802E+02
     10.853  0.3885E+01  0.6844E+02
     10.960  0.2842E+01  0.6874E+02
     11.068  0.4214E+01  0.6920E+02
     11.175  0.6298E+01  0.6987E+02
     11.283  0.6716E+01  0.7059E+02
     11.390  0.4991E+01  0.7113E+02
     11.498  0.4589E+01  0.7162E+02
     11.605  0.5284E+01  0.7219E+02
     11.713  0.6556E+01  0.7290E+02
     11.820  0.4726E+01  0.7341E+02
     11.928  0.6347E+01  0.7409E+02
     12.035  0.5154E+01  0.7464E+02
     12.143  0.4470E+01  0.7512E+02
     12.250  0.6192E+01  0.7579E+02
     12.358  0.3945E+01  0.7621E+02
     12.466  0.6586E+01  0.7692E+02
     12.573  0.6600E+01  0.7763E+02
     12.681  0.5394E+01  0.7821E+02
     12.788  0.4086E+01  0.7865E+02
     12.896  0.7318E+01  0.7944E+02
     13.003  0.7060E+01  0.8020E+02
     13.111  0.5169E+01  0.8075E+02
     13.218  0.5865E+01  0.8138E+02
     13.326  0.5610E+01  0.8199E+02
     13.433  0.5937E+01  0.8262E+02
     13.541  0.5649E+01  0.8323E+02
     13.648  0.3677E+01  0.8363E+02
     13.756  0.5346E+01  0.8420E+02
     13.863  0.5820E+01  0.8483E+02
     13.971  0.7546E+01  0.8564E+02
     14.078  0.5726E+01  0.8626E+02
     14.186  0.6786E+01  0.8698E+02
     14.294  0.4643E+01  0.8748E+02
     14.401  0.3620E+01  0.8787E+02
     14.509  0.5319E+01  0.8845E+02
     14.616  0.4863E+01  0.8897E+02
     14.724  0.3677E+01  0.8936E+02
     14.831  0.2582E+01  0.8964E+02
     14.939  0.6215E+01  0.9031E+02
     15.046  0.7381E+01  0.9110E+02
     15.154  0.5586E+01  0.9170E+02
     15.261  0.4346E+01  0.9217E+02
     15.369  0.6842E+01  0.9291E+02
     15.476  0.5656E+01  0.9352E+02
     15.584  0.5793E+01  0.9414E+02
     15.691  0.5826E+01  0.9476E+02
     15.799  0.2720E+01  0.9506E+02
     15.906  0.1461E+01  0.9521E+02
     16.014  0.2734E+01  0.9551E+02
     16.121  0.1272E+01  0.9564E+02
     16.229  0.9965E+00  0.9575E+02
     16.337  0.1005E+01  0.9586E+02
     16.444  0.6691E+00  0.9593E+02
     16.552  0.4531E+00  0.9598E+02
     16.659  0.1774E+00  0.9600E+02
     16.767  0.2930E-02  0.9600E+02
     16.874  0.3440E-07  0.9600E+02
     16.982  0.5900E-16  0.9600E+02
     17.089  0.0000E+00  0.9600E+02
     17.197  0.0000E+00  0.9600E+02
     17.304  0.0000E+00  0.9600E+02
     17.412  0.0000E+00  0.9600E+02
     17.519  0.0000E+00  0.9600E+02
     17.627  0.0000E+00  0.9600E+02
     17.734  0.0000E+00  0.9600E+02
     17.842  0.0000E+00  0.9600E+02
     17.949  0.0000E+00  0.9600E+02
     18.057  0.0000E+00  0.9600E+02
