  14  14   0   0
  0.1021960E+02  0.5697000E-09  0.4047900E-09  0.6204200E-09  0.5000000E-15
  1.000000000000000E-004
  CAR 
 Kpoints                                 
     18.05727516    -14.20114794  301      1.89890824      1.00000000
    -14.201  0.0000E+00  0.0000E+00
    -14.094  0.0000E+00  0.0000E+00
    -13.986  0.0000E+00  0.0000E+00
    -13.879  0.0000E+00  0.0000E+00
    -13.771  0.0000E+00  0.0000E+00
    -13.664  0.0000E+00  0.0000E+00
    -13.556  0.0000E+00  0.0000E+00
    -13.448  0.0000E+00  0.0000E+00
    -13.341  0.0000E+00  0.0000E+00
    -13.233  0.0000E+00  0.0000E+00
    -13.126  0.0000E+00  0.0000E+00
    -13.018  0.5900E-16  0.6344E-17
    -12.911  0.3475E-07  0.3737E-08
    -12.803  0.3371E-02  0.3625E-03
    -12.696  0.3891E+00  0.4220E-01
    -12.588  0.2310E+01  0.2906E+00
    -12.481  0.3486E+01  0.6655E+00
    -12.373  0.4058E+01  0.1102E+01
    -12.266  0.4150E+01  0.1548E+01
    -12.158  0.2390E+01  0.1805E+01
    -12.051  0.2737E+01  0.2099E+01
    -11.943  0.2598E+01  0.2379E+01
    -11.836  0.2714E+01  0.2671E+01
    -11.728  0.3569E+01  0.3054E+01
    -11.620  0.3193E+01  0.3398E+01
    -11.513  0.3456E+01  0.3769E+01
    -11.405  0.1679E+01  0.3950E+01
    -11.298  0.4506E+00  0.3998E+01
    -11.190  0.1642E-01  0.4000E+01
    -11.083  0.7821E-06  0.4000E+01
    -10.975  0.5617E-14  0.4000E+01
    -10.868  0.0000E+00  0.4000E+01
    -10.760  0.0000E+00  0.4000E+01
    -10.653  0.0000E+00  0.4000E+01
    -10.545  0.0000E+00  0.4000E+01
    -10.438  0.0000E+00  0.4000E+01
    -10.330  0.0000E+00  0.4000E+01
    -10.223  0.0000E+00  0.4000E+01
    -10.115  0.0000E+00  0.4000E+01
    -10.008  0.0000E+00  0.4000E+01
     -9.900  0.0000E+00  0.4000E+01
     -9.792  0.0000E+00  0.4000E+01
     -9.685  0.0000E+00  0.4000E+01
     -9.577  0.0000E+00  0.4000E+01
     -9.470  0.0000E+00  0.4000E+01
     -9.362  0.0000E+00  0.4000E+01
     -9.255  0.0000E+00  0.4000E+01
     -9.147  0.0000E+00  0.4000E+01
     -9.040  0.4705E-10  0.4000E+01
     -8.932  0.2049E-03  0.4000E+01
     -8.825  0.2450E+00  0.4026E+01
     -8.717  0.2225E+01  0.4266E+01
     -8.610  0.5134E+01  0.4818E+01
     -8.502  0.7147E+01  0.5586E+01
     -8.395  0.6448E+01  0.6280E+01
     -8.287  0.4960E+01  0.6813E+01
     -8.180  0.5076E+01  0.7359E+01
     -8.072  0.3697E+01  0.7756E+01
     -7.965  0.1725E+01  0.7942E+01
     -7.857  0.5035E+00  0.7996E+01
     -7.749  0.3831E-01  0.8000E+01
     -7.642  0.2496E-05  0.8000E+01
     -7.534  0.2421E-13  0.8000E+01
     -7.427  0.0000E+00  0.8000E+01
     -7.319  0.0000E+00  0.8000E+01
     -7.212  0.0000E+00  0.8000E+01
     -7.104  0.1391E-09  0.8000E+01
     -6.997  0.2653E-03  0.8000E+01
     -6.889  0.1348E+00  0.8015E+01
     -6.782  0.4811E+00  0.8066E+01
     -6.674  0.3632E+00  0.8105E+01
     -6.567  0.3713E+00  0.8145E+01
     -6.459  0.3725E+00  0.8185E+01
     -6.352  0.2022E+01  0.8403E+01
     -6.244  0.3270E+01  0.8754E+01
     -6.137  0.2881E+01  0.9064E+01
     -6.029  0.3854E+01  0.9479E+01
     -5.921  0.3773E+01  0.9884E+01
     -5.814  0.2447E+01  0.1015E+02
     -5.706  0.4157E+01  0.1059E+02
     -5.599  0.4584E+01  0.1109E+02
     -5.491  0.5449E+01  0.1167E+02
     -5.384  0.4628E+01  0.1217E+02
     -5.276  0.5150E+01  0.1272E+02
     -5.169  0.3344E+01  0.1308E+02
     -5.061  0.3260E+01  0.1343E+02
     -4.954  0.3130E+01  0.1377E+02
     -4.846  0.1563E+01  0.1394E+02
     -4.739  0.3332E+01  0.1430E+02
     -4.631  0.3976E+01  0.1473E+02
     -4.524  0.4171E+01  0.1517E+02
     -4.416  0.3081E+01  0.1551E+02
     -4.309  0.2938E+01  0.1582E+02
     -4.201  0.1801E+01  0.1601E+02
     -4.094  0.3244E+01  0.1636E+02
     -3.986  0.3215E+01  0.1671E+02
     -3.878  0.2907E+01  0.1702E+02
     -3.771  0.3712E+01  0.1742E+02
     -3.663  0.3519E+01  0.1780E+02
     -3.556  0.2139E+01  0.1803E+02
     -3.448  0.2134E+01  0.1826E+02
     -3.341  0.2380E+01  0.1851E+02
     -3.233  0.2335E+01  0.1877E+02
     -3.126  0.3099E+01  0.1910E+02
     -3.018  0.2863E+01  0.1941E+02
     -2.911  0.4145E+01  0.1985E+02
     -2.803  0.2055E+01  0.2007E+02
     -2.696  0.2231E+01  0.2031E+02
     -2.588  0.2677E+01  0.2060E+02
     -2.481  0.2852E+01  0.2091E+02
     -2.373  0.5330E+01  0.2148E+02
     -2.266  0.5729E+01  0.2210E+02
     -2.158  0.3009E+01  0.2242E+02
     -2.050  0.1931E+01  0.2263E+02
     -1.943  0.2132E+01  0.2286E+02
     -1.835  0.3399E+01  0.2322E+02
     -1.728  0.5193E+01  0.2378E+02
     -1.620  0.5930E+01  0.2442E+02
     -1.513  0.6550E+01  0.2512E+02
     -1.405  0.7815E+01  0.2596E+02
     -1.298  0.7657E+01  0.2679E+02
     -1.190  0.4924E+01  0.2732E+02
     -1.083  0.4477E+01  0.2780E+02
     -0.975  0.3592E+01  0.2818E+02
     -0.868  0.2167E+01  0.2842E+02
     -0.760  0.1173E+01  0.2854E+02
     -0.653  0.3105E+01  0.2888E+02
     -0.545  0.6216E+01  0.2955E+02
     -0.438  0.6845E+01  0.3028E+02
     -0.330  0.7425E+01  0.3108E+02
     -0.222  0.6077E+01  0.3173E+02
     -0.115  0.6706E+01  0.3245E+02
     -0.007  0.5582E+01  0.3305E+02
      0.100  0.5414E+01  0.3364E+02
      0.208  0.7322E+01  0.3442E+02
      0.315  0.8286E+01  0.3532E+02
      0.423  0.9306E+01  0.3632E+02
      0.530  0.8247E+01  0.3720E+02
      0.638  0.4629E+01  0.3770E+02
      0.745  0.1323E+01  0.3784E+02
      0.853  0.3292E+01  0.3820E+02
      0.960  0.2941E+01  0.3851E+02
      1.068  0.5510E+01  0.3911E+02
      1.175  0.3979E+01  0.3953E+02
      1.283  0.3611E+01  0.3992E+02
      1.390  0.4396E+01  0.4039E+02
      1.498  0.4343E+01  0.4086E+02
      1.605  0.3093E+01  0.4119E+02
      1.713  0.3515E+01  0.4157E+02
      1.821  0.2572E+01  0.4185E+02
      1.928  0.2086E+01  0.4207E+02
      2.036  0.2684E+01  0.4236E+02
      2.143  0.2912E+01  0.4267E+02
      2.251  0.1718E+01  0.4286E+02
      2.358  0.9743E+00  0.4296E+02
      2.466  0.1557E+01  0.4313E+02
      2.573  0.1895E+01  0.4333E+02
      2.681  0.1222E+01  0.4347E+02
      2.788  0.1236E+01  0.4360E+02
      2.896  0.7600E+00  0.4368E+02
      3.003  0.3407E+00  0.4372E+02
      3.111  0.6398E+00  0.4379E+02
      3.218  0.4932E+00  0.4384E+02
      3.326  0.7352E-02  0.4384E+02
      3.433  0.5200E-07  0.4384E+02
      3.541  0.8103E-13  0.4384E+02
      3.649  0.3953E-05  0.4384E+02
      3.756  0.3588E-01  0.4384E+02
      3.864  0.6332E+00  0.4391E+02
      3.971  0.7713E+00  0.4399E+02
      4.079  0.4751E-01  0.4400E+02
      4.186  0.9943E-04  0.4400E+02
      4.294  0.8311E-01  0.4401E+02
      4.401  0.2915E+00  0.4404E+02
      4.509  0.2693E+00  0.4407E+02
      4.616  0.6478E+00  0.4414E+02
      4.724  0.7624E+00  0.4422E+02
      4.831  0.7759E+00  0.4430E+02
      4.939  0.8384E+00  0.4439E+02
      5.046  0.1532E+01  0.4456E+02
      5.154  0.1112E+01  0.4468E+02
      5.261  0.1305E+01  0.4482E+02
      5.369  0.1926E+01  0.4503E+02
      5.476  0.1907E+01  0.4523E+02
      5.584  0.1801E+01  0.4542E+02
      5.692  0.3758E+01  0.4583E+02
      5.799  0.3670E+01  0.4622E+02
      5.907  0.3427E+01  0.4659E+02
      6.014  0.2221E+01  0.4683E+02
      6.122  0.6950E+01  0.4758E+02
      6.229  0.5323E+01  0.4815E+02
      6.337  0.4301E+01  0.4861E+02
      6.444  0.3696E+01  0.4901E+02
      6.552  0.3738E+01  0.4941E+02
      6.659  0.3051E+01  0.4974E+02
      6.767  0.4462E+01  0.5022E+02
      6.874  0.3732E+01  0.5062E+02
      6.982  0.4574E+01  0.5111E+02
      7.089  0.4840E+01  0.5163E+02
      7.197  0.5424E+01  0.5222E+02
      7.304  0.5011E+01  0.5276E+02
      7.412  0.4386E+01  0.5323E+02
      7.520  0.3285E+01  0.5358E+02
      7.627  0.3748E+01  0.5398E+02
      7.735  0.4536E+01  0.5447E+02
      7.842  0.5389E+01  0.5505E+02
      7.950  0.1827E+01  0.5525E+02
      8.057  0.2472E+01  0.5551E+02
      8.165  0.4332E+01  0.5598E+02
      8.272  0.2949E+01  0.5630E+02
      8.380  0.4125E+01  0.5674E+02
      8.487  0.3057E+01  0.5707E+02
      8.595  0.4119E+01  0.5751E+02
      8.702  0.7202E+01  0.5829E+02
      8.810  0.4966E+01  0.5882E+02
      8.917  0.4316E+01  0.5928E+02
      9.025  0.4864E+01  0.5981E+02
      9.132  0.5283E+01  0.6037E+02
      9.240  0.4886E+01  0.6090E+02
      9.348  0.4030E+01  0.6133E+02
      9.455  0.4034E+01  0.6177E+02
      9.563  0.3478E+01  0.6214E+02
      9.670  0.5758E+01  0.6276E+02
      9.778  0.6589E+01  0.6347E+02
      9.885  0.5344E+01  0.6404E+02
      9.993  0.6693E+01  0.6476E+02
     10.100  0.3083E+01  0.6509E+02
     10.208  0.2543E+01  0.6537E+02
     10.315  0.4747E+01  0.6588E+02
     10.423  0.6362E+01  0.6656E+02
     10.530  0.4703E+01  0.6707E+02
     10.638  0.4605E+01  0.6756E+02
     10.745  0.4239E+01  0.6802E+02
     10.853  0.3883E+01  0.6844E+02
     10.960  0.2842E+01  0.6874E+02
     11.068  0.4214E+01  0.6920E+02
     11.175  0.6300E+01  0.6987E+02
     11.283  0.6714E+01  0.7059E+02
     11.391  0.4992E+01  0.7113E+02
     11.498  0.4589E+01  0.7163E+02
     11.606  0.5284E+01  0.7219E+02
     11.713  0.6554E+01  0.7290E+02
     11.821  0.4726E+01  0.7341E+02
     11.928  0.6348E+01  0.7409E+02
     12.036  0.5152E+01  0.7464E+02
     12.143  0.4471E+01  0.7512E+02
     12.251  0.6192E+01  0.7579E+02
     12.358  0.3946E+01  0.7621E+02
     12.466  0.6586E+01  0.7692E+02
     12.573  0.6601E+01  0.7763E+02
     12.681  0.5392E+01  0.7821E+02
     12.788  0.4087E+01  0.7865E+02
     12.896  0.7320E+01  0.7944E+02
     13.003  0.7058E+01  0.8020E+02
     13.111  0.5169E+01  0.8075E+02
     13.219  0.5865E+01  0.8138E+02
     13.326  0.5612E+01  0.8199E+02
     13.434  0.5935E+01  0.8262E+02
     13.541  0.5649E+01  0.8323E+02
     13.649  0.3677E+01  0.8363E+02
     13.756  0.5346E+01  0.8420E+02
     13.864  0.5820E+01  0.8483E+02
     13.971  0.7547E+01  0.8564E+02
     14.079  0.5724E+01  0.8626E+02
     14.186  0.6786E+01  0.8699E+02
     14.294  0.4642E+01  0.8748E+02
     14.401  0.3620E+01  0.8787E+02
     14.509  0.5321E+01  0.8845E+02
     14.616  0.4862E+01  0.8897E+02
     14.724  0.3676E+01  0.8936E+02
     14.831  0.2584E+01  0.8964E+02
     14.939  0.6216E+01  0.9031E+02
     15.046  0.7382E+01  0.9110E+02
     15.154  0.5583E+01  0.9170E+02
     15.262  0.4349E+01  0.9217E+02
     15.369  0.6843E+01  0.9291E+02
     15.477  0.5655E+01  0.9352E+02
     15.584  0.5792E+01  0.9414E+02
     15.692  0.5825E+01  0.9476E+02
     15.799  0.2718E+01  0.9506E+02
     15.907  0.1461E+01  0.9521E+02
     16.014  0.2734E+01  0.9551E+02
     16.122  0.1264E+01  0.9564E+02
     16.229  0.1004E+01  0.9575E+02
     16.337  0.1004E+01  0.9586E+02
     16.444  0.6694E+00  0.9593E+02
     16.552  0.4523E+00  0.9598E+02
     16.659  0.1774E+00  0.9600E+02
     16.767  0.2930E-02  0.9600E+02
     16.874  0.3439E-07  0.9600E+02
     16.982  0.5900E-16  0.9600E+02
     17.090  0.0000E+00  0.9600E+02
     17.197  0.0000E+00  0.9600E+02
     17.305  0.0000E+00  0.9600E+02
     17.412  0.0000E+00  0.9600E+02
     17.520  0.0000E+00  0.9600E+02
     17.627  0.0000E+00  0.9600E+02
     17.735  0.0000E+00  0.9600E+02
     17.842  0.0000E+00  0.9600E+02
     17.950  0.0000E+00  0.9600E+02
     18.057  0.0000E+00  0.9600E+02
