   14   14    1    1
  0.1021960E+02  0.5697000E-09  0.4047900E-09  0.6204200E-09  0.5000000E-15
  1.000000000000000E-004
  CAR 
 Kpoints                                 
     42     36     48
 
  0.0000000E+00  0.0000000E+00  0.0000000E+00  0.5714286E-02
      1        -12.734856   1.000000
      2        -11.578740   1.000000
      3         -8.660887   1.000000
      4         -8.425224   1.000000
      5         -6.079071   1.000000
      6         -5.057878   1.000000
      7         -4.636619   1.000000
      8         -4.351176   1.000000
      9         -3.972162   1.000000
     10         -3.599268   1.000000
     11         -2.447257   1.000000
     12         -2.269832   1.000000
     13         -2.182827   1.000000
     14         -1.053300   1.000000
     15         -0.036204   1.000000
     16          0.000254   1.000000
     17          0.149155   1.000000
     18          0.173712   1.000000
     19          0.564794   1.000000
     20          2.078605   0.000000
     21          2.128477   0.000000
     22          2.213479   0.000000
     23          5.407508   0.000000
     24          5.800044   0.000000
     25          5.821966   0.000000
     26          5.912796   0.000000
     27          6.781115   0.000000
     28          7.664607   0.000000
     29          7.701209   0.000000
     30          8.633585   0.000000
     31          8.751862   0.000000
     32          8.851832   0.000000
     33          9.042486   0.000000
     34         10.026263   0.000000
     35         11.145950   0.000000
     36         11.402282   0.000000
     37         11.774647   0.000000
     38         11.802485   0.000000
     39         11.900186   0.000000
     40         12.356881   0.000000
     41         12.804319   0.000000
     42         13.391339   0.000000
     43         13.571567   0.000000
     44         15.555356   0.000000
     45         15.567056   0.000000
     46         15.938588   0.000000
     47         16.357660   0.000000
     48         16.590983   0.000000
 
  0.2000000E+00  0.0000000E+00  0.0000000E+00  0.1142857E-01
      1        -12.647850   1.000000
      2        -11.722329   1.000000
      3         -8.618608   1.000000
      4         -8.404240   1.000000
      5         -5.974368   1.000000
      6         -5.645816   1.000000
      7         -4.800246   1.000000
      8         -3.849881   1.000000
      9         -3.558502   1.000000
     10         -2.980687   1.000000
     11         -2.441303   1.000000
     12         -2.407055   1.000000
     13         -2.293181   1.000000
     14         -1.639258   1.000000
     15         -0.083967   1.000000
     16          0.048088   1.000000
     17          0.124342   1.000000
     18          0.182944   1.000000
     19          0.416845   1.000000
     20          1.911973   0.355867
     21          1.976469   0.014127
     22          1.978376   0.012298
     23          5.566918   0.000000
     24          5.714987   0.000000
     25          6.014553   0.000000
     26          6.572070   0.000000
     27          6.621776   0.000000
     28          6.976547   0.000000
     29          8.129609   0.000000
     30          8.869918   0.000000
     31          9.006419   0.000000
     32          9.344546   0.000000
     33          9.358214   0.000000
     34         10.322766   0.000000
     35         10.655879   0.000000
     36         10.838557   0.000000
     37         11.292981   0.000000
     38         11.705812   0.000000
     39         12.281145   0.000000
     40         12.568434   0.000000
     41         12.898482   0.000000
     42         13.107734   0.000000
     43         14.410029   0.000000
     44         14.745506   0.000000
     45         15.499404   0.000000
     46         15.945976   0.000000
     47         16.251319   0.000000
     48         16.544012   0.000000
 
  0.4000000E+00  0.0000000E+00  0.0000000E+00  0.1142857E-01
      1        -12.402596   1.000000
      2        -12.054775   1.000000
      3         -8.499243   1.000000
      4         -8.401326   1.000000
      5         -6.106428   1.000000
      6         -6.105675   1.000000
      7         -4.173687   1.000000
      8         -3.499304   1.000000
      9         -3.025701   1.000000
     10         -2.980617   1.000000
     11         -2.543427   1.000000
     12         -2.383618   1.000000
     13         -2.119617   1.000000
     14         -2.040242   1.000000
     15         -0.659079   1.000000
     16         -0.428556   1.000000
     17          0.238342   1.000000
     18          0.300407   1.000000
     19          0.736902   1.000000
     20          1.363058   1.000000
     21          1.643095   1.000000
     22          1.693771   1.000000
     23          5.678752   0.000000
     24          5.729078   0.000000
     25          6.431821   0.000000
     26          6.555427   0.000000
     27          7.048236   0.000000
     28          7.758122   0.000000
     29          8.389978   0.000000
     30          8.467801   0.000000
     31          8.686100   0.000000
     32          9.183881   0.000000
     33         10.297752   0.000000
     34         10.332781   0.000000
     35         10.551355   0.000000
     36         11.356161   0.000000
     37         11.523680   0.000000
     38         11.654131   0.000000
     39         11.914504   0.000000
     40         12.401300   0.000000
     41         12.522339   0.000000
     42         13.331521   0.000000
     43         14.545028   0.000000
     44         14.918018   0.000000
     45         14.998851   0.000000
     46         15.144550   0.000000
     47         15.801812   0.000000
     48         16.454860   0.000000
 
  0.0000000E+00  0.1428571E+00  0.0000000E+00  0.1142857E-01
      1        -12.687640   1.000000
      2        -11.536381   1.000000
      3         -8.624141   1.000000
      4         -8.379690   1.000000
      5         -6.026889   1.000000
      6         -4.984252   1.000000
      7         -4.860881   1.000000
      8         -4.592569   1.000000
      9         -4.256978   1.000000
     10         -3.626023   1.000000
     11         -3.539235   1.000000
     12         -1.499691   1.000000
     13         -1.044367   1.000000
     14         -0.619988   1.000000
     15         -0.452641   1.000000
     16         -0.450271   1.000000
     17          0.174294   1.000000
     18          0.295049   1.000000
     19          0.700929   1.000000
     20          1.576376   1.000000
     21          1.652460   1.000000
     22          2.307501   0.000000
     23          5.497690   0.000000
     24          5.500638   0.000000
     25          5.882992   0.000000
     26          6.109784   0.000000
     27          7.319448   0.000000
     28          7.819799   0.000000
     29          8.139620   0.000000
     30          8.398412   0.000000
     31          8.747315   0.000000
     32          9.171857   0.000000
     33          9.199410   0.000000
     34         10.831589   0.000000
     35         11.312815   0.000000
     36         11.544538   0.000000
     37         11.648220   0.000000
     38         12.001927   0.000000
     39         12.122681   0.000000
     40         12.753321   0.000000
     41         12.879674   0.000000
     42         12.967389   0.000000
     43         13.064628   0.000000
     44         15.044880   0.000000
     45         15.432910   0.000000
     46         15.580927   0.000000
     47         15.625676   0.000000
     48         16.091605   0.000000
 
  0.2000000E+00  0.1428571E+00  0.0000000E+00  0.2285714E-01
      1        -12.601019   1.000000
      2        -11.679403   1.000000
      3         -8.581283   1.000000
      4         -8.360147   1.000000
      5         -5.915326   1.000000
      6         -5.587300   1.000000
      7         -4.764140   1.000000
      8         -4.727101   1.000000
      9         -3.749638   1.000000
     10         -3.468300   1.000000
     11         -2.924167   1.000000
     12         -1.626637   1.000000
     13         -1.456597   1.000000
     14         -0.949816   1.000000
     15         -0.377594   1.000000
     16         -0.193714   1.000000
     17          0.068194   1.000000
     18          0.259145   1.000000
     19          0.506873   1.000000
     20          1.424328   1.000000
     21          1.509871   1.000000
     22          2.043259   0.000022
     23          5.653838   0.000000
     24          6.011175   0.000000
     25          6.072875   0.000000
     26          6.187601   0.000000
     27          7.168859   0.000000
     28          7.633412   0.000000
     29          8.102805   0.000000
     30          8.636150   0.000000
     31          9.191105   0.000000
     32          9.423930   0.000000
     33          9.750628   0.000000
     34         10.327817   0.000000
     35         10.544837   0.000000
     36         10.977035   0.000000
     37         11.608778   0.000000
     38         12.137099   0.000000
     39         12.391972   0.000000
     40         12.535705   0.000000
     41         13.082180   0.000000
     42         13.175393   0.000000
     43         13.848458   0.000000
     44         14.920447   0.000000
     45         15.018536   0.000000
     46         15.465167   0.000000
     47         15.640568   0.000000
     48         16.298156   0.000000
 
  0.4000000E+00  0.1428571E+00  0.0000000E+00  0.2285714E-01
      1        -12.356820   1.000000
      2        -12.010483   1.000000
      3         -8.460928   1.000000
      4         -8.360674   1.000000
      5         -6.043308   1.000000
      6         -6.042179   1.000000
      7         -4.449088   1.000000
      8         -4.148108   1.000000
      9         -4.074151   1.000000
     10         -2.988974   1.000000
     11         -2.250885   1.000000
     12         -2.001529   1.000000
     13         -1.340873   1.000000
     14         -1.285809   1.000000
     15         -0.566368   1.000000
     16         -0.481450   1.000000
     17          0.029269   1.000000
     18          0.065863   1.000000
     19          0.755651   1.000000
     20          1.173758   1.000000
     21          1.238640   1.000000
     22          1.396365   1.000000
     23          6.020305   0.000000
     24          6.180882   0.000000
     25          6.698868   0.000000
     26          7.018926   0.000000
     27          7.025524   0.000000
     28          7.637630   0.000000
     29          8.054817   0.000000
     30          8.835600   0.000000
     31          8.871894   0.000000
     32          9.001737   0.000000
     33         10.016908   0.000000
     34         10.392562   0.000000
     35         10.752563   0.000000
     36         10.968023   0.000000
     37         11.627204   0.000000
     38         11.755553   0.000000
     39         12.007721   0.000000
     40         12.899311   0.000000
     41         12.988772   0.000000
     42         13.715644   0.000000
     43         14.480730   0.000000
     44         14.667342   0.000000
     45         14.932863   0.000000
     46         15.143814   0.000000
     47         15.872342   0.000000
     48         16.419838   0.000000
 
  0.0000000E+00  0.2857143E+00  0.0000000E+00  0.1142857E-01
      1        -12.575006   1.000000
      2        -11.435786   1.000000
      3         -8.538360   1.000000
      4         -8.271311   1.000000
      5         -5.902057   1.000000
      6         -5.841988   1.000000
      7         -4.802087   1.000000
      8         -4.657202   1.000000
      9         -4.479806   1.000000
     10         -4.197370   1.000000
     11         -3.423735   1.000000
     12         -1.372615   1.000000
     13         -1.176250   1.000000
     14         -1.024041   1.000000
     15          0.080513   1.000000
     16          0.236982   1.000000
     17          0.385598   1.000000
     18          0.704742   1.000000
     19          0.793712   1.000000
     20          0.832374   1.000000
     21          1.053727   1.000000
     22          2.376875   0.000000
     23          4.780203   0.000000
     24          4.973348   0.000000
     25          6.430170   0.000000
     26          6.777369   0.000000
     27          7.121476   0.000000
     28          8.147531   0.000000
     29          8.690719   0.000000
     30          9.400443   0.000000
     31          9.625042   0.000000
     32          9.736886   0.000000
     33          9.932528   0.000000
     34         10.721970   0.000000
     35         11.358726   0.000000
     36         11.941898   0.000000
     37         12.212418   0.000000
     38         12.359814   0.000000
     39         12.380245   0.000000
     40         12.419493   0.000000
     41         12.600966   0.000000
     42         12.907069   0.000000
     43         13.376182   0.000000
     44         14.200106   0.000000
     45         14.229657   0.000000
     46         14.997815   0.000000
     47         15.518596   0.000000
     48         15.985206   0.000000
 
  0.2000000E+00  0.2857143E+00  0.0000000E+00  0.2285714E-01
      1        -12.489327   1.000000
      2        -11.577424   1.000000
      3         -8.494066   1.000000
      4         -8.255521   1.000000
      5         -5.772748   1.000000
      6         -5.758891   1.000000
      7         -5.405682   1.000000
      8         -4.787291   1.000000
      9         -4.672552   1.000000
     10         -3.354466   1.000000
     11         -2.803873   1.000000
     12         -1.600798   1.000000
     13         -1.278818   1.000000
     14         -1.179392   1.000000
     15          0.004734   1.000000
     16          0.104646   1.000000
     17          0.335297   1.000000
     18          0.545833   1.000000
     19          0.578954   1.000000
     20          0.815574   1.000000
     21          1.021661   1.000000
     22          2.103859   0.000000
     23          5.021545   0.000000
     24          5.572829   0.000000
     25          6.348293   0.000000
     26          7.006329   0.000000
     27          7.369715   0.000000
     28          8.113334   0.000000
     29          8.836849   0.000000
     30          9.439492   0.000000
     31          9.472792   0.000000
     32          9.808228   0.000000
     33         10.205397   0.000000
     34         10.223693   0.000000
     35         10.631724   0.000000
     36         11.622705   0.000000
     37         11.760307   0.000000
     38         12.352963   0.000000
     39         12.577851   0.000000
     40         12.756330   0.000000
     41         13.046267   0.000000
     42         13.405692   0.000000
     43         13.427065   0.000000
     44         14.130809   0.000000
     45         14.219009   0.000000
     46         15.024377   0.000000
     47         15.468904   0.000000
     48         15.817082   0.000000
 
  0.4000000E+00  0.2857143E+00  0.0000000E+00  0.2285714E-01
      1        -12.247753   1.000000
      2        -11.905112   1.000000
      3         -8.371065   1.000000
      4         -8.264776   1.000000
      5         -5.897269   1.000000
      6         -5.885981   1.000000
      7         -5.456236   1.000000
      8         -5.103986   1.000000
      9         -4.080179   1.000000
     10         -2.926773   1.000000
     11         -2.133258   1.000000
     12         -1.902021   1.000000
     13         -1.110072   1.000000
     14         -1.099659   1.000000
     15         -0.554142   1.000000
     16         -0.401406   1.000000
     17          0.098653   1.000000
     18          0.217173   1.000000
     19          0.794936   1.000000
     20          0.858041   1.000000
     21          0.942154   1.000000
     22          1.439760   1.000000
     23          6.058920   0.000000
     24          6.448401   0.000000
     25          6.722053   0.000000
     26          6.847554   0.000000
     27          7.315618   0.000000
     28          7.950123   0.000000
     29          8.839913   0.000000
     30          8.895875   0.000000
     31          9.282344   0.000000
     32          9.868832   0.000000
     33         10.004220   0.000000
     34         10.246682   0.000000
     35         10.821057   0.000000
     36         11.437970   0.000000
     37         11.822569   0.000000
     38         12.171783   0.000000
     39         12.192045   0.000000
     40         13.018762   0.000000
     41         13.180165   0.000000
     42         13.489991   0.000000
     43         13.883843   0.000000
     44         13.949764   0.000000
     45         14.914794   0.000000
     46         15.066013   0.000000
     47         15.402718   0.000000
     48         15.971215   0.000000
 
  0.0000000E+00  0.4285714E+00  0.0000000E+00  0.1142857E-01
      1        -12.477016   1.000000
      2        -11.348864   1.000000
      3         -8.466067   1.000000
      4         -8.176918   1.000000
      5         -6.413623   1.000000
      6         -5.791354   1.000000
      7         -5.226565   1.000000
      8         -4.634184   1.000000
      9         -4.368914   1.000000
     10         -4.130218   1.000000
     11         -3.310339   1.000000
     12         -1.845664   1.000000
     13         -1.687538   1.000000
     14         -1.007355   1.000000
     15          0.185456   1.000000
     16          0.204447   1.000000
     17          0.257530   1.000000
     18          0.442390   1.000000
     19          0.835733   1.000000
     20          1.096351   1.000000
     21          2.192549   0.000000
     22          2.425425   0.000000
     23          4.303503   0.000000
     24          4.611447   0.000000
     25          6.577594   0.000000
     26          6.953410   0.000000
     27          7.365822   0.000000
     28          8.520985   0.000000
     29          8.561976   0.000000
     30          9.826772   0.000000
     31         10.182538   0.000000
     32         10.352605   0.000000
     33         10.697872   0.000000
     34         11.058262   0.000000
     35         11.075733   0.000000
     36         11.192161   0.000000
     37         11.934354   0.000000
     38         12.322193   0.000000
     39         12.330607   0.000000
     40         12.987031   0.000000
     41         13.177998   0.000000
     42         13.532111   0.000000
     43         13.665724   0.000000
     44         14.296170   0.000000
     45         15.117053   0.000000
     46         15.301817   0.000000
     47         15.335354   0.000000
     48         15.601692   0.000000
 
  0.2000000E+00  0.4285714E+00  0.0000000E+00  0.2285714E-01
      1        -12.392218   1.000000
      2        -11.489260   1.000000
      3         -8.420374   1.000000
      4         -8.164820   1.000000
      5         -6.317731   1.000000
      6         -5.643381   1.000000
      7         -5.357686   1.000000
      8         -5.284729   1.000000
      9         -4.588907   1.000000
     10         -3.240806   1.000000
     11         -2.680252   1.000000
     12         -1.767409   1.000000
     13         -1.662419   1.000000
     14         -1.557165   1.000000
     15         -0.060531   1.000000
     16          0.010296   1.000000
     17          0.157483   1.000000
     18          0.351095   1.000000
     19          0.598951   1.000000
     20          1.314977   1.000000
     21          2.121554   0.000000
     22          2.152794   0.000000
     23          4.584461   0.000000
     24          5.173656   0.000000
     25          6.503804   0.000000
     26          7.148576   0.000000
     27          7.609615   0.000000
     28          8.621732   0.000000
     29          8.999328   0.000000
     30          9.112316   0.000000
     31          9.692274   0.000000
     32         10.246533   0.000000
     33         10.424532   0.000000
     34         11.191981   0.000000
     35         11.199233   0.000000
     36         11.715104   0.000000
     37         12.012505   0.000000
     38         12.254280   0.000000
     39         12.457283   0.000000
     40         12.878042   0.000000
     41         13.171342   0.000000
     42         13.365828   0.000000
     43         13.677351   0.000000
     44         14.060204   0.000000
     45         14.631823   0.000000
     46         14.890405   0.000000
     47         15.048493   0.000000
     48         15.437749   0.000000
 
  0.4000000E+00  0.4285714E+00  0.0000000E+00  0.2285714E-01
      1        -12.153111   1.000000
      2        -11.813859   1.000000
      3         -8.294738   1.000000
      4         -8.182576   1.000000
      5         -6.054029   1.000000
      6         -5.751328   1.000000
      7         -5.733938   1.000000
      8         -5.667619   1.000000
      9         -4.020352   1.000000
     10         -2.862794   1.000000
     11         -1.999660   1.000000
     12         -1.766849   1.000000
     13         -1.583563   1.000000
     14         -1.527049   1.000000
     15         -0.533075   1.000000
     16         -0.399410   1.000000
     17         -0.306524   1.000000
     18         -0.226941   1.000000
     19          0.833224   1.000000
     20          1.479407   1.000000
     21          1.655648   1.000000
     22          1.935663   0.149265
     23          5.630099   0.000000
     24          6.300920   0.000000
     25          6.713187   0.000000
     26          6.933012   0.000000
     27          7.224755   0.000000
     28          7.687941   0.000000
     29          9.080304   0.000000
     30          9.772233   0.000000
     31          9.802617   0.000000
     32          9.848680   0.000000
     33         10.526763   0.000000
     34         10.917842   0.000000
     35         11.846284   0.000000
     36         11.898507   0.000000
     37         11.963586   0.000000
     38         12.057899   0.000000
     39         12.274359   0.000000
     40         12.651351   0.000000
     41         12.914305   0.000000
     42         13.255378   0.000000
     43         13.850930   0.000000
     44         13.939796   0.000000
     45         14.437769   0.000000
     46         14.610591   0.000000
     47         15.064165   0.000000
     48         15.675112   0.000000
 
  0.0000000E+00  0.0000000E+00  0.2000000E+00  0.1142857E-01
      1        -12.701820   1.000000
      2        -11.640519   1.000000
      3         -8.643100   1.000000
      4         -8.326058   1.000000
      5         -6.418530   1.000000
      6         -5.451040   1.000000
      7         -4.137404   1.000000
      8         -3.956430   1.000000
      9         -3.907560   1.000000
     10         -3.251771   1.000000
     11         -2.417097   1.000000
     12         -2.380480   1.000000
     13         -2.291080   1.000000
     14         -1.204329   1.000000
     15         -0.525490   1.000000
     16          0.032103   1.000000
     17          0.084414   1.000000
     18          0.216791   1.000000
     19          0.235016   1.000000
     20          1.873980   0.759617
     21          1.916364   0.310751
     22          2.949569   0.000000
     23          5.367749   0.000000
     24          5.392110   0.000000
     25          5.906025   0.000000
     26          6.324234   0.000000
     27          7.010994   0.000000
     28          7.363812   0.000000
     29          7.756811   0.000000
     30          8.789153   0.000000
     31          8.971557   0.000000
     32          9.229633   0.000000
     33          9.443336   0.000000
     34         10.355920   0.000000
     35         10.707390   0.000000
     36         11.077869   0.000000
     37         11.268728   0.000000
     38         11.884861   0.000000
     39         11.949675   0.000000
     40         12.571024   0.000000
     41         12.819055   0.000000
     42         13.231954   0.000000
     43         14.417235   0.000000
     44         14.873804   0.000000
     45         15.059655   0.000000
     46         15.494788   0.000000
     47         15.619359   0.000000
     48         16.432649   0.000000
 
  0.2000000E+00  0.0000000E+00  0.2000000E+00  0.2285714E-01
      1        -12.617679   1.000000
      2        -11.761607   1.000000
      3         -8.710841   1.000000
      4         -8.302807   1.000000
      5         -6.315901   1.000000
      6         -5.350120   1.000000
      7         -4.684308   1.000000
      8         -3.789162   1.000000
      9         -3.459496   1.000000
     10         -2.705196   1.000000
     11         -2.550491   1.000000
     12         -2.366658   1.000000
     13         -2.320611   1.000000
     14         -1.723999   1.000000
     15         -0.383095   1.000000
     16         -0.252112   1.000000
     17         -0.169425   1.000000
     18          0.250768   1.000000
     19          0.485024   1.000000
     20          1.517153   1.000000
     21          2.263488   0.000000
     22          2.389240   0.000000
     23          5.311084   0.000000
     24          5.898222   0.000000
     25          6.164291   0.000000
     26          6.605528   0.000000
     27          6.691269   0.000000
     28          6.960264   0.000000
     29          8.092432   0.000000
     30          8.838139   0.000000
     31          9.235591   0.000000
     32          9.468582   0.000000
     33         10.049578   0.000000
     34         10.062687   0.000000
     35         10.527938   0.000000
     36         10.643743   0.000000
     37         11.059106   0.000000
     38         11.756605   0.000000
     39         12.129546   0.000000
     40         12.775669   0.000000
     41         13.265107   0.000000
     42         13.937880   0.000000
     43         14.083403   0.000000
     44         14.215853   0.000000
     45         15.227816   0.000000
     46         15.391313   0.000000
     47         15.604228   0.000000
     48         16.172127   0.000000
 
  0.4000000E+00  0.0000000E+00  0.2000000E+00  0.2285714E-01
      1        -12.382695   1.000000
      2        -12.057598   1.000000
      3         -8.657729   1.000000
      4         -8.449540   1.000000
      5         -6.065305   1.000000
      6         -5.600384   1.000000
      7         -4.344648   1.000000
      8         -3.454720   1.000000
      9         -3.218584   1.000000
     10         -2.982657   1.000000
     11         -2.588937   1.000000
     12         -2.381552   1.000000
     13         -2.285962   1.000000
     14         -1.833960   1.000000
     15         -0.634877   1.000000
     16         -0.200107   1.000000
     17         -0.119014   1.000000
     18          0.225139   1.000000
     19          0.341533   1.000000
     20          1.274253   1.000000
     21          1.760877   0.999953
     22          2.164625   0.000000
     23          5.644942   0.000000
     24          6.073773   0.000000
     25          6.391903   0.000000
     26          6.688355   0.000000
     27          7.071116   0.000000
     28          7.327102   0.000000
     29          8.351849   0.000000
     30          8.607607   0.000000
     31          8.672844   0.000000
     32          8.876694   0.000000
     33          9.760654   0.000000
     34         10.350725   0.000000
     35         10.884319   0.000000
     36         11.434615   0.000000
     37         11.838072   0.000000
     38         12.156201   0.000000
     39         12.213703   0.000000
     40         12.508080   0.000000
     41         13.339087   0.000000
     42         13.486054   0.000000
     43         14.017701   0.000000
     44         14.330954   0.000000
     45         15.020388   0.000000
     46         15.372906   0.000000
     47         15.498429   0.000000
     48         15.643955   0.000000
 
  0.0000000E+00  0.1428571E+00  0.2000000E+00  0.2285714E-01
      1        -12.655081   1.000000
      2        -11.597145   1.000000
      3         -8.606986   1.000000
      4         -8.282152   1.000000
      5         -6.367083   1.000000
      6         -5.383142   1.000000
      7         -4.784865   1.000000
      8         -4.087997   1.000000
      9         -3.883866   1.000000
     10         -3.718265   1.000000
     11         -3.182505   1.000000
     12         -1.481737   1.000000
     13         -1.194371   1.000000
     14         -0.868463   1.000000
     15         -0.512091   1.000000
     16         -0.344650   1.000000
     17         -0.135696   1.000000
     18          0.241292   1.000000
     19          0.309200   1.000000
     20          1.414973   1.000000
     21          1.455894   1.000000
     22          3.017358   0.000000
     23          5.528624   0.000000
     24          5.577298   0.000000
     25          5.854591   0.000000
     26          6.082828   0.000000
     27          7.639878   0.000000
     28          8.003067   0.000000
     29          8.212124   0.000000
     30          8.294754   0.000000
     31          8.945753   0.000000
     32          9.302974   0.000000
     33          9.546530   0.000000
     34         10.515835   0.000000
     35         10.751117   0.000000
     36         11.273726   0.000000
     37         11.386893   0.000000
     38         12.132217   0.000000
     39         12.168290   0.000000
     40         12.552837   0.000000
     41         13.027578   0.000000
     42         13.278335   0.000000
     43         13.907401   0.000000
     44         14.818300   0.000000
     45         15.041411   0.000000
     46         15.212571   0.000000
     47         15.591577   0.000000
     48         16.095489   0.000000
 
  0.2000000E+00  0.1428571E+00  0.2000000E+00  0.4571429E-01
      1        -12.571274   1.000000
      2        -11.718053   1.000000
      3         -8.670582   1.000000
      4         -8.262270   1.000000
      5         -6.257907   1.000000
      6         -5.288824   1.000000
      7         -4.720096   1.000000
      8         -4.598167   1.000000