       N       E                     dE             d eps       ncg     rms          rms(c)
DAV:   1     0.802578534013E+01    0.80258E+01   -0.34436E+02  8400   0.397E+01
DAV:   2     0.105766134598E+00   -0.79200E+01   -0.78858E+01 16512   0.573E+00
DAV:   3    -0.548817848881E-01   -0.16065E+00   -0.13836E+00  8544   0.146E+00
DAV:   4    -0.582160456170E-01   -0.33343E-02   -0.31788E-02  9816   0.178E-01
DAV:   5    -0.582522177314E-01   -0.36172E-04   -0.36155E-04 13272   0.206E-02    0.848E-03
DAV:   6    -0.582526337653E-01   -0.41603E-06   -0.26603E-06 11304   0.338E-03
   1 F= -.58252634E-01 E0= -.31751963E-01  d E =-.530013E-01
