   1   1   0   0
  0.3365896E+04  0.1498650E-08  0.1248875E-08  0.1798380E-08  0.5000000E-15
  1.000000000000000E-004
  CAR 
 Convergence                             
      2.49752675     -9.97682869  301     -3.60710650      1.00000000
     -9.977  0.0000E+00  0.0000E+00
     -9.935  0.0000E+00  0.0000E+00
     -9.894  0.0000E+00  0.0000E+00
     -9.852  0.0000E+00  0.0000E+00
     -9.811  0.0000E+00  0.0000E+00
     -9.769  0.0000E+00  0.0000E+00
     -9.727  0.0000E+00  0.0000E+00
     -9.686  0.1442E-12  0.5995E-14
     -9.644  0.8132E-09  0.3382E-10
     -9.603  0.1192E-05  0.4958E-07
     -9.561  0.4549E-03  0.1897E-04
     -9.519  0.4599E-01  0.1931E-02
     -9.478  0.1259E+01  0.5429E-01
     -9.436  0.9618E+01  0.4542E+00
     -9.395  0.2109E+02  0.1331E+01
     -9.353  0.1347E+02  0.1891E+01
     -9.312  0.2485E+01  0.1995E+01
     -9.270  0.1290E+00  0.2000E+01
     -9.228  0.1827E-02  0.2000E+01
     -9.187  0.6887E-05  0.2000E+01
     -9.145  0.6791E-08  0.2000E+01
     -9.104  0.1730E-11  0.2000E+01
     -9.062  0.0000E+00  0.2000E+01
     -9.020  0.0000E+00  0.2000E+01
     -8.979  0.0000E+00  0.2000E+01
     -8.937  0.0000E+00  0.2000E+01
     -8.896  0.0000E+00  0.2000E+01
     -8.854  0.0000E+00  0.2000E+01
     -8.813  0.0000E+00  0.2000E+01
     -8.771  0.0000E+00  0.2000E+01
     -8.729  0.0000E+00  0.2000E+01
     -8.688  0.0000E+00  0.2000E+01
     -8.646  0.0000E+00  0.2000E+01
     -8.605  0.0000E+00  0.2000E+01
     -8.563  0.0000E+00  0.2000E+01
     -8.521  0.0000E+00  0.2000E+01
     -8.480  0.0000E+00  0.2000E+01
     -8.438  0.0000E+00  0.2000E+01
     -8.397  0.0000E+00  0.2000E+01
     -8.355  0.0000E+00  0.2000E+01
     -8.314  0.0000E+00  0.2000E+01
     -8.272  0.0000E+00  0.2000E+01
     -8.230  0.0000E+00  0.2000E+01
     -8.189  0.0000E+00  0.2000E+01
     -8.147  0.0000E+00  0.2000E+01
     -8.106  0.0000E+00  0.2000E+01
     -8.064  0.0000E+00  0.2000E+01
     -8.023  0.0000E+00  0.2000E+01
     -7.981  0.0000E+00  0.2000E+01
     -7.939  0.0000E+00  0.2000E+01
     -7.898  0.0000E+00  0.2000E+01
     -7.856  0.0000E+00  0.2000E+01
     -7.815  0.0000E+00  0.2000E+01
     -7.773  0.0000E+00  0.2000E+01
     -7.731  0.0000E+00  0.2000E+01
     -7.690  0.0000E+00  0.2000E+01
     -7.648  0.0000E+00  0.2000E+01
     -7.607  0.0000E+00  0.2000E+01
     -7.565  0.0000E+00  0.2000E+01
     -7.524  0.0000E+00  0.2000E+01
     -7.482  0.0000E+00  0.2000E+01
     -7.440  0.0000E+00  0.2000E+01
     -7.399  0.0000E+00  0.2000E+01
     -7.357  0.0000E+00  0.2000E+01
     -7.316  0.0000E+00  0.2000E+01
     -7.274  0.0000E+00  0.2000E+01
     -7.232  0.0000E+00  0.2000E+01
     -7.191  0.0000E+00  0.2000E+01
     -7.149  0.0000E+00  0.2000E+01
     -7.108  0.0000E+00  0.2000E+01
     -7.066  0.0000E+00  0.2000E+01
     -7.025  0.0000E+00  0.2000E+01
     -6.983  0.0000E+00  0.2000E+01
     -6.941  0.0000E+00  0.2000E+01
     -6.900  0.0000E+00  0.2000E+01
     -6.858  0.0000E+00  0.2000E+01
     -6.817  0.0000E+00  0.2000E+01
     -6.775  0.0000E+00  0.2000E+01
     -6.733  0.0000E+00  0.2000E+01
     -6.692  0.0000E+00  0.2000E+01
     -6.650  0.0000E+00  0.2000E+01
     -6.609  0.0000E+00  0.2000E+01
     -6.567  0.0000E+00  0.2000E+01
     -6.526  0.0000E+00  0.2000E+01
     -6.484  0.0000E+00  0.2000E+01
     -6.442  0.0000E+00  0.2000E+01
     -6.401  0.0000E+00  0.2000E+01
     -6.359  0.0000E+00  0.2000E+01
     -6.318  0.0000E+00  0.2000E+01
     -6.276  0.0000E+00  0.2000E+01
     -6.235  0.0000E+00  0.2000E+01
     -6.193  0.0000E+00  0.2000E+01
     -6.151  0.0000E+00  0.2000E+01
     -6.110  0.0000E+00  0.2000E+01
     -6.068  0.0000E+00  0.2000E+01
     -6.027  0.0000E+00  0.2000E+01
     -5.985  0.0000E+00  0.2000E+01
     -5.943  0.0000E+00  0.2000E+01
     -5.902  0.0000E+00  0.2000E+01
     -5.860  0.0000E+00  0.2000E+01
     -5.819  0.0000E+00  0.2000E+01
     -5.777  0.0000E+00  0.2000E+01
     -5.736  0.0000E+00  0.2000E+01
     -5.694  0.0000E+00  0.2000E+01
     -5.652  0.0000E+00  0.2000E+01
     -5.611  0.0000E+00  0.2000E+01
     -5.569  0.0000E+00  0.2000E+01
     -5.528  0.0000E+00  0.2000E+01
     -5.486  0.0000E+00  0.2000E+01
     -5.444  0.0000E+00  0.2000E+01
     -5.403  0.0000E+00  0.2000E+01
     -5.361  0.0000E+00  0.2000E+01
     -5.320  0.0000E+00  0.2000E+01
     -5.278  0.0000E+00  0.2000E+01
     -5.237  0.0000E+00  0.2000E+01
     -5.195  0.0000E+00  0.2000E+01
     -5.153  0.0000E+00  0.2000E+01
     -5.112  0.0000E+00  0.2000E+01
     -5.070  0.0000E+00  0.2000E+01
     -5.029  0.0000E+00  0.2000E+01
     -4.987  0.0000E+00  0.2000E+01
     -4.946  0.0000E+00  0.2000E+01
     -4.904  0.0000E+00  0.2000E+01
     -4.862  0.0000E+00  0.2000E+01
     -4.821  0.0000E+00  0.2000E+01
     -4.779  0.0000E+00  0.2000E+01
     -4.738  0.0000E+00  0.2000E+01
     -4.696  0.0000E+00  0.2000E+01
     -4.654  0.0000E+00  0.2000E+01
     -4.613  0.0000E+00  0.2000E+01
     -4.571  0.0000E+00  0.2000E+01
     -4.530  0.0000E+00  0.2000E+01
     -4.488  0.0000E+00  0.2000E+01
     -4.447  0.0000E+00  0.2000E+01
     -4.405  0.0000E+00  0.2000E+01
     -4.363  0.0000E+00  0.2000E+01
     -4.322  0.0000E+00  0.2000E+01
     -4.280  0.0000E+00  0.2000E+01
     -4.239  0.0000E+00  0.2000E+01
     -4.197  0.0000E+00  0.2000E+01
     -4.155  0.0000E+00  0.2000E+01
     -4.114  0.0000E+00  0.2000E+01
     -4.072  0.0000E+00  0.2000E+01
     -4.031  0.0000E+00  0.2000E+01
     -3.989  0.0000E+00  0.2000E+01
     -3.948  0.0000E+00  0.2000E+01
     -3.906  0.0000E+00  0.2000E+01
     -3.864  0.9154E-14  0.2000E+01
     -3.823  0.1130E-09  0.2000E+01
     -3.781  0.2744E-06  0.2000E+01
     -3.740  0.1730E-03  0.2000E+01
     -3.698  0.2867E-01  0.2001E+01
     -3.656  0.1275E+01  0.2054E+01
     -3.615  0.1564E+02  0.2704E+01
     -3.573  0.5452E+02  0.4971E+01
     -3.532  0.5521E+02  0.7267E+01
     -3.490  0.1624E+02  0.7942E+01
     -3.449  0.1359E+01  0.7999E+01
     -3.407  0.3138E-01  0.8000E+01
     -3.365  0.1945E-03  0.8000E+01
     -3.324  0.3172E-06  0.8000E+01
     -3.282  0.1342E-09  0.8000E+01
     -3.241  0.1602E-13  0.8000E+01
     -3.199  0.0000E+00  0.8000E+01
     -3.158  0.0000E+00  0.8000E+01
     -3.116  0.0000E+00  0.8000E+01
     -3.074  0.0000E+00  0.8000E+01
     -3.033  0.0000E+00  0.8000E+01
     -2.991  0.0000E+00  0.8000E+01
     -2.950  0.0000E+00  0.8000E+01
     -2.908  0.0000E+00  0.8000E+01
     -2.866  0.0000E+00  0.8000E+01
     -2.825  0.0000E+00  0.8000E+01
     -2.783  0.0000E+00  0.8000E+01
     -2.742  0.0000E+00  0.8000E+01
     -2.700  0.0000E+00  0.8000E+01
     -2.659  0.0000E+00  0.8000E+01
     -2.617  0.0000E+00  0.8000E+01
     -2.575  0.0000E+00  0.8000E+01
     -2.534  0.0000E+00  0.8000E+01
     -2.492  0.0000E+00  0.8000E+01
     -2.451  0.0000E+00  0.8000E+01
     -2.409  0.0000E+00  0.8000E+01
     -2.367  0.0000E+00  0.8000E+01
     -2.326  0.0000E+00  0.8000E+01
     -2.284  0.0000E+00  0.8000E+01
     -2.243  0.0000E+00  0.8000E+01
     -2.201  0.0000E+00  0.8000E+01
     -2.160  0.0000E+00  0.8000E+01
     -2.118  0.0000E+00  0.8000E+01
     -2.076  0.0000E+00  0.8000E+01
     -2.035  0.0000E+00  0.8000E+01
     -1.993  0.0000E+00  0.8000E+01
     -1.952  0.0000E+00  0.8000E+01
     -1.910  0.0000E+00  0.8000E+01
     -1.868  0.0000E+00  0.8000E+01
     -1.827  0.0000E+00  0.8000E+01
     -1.785  0.0000E+00  0.8000E+01
     -1.744  0.0000E+00  0.8000E+01
     -1.702  0.0000E+00  0.8000E+01
     -1.661  0.0000E+00  0.8000E+01
     -1.619  0.0000E+00  0.8000E+01
     -1.577  0.0000E+00  0.8000E+01
     -1.536  0.0000E+00  0.8000E+01
     -1.494  0.0000E+00  0.8000E+01
     -1.453  0.0000E+00  0.8000E+01
     -1.411  0.0000E+00  0.8000E+01
     -1.370  0.0000E+00  0.8000E+01
     -1.328  0.0000E+00  0.8000E+01
     -1.286  0.0000E+00  0.8000E+01
     -1.245  0.0000E+00  0.8000E+01
     -1.203  0.0000E+00  0.8000E+01
     -1.162  0.0000E+00  0.8000E+01
     -1.120  0.0000E+00  0.8000E+01
     -1.078  0.0000E+00  0.8000E+01
     -1.037  0.0000E+00  0.8000E+01
     -0.995  0.0000E+00  0.8000E+01
     -0.954  0.0000E+00  0.8000E+01
     -0.912  0.0000E+00  0.8000E+01
     -0.871  0.0000E+00  0.8000E+01
     -0.829  0.0000E+00  0.8000E+01
     -0.787  0.0000E+00  0.8000E+01
     -0.746  0.0000E+00  0.8000E+01
     -0.704  0.0000E+00  0.8000E+01
     -0.663  0.0000E+00  0.8000E+01
     -0.621  0.0000E+00  0.8000E+01
     -0.579  0.0000E+00  0.8000E+01
     -0.538  0.1238E-14  0.8000E+01
     -0.496  0.8453E-11  0.8000E+01
     -0.455  0.1502E-07  0.8000E+01
     -0.413  0.7361E-05  0.8000E+01
     -0.372  0.1034E-02  0.8000E+01
     -0.330  0.4418E-01  0.8002E+01
     -0.288  0.6256E+00  0.8028E+01
     -0.247  0.3335E+01  0.8167E+01
     -0.205  0.8005E+01  0.8499E+01
     -0.164  0.1076E+02  0.8947E+01
     -0.122  0.1030E+02  0.9375E+01
     -0.081  0.8305E+01  0.9720E+01
     -0.039  0.4898E+01  0.9924E+01
      0.003  0.1634E+01  0.9992E+01
      0.044  0.6839E+00  0.1002E+02
      0.086  0.2272E+01  0.1011E+02
      0.127  0.6031E+01  0.1037E+02
      0.169  0.1063E+02  0.1081E+02
      0.211  0.1413E+02  0.1140E+02
      0.252  0.1563E+02  0.1204E+02
      0.294  0.1576E+02  0.1270E+02
      0.335  0.1591E+02  0.1336E+02
      0.377  0.1619E+02  0.1404E+02
      0.418  0.1652E+02  0.1472E+02
      0.460  0.1762E+02  0.1545E+02
      0.502  0.1847E+02  0.1622E+02
      0.543  0.1845E+02  0.1699E+02
      0.585  0.1900E+02  0.1778E+02
      0.626  0.1990E+02  0.1861E+02
      0.668  0.2035E+02  0.1945E+02
      0.710  0.2102E+02  0.2033E+02
      0.751  0.2243E+02  0.2126E+02
      0.793  0.2234E+02  0.2219E+02
      0.834  0.2186E+02  0.2310E+02
      0.876  0.2338E+02  0.2407E+02
      0.917  0.2450E+02  0.2509E+02
      0.959  0.2418E+02  0.2609E+02
      1.001  0.2487E+02  0.2713E+02
      1.042  0.2588E+02  0.2820E+02
      1.084  0.2596E+02  0.2928E+02
      1.125  0.2604E+02  0.3037E+02
      1.167  0.2682E+02  0.3148E+02
      1.209  0.2768E+02  0.3263E+02
      1.250  0.2726E+02  0.3377E+02
      1.292  0.2746E+02  0.3491E+02
      1.333  0.2853E+02  0.3609E+02
      1.375  0.2855E+02  0.3728E+02
      1.416  0.2827E+02  0.3846E+02
      1.458  0.2932E+02  0.3968E+02
      1.500  0.3085E+02  0.4096E+02
      1.541  0.2996E+02  0.4220E+02
      1.583  0.2953E+02  0.4343E+02
      1.624  0.3004E+02  0.4468E+02
      1.666  0.2761E+02  0.4583E+02
      1.707  0.2111E+02  0.4671E+02
      1.749  0.1397E+02  0.4729E+02
      1.791  0.8274E+01  0.4763E+02
      1.832  0.4771E+01  0.4783E+02
      1.874  0.2559E+01  0.4794E+02
      1.915  0.1084E+01  0.4798E+02
      1.957  0.3438E+00  0.4800E+02
      1.999  0.7254E-01  0.4800E+02
      2.040  0.7007E-02  0.4800E+02
      2.082  0.2233E-03  0.4800E+02
      2.123  0.2032E-05  0.4800E+02
      2.165  0.4994E-08  0.4800E+02
      2.206  0.3237E-11  0.4800E+02
      2.248  0.5594E-15  0.4800E+02
      2.290  0.0000E+00  0.4800E+02
      2.331  0.0000E+00  0.4800E+02
      2.373  0.0000E+00  0.4800E+02
      2.414  0.0000E+00  0.4800E+02
      2.456  0.0000E+00  0.4800E+02
      2.498  0.0000E+00  0.4800E+02
