<?xml version="1.0" encoding="ISO-8859-1"?>
<modeling>
 <generator>
  <i name="program" type="string">vasp </i>
  <i name="version" type="string">6.4.3  </i>
  <i name="subversion" type="string">19Mar24 (build May 31 2024 16:31:43) complex                          parallel </i>
  <i name="platform" type="string">LinuxIFC </i>
  <i name="date" type="string">2024 11 11 </i>
  <i name="time" type="string">18:52:38 </i>
 </generator>
 <incar>
  <i type="string" name="SYSTEM">Convergence</i>
  <i type="int" name="ISTART">     0</i>
  <i type="string" name="PREC">Accurate</i>
  <i type="string" name="ALGO">Normal</i>
  <i type="int" name="ISPIN">     1</i>
  <i type="int" name="ICHARG">     2</i>
  <i type="int" name="NELM">   100</i>
  <i type="int" name="IBRION">    -1</i>
  <i name="EDIFF">      0.00000100</i>
  <i name="EDIFFG">     -0.00100000</i>
  <i type="int" name="NSW">     0</i>
  <i type="int" name="ISIF">     2</i>
  <i name="ENCUT">    600.00000000</i>
  <i name="POTIM">      0.50000000</i>
  <i type="int" name="ISMEAR">     0</i>
  <i name="SIGMA">      0.05000000</i>
  <i type="logical" name="LWAVE"> F  </i>
  <i type="logical" name="LCHARG"> F  </i>
  <i type="string" name="GGA">PE</i>
 </incar>
 <primitive_cell>
  <structure name="primitive_cell" >
   <crystal>
    <varray name="basis" >
     <v>      14.98650000       0.00000000       0.00000000 </v>
     <v>       0.00000000      12.48875000       0.00000000 </v>
     <v>       0.00000000       0.00000000      17.98380000 </v>
    </varray>
    <i name="volume">   3365.89569879 </i>
    <varray name="rec_basis" >
     <v>       0.06672672       0.00000000       0.00000000 </v>
     <v>       0.00000000       0.08007206       0.00000000 </v>
     <v>       0.00000000       0.00000000       0.05560560 </v>
    </varray>
   </crystal>
   <varray name="positions" >
    <v>       0.52123000       0.54500000       0.63796000 </v>
   </varray>
  </structure>
  <varray name="primitive_index" >
   <v type="int" >        1 </v>
  </varray>
 </primitive_cell>
 <kpoints>
  <generation param="Monkhorst-Pack">
   <v type="int" name="divisions">      10       14        9 </v>
   <v name="usershift">      0.00000000       0.00000000       0.00000000 </v>
   <v name="genvec1">      0.10000000       0.00000000       0.00000000 </v>
   <v name="genvec2">      0.00000000       0.07142857       0.00000000 </v>
   <v name="genvec3">      0.00000000       0.00000000       0.11111111 </v>
   <v name="shift">      0.50000000       0.50000000       0.00000000 </v>
  </generation>
  <varray name="kpointlist" >
   <v>       0.05000000       0.03571429       0.00000000 </v>
   <v>       0.15000000       0.03571429       0.00000000 </v>
   <v>       0.25000000       0.03571429       0.00000000 </v>
   <v>       0.35000000       0.03571429       0.00000000 </v>
   <v>       0.45000000       0.03571429       0.00000000 </v>
   <v>       0.05000000       0.10714286       0.00000000 </v>
   <v>       0.15000000       0.10714286       0.00000000 </v>
   <v>       0.25000000       0.10714286       0.00000000 </v>
   <v>       0.35000000       0.10714286       0.00000000 </v>
   <v>       0.45000000       0.10714286       0.00000000 </v>
   <v>       0.05000000       0.17857143       0.00000000 </v>
   <v>       0.15000000       0.17857143       0.00000000 </v>
   <v>       0.25000000       0.17857143       0.00000000 </v>
   <v>       0.35000000       0.17857143       0.00000000 </v>
   <v>       0.45000000       0.17857143       0.00000000 </v>
   <v>       0.05000000       0.25000000       0.00000000 </v>
   <v>       0.15000000       0.25000000       0.00000000 </v>
   <v>       0.25000000       0.25000000       0.00000000 </v>
   <v>       0.35000000       0.25000000       0.00000000 </v>
   <v>       0.45000000       0.25000000       0.00000000 </v>
   <v>       0.05000000       0.32142857       0.00000000 </v>
   <v>       0.15000000       0.32142857       0.00000000 </v>
   <v>       0.25000000       0.32142857       0.00000000 </v>
   <v>       0.35000000       0.32142857       0.00000000 </v>
   <v>       0.45000000       0.32142857       0.00000000 </v>
   <v>       0.05000000       0.39285714       0.00000000 </v>
   <v>       0.15000000       0.39285714       0.00000000 </v>
   <v>       0.25000000       0.39285714       0.00000000 </v>
   <v>       0.35000000       0.39285714       0.00000000 </v>
   <v>       0.45000000       0.39285714       0.00000000 </v>
   <v>       0.05000000       0.46428571       0.00000000 </v>
   <v>       0.15000000       0.46428571       0.00000000 </v>
   <v>       0.25000000       0.46428571       0.00000000 </v>
   <v>       0.35000000       0.46428571       0.00000000 </v>
   <v>       0.45000000       0.46428571       0.00000000 </v>
   <v>       0.05000000       0.03571429       0.11111111 </v>
   <v>       0.15000000       0.03571429       0.11111111 </v>
   <v>       0.25000000       0.03571429       0.11111111 </v>
   <v>       0.35000000       0.03571429       0.11111111 </v>
   <v>       0.45000000       0.03571429       0.11111111 </v>
   <v>       0.05000000       0.10714286       0.11111111 </v>
   <v>       0.15000000       0.10714286       0.11111111 </v>
   <v>       0.25000000       0.10714286       0.11111111 </v>
   <v>       0.35000000       0.10714286       0.11111111 </v>
   <v>       0.45000000       0.10714286       0.11111111 </v>
   <v>       0.05000000       0.17857143       0.11111111 </v>
   <v>       0.15000000       0.17857143       0.11111111 </v>
   <v>       0.25000000       0.17857143       0.11111111 </v>
   <v>       0.35000000       0.17857143       0.11111111 </v>
   <v>       0.45000000       0.17857143       0.11111111 </v>
   <v>       0.05000000       0.25000000       0.11111111 </v>
   <v>       0.15000000       0.25000000       0.11111111 </v>
   <v>       0.25000000       0.25000000       0.11111111 </v>
   <v>       0.35000000       0.25000000       0.11111111 </v>
   <v>       0.45000000       0.25000000       0.11111111 </v>
   <v>       0.05000000       0.32142857       0.11111111 </v>
   <v>       0.15000000       0.32142857       0.11111111 </v>
   <v>       0.25000000       0.32142857       0.11111111 </v>
   <v>       0.35000000       0.32142857       0.11111111 </v>
   <v>       0.45000000       0.32142857       0.11111111 </v>
   <v>       0.05000000       0.39285714       0.11111111 </v>
   <v>       0.15000000       0.39285714       0.11111111 </v>
   <v>       0.25000000       0.39285714       0.11111111 </v>
   <v>       0.35000000       0.39285714       0.11111111 </v>
   <v>       0.45000000       0.39285714       0.11111111 </v>
   <v>       0.05000000       0.46428571       0.11111111 </v>
   <v>       0.15000000       0.46428571       0.11111111 </v>
   <v>       0.25000000       0.46428571       0.11111111 </v>
   <v>       0.35000000       0.46428571       0.11111111 </v>
   <v>       0.45000000       0.46428571       0.11111111 </v>
   <v>       0.05000000       0.03571429       0.22222222 </v>
   <v>       0.15000000       0.03571429       0.22222222 </v>
   <v>       0.25000000       0.03571429       0.22222222 </v>
   <v>       0.35000000       0.03571429       0.22222222 </v>
   <v>       0.45000000       0.03571429       0.22222222 </v>
   <v>       0.05000000       0.10714286       0.22222222 </v>
   <v>       0.15000000       0.10714286       0.22222222 </v>
   <v>       0.25000000       0.10714286       0.22222222 </v>
   <v>       0.35000000       0.10714286       0.22222222 </v>
   <v>       0.45000000       0.10714286       0.22222222 </v>
   <v>       0.05000000       0.17857143       0.22222222 </v>
   <v>       0.15000000       0.17857143       0.22222222 </v>
   <v>       0.25000000       0.17857143       0.22222222 </v>
   <v>       0.35000000       0.17857143       0.22222222 </v>
   <v>       0.45000000       0.17857143       0.22222222 </v>
   <v>       0.05000000       0.25000000       0.22222222 </v>
   <v>       0.15000000       0.25000000       0.22222222 </v>
   <v>       0.25000000       0.25000000       0.22222222 </v>
   <v>       0.35000000       0.25000000       0.22222222 </v>
   <v>       0.45000000       0.25000000       0.22222222 </v>
   <v>       0.05000000       0.32142857       0.22222222 </v>
   <v>       0.15000000       0.32142857       0.22222222 </v>
   <v>       0.25000000       0.32142857       0.22222222 </v>
   <v>       0.35000000       0.32142857       0.22222222 </v>
   <v>       0.45000000       0.32142857       0.22222222 </v>
   <v>       0.05000000       0.39285714       0.22222222 </v>
   <v>       0.15000000       0.39285714       0.22222222 </v>
   <v>       0.25000000       0.39285714       0.22222222 </v>
   <v>       0.35000000       0.39285714       0.22222222 </v>
   <v>       0.45000000       0.39285714       0.22222222 </v>
   <v>       0.05000000       0.46428571       0.22222222 </v>
   <v>       0.15000000       0.46428571       0.22222222 </v>
   <v>       0.25000000       0.46428571       0.22222222 </v>
   <v>       0.35000000       0.46428571       0.22222222 </v>
   <v>       0.45000000       0.46428571       0.22222222 </v>
   <v>       0.05000000       0.03571429       0.33333333 </v>
   <v>       0.15000000       0.03571429       0.33333333 </v>
   <v>       0.25000000       0.03571429       0.33333333 </v>
   <v>       0.35000000       0.03571429       0.33333333 </v>
   <v>       0.45000000       0.03571429       0.33333333 </v>
   <v>       0.05000000       0.10714286       0.33333333 </v>
   <v>       0.15000000       0.10714286       0.33333333 </v>
   <v>       0.25000000       0.10714286       0.33333333 </v>
   <v>       0.35000000       0.10714286       0.33333333 </v>
   <v>       0.45000000       0.10714286       0.33333333 </v>
   <v>       0.05000000       0.17857143       0.33333333 </v>
   <v>       0.15000000       0.17857143       0.33333333 </v>
   <v>       0.25000000       0.17857143       0.33333333 </v>
   <v>       0.35000000       0.17857143       0.33333333 </v>
   <v>       0.45000000       0.17857143       0.33333333 </v>
   <v>       0.05000000       0.25000000       0.33333333 </v>
   <v>       0.15000000       0.25000000       0.33333333 </v>
   <v>       0.25000000       0.25000000       0.33333333 </v>
   <v>       0.35000000       0.25000000       0.33333333 </v>
   <v>       0.45000000       0.25000000       0.33333333 </v>
   <v>       0.05000000       0.32142857       0.33333333 </v>
   <v>       0.15000000       0.32142857       0.33333333 </v>
   <v>       0.25000000       0.32142857       0.33333333 </v>
   <v>       0.35000000       0.32142857       0.33333333 </v>
   <v>       0.45000000       0.32142857       0.33333333 </v>
   <v>       0.05000000       0.39285714       0.33333333 </v>
   <v>       0.15000000       0.39285714       0.33333333 </v>
   <v>       0.25000000       0.39285714       0.33333333 </v>
   <v>       0.35000000       0.39285714       0.33333333 </v>
   <v>       0.45000000       0.39285714       0.33333333 </v>
   <v>       0.05000000       0.46428571       0.33333333 </v>
   <v>       0.15000000       0.46428571       0.33333333 </v>
   <v>       0.25000000       0.46428571       0.33333333 </v>
   <v>       0.35000000       0.46428571       0.33333333 </v>
   <v>       0.45000000       0.46428571       0.33333333 </v>
   <v>       0.05000000       0.03571429       0.44444444 </v>
   <v>       0.15000000       0.03571429       0.44444444 </v>
   <v>       0.25000000       0.03571429       0.44444444 </v>
   <v>       0.35000000       0.03571429       0.44444444 </v>
   <v>       0.45000000       0.03571429       0.44444444 </v>
   <v>       0.05000000       0.10714286       0.44444444 </v>
   <v>       0.15000000       0.10714286       0.44444444 </v>
   <v>       0.25000000       0.10714286       0.44444444 </v>
   <v>       0.35000000       0.10714286       0.44444444 </v>
   <v>       0.45000000       0.10714286       0.44444444 </v>
   <v>       0.05000000       0.17857143       0.44444444 </v>
   <v>       0.15000000       0.17857143       0.44444444 </v>
   <v>       0.25000000       0.17857143       0.44444444 </v>
   <v>       0.35000000       0.17857143       0.44444444 </v>
   <v>       0.45000000       0.17857143       0.44444444 </v>
   <v>       0.05000000       0.25000000       0.44444444 </v>
   <v>       0.15000000       0.25000000       0.44444444 </v>
   <v>       0.25000000       0.25000000       0.44444444 </v>
   <v>       0.35000000       0.25000000       0.44444444 </v>
   <v>       0.45000000       0.25000000       0.44444444 </v>
   <v>       0.05000000       0.32142857       0.44444444 </v>
   <v>       0.15000000       0.32142857       0.44444444 </v>
   <v>       0.25000000       0.32142857       0.44444444 </v>
   <v>       0.35000000       0.32142857       0.44444444 </v>
   <v>       0.45000000       0.32142857       0.44444444 </v>
   <v>       0.05000000       0.39285714       0.44444444 </v>
   <v>       0.15000000       0.39285714       0.44444444 </v>
   <v>       0.25000000       0.39285714       0.44444444 </v>
   <v>       0.35000000       0.39285714       0.44444444 </v>
   <v>       0.45000000       0.39285714       0.44444444 </v>
   <v>       0.05000000       0.46428571       0.44444444 </v>
   <v>       0.15000000       0.46428571       0.44444444 </v>
   <v>       0.25000000       0.46428571       0.44444444 </v>
   <v>       0.35000000       0.46428571       0.44444444 </v>
   <v>       0.45000000       0.46428571       0.44444444 </v>
  </varray>
  <varray name="weights" >
   <v>       0.00317460 </v>
   <v>       0.00317460 </v>
   <v>       0.00317460 </v>
   <v>       0.00317460 </v>
   <v>       0.00317460 </v>
   <v>       0.00317460 </v>
   <v>       0.00317460 </v>
   <v>       0.00317460 </v>
   <v>       0.00317460 </v>
   <v>       0.00317460 </v>
   <v>       0.00317460 </v>
   <v>       0.00317460 </v>
   <v>       0.00317460 </v>
   <v>       0.00317460 </v>
   <v>       0.00317460 </v>
   <v>       0.00317460 </v>
   <v>       0.00317460 </v>
   <v>       0.00317460 </v>
   <v>       0.00317460 </v>
   <v>       0.00317460 </v>
   <v>       0.00317460 </v>
   <v>       0.00317460 </v>
   <v>       0.00317460 </v>
   <v>       0.00317460 </v>
   <v>       0.00317460 </v>
   <v>       0.00317460 </v>
   <v>       0.00317460 </v>
   <v>       0.00317460 </v>
   <v>       0.00317460 </v>
   <v>       0.00317460 </v>
   <v>       0.00317460 </v>
   <v>       0.00317460 </v>
   <v>       0.00317460 </v>
   <v>       0.00317460 </v>
   <v>       0.00317460 </v>
   <v>       0.00634921 </v>
   <v>       0.00634921 </v>
   <v>       0.00634921 </v>
   <v>       0.00634921 </v>
   <v>       0.00634921 </v>
   <v>       0.00634921 </v>
   <v>       0.00634921 </v>
   <v>       0.00634921 </v>
   <v>       0.00634921 </v>
   <v>       0.00634921 </v>
   <v>       0.00634921 </v>
   <v>       0.00634921 </v>
   <v>       0.00634921 </v>
   <v>       0.00634921 </v>
   <v>       0.00634921 </v>
   <v>       0.00634921 </v>
   <v>       0.00634921 </v>
   <v>       0.00634921 </v>
   <v>       0.00634921 </v>
   <v>       0.00634921 </v>
   <v>       0.00634921 </v>
   <v>       0.00634921 </v>
   <v>       0.00634921 </v>
   <v>       0.00634921 </v>
   <v>       0.00634921 </v>
   <v>       0.00634921 </v>
   <v>       0.00634921 </v>
   <v>       0.00634921 </v>
   <v>       0.00634921 </v>
   <v>       0.00634921 </v>
   <v>       0.00634921 </v>
   <v>       0.00634921 </v>
   <v>       0.00634921 </v>
   <v>       0.00634921 </v>
   <v>       0.00634921 </v>
   <v>       0.00634921 </v>
   <v>       0.00634921 </v>
   <v>       0.00634921 </v>
   <v>       0.00634921 </v>
   <v>       0.00634921 </v>
   <v>       0.00634921 </v>
   <v>       0.00634921 </v>
   <v>       0.00634921 </v>
   <v>       0.00634921 </v>
   <v>       0.00634921 </v>
   <v>       0.00634921 </v>
   <v>       0.00634921 </v>
   <v>       0.00634921 </v>
   <v>       0.00634921 </v>
   <v>       0.00634921 </v>
   <v>       0.00634921 </v>
   <v>       0.00634921 </v>
   <v>       0.00634921 </v>
   <v>       0.00634921 </v>
   <v>       0.00634921 </v>
   <v>       0.00634921 </v>
   <v>       0.00634921 </v>
   <v>       0.00634921 </v>
   <v>       0.00634921 </v>
   <v>       0.00634921 </v>
   <v>       0.00634921 </v>
   <v>       0.00634921 </v>
   <v>       0.00634921 </v>
   <v>       0.00634921 </v>
   <v>       0.00634921 </v>
   <v>       0.00634921 </v>
   <v>       0.00634921 </v>
   <v>       0.00634921 </v>
   <v>       0.00634921 </v>
   <v>       0.00634921 </v>
   <v>       0.00634921 </v>
   <v>       0.00634921 </v>
   <v>       0.00634921 </v>
   <v>       0.00634921 </v>
   <v>       0.00634921 </v>
   <v>       0.00634921 </v>
   <v>       0.00634921 </v>
   <v>       0.00634921 </v>
   <v>       0.00634921 </v>
   <v>       0.00634921 </v>
   <v>       0.00634921 </v>
   <v>       0.00634921 </v>
   <v>       0.00634921 </v>
   <v>       0.00634921 </v>
   <v>       0.00634921 </v>
   <v>       0.00634921 </v>
   <v>       0.00634921 </v>
   <v>       0.00634921 </v>
   <v>       0.00634921 </v>
   <v>       0.00634921 </v>
   <v>       0.00634921 </v>
   <v>       0.00634921 </v>
   <v>       0.00634921 </v>
   <v>       0.00634921 </v>
   <v>       0.00634921 </v>
   <v>       0.00634921 </v>
   <v>       0.00634921 </v>
   <v>       0.00634921 </v>
   <v>       0.00634921 </v>
   <v>       0.00634921 </v>
   <v>       0.00634921 </v>
   <v>       0.00634921 </v>
   <v>       0.00634921 </v>
   <v>       0.00634921 </v>
   <v>       0.00634921 </v>
   <v>       0.00634921 </v>
   <v>       0.00634921 </v>
   <v>       0.00634921 </v>
   <v>       0.00634921 </v>
   <v>       0.00634921 </v>
   <v>       0.00634921 </v>
   <v>       0.00634921 </v>
   <v>       0.00634921 </v>
   <v>       0.00634921 </v>
   <v>       0.00634921 </v>
   <v>       0.00634921 </v>
   <v>       0.00634921 </v>
   <v>       0.00634921 </v>
   <v>       0.00634921 </v>
   <v>       0.00634921 </v>
   <v>       0.00634921 </v>
   <v>       0.00634921 </v>
   <v>       0.00634921 </v>
   <v>       0.00634921 </v>
   <v>       0.00634921 </v>
   <v>       0.00634921 </v>
   <v>       0.00634921 </v>
   <v>       0.00634921 </v>
   <v>       0.00634921 </v>
   <v>       0.00634921 </v>
   <v>       0.00634921 </v>
   <v>       0.00634921 </v>
   <v>       0.00634921 </v>
   <v>       0.00634921 </v>
   <v>       0.00634921 </v>
   <v>       0.00634921 </v>
   <v>       0.00634921 </v>
   <v>       0.00634921 </v>
   <v>       0.00634921 </v>
   <v>       0.00634921 </v>
  </varray>
 </kpoints>
 <parameters>
  <separator name="general" >
   <i type="string" name="SYSTEM">Convergence</i>
   <i type="logical" name="LCOMPAT"> F  </i>
  </separator>
  <separator name="electronic" >
   <i type="string" name="PREC">accura</i>
   <i name="ENMAX">    600.00000000</i>
   <i name="ENAUG">    535.51400000</i>
   <i name="EDIFF">      0.00000100</i>
   <i type="int" name="IALGO">    38</i>
   <i type="int" name="IWAVPR">    10</i>
   <i type="int" name="NBANDS">    24</i>
   <i type="int" name="NBANDSLOW">    -1</i>
   <i type="int" name="NBANDSHIGH">    -1</i>
   <i name="NELECT">      3.00000000</i>
   <i type="int" name="TURBO">     0</i>
   <i type="int" name="IRESTART">     0</i>
   <i type="int" name="NREBOOT">     0</i>
   <i type="int" name="NMIN">     0</i>
   <i name="EREF">      0.00000000</i>
   <separator name="electronic smearing" >
    <i type="int" name="ISMEAR">     0</i>
    <i name="SIGMA">      0.05000000</i>
    <i name="KSPACING">      0.50000000</i>
    <i type="logical" name="KGAMMA"> T  </i>
    <i type="logical" name="KBLOWUP"> T  </i>
   </separator>
   <separator name="electronic projectors" >
    <i type="logical" name="LREAL"> F  </i>
    <v name="ROPT">      0.00000000</v>
    <i type="int" name="LMAXPAW">  -100</i>
    <i type="int" name="LMAXMIX">     2</i>
    <i type="logical" name="NLSPLINE"> F  </i>
   </separator>
   <separator name="electronic startup" >
    <i type="int" name="ISTART">     0</i>
    <i type="int" name="ICHARG">     2</i>
    <i type="int" name="INIWAV">     1</i>
   </separator>
   <separator name="electronic spin" >
    <i type="int" name="ISPIN">     1</i>
    <i type="logical" name="LNONCOLLINEAR"> F  </i>
    <v name="MAGMOM">      1.00000000</v>
    <i name="NUPDOWN">     -1.00000000</i>
    <i type="logical" name="LSORBIT"> F  </i>
    <v name="SAXIS">      0.00000000      0.00000000      1.00000000</v>
    <i type="logical" name="LSPIRAL"> F  </i>
    <v name="QSPIRAL">      0.00000000      0.00000000      0.00000000</v>
    <i type="logical" name="LZEROZ"> F  </i>
   </separator>
   <separator name="electronic exchange-correlation" >
    <i type="logical" name="LASPH"> F  </i>
   </separator>
   <separator name="electronic convergence" >
    <i type="int" name="NELM">   100</i>
    <i type="int" name="NELMDL">    -5</i>
    <i type="int" name="NELMIN">     2</i>
    <i name="ENINI">    600.00000000</i>
    <separator name="electronic convergence detail" >
     <i type="logical" name="LDIAG"> T  </i>
     <i type="logical" name="LSUBROT"> F  </i>
     <i name="WEIMIN">      0.00000000</i>
     <i name="EBREAK">      0.00000001</i>
     <i name="DEPER">      0.30000000</i>
     <i type="int" name="NRMM">     4</i>
     <i name="TIME">      0.40000000</i>
    </separator>
   </separator>
   <separator name="electronic mixer" >
    <i name="AMIX">      0.40000000</i>
    <i name="BMIX">      1.00000000</i>
    <i name="AMIN">      0.10000000</i>
    <i name="AMIX_MAG">      1.60000000</i>
    <i name="BMIX_MAG">      1.00000000</i>
    <separator name="electronic mixer details" >
     <i type="int" name="IMIX">     4</i>
     <i type="logical" name="MIXFIRST"> F  </i>
     <i type="int" name="MAXMIX">   -45</i>
     <i name="WC">    100.00000000</i>
     <i type="int" name="INIMIX">     1</i>
     <i type="int" name="MIXPRE">     1</i>
     <i type="int" name="MREMOVE">     5</i>
    </separator>
   </separator>
   <separator name="electronic dipolcorrection" >
    <i type="logical" name="LDIPOL"> F  </i>
    <i type="logical" name="LMONO"> F  </i>
    <i type="int" name="IDIPOL">     0</i>
    <i name="EPSILON">      1.00000000</i>
    <v name="DIPOL">   -100.00000000   -100.00000000   -100.00000000</v>
    <i name="EFIELD">      0.00000000</i>
    <i type="logical" name="LVACPOTAV"> F  </i>
   </separator>
  </separator>
  <separator name="grids" >
   <i type="int" name="NGX">   120</i>
   <i type="int" name="NGY">   100</i>
   <i type="int" name="NGZ">   144</i>
   <i type="int" name="NGXF">   240</i>
   <i type="int" name="NGYF">   200</i>
   <i type="int" name="NGZF">   288</i>
   <i type="logical" name="ADDGRID"> F  </i>
  </separator>
  <separator name="ionic" >
   <i type="int" name="NSW">     0</i>
   <i type="int" name="IBRION">    -1</i>
   <i type="int" name="MDALGO">     0</i>
   <i type="int" name="ISIF">     2</i>
   <i name="PSTRESS">      0.00000000</i>
   <i name="EDIFFG">     -0.00100000</i>
   <i type="int" name="NFREE">     0</i>
   <i name="POTIM">      0.50000000</i>
   <i name="SMASS">     -3.00000000</i>
   <i name="SCALEE">      1.00000000</i>
  </separator>
  <separator name="ionic md" >
   <i name="TEBEG">      0.00010000</i>
   <i name="TEEND">      0.00010000</i>
   <i type="int" name="NBLOCK">     1</i>
   <i type="int" name="KBLOCK">     1</i>
   <i type="int" name="NPACO">   256</i>
   <i name="APACO">     10.00000000</i>
  </separator>
  <separator name="symmetry" >
   <i type="int" name="ISYM">     2</i>
   <i name="SYMPREC">      0.00001000</i>
  </separator>
  <separator name="dos" >
   <i type="int" name="LORBIT">     0</i>
   <v name="RWIGS">     -1.00000000</v>
   <i type="int" name="NEDOS">   301</i>
   <i name="EMIN">     10.00000000</i>
   <i name="EMAX">    -10.00000000</i>
   <i name="EFERMI">      0.00000000</i>
  </separator>
  <separator name="writing" >
   <i type="int" name="NWRITE">     2</i>
   <i type="logical" name="LWAVE"> F  </i>
   <i type="logical" name="LDOWNSAMPLE"> F  </i>
   <i type="logical" name="LCHARG"> F  </i>
   <i type="logical" name="LPARD"> F  </i>
   <i type="logical" name="LVTOT"> F  </i>
   <i type="logical" name="LVHAR"> F  </i>
   <i type="logical" name="LELF"> F  </i>
   <i type="logical" name="LOPTICS"> F  </i>
   <v name="STM">      0.00000000      0.00000000      0.00000000      0.00000000      0.00000000      0.00000000      0.00000000</v>
  </separator>
  <separator name="performance" >
   <i type="int" name="NPAR">    24</i>
   <i type="int" name="NSIM">     4</i>
   <i type="int" name="NBLK">    -1</i>
   <i type="logical" name="LPLANE"> T  </i>
   <i type="logical" name="LSCALAPACK"> T  </i>
   <i type="logical" name="LSCAAWARE"> F  </i>
   <i type="logical" name="LSCALU"> F  </i>
   <i type="logical" name="LASYNC"> F  </i>
   <i type="logical" name="LORBITALREAL"> F  </i>
  </separator>
  <separator name="miscellaneous" >
   <i type="int" name="IDIOT">     3</i>
   <i type="int" name="PHON_NSTRUCT">    -1</i>
   <i type="logical" name="LMUSIC"> F  </i>
   <v name="POMASS">     10.81100000</v>
   <v name="DARWINR">      0.00000000</v>
   <v name="DARWINV">      1.00000000</v>
   <i type="logical" name="LCORR"> T  </i>
  </separator>
  <i type="logical" name="GGA_COMPAT"> T  </i>
  <i type="logical" name="LBERRY"> F  </i>
  <i type="int" name="ICORELEVEL">     0</i>
  <i type="logical" name="LDAU"> F  </i>
  <i type="int" name="I_CONSTRAINED_M">     0</i>
  <separator name="electronic exchange-correlation" >
   <i type="string" name="GGA    ">PE</i>
   <i type="string" name="XC_C">1</i>
   <i type="int" name="VOSKOWN">     0</i>
   <i type="logical" name="LHFCALC"> F  </i>
   <i type="string" name="PRECFOCK"></i>
   <i type="logical" name="LSYMGRAD"> F  </i>
   <i type="logical" name="LHFONE"> F  </i>
   <i type="logical" name="LRHFCALC"> F  </i>
   <i type="logical" name="LTHOMAS"> F  </i>
   <i type="logical" name="LMODELHF"> F  </i>
   <i type="logical" name="LFOCKACE"> F  </i>
   <i name="ENCUT4O">     -1.00000000</i>
   <i type="int" name="EXXOEP">     0</i>
   <i type="int" name="FOURORBIT">     0</i>
   <i name="AEXX">      0.00000000</i>
   <i name="HFALPHA">      0.00000000</i>
   <i name="MCALPHA">      0.00000000</i>
   <i name="ALDAX">      1.00000000</i>
   <i name="AGGAX">      1.00000000</i>
   <i name="AMGGAX">      1.00000000</i>
   <i name="ALDAC">      1.00000000</i>
   <i name="AGGAC">      1.00000000</i>
   <i name="AMGGAC">      1.00000000</i>
   <i type="int" name="NKREDX">     1</i>
   <i type="int" name="NKREDY">     1</i>
   <i type="int" name="NKREDZ">     1</i>
   <i type="logical" name="SHIFTRED"> F  </i>
   <i type="logical" name="ODDONLY"> F  </i>
   <i type="logical" name="EVENONLY"> F  </i>
   <i type="int" name="LMAXFOCK">     0</i>
   <i type="int" name="NMAXFOCKAE">     0</i>
   <i type="logical" name="LFOCKAEDFT"> F  </i>
   <i name="HFSCREEN">      0.00000000</i>
   <i name="HFSCREENC">      0.00000000</i>
   <i type="int" name="NBANDSGWLOW">     0</i>
  </separator>
  <separator name="vdW DFT" >
   <i type="logical" name="LUSE_VDW"> F  </i>
   <i type="int" name="IVDW_NL">    -1</i>
   <i type="logical" name="LSPIN_VDW"> F  </i>
   <i name="ZAB_VDW">     -0.84910000</i>
   <i name="GAMMA_VDW">      1.39626340</i>
   <i name="ALPHA_VDW">      0.00000000</i>
   <i name="PARAM1">      0.12340000</i>
   <i name="PARAM2">      1.00000000</i>
   <i name="BPARAM">      6.30000000</i>
   <i name="CPARAM">      0.00930000</i>
  </separator>
  <separator name="model GW" >
   <i type="int" name="MODEL_GW">     0</i>
   <i name="MODEL_EPS0">   2019.53741927</i>
   <i name="MODEL_ALPHA">      1.00000000</i>
  </separator>
  <separator name="linear response parameters" >
   <i type="logical" name="LEPSILON"> F  </i>
   <i type="logical" name="LRPA"> F  </i>
   <i type="logical" name="LNABLA"> F  </i>
   <i type="logical" name="LVEL"> F  </i>
   <i name="CSHIFT">      0.10000000</i>
   <i name="OMEGAMAX">     -1.00000000</i>
   <i name="DEG_THRESHOLD">      0.00200000</i>
   <i name="RTIME">     -0.10000000</i>
   <i name="WPLASMAI">      0.00000000</i>
   <v name="DFIELD">      0.00000000      0.00000000      0.00000000</v>
   <v name="WPLASMA">      0.00000000      0.00000000      0.00000000      0.00000000      0.00000000      0.00000000      0.00000000      0.00000000      0.00000000</v>
  </separator>
  <separator name="orbital magnetization" >
   <i type="logical" name="NUCIND"> F  </i>
   <v name="MAGPOS">      0.00000000      0.00000000      0.00000000</v>
   <i type="logical" name="LNICSALL"> T  </i>
   <i type="logical" name="ORBITALMAG"> F  </i>
   <i type="logical" name="LMAGBLOCH"> F  </i>
   <i type="logical" name="LCHIMAG"> F  </i>
   <i type="logical" name="LGAUGE"> T  </i>
   <i type="int" name="MAGATOM">     0</i>
   <v name="MAGDIPOL">      0.00000000      0.00000000      0.00000000</v>
   <v name="AVECCONST">      0.00000000      0.00000000      0.00000000</v>
  </separator>
  <separator name="response functions" >
   <i type="logical" name="LALL_IN_ONE"> F  </i>
   <i type="int" name="IALL_IN_ONE">    -1</i>
   <i type="int" name="NBANDS_WAVE">    -1</i>
   <i type="logical" name="LFINITE_TEMPERATURE"> F  </i>
   <i type="logical" name="LADDER"> F  </i>
   <i type="logical" name="LRPAFORCE"> F  </i>
   <i type="logical" name="LFXC"> F  </i>
   <i type="logical" name="LHARTREE"> T  </i>
   <i type="int" name="IBSE">     0</i>
   <v type="int" name="KPOINT">    -1     0     0     0</v>
   <i type="logical" name="LTCTC"> F  </i>
   <i type="logical" name="LTCTE"> F  </i>
   <i type="logical" name="LTETE"> F  </i>
   <i type="logical" name="LTRIPLET"> F  </i>
   <i type="logical" name="LFXCEPS"> F  </i>
   <i type="logical" name="LFXHEG"> F  </i>
   <i type="int" name="NATURALO">     2</i>
   <i type="logical" name="LHOLEGF"> F  </i>
   <i type="logical" name="L2ORDER"> F  </i>
   <i type="logical" name="LDMP1"> F  </i>
   <i type="logical" name="LMP2LT"> F  </i>
   <i type="logical" name="LSMP2LT"> F  </i>
   <i type="logical" name="LGWLF"> F  </i>
   <i name="ENCUTGW">     -1.60000002</i>
   <i name="ENCUTGWSOFT">     -1.60000002</i>
   <i name="ENCUTLF">     -1.00000000</i>
   <i type="logical" name="ESF_SPLINES"> F  </i>
   <i name="ESF_CONV">      0.01000000</i>
   <i type="int" name="ESF_NINTER">    15</i>
   <i type="int" name="LMAXMP2">    -1</i>
   <i name="SCISSOR">      0.00000000</i>
   <i type="int" name="NOMEGA">     0</i>
   <i type="int" name="NOMEGAR">     0</i>
   <i type="int" name="NBANDSGW">    -1</i>
   <i type="int" name="NBANDSO">    -1</i>
   <i type="int" name="NBANDSV">    -1</i>
   <i type="int" name="NELMGW">     1</i>
   <i type="int" name="NELMHF">     1</i>
   <i type="int" name="DIM">     3</i>
   <i type="int" name="IESPILON">     4</i>
   <i type="int" name="ANTIRES">     0</i>
   <i name="OMEGAMAX">    -30.00000000</i>
   <i name="OMEGAMIN">    -30.00000000</i>
   <i name="OMEGATL">   -200.00000000</i>
   <i type="int" name="OMEGAGRID">     0</i>
   <i name="CSHIFT">     -0.10000000</i>
   <i type="logical" name="LSELFENERGY"> F  </i>
   <i type="logical" name="LSPECTRAL"> F  </i>
   <i type="logical" name="LSPECTRALGW"> F  </i>
   <i type="logical" name="LSINGLES"> F  </i>
   <i type="logical" name="LFERMIGW"> F  </i>
   <i type="logical" name="ODDONLYGW"> F  </i>
   <i type="logical" name="EVENONLYGW"> F  </i>
   <i type="int" name="NKREDLFX">     1</i>
   <i type="int" name="NKREDLFY">     1</i>
   <i type="int" name="NKREDLFZ">     1</i>
   <i type="int" name="MAXMEM">  2800</i>
   <i type="int" name="TELESCOPE">     0</i>
   <i type="int" name="NTAUPAR">    -1</i>
   <i type="int" name="NOMEGAPAR">    -1</i>
   <i name="DAMP_NEWTON">      0.80000001</i>
   <i name="LAMBDA">      1.00000000</i>
  </separator>
  <separator name="External order field" >
   <i name="OFIELD_KAPPA">      0.00000000</i>
   <v name="OFIELD_K">      0.00000000      0.00000000      0.00000000</v>
   <i name="OFIELD_Q6_NEAR">      0.00000000</i>
   <i name="OFIELD_Q6_FAR">      0.00000000</i>
   <i name="OFIELD_A">      0.00000000</i>
  </separator>
  <separator name="optional k-points parameters" >
   <i type="int" name="KPOINTS_OPT_MODE">     1</i>
   <i type="logical" name="LKPOINTS_OPT"> F  </i>
  </separator>
 </parameters>
 <atominfo>
  <atoms>       1 </atoms>
  <types>       1 </types>
  <array name="atoms" >
   <dimension dim="1">ion</dimension>
   <field type="string">element</field>
   <field type="int">atomtype</field>
   <set>
    <rc><c>B </c><c>   1</c></rc>
   </set>
  </array>
  <array name="atomtypes" >
   <dimension dim="1">type</dimension>
   <field type="int">atomspertype</field>
   <field type="string">element</field>
   <field>mass</field>
   <field>valence</field>
   <field type="string">pseudopotential</field>
   <set>
    <rc><c>   1</c><c>B </c><c>     10.81100000</c><c>      3.00000000</c><c>  PAW_PBE B 06Sep2000                   </c></rc>
   </set>
  </array>
 </atominfo>
 <structure name="initialpos" >
  <crystal>
   <varray name="basis" >
    <v>      14.98650000       0.00000000       0.00000000 </v>
    <v>       0.00000000      12.48875000       0.00000000 </v>
    <v>       0.00000000       0.00000000      17.98380000 </v>
   </varray>
   <i name="volume">   3365.89569879 </i>
   <varray name="rec_basis" >
    <v>       0.06672672       0.00000000       0.00000000 </v>
    <v>       0.00000000       0.08007206       0.00000000 </v>
    <v>       0.00000000       0.00000000       0.05560560 </v>
   </varray>
  </crystal>
  <varray name="positions" >
   <v>       0.52123000       0.54500000       0.63796000 </v>
  </varray>
 </structure>
 <calculation>
  <scstep>
   <time name="dav">   45.76   46.56</time>
   <time name="total">   46.21   47.02</time>
   <energy>
    <i name="alphaZ">      0.02043887 </i>
    <i name="ewald">    -11.83967235 </i>
    <i name="hartreedc">    -42.57363686 </i>
    <i name="XCdc">      4.75549676 </i>
    <i name="pawpsdc">     43.49986551 </i>
    <i name="pawaedc">    -42.64454556 </i>
    <i name="eentropy">     -0.01086599 </i>
    <i name="bandstr">    -14.34862433 </i>
    <i name="atom">     71.16960075 </i>
    <i name="e_fr_energy">      8.02805680 </i>
    <i name="e_wo_entrp">      8.03892278 </i>
    <i name="e_0_energy">      8.03348979 </i>
   </energy>
  </scstep>
  <scstep>
   <time name="dav">   76.48   77.50</time>
   <time name="total">   76.48   77.50</time>
   <energy>
    <i name="e_fr_energy">      0.10766127 </i>
    <i name="e_wo_entrp">      0.13746370 </i>
    <i name="e_0_energy">      0.12256248 </i>
   </energy>
  </scstep>
  <scstep>
   <time name="dav">   48.47   49.26</time>
   <time name="total">   48.47   49.26</time>
   <energy>
    <i name="e_fr_energy">     -0.05493259 </i>
    <i name="e_wo_entrp">     -0.00209533 </i>
    <i name="e_0_energy">     -0.02851396 </i>
   </energy>
  </scstep>
  <scstep>
   <time name="dav">   51.46   52.30</time>
   <time name="total">   51.46   52.30</time>
   <energy>
    <i name="e_fr_energy">     -0.05821469 </i>
    <i name="e_wo_entrp">     -0.00521338 </i>
    <i name="e_0_energy">     -0.03171403 </i>
   </energy>
  </scstep>
  <scstep>
   <time name="dav">   66.78   67.70</time>
   <time name="total">   70.75   71.69</time>
   <energy>
    <i name="e_fr_energy">     -0.05825227 </i>
    <i name="e_wo_entrp">     -0.00525093 </i>
    <i name="e_0_energy">     -0.03175160 </i>
   </energy>
  </scstep>
  <scstep>
   <time name="dav">   57.04   57.92</time>
   <time name="total">   57.45   58.34</time>
   <energy>
    <i name="alphaZ">      0.02043887 </i>
    <i name="ewald">    -11.83967235 </i>
    <i name="hartreedc">    -42.57386617 </i>
    <i name="XCdc">      4.75548803 </i>
    <i name="pawpsdc">     43.56774988 </i>
    <i name="pawaedc">    -42.71246308 </i>
    <i name="eentropy">     -0.05300134 </i>
    <i name="bandstr">    -22.39252710 </i>
    <i name="atom">     71.16960075 </i>
    <i name="e_fr_energy">     -0.05825250 </i>
    <i name="e_wo_entrp">     -0.00525116 </i>
    <i name="e_0_energy">     -0.03175183 </i>
   </energy>
  </scstep>
  <structure>
   <crystal>
    <varray name="basis" >
     <v>      14.98650000       0.00000000       0.00000000 </v>
     <v>       0.00000000      12.48875000       0.00000000 </v>
     <v>       0.00000000       0.00000000      17.98380000 </v>
    </varray>
    <i name="volume">   3365.89569879 </i>
    <varray name="rec_basis" >
     <v>       0.06672672       0.00000000       0.00000000 </v>
     <v>       0.00000000       0.08007206       0.00000000 </v>
     <v>       0.00000000       0.00000000       0.05560560 </v>
    </varray>
   </crystal>
   <varray name="positions" >
    <v>       0.52123000       0.54500000       0.63796000 </v>
   </varray>
  </structure>
  <varray name="forces" >
   <v>       0.00000000       0.00000000       0.00000000 </v>
  </varray>
  <varray name="stress" >
   <v>      -0.00047926       0.00000000       0.00000000 </v>
   <v>       0.00000000      -0.00048682       0.00000000 </v>
   <v>       0.00000000       0.00000000      -0.00046462 </v>
  </varray>
  <energy>
   <i name="e_fr_energy">     -0.05825250 </i>
   <i name="e_wo_entrp">     -0.00525116 </i>
   <i name="e_0_energy">     -0.03175183 </i>
  </energy>
  <time name="totalsc">  405.14  410.69</time>
  <eigenvalues>
   <array>
    <dimension dim="1">band</dimension>
    <dimension dim="2">kpoint</dimension>
    <dimension dim="3">spin</dimension>
    <field>eigene</field>
    <field>occ</field>
    <set>
     <set comment="spin 1">
      <set comment="kpoint 1">
       <r>   -9.4098    1.0000 </r>
       <r>   -3.5729    0.1667 </r>
       <r>   -3.5729    0.1667 </r>
       <r>   -3.5728    0.1659 </r>
       <r>   -0.2622    0.0000 </r>
       <r>    0.2952    0.0000 </r>
       <r>    0.3100    0.0000 </r>
       <r>    0.4398    0.0000 </r>
       <r>    0.5744    0.0000 </r>
       <r>    0.6878    0.0000 </r>
       <r>    0.8300    0.0000 </r>
       <r>    0.9119    0.0000 </r>
       <r>    0.9458    0.0000 </r>
       <r>    1.0374    0.0000 </r>
       <r>    1.0808    0.0000 </r>
       <r>    1.1755    0.0000 </r>
       <r>    1.2110    0.0000 </r>
       <r>    1.2913    0.0000 </r>
       <r>    1.3367    0.0000 </r>
       <r>    1.3548    0.0000 </r>
       <r>    1.4302    0.0000 </r>
       <r>    1.5009    0.0000 </r>
       <r>    1.5787    0.0000 </r>
       <r>    1.7106    0.0000 </r>
      </set>
      <set comment="kpoint 2">
       <r>   -9.4098    1.0000 </r>
       <r>   -3.5729    0.1667 </r>
       <r>   -3.5729    0.1667 </r>
       <r>   -3.5728    0.1659 </r>
       <r>   -0.2523    0.0000 </r>
       <r>    0.2697    0.0000 </r>
       <r>    0.3213    0.0000 </r>
       <r>    0.3741    0.0000 </r>
       <r>    0.6905    0.0000 </r>
       <r>    0.7091    0.0000 </r>
       <r>    0.8020    0.0000 </r>
       <r>    0.8318    0.0000 </r>
       <r>    0.8428    0.0000 </r>
       <r>    1.1536    0.0000 </r>
       <r>    1.1668    0.0000 </r>
       <r>    1.1994    0.0000 </r>
       <r>    1.2218    0.0000 </r>
       <r>    1.2591    0.0000 </r>
       <r>    1.3342    0.0000 </r>
       <r>    1.3534    0.0000 </r>
       <r>    1.3902    0.0000 </r>
       <r>    1.5790    0.0000 </r>
       <r>    1.6403    0.0000 </r>
       <r>    1.6906    0.0000 </r>
      </set>
      <set comment="kpoint 3">
       <r>   -9.4098    1.0000 </r>
       <r>   -3.5729    0.1667 </r>
       <r>   -3.5729    0.1667 </r>
       <r>   -3.5728    0.1659 </r>
       <r>   -0.2340    0.0000 </r>
       <r>    0.1995    0.0000 </r>
       <r>    0.3429    0.0000 </r>
       <r>    0.3763    0.0000 </r>
       <r>    0.7049    0.0000 </r>
       <r>    0.7127    0.0000 </r>
       <r>    0.7171    0.0000 </r>
       <r>    0.8560    0.0000 </r>
       <r>    0.8734    0.0000 </r>
       <r>    1.0913    0.0000 </r>
       <r>    1.1953    0.0000 </r>
       <r>    1.2360    0.0000 </r>
       <r>    1.2753    0.0000 </r>
       <r>    1.2974    0.0000 </r>
       <r>    1.3901    0.0000 </r>
       <r>    1.4008    0.0000 </r>
       <r>    1.4086    0.0000 </r>
       <r>    1.5990    0.0000 </r>
       <r>    1.5994    0.0000 </r>
       <r>    1.6520    0.0000 </r>
      </set>
      <set comment="kpoint 4">
       <r>   -9.4098    1.0000 </r>
       <r>   -3.5729    0.1668 </r>
       <r>   -3.5729    0.1667 </r>
       <r>   -3.5728    0.1659 </r>
       <r>   -0.2117    0.0000 </r>
       <r>    0.1314    0.0000 </r>
       <r>    0.3721    0.0000 </r>
       <r>    0.4076    0.0000 </r>
       <r>    0.6251    0.0000 </r>
       <r>    0.6280    0.0000 </r>
       <r>    0.7407    0.0000 </r>
       <r>    0.8887    0.0000 </r>
       <r>    1.0027    0.0000 </r>
       <r>    1.0420    0.0000 </r>
       <r>    1.1687    0.0000 </r>
       <r>    1.2213    0.0000 </r>
       <r>    1.3095    0.0000 </r>
       <r>    1.3650    0.0000 </r>
       <r>    1.4388    0.0000 </r>
       <r>    1.4873    0.0000 </r>
       <r>    1.5081    0.0000 </r>
       <r>    1.5479    0.0000 </r>
       <r>    1.5619    0.0000 </r>
       <r>    1.6076    0.0000 </r>
      </set>
      <set comment="kpoint 5">
       <r>   -9.4098    1.0000 </r>
       <r>   -3.5729    0.1668 </r>
       <r>   -3.5729    0.1667 </r>
       <r>   -3.5728    0.1659 </r>
       <r>   -0.1946    0.0000 </r>
       <r>    0.0901    0.0000 </r>
       <r>    0.3987    0.0000 </r>
       <r>    0.4460    0.0000 </r>
       <r>    0.5621    0.0000 </r>
       <r>    0.5732    0.0000 </r>
       <r>    0.7611    0.0000 </r>
       <r>    0.9137    0.0000 </r>
       <r>    0.9721    0.0000 </r>
       <r>    1.1029    0.0000 </r>
       <r>    1.2138    0.0000 </r>
       <r>    1.2411    0.0000 </r>
       <r>    1.3442    0.0000 </r>
       <r>    1.4061    0.0000 </r>
       <r>    1.4061    0.0000 </r>
       <r>    1.4508    0.0000 </r>
       <r>    1.4556    0.0000 </r>
       <r>    1.5184    0.0000 </r>
       <r>    1.5834    0.0000 </r>
       <r>    1.5860    0.0000 </r>
      </set>
      <set comment="kpoint 6">
       <r>   -9.4098    1.0000 </r>
       <r>   -3.5729    0.1667 </r>
       <r>   -3.5729    0.1666 </r>
       <r>   -3.5728    0.1660 </r>
       <r>   -0.2530    0.0000 </r>
       <r>    0.3033    0.0000 </r>
       <r>    0.3190    0.0000 </r>
       <r>    0.4487    0.0000 </r>
       <r>    0.5629    0.0000 </r>
       <r>    0.5929    0.0000 </r>
       <r>    0.9195    0.0000 </r>
       <r>    0.9479    0.0000 </r>
       <r>    0.9656    0.0000 </r>
       <r>    1.0265    0.0000 </r>
       <r>    1.0866    0.0000 </r>
       <r>    1.0889    0.0000 </r>
       <r>    1.0978    0.0000 </r>
       <r>    1.1908    0.0000 </r>
       <r>    1.3362    0.0000 </r>
       <r>    1.4581    0.0000 </r>
       <r>    1.4958    0.0000 </r>
       <r>    1.5869    0.0000 </r>
       <r>    1.6405    0.0000 </r>
       <r>    1.6821    0.0000 </r>
      </set>
      <set comment="kpoint 7">
       <r>   -9.4098    1.0000 </r>
       <r>   -3.5729    0.1667 </r>
       <r>   -3.5729    0.1667 </r>
       <r>   -3.5728    0.1660 </r>
       <r>   -0.2431    0.0000 </r>
       <r>    0.2782    0.0000 </r>
       <r>    0.3302    0.0000 </r>
       <r>    0.3831    0.0000 </r>
       <r>    0.5797    0.0000 </r>
       <r>    0.7132    0.0000 </r>
       <r>    0.8107    0.0000 </r>
       <r>    0.8419    0.0000 </r>
       <r>    0.9692    0.0000 </r>
       <r>    1.0607    0.0000 </r>
       <r>    1.0632    0.0000 </r>
       <r>    1.1377    0.0000 </r>
       <r>    1.1947    0.0000 </r>
       <r>    1.2365    0.0000 </r>
       <r>    1.4225    0.0000 </r>
       <r>    1.4682    0.0000 </r>
       <r>    1.4729    0.0000 </r>
       <r>    1.5612    0.0000 </r>
       <r>    1.5772    0.0000 </r>
       <r>    1.6078    0.0000 </r>
      </set>
      <set comment="kpoint 8">
       <r>   -9.4098    1.0000 </r>
       <r>   -3.5729    0.1667 </r>
       <r>   -3.5729    0.1667 </r>
       <r>   -3.5728    0.1660 </r>
       <r>   -0.2249    0.0000 </r>
       <r>    0.2086    0.0000 </r>
       <r>    0.3519    0.0000 </r>
       <r>    0.3849    0.0000 </r>
       <r>    0.6004    0.0000 </r>
       <r>    0.7140    0.0000 </r>
       <r>    0.7225    0.0000 </r>
       <r>    0.8755    0.0000 </r>
       <r>    0.9665    0.0000 </r>
       <r>    1.0046    0.0000 </r>
       <r>    1.0864    0.0000 </r>
       <r>    1.1543    0.0000 </r>
       <r>    1.3270    0.0000 </r>
       <r>    1.3524    0.0000 </r>
       <r>    1.3989    0.0000 </r>
       <r>    1.4710    0.0000 </r>
       <r>    1.5004    0.0000 </r>
       <r>    1.5119    0.0000 </r>
       <r>    1.5346    0.0000 </r>
       <r>    1.6346    0.0000 </r>
      </set>
      <set comment="kpoint 9">
       <r>   -9.4098    1.0000 </r>
       <r>   -3.5729    0.1668 </r>
       <r>   -3.5729    0.1667 </r>
       <r>   -3.5728    0.1660 </r>
       <r>   -0.2027    0.0000 </r>
       <r>    0.1407    0.0000 </r>
       <r>    0.3809    0.0000 </r>
       <r>    0.4161    0.0000 </r>
       <r>    0.6263    0.0000 </r>
       <r>    0.6345    0.0000 </r>
       <r>    0.6371    0.0000 </r>
       <r>    0.8953    0.0000 </r>
       <r>    1.0201    0.0000 </r>
       <r>    1.0411    0.0000 </r>
       <r>    1.1139    0.0000 </r>
       <r>    1.1899    0.0000 </r>
       <r>    1.2938    0.0000 </r>
       <r>    1.3708    0.0000 </r>
       <r>    1.4016    0.0000 </r>
       <r>    1.4875    0.0000 </r>
       <r>    1.5481    0.0000 </r>
       <r>    1.5538    0.0000 </r>
       <r>    1.5736    0.0000 </r>
       <r>    1.6434    0.0000 </r>
      </set>
      <set comment="kpoint 10">
       <r>   -9.4098    1.0000 </r>
       <r>   -3.5729    0.1668 </r>
       <r>   -3.5729    0.1667 </r>
       <r>   -3.5728    0.1660 </r>
       <r>   -0.1856    0.0000 </r>
       <r>    0.0995    0.0000 </r>
       <r>    0.4073    0.0000 </r>
       <r>    0.4544    0.0000 </r>
       <r>    0.5708    0.0000 </r>
       <r>    0.5828    0.0000 </r>
       <r>    0.6494    0.0000 </r>
       <r>    0.8513    0.0000 </r>
       <r>    1.0400    0.0000 </r>
       <r>    1.1371    0.0000 </r>
       <r>    1.1927    0.0000 </r>
       <r>    1.2327    0.0000 </r>
       <r>    1.2610    0.0000 </r>
       <r>    1.3336    0.0000 </r>
       <r>    1.3381    0.0000 </r>
       <r>    1.4222    0.0000 </r>
       <r>    1.5277    0.0000 </r>
       <r>    1.6453    0.0000 </r>
       <r>    1.6506    0.0000 </r>
       <r>    1.7093    0.0000 </r>
      </set>
      <set comment="kpoint 11">
       <r>   -9.4098    1.0000 </r>
       <r>   -3.5729    0.1667 </r>
       <r>   -3.5729    0.1666 </r>
       <r>   -3.5729    0.1663 </r>
       <r>   -0.2350    0.0000 </r>
       <r>    0.3163    0.0000 </r>
       <r>    0.3369    0.0000 </r>
       <r>    0.4618    0.0000 </r>
       <r>    0.4684    0.0000 </r>
       <r>    0.6055    0.0000 </r>
       <r>    0.9194    0.0000 </r>
       <r>    0.9565    0.0000 </r>
       <r>    0.9620    0.0000 </r>
       <r>    0.9762    0.0000 </r>
       <r>    1.0741    0.0000 </r>
       <r>    1.0812    0.0000 </r>
       <r>    1.1050    0.0000 </r>
       <r>    1.1370    0.0000 </r>
       <r>    1.2315    0.0000 </r>
       <r>    1.5488    0.0000 </r>
       <r>    1.5778    0.0000 </r>
       <r>    1.6114    0.0000 </r>
       <r>    1.6466    0.0000 </r>
       <r>    1.6632    0.0000 </r>
      </set>
      <set comment="kpoint 12">
       <r>   -9.4098    1.0000 </r>
       <r>   -3.5729    0.1667 </r>
       <r>   -3.5729    0.1667 </r>
       <r>   -3.5729    0.1663 </r>
       <r>   -0.2252    0.0000 </r>
       <r>    0.2934    0.0000 </r>
       <r>    0.3481    0.0000 </r>
       <r>    0.3997    0.0000 </r>
       <r>    0.4744    0.0000 </r>
       <r>    0.7302    0.0000 </r>
       <r>    0.8271    0.0000 </r>
       <r>    0.8584    0.0000 </r>
       <r>    0.9411    0.0000 </r>
       <r>    0.9594    0.0000 </r>
       <r>    1.0197    0.0000 </r>
       <r>    1.1293    0.0000 </r>
       <r>    1.2101    0.0000 </r>
       <r>    1.2553    0.0000 </r>
       <r>    1.3446    0.0000 </r>
       <r>    1.4541    0.0000 </r>
       <r>    1.4825    0.0000 </r>
       <r>    1.6129    0.0000 </r>
       <r>    1.6164    0.0000 </r>
       <r>    1.6773    0.0000 </r>
      </set>
      <set comment="kpoint 13">
       <r>   -9.4098    1.0000 </r>
       <r>   -3.5729    0.1667 </r>
       <r>   -3.5729    0.1667 </r>
       <r>   -3.5729    0.1663 </r>
       <r>   -0.2070    0.0000 </r>
       <r>    0.2263    0.0000 </r>
       <r>    0.3696    0.0000 </r>
       <r>    0.3991    0.0000 </r>
       <r>    0.4951    0.0000 </r>
       <r>    0.7321    0.0000 </r>
       <r>    0.7371    0.0000 </r>
       <r>    0.8586    0.0000 </r>
       <r>    0.9035    0.0000 </r>
       <r>    0.9795    0.0000 </r>
       <r>    1.0282    0.0000 </r>
       <r>    1.1500    0.0000 </r>
       <r>    1.3205    0.0000 </r>
       <r>    1.3483    0.0000 </r>
       <r>    1.3946    0.0000 </r>
       <r>    1.4102    0.0000 </r>
       <r>    1.5034    0.0000 </r>
       <r>    1.5576    0.0000 </r>
       <r>    1.6329    0.0000 </r>
       <r>    1.6935    0.0000 </r>
      </set>
      <set comment="kpoint 14">
       <r>   -9.4098    1.0000 </r>
       <r>   -3.5729    0.1667 </r>
       <r>   -3.5729    0.1667 </r>
       <r>   -3.5729    0.1663 </r>
       <r>   -0.1849    0.0000 </r>
       <r>    0.1592    0.0000 </r>
       <r>    0.3984    0.0000 </r>
       <r>    0.4292    0.0000 </r>
       <r>    0.5225    0.0000 </r>
       <r>    0.6525    0.0000 </r>
       <r>    0.6531    0.0000 </r>
       <r>    0.7883    0.0000 </r>
       <r>    1.0072    0.0000 </r>
       <r>    1.0522    0.0000 </r>
       <r>    1.0658    0.0000 </r>
       <r>    1.1754    0.0000 </r>
       <r>    1.2689    0.0000 </r>
       <r>    1.2754    0.0000 </r>
       <r>    1.4504    0.0000 </r>
       <r>    1.5184    0.0000 </r>
       <r>    1.5824    0.0000 </r>
       <r>    1.6062    0.0000 </r>
       <r>    1.6614    0.0000 </r>
       <r>    1.6847    0.0000 </r>
      </set>
      <set comment="kpoint 15">
       <r>   -9.4098    1.0000 </r>
       <r>   -3.5729    0.1668 </r>
       <r>   -3.5729    0.1667 </r>
       <r>   -3.5729    0.1663 </r>
       <r>   -0.1679    0.0000 </r>
       <r>    0.1183    0.0000 </r>
       <r>    0.4245    0.0000 </r>
       <r>    0.4657    0.0000 </r>
       <r>    0.5472    0.0000 </r>
       <r>    0.5874    0.0000 </r>
       <r>    0.6019    0.0000 </r>
       <r>    0.7409    0.0000 </r>
       <r>    1.0317    0.0000 </r>
       <r>    1.0958    0.0000 </r>
       <r>    1.1911    0.0000 </r>
       <r>    1.1971    0.0000 </r>
       <r>    1.2211    0.0000 </r>
       <r>    1.2518    0.0000 </r>
       <r>    1.3896    0.0000 </r>
       <r>    1.4617    0.0000 </r>
       <r>    1.6379    0.0000 </r>
       <r>    1.6955    0.0000 </r>
       <r>    1.7432    0.0000 </r>
       <r>    1.7683    0.0000 </r>
      </set>
      <set comment="kpoint 16">
       <r>   -9.4098    1.0000 </r>
       <r>   -3.5729    0.1667 </r>
       <r>   -3.5729    0.1667 </r>
       <r>   -3.5729    0.1666 </r>
       <r>   -0.2090    0.0000 </r>
       <r>    0.3082    0.0000 </r>
       <r>    0.3633    0.0000 </r>
       <r>    0.4000    0.0000 </r>
       <r>    0.4927    0.0000 </r>
       <r>    0.6327    0.0000 </r>
       <r>    0.8396    0.0000 </r>
       <r>    0.8597    0.0000 </r>
       <r>    0.9600    0.0000 </r>
       <r>    0.9716    0.0000 </r>
       <r>    1.0222    0.0000 </r>
       <r>    1.1044    0.0000 </r>
       <r>    1.1102    0.0000 </r>
       <r>    1.1528    0.0000 </r>
       <r>    1.2778    0.0000 </r>
       <r>    1.4637    0.0000 </r>
       <r>    1.4861    0.0000 </r>
       <r>    1.5864    0.0000 </r>
       <r>    1.6245    0.0000 </r>
       <r>    1.6973    0.0000 </r>
      </set>
      <set comment="kpoint 17">
       <r>   -9.4098    1.0000 </r>
       <r>   -3.5729    0.1667 </r>
       <r>   -3.5729    0.1667 </r>
       <r>   -3.5729    0.1666 </r>
       <r>   -0.1992    0.0000 </r>
       <r>    0.3014    0.0000 </r>
       <r>    0.3744    0.0000 </r>
       <r>    0.3849    0.0000 </r>
       <r>    0.4360    0.0000 </r>
       <r>    0.7530    0.0000 </r>
       <r>    0.8316    0.0000 </r>
       <r>    0.8343    0.0000 </r>
       <r>    0.8801    0.0000 </r>
       <r>    0.8943    0.0000 </r>
       <r>    0.9225    0.0000 </r>
       <r>    1.2239    0.0000 </r>
       <r>    1.2321    0.0000 </r>
       <r>    1.2812    0.0000 </r>
       <r>    1.2995    0.0000 </r>
       <r>    1.3580    0.0000 </r>
       <r>    1.3896    0.0000 </r>
       <r>    1.6962    0.0000 </r>
       <r>    1.7018    0.0000 </r>
       <r>    1.7502    0.0000 </r>
      </set>
      <set comment="kpoint 18">
       <r>   -9.4098    1.0000 </r>
       <r>   -3.5729    0.1667 </r>
       <r>   -3.5729    0.1667 </r>
       <r>   -3.5729    0.1666 </r>
       <r>   -0.1812    0.0000 </r>
       <r>    0.2504    0.0000 </r>
       <r>    0.3750    0.0000 </r>
       <r>    0.3957    0.0000 </r>
       <r>    0.4502    0.0000 </r>
       <r>    0.7289    0.0000 </r>
       <r>    0.7578    0.0000 </r>
       <r>    0.7971    0.0000 </r>
       <r>    0.8818    0.0000 </r>
       <r>    0.9240    0.0000 </r>
       <r>    0.9282    0.0000 </r>
       <r>    1.2427    0.0000 </r>
       <r>    1.2482    0.0000 </r>
       <r>    1.2932    0.0000 </r>
       <r>    1.3967    0.0000 </r>
       <r>    1.4213    0.0000 </r>
       <r>    1.4472    0.0000 </r>
       <r>    1.6779    0.0000 </r>
       <r>    1.7435    0.0000 </r>
       <r>    1.7441    0.0000 </r>
      </set>
      <set comment="kpoint 19">
       <r>   -9.4098    1.0000 </r>
       <r>   -3.5729    0.1667 </r>
       <r>   -3.5729    0.1667 </r>
       <r>   -3.5729    0.1667 </r>
       <r>   -0.1594    0.0000 </r>
       <r>    0.1863    0.0000 </r>
       <r>    0.3977    0.0000 </r>
       <r>    0.4242    0.0000 </r>
       <r>    0.4828    0.0000 </r>
       <r>    0.6514    0.0000 </r>
       <r>    0.6807    0.0000 </r>
       <r>    0.7150    0.0000 </r>
       <r>    0.9089    0.0000 </r>
       <r>    0.9592    0.0000 </r>
       <r>    1.0822    0.0000 </r>
       <r>    1.1671    0.0000 </r>
       <r>    1.1717    0.0000 </r>
       <r>    1.3224    0.0000 </r>
       <r>    1.5427    0.0000 </r>
       <r>    1.5461    0.0000 </r>
       <r>    1.5856    0.0000 </r>
       <r>    1.6519    0.0000 </r>
       <r>    1.6712    0.0000 </r>
       <r>    1.7709    0.0000 </r>
      </set>
      <set comment="kpoint 20">
       <r>   -9.4098    1.0000 </r>
       <r>   -3.5729    0.1667 </r>
       <r>   -3.5729    0.1667 </r>
       <r>   -3.5729    0.1667 </r>
       <r>   -0.1426    0.0000 </r>
       <r>    0.1463    0.0000 </r>
       <r>    0.4224    0.0000 </r>
       <r>    0.4497    0.0000 </r>
       <r>    0.5196    0.0000 </r>
       <r>    0.5942    0.0000 </r>
       <r>    0.6304    0.0000 </r>
       <r>    0.6584    0.0000 </r>
       <r>    0.9342    0.0000 </r>
       <r>    0.9996    0.0000 </r>
       <r>    1.0983    0.0000 </r>
       <r>    1.1164    0.0000 </r>
       <r>    1.2582    0.0000 </r>
       <r>    1.3440    0.0000 </r>
       <r>    1.4479    0.0000 </r>
       <r>    1.5823    0.0000 </r>
       <r>    1.6898    0.0000 </r>
       <r>    1.7249    0.0000 </r>
       <r>    1.7756    0.0000 </r>
       <r>    1.8049    0.0000 </r>
      </set>
      <set comment="kpoint 21">
       <r>   -9.4098    1.0000 </r>
       <r>   -3.5730    0.1670 </r>
       <r>   -3.5729    0.1666 </r>
       <r>   -3.5729    0.1666 </r>
       <r>   -0.1767    0.0000 </r>
       <r>    0.2435    0.0000 </r>
       <r>    0.3976    0.0000 </r>
       <r>    0.4145    0.0000 </r>
       <r>    0.5263    0.0000 </r>
       <r>    0.6685    0.0000 </r>
       <r>    0.7523    0.0000 </r>
       <r>    0.7637    0.0000 </r>
       <r>    0.8833    0.0000 </r>
       <r>    1.0040    0.0000 </r>
       <r>    1.0250    0.0000 </r>
       <r>    1.0517    0.0000 </r>
       <r>    1.1378    0.0000 </r>
       <r>    1.1828    0.0000 </r>
       <r>    1.3745    0.0000 </r>
       <r>    1.3777    0.0000 </r>
       <r>    1.4391    0.0000 </r>
       <r>    1.4998    0.0000 </r>
       <r>    1.5431    0.0000 </r>
       <r>    1.7342    0.0000 </r>
      </set>
      <set comment="kpoint 22">
       <r>   -9.4098    1.0000 </r>
       <r>   -3.5730    0.1670 </r>
       <r>   -3.5729    0.1666 </r>
       <r>   -3.5729    0.1666 </r>
       <r>   -0.1671    0.0000 </r>
       <r>    0.2524    0.0000 </r>
       <r>    0.3849    0.0000 </r>
       <r>    0.4085    0.0000 </r>
       <r>    0.4695    0.0000 </r>
       <r>    0.7292    0.0000 </r>
       <r>    0.7625    0.0000 </r>
       <r>    0.7969    0.0000 </r>
       <r>    0.8252    0.0000 </r>
       <r>    0.8977    0.0000 </r>
       <r>    0.9362    0.0000 </r>
       <r>    1.1499    0.0000 </r>
       <r>    1.2339    0.0000 </r>
       <r>    1.2765    0.0000 </r>
       <r>    1.2984    0.0000 </r>
       <r>    1.3238    0.0000 </r>
       <r>    1.4532    0.0000 </r>
       <r>    1.6365    0.0000 </r>
       <r>    1.6708    0.0000 </r>
       <r>    1.7416    0.0000 </r>
      </set>
      <set comment="kpoint 23">
       <r>   -9.4098    1.0000 </r>
       <r>   -3.5730    0.1670 </r>
       <r>   -3.5729    0.1666 </r>
       <r>   -3.5729    0.1666 </r>
       <r>   -0.1494    0.0000 </r>
       <r>    0.2590    0.0000 </r>
       <r>    0.3217    0.0000 </r>
       <r>    0.4295    0.0000 </r>
       <r>    0.4803    0.0000 </r>
       <r>    0.6527    0.0000 </r>
       <r>    0.7721    0.0000 </r>
       <r>    0.8142    0.0000 </r>
       <r>    0.8181    0.0000 </r>
       <r>    0.8307    0.0000 </r>
       <r>    0.9609    0.0000 </r>
       <r>    1.1538    0.0000 </r>
       <r>    1.1594    0.0000 </r>
       <r>    1.3118    0.0000 </r>
       <r>    1.4265    0.0000 </r>
       <r>    1.4525    0.0000 </r>
       <r>    1.4999    0.0000 </r>
       <r>    1.7356    0.0000 </r>
       <r>    1.7746    0.0000 </r>
       <r>    1.8222    0.0000 </r>
      </set>
      <set comment="kpoint 24">
       <r>   -9.4098    1.0000 </r>
       <r>   -3.5730    0.1670 </r>
       <r>   -3.5729    0.1667 </r>
       <r>   -3.5729    0.1666 </r>
       <r>   -0.1280    0.0000 </r>
       <r>    0.2200    0.0000 </r>
       <r>    0.3198    0.0000 </r>
       <r>    0.4573    0.0000 </r>
       <r>    0.5131    0.0000 </r>
       <r>    0.5779    0.0000 </r>
       <r>    0.7160    0.0000 </r>
       <r>    0.7337    0.0000 </r>
       <r>    0.8219    0.0000 </r>
       <r>    0.8637    0.0000 </r>
       <r>    1.0655    0.0000 </r>
       <r>    1.0740    0.0000 </r>
       <r>    1.1295    0.0000 </r>
       <r>    1.4410    0.0000 </r>
       <r>    1.5091    0.0000 </r>
       <r>    1.5790    0.0000 </r>
       <r>    1.6397    0.0000 </r>
       <r>    1.6726    0.0000 </r>
       <r>    1.8044    0.0000 </r>
       <r>    1.8362    0.0000 </r>
      </set>
      <set comment="kpoint 25">
       <r>   -9.4098    1.0000 </r>
       <r>   -3.5730    0.1670 </r>
       <r>   -3.5729    0.1667 </r>
       <r>   -3.5729    0.1666 </r>
       <r>   -0.1118    0.0000 </r>
       <r>    0.1830    0.0000 </r>
       <r>    0.3409    0.0000 </r>
       <r>    0.4819    0.0000 </r>
       <r>    0.5263    0.0000 </r>
       <r>    0.5538    0.0000 </r>
       <r>    0.6678    0.0000 </r>
       <r>    0.6686    0.0000 </r>
       <r>    0.8474    0.0000 </r>
       <r>    0.9046    0.0000 </r>
       <r>    1.0045    0.0000 </r>
       <r>    1.0214    0.0000 </r>
       <r>    1.2938    0.0000 </r>
       <r>    1.4571    0.0000 </r>
       <r>    1.5144    0.0000 </r>
       <r>    1.6463    0.0000 </r>
       <r>    1.7241    0.0000 </r>
       <r>    1.7409    0.0000 </r>
       <r>    1.8174    0.0000 </r>
       <r>    1.8379    0.0000 </r>
      </set>
      <set comment="kpoint 26">
       <r>   -9.4098    1.0000 </r>
       <r>   -3.5730    0.1673 </r>
       <r>   -3.5729    0.1666 </r>
       <r>   -3.5729    0.1666 </r>
       <r>   -0.1426    0.0000 </r>
       <r>    0.1762    0.0000 </r>
       <r>    0.4372    0.0000 </r>
       <r>    0.4569    0.0000 </r>
       <r>    0.5647    0.0000 </r>
       <r>    0.6763    0.0000 </r>
       <r>    0.6772    0.0000 </r>
       <r>    0.7113    0.0000 </r>
       <r>    0.8102    0.0000 </r>
       <r>    0.9473    0.0000 </r>
       <r>    1.0420    0.0000 </r>
       <r>    1.0956    0.0000 </r>
       <r>    1.1771    0.0000 </r>
       <r>    1.2295    0.0000 </r>
       <r>    1.2981    0.0000 </r>
       <r>    1.3025    0.0000 </r>
       <r>    1.4239    0.0000 </r>
       <r>    1.4329    0.0000 </r>
       <r>    1.6103    0.0000 </r>
       <r>    1.7794    0.0000 </r>
      </set>
      <set comment="kpoint 27">
       <r>   -9.4098    1.0000 </r>
       <r>   -3.5730    0.1673 </r>
       <r>   -3.5729    0.1666 </r>
       <r>   -3.5729    0.1666 </r>
       <r>   -0.1331    0.0000 </r>
       <r>    0.1873    0.0000 </r>
       <r>    0.4225    0.0000 </r>
       <r>    0.4479    0.0000 </r>
       <r>    0.5126    0.0000 </r>
       <r>    0.6521    0.0000 </r>
       <r>    0.6878    0.0000 </r>
       <r>    0.7389    0.0000 </r>
       <r>    0.8375    0.0000 </r>
       <r>    0.9368    0.0000 </r>
       <r>    0.9833    0.0000 </r>
       <r>    1.0751    0.0000 </r>
       <r>    1.1721    0.0000 </r>
       <r>    1.1929    0.0000 </r>
       <r>    1.3202    0.0000 </r>
       <r>    1.3711    0.0000 </r>
       <r>    1.5568    0.0000 </r>
       <r>    1.5630    0.0000 </r>
       <r>    1.6346    0.0000 </r>
       <r>    1.7848    0.0000 </r>
      </set>
      <set comment="kpoint 28">
       <r>   -9.4098    1.0000 </r>
       <r>   -3.5730    0.1673 </r>
       <r>   -3.5729    0.1666 </r>
       <r>   -3.5729    0.1666 </r>
       <r>   -0.1160    0.0000 </r>
       <r>    0.2081    0.0000 </r>
       <r>    0.3451    0.0000 </r>
       <r>    0.4682    0.0000 </r>
       <r>    0.5242    0.0000 </r>
       <r>    0.5758    0.0000 </r>
       <r>    0.7098    0.0000 </r>
       <r>    0.7454    0.0000 </r>
       <r>    0.8428    0.0000 </r>
       <r>    0.8611    0.0000 </r>
       <r>    1.0001    0.0000 </r>
       <r>    1.0748    0.0000 </r>
       <r>    1.0799    0.0000 </r>
       <r>    1.2391    0.0000 </r>
       <r>    1.4630    0.0000 </r>
       <r>    1.5204    0.0000 </r>
       <r>    1.6186    0.0000 </r>
       <r>    1.7120    0.0000 </r>
       <r>    1.7394    0.0000 </r>
       <r>    1.7847    0.0000 </r>
      </set>
      <set comment="kpoint 29">
       <r>   -9.4098    1.0000 </r>
       <r>   -3.5730    0.1673 </r>
       <r>   -3.5729    0.1667 </r>
       <r>   -3.5729    0.1666 </r>
       <r>   -0.0954    0.0000 </r>
       <r>    0.2323    0.0000 </r>
       <r>    0.2816    0.0000 </r>
       <r>    0.4950    0.0000 </r>
       <r>    0.4979    0.0000 </r>
       <r>    0.5600    0.0000 </r>
       <r>    0.7352    0.0000 </r>
       <r>    0.7715    0.0000 </r>
       <r>    0.7763    0.0000 </r>
       <r>    0.7796    0.0000 </r>
       <r>    0.9864    0.0000 </r>
       <r>    0.9925    0.0000 </r>
       <r>    1.1643    0.0000 </r>
       <r>    1.3971    0.0000 </r>
       <r>    1.6149    0.0000 </r>
       <r>    1.6164    0.0000 </r>
       <r>    1.6859    0.0000 </r>
       <r>    1.7129    0.0000 </r>
       <r>    1.8522    0.0000 </r>
       <r>    1.8864    0.0000 </r>
      </set>
      <set comment="kpoint 30">
       <r>   -9.4098    1.0000 </r>
       <r>   -3.5730    0.1673 </r>
       <r>   -3.5729    0.1667 </r>
       <r>   -3.5729    0.1666 </r>
       <r>   -0.0800    0.0000 </r>
       <r>    0.2263    0.0000 </r>
       <r>    0.2735    0.0000 </r>
       <r>    0.4480    0.0000 </r>
       <r>    0.5180    0.0000 </r>
       <r>    0.5989    0.0000 </r>
       <r>    0.7116    0.0000 </r>
       <r>    0.7125    0.0000 </r>
       <r>    0.7750    0.0000 </r>
       <r>    0.8193    0.0000 </r>
       <r>    0.9202    0.0000 </r>
       <r>    0.9378    0.0000 </r>
       <r>    1.3318    0.0000 </r>
       <r>    1.5034    0.0000 </r>
       <r>    1.5834    0.0000 </r>
       <r>    1.6416    0.0000 </r>
       <r>    1.7543    0.0000 </r>
       <r>    1.7567    0.0000 </r>
       <r>    1.8787    0.0000 </r>
       <r>    1.8836    0.0000 </r>
      </set>
      <set comment="kpoint 31">
       <r>   -9.4098    1.0000 </r>
       <r>   -3.5730    0.1675 </r>
       <r>   -3.5729    0.1666 </r>
       <r>   -3.5729    0.1665 </r>
       <r>   -0.1172    0.0000 </r>
       <r>    0.1331    0.0000 </r>
       <r>    0.4723    0.0000 </r>
       <r>    0.5049    0.0000 </r>
       <r>    0.5971    0.0000 </r>
       <r>    0.6093    0.0000 </r>
       <r>    0.6228    0.0000 </r>
       <r>    0.7477    0.0000 </r>
       <r>    0.7620    0.0000 </r>
       <r>    0.8894    0.0000 </r>
       <r>    1.0744    0.0000 </r>
       <r>    1.1477    0.0000 </r>
       <r>    1.2138    0.0000 </r>
       <r>    1.2304    0.0000 </r>
       <r>    1.2439    0.0000 </r>
       <r>    1.2848    0.0000 </r>
       <r>    1.3638    0.0000 </r>
       <r>    1.3714    0.0000 </r>
       <r>    1.7154    0.0000 </r>
       <r>    1.8571    0.0000 </r>
      </set>
      <set comment="kpoint 32">
       <r>   -9.4098    1.0000 </r>
       <r>   -3.5730    0.1675 </r>
       <r>   -3.5729    0.1666 </r>
       <r>   -3.5729    0.1666 </r>
       <r>   -0.1081    0.0000 </r>
       <r>    0.1449    0.0000 </r>
       <r>    0.4626    0.0000 </r>
       <r>    0.4825    0.0000 </r>
       <r>    0.5560    0.0000 </r>
       <r>    0.5908    0.0000 </r>
       <r>    0.6350    0.0000 </r>
       <r>    0.6782    0.0000 </r>
       <r>    0.8715    0.0000 </r>
       <r>    0.9730    0.0000 </r>
       <r>    1.0216    0.0000 </r>
       <r>    1.0382    0.0000 </r>
       <r>    1.1188    0.0000 </r>
       <r>    1.1194    0.0000 </r>
       <r>    1.3511    0.0000 </r>
       <r>    1.4241    0.0000 </r>
       <r>    1.5039    0.0000 </r>
       <r>    1.5118    0.0000 </r>
       <r>    1.7233    0.0000 </r>
       <r>    1.8573    0.0000 </r>
      </set>
      <set comment="kpoint 33">
       <r>   -9.4098    1.0000 </r>
       <r>   -3.5730    0.1675 </r>
       <r>   -3.5729    0.1666 </r>
       <r>   -3.5729    0.1666 </r>
       <r>   -0.0915    0.0000 </r>
       <r>    0.1676    0.0000 </r>
       <r>    0.3821    0.0000 </r>
       <r>    0.5019    0.0000 </r>
       <r>    0.5157    0.0000 </r>
       <r>    0.5743    0.0000 </r>
       <r>    0.6588    0.0000 </r>
       <r>    0.6779    0.0000 </r>
       <r>    0.8805    0.0000 </r>
       <r>    0.9073    0.0000 </r>
       <r>    1.0010    0.0000 </r>
       <r>    1.0171    0.0000 </r>
       <r>    1.0521    0.0000 </r>
       <r>    1.1829    0.0000 </r>
       <r>    1.4941    0.0000 </r>
       <r>    1.5738    0.0000 </r>
       <r>    1.6528    0.0000 </r>
       <r>    1.6643    0.0000 </r>
       <r>    1.7412    0.0000 </r>
       <r>    1.8317    0.0000 </r>
      </set>
      <set comment="kpoint 34">
       <r>   -9.4098    1.0000 </r>
       <r>   -3.5730    0.1675 </r>
       <r>   -3.5729    0.1666 </r>
       <r>   -3.5729    0.1666 </r>
       <r>   -0.0718    0.0000 </r>
       <r>    0.1989    0.0000 </r>
       <r>    0.3139    0.0000 </r>
       <r>    0.4390    0.0000 </r>
       <r>    0.5269    0.0000 </r>
       <r>    0.6084    0.0000 </r>
       <r>    0.6919    0.0000 </r>
       <r>    0.7098    0.0000 </r>
       <r>    0.8060    0.0000 </r>
       <r>    0.8271    0.0000 </r>
       <r>    0.9178    0.0000 </r>
       <r>    0.9318    0.0000 </r>
       <r>    1.1987    0.0000 </r>
       <r>    1.3469    0.0000 </r>
       <r>    1.6437    0.0000 </r>
       <r>    1.6992    0.0000 </r>
       <r>    1.7127    0.0000 </r>
       <r>    1.7753    0.0000 </r>
       <r>    1.8196    0.0000 </r>
       <r>    1.8301    0.0000 </r>
      </set>
      <set comment="kpoint 35">
       <r>   -9.4098    1.0000 </r>
       <r>   -3.5730    0.1675 </r>
       <r>   -3.5729    0.1667 </r>
       <r>   -3.5729    0.1666 </r>
       <r>   -0.0574    0.0000 </r>
       <r>    0.2295    0.0000 </r>
       <r>    0.2734    0.0000 </r>
       <r>    0.3855    0.0000 </r>
       <r>    0.5478    0.0000 </r>
       <r>    0.6480    0.0000 </r>
       <r>    0.7250    0.0000 </r>
       <r>    0.7503    0.0000 </r>
       <r>    0.7595    0.0000 </r>
       <r>    0.7618    0.0000 </r>
       <r>    0.8504    0.0000 </r>
       <r>    0.8732    0.0000 </r>
       <r>    1.3633    0.0000 </r>
       <r>    1.5160    0.0000 </r>
       <r>    1.5557    0.0000 </r>
       <r>    1.7199    0.0000 </r>
       <r>    1.7340    0.0000 </r>
       <r>    1.7800    0.0000 </r>
       <r>    1.9234    0.0000 </r>
       <r>    1.9305    0.0000 </r>
      </set>
      <set comment="kpoint 36">
       <r>   -9.4098    1.0000 </r>
       <r>   -3.5729    0.1667 </r>
       <r>   -3.5729    0.1667 </r>
       <r>   -3.5728    0.1659 </r>
       <r>   -0.2591    0.0000 </r>
       <r>    0.2178    0.0000 </r>
       <r>    0.3888    0.0000 </r>
       <r>    0.4531    0.0000 </r>
       <r>    0.5812    0.0000 </r>
       <r>    0.6912    0.0000 </r>
       <r>    0.8326    0.0000 </r>
       <r>    0.8387    0.0000 </r>
       <r>    0.9666    0.0000 </r>
       <r>    1.0311    0.0000 </r>
       <r>    1.1059    0.0000 </r>
       <r>    1.1654    0.0000 </r>
       <r>    1.2557    0.0000 </r>
       <r>    1.2721    0.0000 </r>
       <r>    1.3141    0.0000 </r>
       <r>    1.4165    0.0000 </r>
       <r>    1.4410    0.0000 </r>
       <r>    1.4997    0.0000 </r>
       <r>    1.5218    0.0000 </r>
       <r>    1.6292    0.0000 </r>
      </set>
      <set comment="kpoint 37">
       <r>   -9.4098    1.0000 </r>
       <r>   -3.5729    0.1667 </r>
       <r>   -3.5729    0.1667 </r>
       <r>   -3.5728    0.1659 </r>
       <r>   -0.2492    0.0000 </r>
       <r>    0.2232    0.0000 </r>
       <r>    0.3194    0.0000 </r>
       <r>    0.4391    0.0000 </r>
       <r>    0.6932    0.0000 </r>
       <r>    0.7069    0.0000 </r>
       <r>    0.7341    0.0000 </r>
       <r>    0.8451    0.0000 </r>
       <r>    0.9208    0.0000 </r>
       <r>    1.0946    0.0000 </r>
       <r>    1.1224    0.0000 </r>
       <r>    1.1940    0.0000 </r>
       <r>    1.2500    0.0000 </r>
       <r>    1.3009    0.0000 </r>
       <r>    1.3379    0.0000 </r>
       <r>    1.3499    0.0000 </r>
       <r>    1.4642    0.0000 </r>
       <r>    1.5025    0.0000 </r>
       <r>    1.5895    0.0000 </r>
       <r>    1.6348    0.0000 </r>
      </set>
      <set comment="kpoint 38">
       <r>   -9.4098    1.0000 </r>
       <r>   -3.5729    0.1667 </r>
       <r>   -3.5729    0.1667 </r>
       <r>   -3.5728    0.1659 </r>
       <r>   -0.2311    0.0000 </r>
       <r>    0.1975    0.0000 </r>
       <r>    0.2789    0.0000 </r>
       <r>    0.4590    0.0000 </r>
       <r>    0.6208    0.0000 </r>
       <r>    0.7191    0.0000 </r>
       <r>    0.8046    0.0000 </r>
       <r>    0.8636    0.0000 </r>
       <r>    0.8801    0.0000 </r>
       <r>    1.0917    0.0000 </r>
       <r>    1.1465    0.0000 </r>
       <r>    1.2354    0.0000 </r>
       <r>    1.2463    0.0000 </r>
       <r>    1.3052    0.0000 </r>
       <r>    1.3489    0.0000 </r>
       <r>    1.4576    0.0000 </r>
       <r>    1.4948    0.0000 </r>
       <r>    1.5178    0.0000 </r>
       <r>    1.5275    0.0000 </r>
       <r>    1.6438    0.0000 </r>
      </set>
      <set comment="kpoint 39">
       <r>   -9.4098    1.0000 </r>
       <r>   -3.5729    0.1668 </r>
       <r>   -3.5729    0.1667 </r>
       <r>   -3.5728    0.1659 </r>
       <r>   -0.2090    0.0000 </r>
       <r>    0.1354    0.0000 </r>
       <r>    0.3015    0.0000 </r>
       <r>    0.4880    0.0000 </r>
       <r>    0.5395    0.0000 </r>
       <r>    0.7293    0.0000 </r>
       <r>    0.7439    0.0000 </r>
       <r>    0.8924    0.0000 </r>
       <r>    1.0068    0.0000 </r>
       <r>    1.0461    0.0000 </r>
       <r>    1.1698    0.0000 </r>
       <r>    1.1762    0.0000 </r>
       <r>    1.3041    0.0000 </r>
       <r>    1.3672    0.0000 </r>
       <r>    1.4077    0.0000 </r>
       <r>    1.4668    0.0000 </r>
       <r>    1.5016    0.0000 </r>
       <r>    1.5390    0.0000 </r>
       <r>    1.5727    0.0000 </r>
       <r>    1.6099    0.0000 </r>
      </set>
      <set comment="kpoint 40">
       <r>   -9.4098    1.0000 </r>
       <r>   -3.5729    0.1668 </r>
       <r>   -3.5729    0.1667 </r>
       <r>   -3.5728    0.1659 </r>
       <r>   -0.1920    0.0000 </r>
       <r>    0.0950    0.0000 </r>
       <r>    0.3320    0.0000 </r>
       <r>    0.4726    0.0000 </r>
       <r>    0.5286    0.0000 </r>
       <r>    0.6720    0.0000 </r>
       <r>    0.7639    0.0000 </r>
       <r>    0.9171    0.0000 </r>
       <r>    0.9769    0.0000 </r>
       <r>    1.1075    0.0000 </r>
       <r>    1.1956    0.0000 </r>
       <r>    1.2208    0.0000 </r>
       <r>    1.3295    0.0000 </r>
       <r>    1.3697    0.0000 </r>
       <r>    1.4058    0.0000 </r>
       <r>    1.4293    0.0000 </r>
       <r>    1.4826    0.0000 </r>
       <r>    1.5430    0.0000 </r>
       <r>    1.5684    0.0000 </r>
       <r>    1.6141    0.0000 </r>
      </set>
      <set comment="kpoint 41">
       <r>   -9.4098    1.0000 </r>
       <r>   -3.5729    0.1667 </r>
       <r>   -3.5729    0.1666 </r>
       <r>   -3.5728    0.1660 </r>
       <r>   -0.2500    0.0000 </r>
       <r>    0.2268    0.0000 </r>
       <r>    0.3963    0.0000 </r>
       <r>    0.4619    0.0000 </r>
       <r>    0.5689    0.0000 </r>
       <r>    0.5979    0.0000 </r>
       <r>    0.8457    0.0000 </r>
       <r>    0.9514    0.0000 </r>
       <r>    0.9752    0.0000 </r>
       <r>    1.0018    0.0000 </r>
       <r>    1.0433    0.0000 </r>
       <r>    1.1647    0.0000 </r>
       <r>    1.1699    0.0000 </r>
       <r>    1.2106    0.0000 </r>
       <r>    1.3363    0.0000 </r>
       <r>    1.3980    0.0000 </r>
       <r>    1.4947    0.0000 </r>
       <r>    1.5722    0.0000 </r>
       <r>    1.5910    0.0000 </r>
       <r>    1.6311    0.0000 </r>
      </set>
      <set comment="kpoint 42">
       <r>   -9.4098    1.0000 </r>
       <r>   -3.5729    0.1667 </r>
       <r>   -3.5729    0.1667 </r>
       <r>   -3.5728    0.1660 </r>
       <r>   -0.2401    0.0000 </r>
       <r>    0.2322    0.0000 </r>
       <r>    0.3283    0.0000 </r>
       <r>    0.4471    0.0000 </r>
       <r>    0.5841    0.0000 </r>
       <r>    0.7102    0.0000 </r>
       <r>    0.7434    0.0000 </r>
       <r>    0.9275    0.0000 </r>
       <r>    0.9660    0.0000 </r>
       <r>    1.0066    0.0000 </r>
       <r>    1.0750    0.0000 </r>
       <r>    1.1271    0.0000 </r>
       <r>    1.2007    0.0000 </r>
       <r>    1.3108    0.0000 </r>
       <r>    1.4049    0.0000 </r>
       <r>    1.4145    0.0000 </r>
       <r>    1.4984    0.0000 </r>
       <r>    1.5160    0.0000 </r>
       <r>    1.5361    0.0000 </r>
       <r>    1.6095    0.0000 </r>
      </set>
      <set comment="kpoint 43">
       <r>   -9.4098    1.0000 </r>
       <r>   -3.5729    0.1667 </r>
       <r>   -3.5729    0.1667 </r>
       <r>   -3.5728    0.1660 </r>
       <r>   -0.2220    0.0000 </r>
       <r>    0.2065    0.0000 </r>
       <r>    0.2881    0.0000 </r>
       <r>    0.4669    0.0000 </r>
       <r>    0.6042    0.0000 </r>
       <r>    0.6302    0.0000 </r>
       <r>    0.8127    0.0000 </r>
       <r>    0.8859    0.0000 </r>
       <r>    0.9659    0.0000 </r>
       <r>    1.0083    0.0000 </r>
       <r>    1.0342    0.0000 </r>
       <r>    1.2195    0.0000 </r>
       <r>    1.2663    0.0000 </r>
       <r>    1.3495    0.0000 </r>
       <r>    1.4145    0.0000 </r>
       <r>    1.4189    0.0000 </r>
       <r>    1.4839    0.0000 </r>
       <r>    1.5370    0.0000 </r>
       <r>    1.5818    0.0000 </r>
       <r>    1.6030    0.0000 </r>
      </set>
      <set comment="kpoint 44">
       <r>   -9.4098    1.0000 </r>
       <r>   -3.5729    0.1668 </r>
       <r>   -3.5729    0.1667 </r>
       <r>   -3.5728    0.1660 </r>
       <r>   -0.2000    0.0000 </r>
       <r>    0.1447    0.0000 </r>
       <r>    0.3106    0.0000 </r>
       <r>    0.4958    0.0000 </r>
       <r>    0.5485    0.0000 </r>
       <r>    0.6309    0.0000 </r>
       <r>    0.7376    0.0000 </r>
       <r>    0.9001    0.0000 </r>
       <r>    1.0207    0.0000 </r>
       <r>    1.0445    0.0000 </r>
       <r>    1.0635    0.0000 </r>
       <r>    1.2442    0.0000 </r>
       <r>    1.2862    0.0000 </r>
       <r>    1.3221    0.0000 </r>
       <r>    1.4185    0.0000 </r>
       <r>    1.4765    0.0000 </r>
       <r>    1.4940    0.0000 </r>
       <r>    1.5569    0.0000 </r>
       <r>    1.6054    0.0000 </r>
       <r>    1.6548    0.0000 </r>
      </set>
      <set comment="kpoint 45">
       <r>   -9.4098    1.0000 </r>
       <r>   -3.5729    0.1668 </r>
       <r>   -3.5729    0.1667 </r>
       <r>   -3.5728    0.1660 </r>
       <r>   -0.1831    0.0000 </r>
       <r>    0.1044    0.0000 </r>
       <r>    0.3410    0.0000 </r>
       <r>    0.4819    0.0000 </r>
       <r>    0.5361    0.0000 </r>
       <r>    0.6530    0.0000 </r>
       <r>    0.6805    0.0000 </r>
       <r>    0.8568    0.0000 </r>
       <r>    1.0405    0.0000 </r>
       <r>    1.0909    0.0000 </r>
       <r>    1.2018    0.0000 </r>
       <r>    1.2249    0.0000 </r>
       <r>    1.2644    0.0000 </r>
       <r>    1.3132    0.0000 </r>
       <r>    1.4172    0.0000 </r>
       <r>    1.4327    0.0000 </r>
       <r>    1.4886    0.0000 </r>
       <r>    1.5852    0.0000 </r>
       <r>    1.6035    0.0000 </r>
       <r>    1.6622    0.0000 </r>
      </set>
      <set comment="kpoint 46">
       <r>   -9.4098    1.0000 </r>
       <r>   -3.5729    0.1667 </r>
       <r>   -3.5729    0.1666 </r>
       <r>   -3.5729    0.1663 </r>
       <r>   -0.2320    0.0000 </r>
       <r>    0.2442    0.0000 </r>
       <r>    0.4031    0.0000 </r>
       <r>    0.4718    0.0000 </r>
       <r>    0.4832    0.0000 </r>
       <r>    0.6117    0.0000 </r>
       <r>    0.8513    0.0000 </r>
       <r>    0.8823    0.0000 </r>
       <r>    0.9959    0.0000 </r>
       <r>    1.0267    0.0000 </r>
       <r>    1.0664    0.0000 </r>
       <r>    1.0968    0.0000 </r>
       <r>    1.1292    0.0000 </r>
       <r>    1.2029    0.0000 </r>
       <r>    1.2373    0.0000 </r>
       <r>    1.4791    0.0000 </r>
       <r>    1.5083    0.0000 </r>
       <r>    1.5539    0.0000 </r>
       <r>    1.6248    0.0000 </r>
       <r>    1.6673    0.0000 </r>
      </set>
      <set comment="kpoint 47">
       <r>   -9.4098    1.0000 </r>
       <r>   -3.5729    0.1667 </r>
       <r>   -3.5729    0.1667 </r>
       <r>   -3.5729    0.1663 </r>
       <r>   -0.2222    0.0000 </r>
       <r>    0.2495    0.0000 </r>
       <r>    0.3452    0.0000 </r>
       <r>    0.4501    0.0000 </r>
[...]
       <r>    1.0348    0.0000 </r>
       <r>    1.0725    0.0000 </r>
       <r>    1.1385    0.0000 </r>
       <r>    1.1608    0.0000 </r>
       <r>    1.2841    0.0000 </r>
       <r>    1.5691    0.0000 </r>
       <r>    1.6859    0.0000 </r>
       <r>    1.7191    0.0000 </r>
       <r>    1.7663    0.0000 </r>
      </set>
      <set comment="kpoint 172">
       <r>   -9.4098    1.0000 </r>
       <r>   -3.5730    0.1675 </r>
       <r>   -3.5729    0.1666 </r>
       <r>   -3.5729    0.1666 </r>
       <r>   -0.0845    0.0000 </r>
       <r>    0.1974    0.0000 </r>
       <r>    0.2656    0.0000 </r>
       <r>    0.3642    0.0000 </r>
       <r>    0.5252    0.0000 </r>
       <r>    0.6869    0.0000 </r>
       <r>    0.7329    0.0000 </r>
       <r>    0.8320    0.0000 </r>
       <r>    0.9172    0.0000 </r>
       <r>    0.9875    0.0000 </r>
       <r>    1.0570    0.0000 </r>
       <r>    1.1106    0.0000 </r>
       <r>    1.1330    0.0000 </r>
       <r>    1.1912    0.0000 </r>
       <r>    1.2341    0.0000 </r>
       <r>    1.3070    0.0000 </r>
       <r>    1.4753    0.0000 </r>
       <r>    1.6049    0.0000 </r>
       <r>    1.6320    0.0000 </r>
       <r>    1.7517    0.0000 </r>
      </set>
      <set comment="kpoint 173">
       <r>   -9.4098    1.0000 </r>
       <r>   -3.5730    0.1675 </r>
       <r>   -3.5729    0.1666 </r>
       <r>   -3.5729    0.1666 </r>
       <r>   -0.0689    0.0000 </r>
       <r>    0.2186    0.0000 </r>
       <r>    0.2895    0.0000 </r>
       <r>    0.3899    0.0000 </r>
       <r>    0.4354    0.0000 </r>
       <r>    0.5902    0.0000 </r>
       <r>    0.6340    0.0000 </r>
       <r>    0.7284    0.0000 </r>
       <r>    1.0140    0.0000 </r>
       <r>    1.0612    0.0000 </r>
       <r>    1.1380    0.0000 </r>
       <r>    1.1595    0.0000 </r>
       <r>    1.2241    0.0000 </r>
       <r>    1.2982    0.0000 </r>
       <r>    1.3121    0.0000 </r>
       <r>    1.3880    0.0000 </r>
       <r>    1.4193    0.0000 </r>
       <r>    1.5069    0.0000 </r>
       <r>    1.5460    0.0000 </r>
       <r>    1.6572    0.0000 </r>
      </set>
      <set comment="kpoint 174">
       <r>   -9.4098    1.0000 </r>
       <r>   -3.5730    0.1675 </r>
       <r>   -3.5729    0.1666 </r>
       <r>   -3.5729    0.1666 </r>
       <r>   -0.0507    0.0000 </r>
       <r>    0.2468    0.0000 </r>
       <r>    0.3230    0.0000 </r>
       <r>    0.3668    0.0000 </r>
       <r>    0.4271    0.0000 </r>
       <r>    0.5117    0.0000 </r>
       <r>    0.5495    0.0000 </r>
       <r>    0.6384    0.0000 </r>
       <r>    1.0452    0.0000 </r>
       <r>    1.1750    0.0000 </r>
       <r>    1.1834    0.0000 </r>
       <r>    1.2194    0.0000 </r>
       <r>    1.2994    0.0000 </r>
       <r>    1.3200    0.0000 </r>
       <r>    1.3988    0.0000 </r>
       <r>    1.4251    0.0000 </r>
       <r>    1.4542    0.0000 </r>
       <r>    1.5075    0.0000 </r>
       <r>    1.5706    0.0000 </r>
       <r>    1.5875    0.0000 </r>
      </set>
      <set comment="kpoint 175">
       <r>   -9.4098    1.0000 </r>
       <r>   -3.5730    0.1675 </r>
       <r>   -3.5729    0.1667 </r>
       <r>   -3.5729    0.1666 </r>
       <r>   -0.0377    0.0000 </r>
       <r>    0.2722    0.0000 </r>
       <r>    0.3260    0.0000 </r>
       <r>    0.3596    0.0000 </r>
       <r>    0.4558    0.0000 </r>
       <r>    0.4756    0.0000 </r>
       <r>    0.4906    0.0000 </r>
       <r>    0.5676    0.0000 </r>
       <r>    1.0728    0.0000 </r>
       <r>    1.2087    0.0000 </r>
       <r>    1.2165    0.0000 </r>
       <r>    1.2323    0.0000 </r>
       <r>    1.3432    0.0000 </r>
       <r>    1.3650    0.0000 </r>
       <r>    1.3776    0.0000 </r>
       <r>    1.4441    0.0000 </r>
       <r>    1.4975    0.0000 </r>
       <r>    1.5804    0.0000 </r>
       <r>    1.6090    0.0000 </r>
       <r>    1.6695    0.0000 </r>
      </set>
     </set>
    </set>
   </array>
  </eigenvalues>
  <separator name="orbital magnetization" >
   <v name="MAGDIPOLOUT">      0.00000000      0.00000000      0.00000000</v>
  </separator>
  <dos>
   <i name="efermi">     -3.60710650 </i>
   <total>
    <array>
     <dimension dim="1">gridpoints</dimension>
     <dimension dim="2">spin</dimension>
     <field>energy</field>
     <field>total</field>
     <field>integrated</field>
     <set>
      <set comment="spin 1">
       <r>    -9.9768     0.0000     0.0000 </r>
       <r>    -9.9352     0.0000     0.0000 </r>
       <r>    -9.8937     0.0000     0.0000 </r>
       <r>    -9.8521     0.0000     0.0000 </r>
       <r>    -9.8105     0.0000     0.0000 </r>
       <r>    -9.7689     0.0000     0.0000 </r>
       <r>    -9.7273     0.0000     0.0000 </r>
       <r>    -9.6858     0.0000     0.0000 </r>
       <r>    -9.6442     0.0000     0.0000 </r>
       <r>    -9.6026     0.0000     0.0000 </r>
       <r>    -9.5610     0.0005     0.0000 </r>
       <r>    -9.5194     0.0460     0.0019 </r>
       <r>    -9.4779     1.2591     0.0543 </r>
       <r>    -9.4363     9.6175     0.4542 </r>
       <r>    -9.3947    21.0889     1.3311 </r>
       <r>    -9.3531    13.4708     1.8912 </r>
       <r>    -9.3115     2.4850     1.9946 </r>
       <r>    -9.2699     0.1290     1.9999 </r>
       <r>    -9.2284     0.0018     2.0000 </r>
       <r>    -9.1868     0.0000     2.0000 </r>
       <r>    -9.1452     0.0000     2.0000 </r>
       <r>    -9.1036     0.0000     2.0000 </r>
       <r>    -9.0620     0.0000     2.0000 </r>
       <r>    -9.0205     0.0000     2.0000 </r>
       <r>    -8.9789     0.0000     2.0000 </r>
       <r>    -8.9373     0.0000     2.0000 </r>
       <r>    -8.8957     0.0000     2.0000 </r>
       <r>    -8.8541     0.0000     2.0000 </r>
       <r>    -8.8126     0.0000     2.0000 </r>
       <r>    -8.7710     0.0000     2.0000 </r>
       <r>    -8.7294     0.0000     2.0000 </r>
       <r>    -8.6878     0.0000     2.0000 </r>
       <r>    -8.6462     0.0000     2.0000 </r>
       <r>    -8.6046     0.0000     2.0000 </r>
       <r>    -8.5631     0.0000     2.0000 </r>
       <r>    -8.5215     0.0000     2.0000 </r>
       <r>    -8.4799     0.0000     2.0000 </r>
       <r>    -8.4383     0.0000     2.0000 </r>
       <r>    -8.3967     0.0000     2.0000 </r>
       <r>    -8.3552     0.0000     2.0000 </r>
       <r>    -8.3136     0.0000     2.0000 </r>
       <r>    -8.2720     0.0000     2.0000 </r>
       <r>    -8.2304     0.0000     2.0000 </r>
       <r>    -8.1888     0.0000     2.0000 </r>
       <r>    -8.1473     0.0000     2.0000 </r>
       <r>    -8.1057     0.0000     2.0000 </r>
       <r>    -8.0641     0.0000     2.0000 </r>
       <r>    -8.0225     0.0000     2.0000 </r>
       <r>    -7.9809     0.0000     2.0000 </r>
       <r>    -7.9394     0.0000     2.0000 </r>
       <r>    -7.8978     0.0000     2.0000 </r>
       <r>    -7.8562     0.0000     2.0000 </r>
       <r>    -7.8146     0.0000     2.0000 </r>
       <r>    -7.7730     0.0000     2.0000 </r>
       <r>    -7.7314     0.0000     2.0000 </r>
       <r>    -7.6899     0.0000     2.0000 </r>
       <r>    -7.6483     0.0000     2.0000 </r>
       <r>    -7.6067     0.0000     2.0000 </r>
       <r>    -7.5651     0.0000     2.0000 </r>
       <r>    -7.5235     0.0000     2.0000 </r>
       <r>    -7.4820     0.0000     2.0000 </r>
       <r>    -7.4404     0.0000     2.0000 </r>
       <r>    -7.3988     0.0000     2.0000 </r>
       <r>    -7.3572     0.0000     2.0000 </r>
       <r>    -7.3156     0.0000     2.0000 </r>
       <r>    -7.2741     0.0000     2.0000 </r>
       <r>    -7.2325     0.0000     2.0000 </r>
       <r>    -7.1909     0.0000     2.0000 </r>
       <r>    -7.1493     0.0000     2.0000 </r>
       <r>    -7.1077     0.0000     2.0000 </r>
       <r>    -7.0661     0.0000     2.0000 </r>
       <r>    -7.0246     0.0000     2.0000 </r>
       <r>    -6.9830     0.0000     2.0000 </r>
       <r>    -6.9414     0.0000     2.0000 </r>
       <r>    -6.8998     0.0000     2.0000 </r>
       <r>    -6.8582     0.0000     2.0000 </r>
       <r>    -6.8167     0.0000     2.0000 </r>
       <r>    -6.7751     0.0000     2.0000 </r>
       <r>    -6.7335     0.0000     2.0000 </r>
       <r>    -6.6919     0.0000     2.0000 </r>
       <r>    -6.6503     0.0000     2.0000 </r>
       <r>    -6.6088     0.0000     2.0000 </r>
       <r>    -6.5672     0.0000     2.0000 </r>
       <r>    -6.5256     0.0000     2.0000 </r>
       <r>    -6.4840     0.0000     2.0000 </r>
       <r>    -6.4424     0.0000     2.0000 </r>
       <r>    -6.4008     0.0000     2.0000 </r>
       <r>    -6.3593     0.0000     2.0000 </r>
       <r>    -6.3177     0.0000     2.0000 </r>
       <r>    -6.2761     0.0000     2.0000 </r>
       <r>    -6.2345     0.0000     2.0000 </r>
       <r>    -6.1929     0.0000     2.0000 </r>
       <r>    -6.1514     0.0000     2.0000 </r>
       <r>    -6.1098     0.0000     2.0000 </r>
       <r>    -6.0682     0.0000     2.0000 </r>
       <r>    -6.0266     0.0000     2.0000 </r>
       <r>    -5.9850     0.0000     2.0000 </r>
       <r>    -5.9435     0.0000     2.0000 </r>
       <r>    -5.9019     0.0000     2.0000 </r>
       <r>    -5.8603     0.0000     2.0000 </r>
       <r>    -5.8187     0.0000     2.0000 </r>
       <r>    -5.7771     0.0000     2.0000 </r>
       <r>    -5.7355     0.0000     2.0000 </r>
       <r>    -5.6940     0.0000     2.0000 </r>
       <r>    -5.6524     0.0000     2.0000 </r>
       <r>    -5.6108     0.0000     2.0000 </r>
       <r>    -5.5692     0.0000     2.0000 </r>
       <r>    -5.5276     0.0000     2.0000 </r>
       <r>    -5.4861     0.0000     2.0000 </r>
       <r>    -5.4445     0.0000     2.0000 </r>
       <r>    -5.4029     0.0000     2.0000 </r>
       <r>    -5.3613     0.0000     2.0000 </r>
       <r>    -5.3197     0.0000     2.0000 </r>
       <r>    -5.2782     0.0000     2.0000 </r>
       <r>    -5.2366     0.0000     2.0000 </r>
       <r>    -5.1950     0.0000     2.0000 </r>
       <r>    -5.1534     0.0000     2.0000 </r>
       <r>    -5.1118     0.0000     2.0000 </r>
       <r>    -5.0702     0.0000     2.0000 </r>
       <r>    -5.0287     0.0000     2.0000 </r>
       <r>    -4.9871     0.0000     2.0000 </r>
       <r>    -4.9455     0.0000     2.0000 </r>
       <r>    -4.9039     0.0000     2.0000 </r>
       <r>    -4.8623     0.0000     2.0000 </r>
       <r>    -4.8208     0.0000     2.0000 </r>
       <r>    -4.7792     0.0000     2.0000 </r>
       <r>    -4.7376     0.0000     2.0000 </r>
       <r>    -4.6960     0.0000     2.0000 </r>
       <r>    -4.6544     0.0000     2.0000 </r>
       <r>    -4.6129     0.0000     2.0000 </r>
       <r>    -4.5713     0.0000     2.0000 </r>
       <r>    -4.5297     0.0000     2.0000 </r>
       <r>    -4.4881     0.0000     2.0000 </r>
       <r>    -4.4465     0.0000     2.0000 </r>
       <r>    -4.4049     0.0000     2.0000 </r>
       <r>    -4.3634     0.0000     2.0000 </r>
       <r>    -4.3218     0.0000     2.0000 </r>
       <r>    -4.2802     0.0000     2.0000 </r>
       <r>    -4.2386     0.0000     2.0000 </r>
       <r>    -4.1970     0.0000     2.0000 </r>
       <r>    -4.1555     0.0000     2.0000 </r>
       <r>    -4.1139     0.0000     2.0000 </r>
       <r>    -4.0723     0.0000     2.0000 </r>
       <r>    -4.0307     0.0000     2.0000 </r>
       <r>    -3.9891     0.0000     2.0000 </r>
       <r>    -3.9476     0.0000     2.0000 </r>
       <r>    -3.9060     0.0000     2.0000 </r>
       <r>    -3.8644     0.0000     2.0000 </r>
       <r>    -3.8228     0.0000     2.0000 </r>
       <r>    -3.7812     0.0000     2.0000 </r>
       <r>    -3.7397     0.0002     2.0000 </r>
       <r>    -3.6981     0.0287     2.0012 </r>
       <r>    -3.6565     1.2750     2.0542 </r>
       <r>    -3.6149    15.6371     2.7044 </r>
       <r>    -3.5733    54.5179     4.9713 </r>
       <r>    -3.5317    55.2060     7.2669 </r>
       <r>    -3.4902    16.2407     7.9422 </r>
       <r>    -3.4486     1.3589     7.9987 </r>
       <r>    -3.4070     0.0314     8.0000 </r>
       <r>    -3.3654     0.0002     8.0000 </r>
       <r>    -3.3238     0.0000     8.0000 </r>
       <r>    -3.2823     0.0000     8.0000 </r>
       <r>    -3.2407     0.0000     8.0000 </r>
       <r>    -3.1991     0.0000     8.0000 </r>
       <r>    -3.1575     0.0000     8.0000 </r>
       <r>    -3.1159     0.0000     8.0000 </r>
       <r>    -3.0744     0.0000     8.0000 </r>
       <r>    -3.0328     0.0000     8.0000 </r>
       <r>    -2.9912     0.0000     8.0000 </r>
       <r>    -2.9496     0.0000     8.0000 </r>
       <r>    -2.9080     0.0000     8.0000 </r>
       <r>    -2.8664     0.0000     8.0000 </r>
       <r>    -2.8249     0.0000     8.0000 </r>
       <r>    -2.7833     0.0000     8.0000 </r>
       <r>    -2.7417     0.0000     8.0000 </r>
       <r>    -2.7001     0.0000     8.0000 </r>
       <r>    -2.6585     0.0000     8.0000 </r>
       <r>    -2.6170     0.0000     8.0000 </r>
       <r>    -2.5754     0.0000     8.0000 </r>
       <r>    -2.5338     0.0000     8.0000 </r>
       <r>    -2.4922     0.0000     8.0000 </r>
       <r>    -2.4506     0.0000     8.0000 </r>
       <r>    -2.4091     0.0000     8.0000 </r>
       <r>    -2.3675     0.0000     8.0000 </r>
       <r>    -2.3259     0.0000     8.0000 </r>
       <r>    -2.2843     0.0000     8.0000 </r>
       <r>    -2.2427     0.0000     8.0000 </r>
       <r>    -2.2011     0.0000     8.0000 </r>
       <r>    -2.1596     0.0000     8.0000 </r>
       <r>    -2.1180     0.0000     8.0000 </r>
       <r>    -2.0764     0.0000     8.0000 </r>
       <r>    -2.0348     0.0000     8.0000 </r>
       <r>    -1.9932     0.0000     8.0000 </r>
       <r>    -1.9517     0.0000     8.0000 </r>
       <r>    -1.9101     0.0000     8.0000 </r>
       <r>    -1.8685     0.0000     8.0000 </r>
       <r>    -1.8269     0.0000     8.0000 </r>
       <r>    -1.7853     0.0000     8.0000 </r>
       <r>    -1.7438     0.0000     8.0000 </r>
       <r>    -1.7022     0.0000     8.0000 </r>
       <r>    -1.6606     0.0000     8.0000 </r>
       <r>    -1.6190     0.0000     8.0000 </r>
       <r>    -1.5774     0.0000     8.0000 </r>
       <r>    -1.5358     0.0000     8.0000 </r>
       <r>    -1.4943     0.0000     8.0000 </r>
       <r>    -1.4527     0.0000     8.0000 </r>
       <r>    -1.4111     0.0000     8.0000 </r>
       <r>    -1.3695     0.0000     8.0000 </r>
       <r>    -1.3279     0.0000     8.0000 </r>
       <r>    -1.2864     0.0000     8.0000 </r>
       <r>    -1.2448     0.0000     8.0000 </r>
       <r>    -1.2032     0.0000     8.0000 </r>
       <r>    -1.1616     0.0000     8.0000 </r>
       <r>    -1.1200     0.0000     8.0000 </r>
       <r>    -1.0785     0.0000     8.0000 </r>
       <r>    -1.0369     0.0000     8.0000 </r>
       <r>    -0.9953     0.0000     8.0000 </r>
       <r>    -0.9537     0.0000     8.0000 </r>
       <r>    -0.9121     0.0000     8.0000 </r>
       <r>    -0.8705     0.0000     8.0000 </r>
       <r>    -0.8290     0.0000     8.0000 </r>
       <r>    -0.7874     0.0000     8.0000 </r>
       <r>    -0.7458     0.0000     8.0000 </r>
       <r>    -0.7042     0.0000     8.0000 </r>
       <r>    -0.6626     0.0000     8.0000 </r>
       <r>    -0.6211     0.0000     8.0000 </r>
       <r>    -0.5795     0.0000     8.0000 </r>
       <r>    -0.5379     0.0000     8.0000 </r>
       <r>    -0.4963     0.0000     8.0000 </r>
       <r>    -0.4547     0.0000     8.0000 </r>
       <r>    -0.4132     0.0000     8.0000 </r>
       <r>    -0.3716     0.0010     8.0000 </r>
       <r>    -0.3300     0.0442     8.0019 </r>
       <r>    -0.2884     0.6256     8.0279 </r>
       <r>    -0.2468     3.3353     8.1666 </r>
       <r>    -0.2053     8.0047     8.4994 </r>
       <r>    -0.1637    10.7571     8.9467 </r>
       <r>    -0.1221    10.2954     9.3748 </r>
       <r>    -0.0805     8.3052     9.7201 </r>
       <r>    -0.0389     4.8980     9.9238 </r>
       <r>     0.0027     1.6339     9.9918 </r>
       <r>     0.0442     0.6839    10.0202 </r>
       <r>     0.0858     2.2719    10.1147 </r>
       <r>     0.1274     6.0313    10.3654 </r>
       <r>     0.1690    10.6299    10.8075 </r>
       <r>     0.2106    14.1308    11.3950 </r>
       <r>     0.2521    15.6307    12.0450 </r>
       <r>     0.2937    15.7592    12.7003 </r>
       <r>     0.3353    15.9102    13.3618 </r>
       <r>     0.3769    16.1909    14.0351 </r>
       <r>     0.4185    16.5173    14.7219 </r>
       <r>     0.4600    17.6174    15.4544 </r>
       <r>     0.5016    18.4682    16.2223 </r>
       <r>     0.5432    18.4522    16.9896 </r>
       <r>     0.5848    18.9962    17.7795 </r>
       <r>     0.6264    19.8977    18.6069 </r>
       <r>     0.6680    20.3485    19.4530 </r>
       <r>     0.7095    21.0244    20.3272 </r>
       <r>     0.7511    22.4284    21.2598 </r>
       <r>     0.7927    22.3363    22.1886 </r>
       <r>     0.8343    21.8608    23.0976 </r>
       <r>     0.8759    23.3756    24.0696 </r>
       <r>     0.9174    24.5043    25.0885 </r>
       <r>     0.9590    24.1793    26.0939 </r>
       <r>     1.0006    24.8681    27.1279 </r>
       <r>     1.0422    25.8803    28.2041 </r>
       <r>     1.0838    25.9624    29.2836 </r>
       <r>     1.1253    26.0393    30.3664 </r>
       <r>     1.1669    26.8195    31.4815 </r>
       <r>     1.2085    27.6825    32.6326 </r>
       <r>     1.2501    27.2603    33.7661 </r>
       <r>     1.2917    27.4647    34.9081 </r>
       <r>     1.3333    28.5256    36.0943 </r>
       <r>     1.3748    28.5489    37.2814 </r>
       <r>     1.4164    28.2713    38.4569 </r>
       <r>     1.4580    29.3249    39.6763 </r>
       <r>     1.4996    30.8535    40.9592 </r>
       <r>     1.5412    29.9555    42.2048 </r>
       <r>     1.5827    29.5330    43.4328 </r>
       <r>     1.6243    30.0367    44.6818 </r>
       <r>     1.6659    27.6077    45.8297 </r>
       <r>     1.7075    21.1098    46.7075 </r>
       <r>     1.7491    13.9726    47.2885 </r>
       <r>     1.7906     8.2735    47.6325 </r>
       <r>     1.8322     4.7714    47.8309 </r>
       <r>     1.8738     2.5589    47.9373 </r>
       <r>     1.9154     1.0837    47.9824 </r>
       <r>     1.9570     0.3438    47.9967 </r>
       <r>     1.9986     0.0725    47.9997 </r>
       <r>     2.0401     0.0070    48.0000 </r>
       <r>     2.0817     0.0002    48.0000 </r>
       <r>     2.1233     0.0000    48.0000 </r>
       <r>     2.1649     0.0000    48.0000 </r>
       <r>     2.2065     0.0000    48.0000 </r>
       <r>     2.2480     0.0000    48.0000 </r>
       <r>     2.2896     0.0000    48.0000 </r>
       <r>     2.3312     0.0000    48.0000 </r>
       <r>     2.3728     0.0000    48.0000 </r>
       <r>     2.4144     0.0000    48.0000 </r>
       <r>     2.4559     0.0000    48.0000 </r>
       <r>     2.4975     0.0000    48.0000 </r>
      </set>
     </set>
    </array>
   </total>
  </dos>
 </calculation>
 <structure name="finalpos" >
  <crystal>
   <varray name="basis" >
    <v>      14.98650000       0.00000000       0.00000000 </v>
    <v>       0.00000000      12.48875000       0.00000000 </v>
    <v>       0.00000000       0.00000000      17.98380000 </v>
   </varray>
   <i name="volume">   3365.89569879 </i>
   <varray name="rec_basis" >
    <v>       0.06672672       0.00000000       0.00000000 </v>
    <v>       0.00000000       0.08007206       0.00000000 </v>
    <v>       0.00000000       0.00000000       0.05560560 </v>
   </varray>
  </crystal>
  <varray name="positions" >
   <v>       0.52123000       0.54500000       0.63796000 </v>
  </varray>
 </structure>
</modeling>
