   14   14    1    1
  0.1021960E+02  0.5697000E-09  0.4047900E-09  0.6204200E-09  0.5000000E-15
  1.000000000000000E-004
  CAR 
 Kpoints                                 
     42   2244     48
 
  0.2083333E-01  0.1470588E-01  0.2272727E-01  0.4456328E-03
      1        -12.731417   1.000000
      2        -11.578082   1.000000
      3         -8.661407   1.000000
      4         -8.422835   1.000000
      5         -6.080912   1.000000
      6         -5.083784   1.000000
      7         -4.631496   1.000000
      8         -4.328538   1.000000
      9         -3.983035   1.000000
     10         -3.584472   1.000000
     11         -2.402108   1.000000
     12         -2.371588   1.000000
     13         -2.053938   1.000000
     14         -1.062719   1.000000
     15         -0.038798   1.000000
     16         -0.006681   1.000000
     17          0.140474   1.000000
     18          0.175409   1.000000
     19          0.553907   1.000000
     20          2.067267   0.000000
     21          2.116967   0.000000
     22          2.230145   0.000000
     23          5.420418   0.000000
     24          5.784907   0.000000
     25          5.826114   0.000000
     26          5.922901   0.000000
     27          6.797327   0.000000
     28          7.619329   0.000000
     29          7.762149   0.000000
     30          8.618488   0.000000
     31          8.756521   0.000000
     32          8.890440   0.000000
     33          9.046362   0.000000
     34         10.051645   0.000000
     35         11.151704   0.000000
     36         11.387563   0.000000
     37         11.730675   0.000000
     38         11.800756   0.000000
     39         11.903187   0.000000
     40         12.367217   0.000000
     41         12.825704   0.000000
     42         13.397624   0.000000
     43         13.578787   0.000000
     44         15.504369   0.000000
     45         15.573032   0.000000
     46         15.952069   0.000000
     47         16.359803   0.000000
     48         16.477856   0.000000
 
  0.6250000E-01  0.1470588E-01  0.2272727E-01  0.4456328E-03
      1        -12.723770   1.000000
      2        -11.591342   1.000000
      3         -8.658154   1.000000
      4         -8.420388   1.000000
      5         -6.065495   1.000000
      6         -5.174737   1.000000
      7         -4.674329   1.000000
      8         -4.214972   1.000000
      9         -3.971588   1.000000
     10         -3.511588   1.000000
     11         -2.398783   1.000000
     12         -2.383147   1.000000
     13         -2.069325   1.000000
     14         -1.120140   1.000000
     15         -0.037347   1.000000
     16          0.011137   1.000000
     17          0.141250   1.000000
     18          0.161130   1.000000
     19          0.536560   1.000000
     20          2.044821   0.000002
     21          2.109367   0.000000
     22          2.208992   0.000000
     23          5.437040   0.000000
     24          5.775614   0.000000
     25          5.809909   0.000000
     26          6.015924   0.000000
     27          6.780598   0.000000
     28          7.466683   0.000000
     29          7.878517   0.000000
     30          8.644597   0.000000
     31          8.820400   0.000000
     32          8.938077   0.000000
     33          9.052782   0.000000
     34         10.073441   0.000000
     35         11.164271   0.000000
     36         11.313265   0.000000
     37         11.605627   0.000000
     38         11.759175   0.000000
     39         11.943864   0.000000
     40         12.382416   0.000000
     41         12.909616   0.000000
     42         13.482357   0.000000
     43         13.553589   0.000000
     44         15.297213   0.000000
     45         15.613916   0.000000
     46         16.090372   0.000000
     47         16.290521   0.000000
     48         16.381465   0.000000
 
  0.1041667E+00  0.1470588E-01  0.2272727E-01  0.4456328E-03
      1        -12.708526   1.000000
      2        -11.617369   1.000000
      3         -8.651482   1.000000
      4         -8.415821   1.000000
      5         -6.038854   1.000000
      6         -5.308694   1.000000
      7         -4.733884   1.000000
      8         -4.044739   1.000000
      9         -3.945689   1.000000
     10         -3.383272   1.000000
     11         -2.407919   1.000000
     12         -2.392055   1.000000
     13         -2.096852   1.000000
     14         -1.230541   1.000000
     15         -0.029031   1.000000
     16          0.037232   1.000000
     17          0.105754   1.000000
     18          0.171515   1.000000
     19          0.502138   1.000000
     20          2.005518   0.000275
     21          2.090175   0.000000
     22          2.166667   0.000000
     23          5.467883   0.000000
     24          5.768042   0.000000
     25          5.819026   0.000000
     26          6.149615   0.000000
     27          6.748771   0.000000
     28          7.310974   0.000000
     29          7.973193   0.000000
     30          8.693955   0.000000
     31          8.931406   0.000000
     32          9.021276   0.000000
     33          9.075520   0.000000
     34         10.118170   0.000000
     35         11.170552   0.000000
     36         11.190381   0.000000
     37         11.398446   0.000000
     38         11.709471   0.000000
     39         12.022168   0.000000
     40         12.412652   0.000000
     41         13.033026   0.000000
     42         13.367086   0.000000
     43         13.754602   0.000000
     44         15.057848   0.000000
     45         15.687675   0.000000
     46         16.061225   0.000000
     47         16.223173   0.000000
     48         16.424911   0.000000
 
  0.1458333E+00  0.1470588E-01  0.2272727E-01  0.4456328E-03
      1        -12.685799   1.000000
      2        -11.655215   1.000000
      3         -8.641106   1.000000
      4         -8.409738   1.000000
      5         -6.009382   1.000000
      6         -5.452833   1.000000
      7         -4.784626   1.000000
      8         -3.929213   1.000000
      9         -3.827283   1.000000
     10         -3.219061   1.000000
     11         -2.448565   1.000000
     12         -2.381794   1.000000
     13         -2.130887   1.000000
     14         -1.386224   1.000000
     15         -0.013336   1.000000
     16          0.023414   1.000000
     17          0.091073   1.000000
     18          0.190804   1.000000
     19          0.454341   1.000000
     20          1.954071   0.022729
     21          2.057702   0.000000
     22          2.103612   0.000000
     23          5.508550   0.000000
     24          5.752845   0.000000
     25          5.873650   0.000000
     26          6.313441   0.000000
     27          6.704882   0.000000
     28          7.162574   0.000000
     29          8.051825   0.000000
     30          8.760663   0.000000
     31          9.026211   0.000000
     32          9.093954   0.000000
     33          9.194313   0.000000
     34         10.189171   0.000000
     35         10.972459   0.000000
     36         11.151789   0.000000
     37         11.228206   0.000000
     38         11.683532   0.000000
     39         12.129164   0.000000
     40         12.461190   0.000000
     41         13.134444   0.000000
     42         13.188973   0.000000
     43         14.017703   0.000000
     44         14.857862   0.000000
     45         15.780690   0.000000
     46         15.832058   0.000000
     47         16.286170   0.000000
     48         16.486821   0.000000
 
  0.1875000E+00  0.1470588E-01  0.2272727E-01  0.4456328E-03
      1        -12.655754   1.000000
      2        -11.703564   1.000000
      3         -8.626793   1.000000
      4         -8.403004   1.000000
      5         -5.988604   1.000000
      6         -5.592364   1.000000
      7         -4.804693   1.000000
      8         -3.882576   1.000000
      9         -3.617720   1.000000
     10         -3.033282   1.000000
     11         -2.507191   1.000000
     12         -2.367746   1.000000
     13         -2.165536   1.000000
     14         -1.577736   1.000000
     15         -0.061322   1.000000
     16          0.013181   1.000000
     17          0.128355   1.000000
     18          0.196186   1.000000
     19          0.410274   1.000000
     20          1.894345   0.377865
     21          2.008479   0.000201
     22          2.024983   0.000031
     23          5.553087   0.000000
     24          5.736274   0.000000
     25          5.972887   0.000000
     26          6.502169   0.000000
     27          6.652966   0.000000
     28          7.027746   0.000000
     29          8.120691   0.000000
     30          8.833957   0.000000
     31          9.020616   0.000000
     32          9.249664   0.000000
     33          9.370786   0.000000
     34         10.292432   0.000000
     35         10.729691   0.000000
     36         10.896847   0.000000
     37         11.277018   0.000000
     38         11.699168   0.000000
     39         12.242401   0.000000
     40         12.542594   0.000000
     41         12.975824   0.000000
     42         13.148952   0.000000
     43         14.302882   0.000000
     44         14.753374   0.000000
     45         15.583919   0.000000
     46         15.894711   0.000000
     47         16.262881   0.000000
     48         16.515460   0.000000
 
  0.2291667E+00  0.1470588E-01  0.2272727E-01  0.4456328E-03
      1        -12.618632   1.000000
      2        -11.760850   1.000000
      3         -8.608508   1.000000
      4         -8.396681   1.000000
      5         -5.987189   1.000000
      6         -5.720050   1.000000
      7         -4.778046   1.000000
      8         -3.829629   1.000000
      9         -3.402105   1.000000
     10         -2.836625   1.000000
     11         -2.582718   1.000000
     12         -2.349828   1.000000
     13         -2.197091   1.000000
     14         -1.794252   1.000000
     15         -0.164747   1.000000
     16          0.041697   1.000000
     17          0.148864   1.000000
     18          0.174416   1.000000
     19          0.407848   1.000000
     20          1.830153   0.933777
     21          1.913960   0.193277
     22          1.963327   0.011843
     23          5.594192   0.000000
     24          5.725980   0.000000
     25          6.113405   0.000000
     26          6.597536   0.000000
     27          6.710221   0.000000
     28          6.911097   0.000000
     29          8.183259   0.000000
     30          8.893107   0.000000
     31          8.990449   0.000000
     32          9.425730   0.000000
     33          9.571919   0.000000
     34         10.421086   0.000000
     35         10.465781   0.000000
     36         10.665262   0.000000
     37         11.329634   0.000000
     38         11.761842   0.000000
     39         12.330155   0.000000
     40         12.677395   0.000000
     41         12.740019   0.000000
     42         13.042409   0.000000
     43         14.588857   0.000000
     44         14.772781   0.000000
     45         15.340247   0.000000
     46         16.006384   0.000000
     47         16.127470   0.000000
     48         16.353490   0.000000
 
  0.2708333E+00  0.1470588E-01  0.2272727E-01  0.4456328E-03
      1        -12.574729   1.000000
      2        -11.825341   1.000000
      3         -8.586490   1.000000
      4         -8.391983   1.000000
      5         -6.008799   1.000000
      6         -5.831908   1.000000
      7         -4.698263   1.000000
      8         -3.767585   1.000000
      9         -3.193752   1.000000
     10         -2.690306   1.000000
     11         -2.619328   1.000000
     12         -2.330646   1.000000
     13         -2.224522   1.000000
     14         -2.019730   1.000000
     15         -0.282905   1.000000
     16          0.029119   1.000000
     17          0.096651   1.000000
     18          0.215815   1.000000
     19          0.453091   1.000000
     20          1.764135   0.999627
     21          1.797724   0.992277
     22          1.902374   0.295221
     23          5.624325   0.000000
     24          5.728050   0.000000
     25          6.291954   0.000000
     26          6.544001   0.000000
     27          6.796461   0.000000
     28          6.950597   0.000000
     29          8.240872   0.000000
     30          8.897252   0.000000
     31          8.955220   0.000000
     32          9.610177   0.000000
     33          9.786486   0.000000
     34         10.148097   0.000000
     35         10.476565   0.000000
     36         10.640659   0.000000
     37         11.373878   0.000000
     38         11.868772   0.000000
     39         12.386265   0.000000
     40         12.485382   0.000000
     41         12.809507   0.000000
     42         12.895858   0.000000
     43         14.796201   0.000000
     44         14.936829   0.000000
     45         15.113677   0.000000
     46         15.912882   0.000000
     47         15.995954   0.000000
     48         16.164128   0.000000
 
  0.3125000E+00  0.1470588E-01  0.2272727E-01  0.4456328E-03
      1        -12.524422   1.000000
      2        -11.895280   1.000000
      3         -8.561343   1.000000
      4         -8.390162   1.000000
      5         -6.047560   1.000000
      6         -5.926363   1.000000
      7         -4.568968   1.000000
      8         -3.696471   1.000000
      9         -3.011511   1.000000
     10         -2.782498   1.000000
     11         -2.437595   1.000000
     12         -2.352086   1.000000
     13         -2.247898   1.000000
     14         -2.187059   1.000000
     15         -0.409963   1.000000
     16         -0.097632   1.000000
     17          0.129617   1.000000
     18          0.254380   1.000000
     19          0.525096   1.000000
     20          1.659893   1.000000
     21          1.711344   0.999999
     22          1.838656   0.896888
     23          5.642430   0.000000
     24          5.741148   0.000000
     25          6.497476   0.000000
     26          6.504680   0.000000
     27          6.712534   0.000000
     28          7.191010   0.000000
     29          8.294232   0.000000
     30          8.839085   0.000000
     31          8.890089   0.000000
     32          9.798033   0.000000
     33          9.835535   0.000000
     34         10.004974   0.000000
     35         10.394974   0.000000
     36         10.880207   0.000000
     37         11.394835   0.000000
     38         12.012759   0.000000
     39         12.222112   0.000000
     40         12.405805   0.000000
     41         12.601705   0.000000
     42         13.077948   0.000000
     43         14.805608   0.000000
     44         14.991290   0.000000
     45         15.216145   0.000000
     46         15.612208   0.000000
     47         15.688254   0.000000
     48         16.263617   0.000000
 
  0.3541667E+00  0.1470588E-01  0.2272727E-01  0.4456328E-03
      1        -12.468158   1.000000
      2        -11.968916   1.000000
      3         -8.533988   1.000000
      4         -8.392364   1.000000
      5         -6.091643   1.000000
      6         -6.004166   1.000000
      7         -4.399010   1.000000
      8         -3.616698   1.000000
      9         -2.910956   1.000000
     10         -2.890697   1.000000
     11         -2.490215   1.000000
     12         -2.312230   1.000000
     13         -2.224701   1.000000
     14         -2.161194   1.000000
     15         -0.537633   1.000000
     16         -0.248349   1.000000
     17          0.171668   1.000000
     18          0.285281   1.000000
     19          0.614273   1.000000
     20          1.520986   1.000000
     21          1.660676   1.000000
     22          1.775552   0.998852
     23          5.656547   0.000000
     24          5.754434   0.000000
     25          6.462964   0.000000
     26          6.638548   0.000000
     27          6.747240   0.000000
     28          7.448166   0.000000
     29          8.344559   0.000000
     30          8.721004   0.000000
     31          8.780579   0.000000
     32          9.517400   0.000000
     33          9.993333   0.000000
     34         10.213493   0.000000
     35         10.421768   0.000000
     36         11.168445   0.000000
     37         11.383348   0.000000
     38         11.954769   0.000000
     39         12.179418   0.000000
     40         12.245242   0.000000
     41         12.535647   0.000000
     42         13.253448   0.000000
     43         14.651460   0.000000
     44         15.018930   0.000000
     45         15.244560   0.000000
     46         15.408639   0.000000
     47         15.517878   0.000000
     48         16.363208   0.000000
 
  0.3958333E+00  0.1470588E-01  0.2272727E-01  0.4456328E-03
      1        -12.406498   1.000000
      2        -12.044610   1.000000
      3         -8.505665   1.000000
      4         -8.399477   1.000000
      5         -6.129289   1.000000
      6         -6.066762   1.000000
      7         -4.197712   1.000000
      8         -3.528881   1.000000
      9         -3.007205   1.000000
     10         -3.002381   1.000000
     11         -2.515398   1.000000
     12         -2.318218   1.000000
     13         -2.126792   1.000000
     14         -2.037224   1.000000
     15         -0.651875   1.000000
     16         -0.405584   1.000000
     17          0.213809   1.000000
     18          0.305249   1.000000
     19          0.717196   1.000000
     20          1.376837   1.000000
     21          1.625235   1.000000
     22          1.716982   0.999999
     23          5.673010   0.000000
     24          5.759059   0.000000
     25          6.444090   0.000000
     26          6.576236   0.000000
     27          7.014671   0.000000
     28          7.716339   0.000000
     29          8.393800   0.000000
     30          8.494905   0.000000
     31          8.699865   0.000000
     32          9.203030   0.000000
     33         10.187112   0.000000
     34         10.402465   0.000000
     35         10.540761   0.000000
     36         11.336879   0.000000
     37         11.495271   0.000000
     38         11.688150   0.000000
     39         11.970648   0.000000
     40         12.378058   0.000000
     41         12.553251   0.000000
     42         13.340021   0.000000
     43         14.543594   0.000000
     44         14.910650   0.000000
     45         15.038395   0.000000
     46         15.176879   0.000000
     47         15.768847   0.000000
     48         16.431176   0.000000
 
  0.4375000E+00  0.1470588E-01  0.2272727E-01  0.4456328E-03
      1        -12.340103   1.000000
      2        -12.120861   1.000000
      3         -8.477839   1.000000
      4         -8.411958   1.000000
      5         -6.152740   1.000000
      6         -6.114223   1.000000
      7         -3.973048   1.000000
      8         -3.433896   1.000000
      9         -3.230234   1.000000
     10         -3.114946   1.000000
     11         -2.462704   1.000000
     12         -2.343265   1.000000
     13         -2.020534   1.000000
     14         -1.927534   1.000000
     15         -0.729282   1.000000
     16         -0.555223   1.000000
     17          0.252348   1.000000
     18          0.311904   1.000000
     19          0.832114   1.000000
     20          1.232525   1.000000
     21          1.607604   1.000000
     22          1.667087   1.000000
     23          5.693183   0.000000
     24          5.752505   0.000000
     25          6.442235   0.000000
     26          6.524928   0.000000
     27          7.301521   0.000000
     28          7.985613   0.000000
     29          8.227160   0.000000
     30          8.444489   0.000000
     31          8.626256   0.000000
     32          8.893668   0.000000
     33         10.371835   0.000000
     34         10.550449   0.000000
     35         10.715940   0.000000
     36         11.297349   0.000000
     37         11.430204   0.000000
     38         11.702962   0.000000
     39         11.834885   0.000000
     40         12.477206   0.000000
     41         12.631035   0.000000
     42         13.274820   0.000000
     43         14.538402   0.000000
     44         14.733584   0.000000
     45         14.955018   0.000000
     46         14.975246   0.000000
     47         16.011336   0.000000
     48         16.440621   0.000000
 
  0.4791667E+00  0.1470588E-01  0.2272727E-01  0.4456328E-03
      1        -12.269734   1.000000
      2        -12.196303   1.000000
      3         -8.452033   1.000000
      4         -8.429696   1.000000
      5         -6.158349   1.000000
      6         -6.145255   1.000000
      7         -3.731877   1.000000
      8         -3.481304   1.000000
      9         -3.331755   1.000000
     10         -3.225322   1.000000
     11         -2.413161   1.000000
     12         -2.374433   1.000000
     13         -1.927393   1.000000
     14         -1.887354   1.000000
     15         -0.741131   1.000000
     16         -0.676516   1.000000
     17          0.283682   1.000000
     18          0.304389   1.000000
     19          0.957555   1.000000
     20          1.091781   1.000000
     21          1.609365   1.000000
     22          1.630003   1.000000
     23          5.715492   0.000000
     24          5.736663   0.000000
     25          6.456465   0.000000
     26          6.484671   0.000000
     27          7.601026   0.000000
     28          7.901925   0.000000
     29          8.298967   0.000000
     30          8.499216   0.000000
     31          8.557551   0.000000
     32          8.592615   0.000000
     33         10.524993   0.000000
     34         10.600763   0.000000
     35         10.926784   0.000000
     36         11.160192   0.000000
     37         11.348619   0.000000
     38         11.489184   0.000000
     39         12.132086   0.000000
     40         12.361103   0.000000
     41         12.848369   0.000000
     42         13.082376   0.000000
     43         14.602373   0.000000
     44         14.671406   0.000000
     45         14.830271   0.000000
     46         14.875813   0.000000
     47         16.218424   0.000000
     48         16.368946   0.000000
 
  0.2083333E-01  0.4411765E-01  0.2272727E-01  0.4456328E-03
      1        -12.727240   1.000000
      2        -11.574330   1.000000
      3         -8.658130   1.000000
      4         -8.418799   1.000000
      5         -6.076288   1.000000
      6         -5.077479   1.000000
      7         -4.627640   1.000000
      8         -4.343114   1.000000
      9         -4.072391   1.000000
     10         -3.580109   1.000000
     11         -2.673433   1.000000
     12         -2.282371   1.000000
     13         -1.733380   1.000000
     14         -1.061914   1.000000
     15         -0.088794   1.000000
     16         -0.063322   1.000000
     17          0.143485   1.000000
     18          0.200957   1.000000
     19          0.573743   1.000000
     20          2.006401   0.000250
     21          2.070067   0.000000
     22          2.251612   0.000000
     23          5.465515   0.000000
     24          5.747372   0.000000
     25          5.854313   0.000000
     26          5.892618   0.000000
     27          6.850944   0.000000
     28          7.673969   0.000000
     29          7.812641   0.000000
     30          8.478871   0.000000
     31          8.760959   0.000000
     32          8.955904   0.000000
     33          9.056896   0.000000
     34         10.156575   0.000000
     35         11.192681   0.000000
     36         11.373656   0.000000
     37         11.717879   0.000000
     38         11.818296   0.000000
     39         11.921381   0.000000
     40         12.417347   0.000000
     41         12.827426   0.000000
     42         13.341421   0.000000
     43         13.520334   0.000000
     44         15.502135   0.000000
     45         15.535762   0.000000
     46         15.957882   0.000000
     47         16.327562   0.000000
     48         16.399051   0.000000
 
  0.6250000E-01  0.4411765E-01  0.2272727E-01  0.4456328E-03
      1        -12.719594   1.000000
      2        -11.587587   1.000000
      3         -8.654874   1.000000
      4         -8.416366   1.000000
      5         -6.060819   1.000000
      6         -5.168914   1.000000
      7         -4.670588   1.000000
      8         -4.239908   1.000000
      9         -4.050263   1.000000
     10         -3.507322   1.000000
     11         -2.685308   1.000000
     12         -2.278860   1.000000
     13         -1.749198   1.000000
     14         -1.119325   1.000000
     15         -0.088203   1.000000
     16         -0.046490   1.000000
     17          0.150421   1.000000
     18          0.183098   1.000000
     19          0.556333   1.000000
     20          1.985824   0.001875
     21          2.060931   0.000000
     22          2.229964   0.000000
     23          5.482457   0.000000
     24          5.736935   0.000000
     25          5.842028   0.000000
     26          5.982507   0.000000
     27          6.834266   0.000000
     28          7.521687   0.000000
     29          7.928469   0.000000
     30          8.505796   0.000000
     31          8.826784   0.000000
     32          9.003050   0.000000
     33          9.064680   0.000000
     34         10.172614   0.000000
     35         11.204174   0.000000
     36         11.299884   0.000000
     37         11.592469   0.000000
     38         11.777095   0.000000
     39         11.962190   0.000000
     40         12.432232   0.000000
     41         12.911750   0.000000
     42         13.424335   0.000000
     43         13.497984   0.000000
     44         15.306392   0.000000
     45         15.574266   0.000000
     46         16.065247   0.000000
     47         16.254125   0.000000
     48         16.362127   0.000000
 
  0.1041667E+00  0.4411765E-01  0.2272727E-01  0.4456328E-03
      1        -12.704355   1.000000
      2        -11.613605   1.000000
      3         -8.648189   1.000000
      4         -8.411828   1.000000
      5         -6.034075   1.000000
      6         -5.303215   1.000000
      7         -4.730242   1.000000
      8         -4.121437   1.000000
      9         -3.972696   1.000000
     10         -3.379259   1.000000
     11         -2.709113   1.000000
     12         -2.271805   1.000000
     13         -1.778890   1.000000
     14         -1.229674   1.000000
     15         -0.080915   1.000000
     16         -0.024577   1.000000
     17          0.137387   1.000000
     18          0.177553   1.000000
     19          0.521782   1.000000
     20          1.948456   0.032767
     21          2.040415   0.000004
     22          2.186750   0.000000
     23          5.513825   0.000000
     24          5.746847   0.000000
     25          5.835894   0.000000
     26          6.113232   0.000000
     27          6.802549   0.000000
     28          7.367891   0.000000
     29          8.021520   0.000000
     30          8.556759   0.000000
     31          8.939615   0.000000
     32          9.080230   0.000000
     33          9.096896   0.000000
     34         10.205440   0.000000
     35         11.155480   0.000000
     36         11.230896   0.000000
     37         11.383932   0.000000
     38         11.731111   0.000000
     39         12.040712   0.000000
     40         12.461906   0.000000
     41         13.036121   0.000000
     42         13.309438   0.000000
     43         13.697651   0.000000
     44         15.075518   0.000000
     45         15.642316   0.000000
     46         16.045023   0.000000
     47         16.160171   0.000000
     48         16.428272   0.000000
 
  0.1458333E+00  0.4411765E-01  0.2272727E-01  0.4456328E-03
      1        -12.681637   1.000000
      2        -11.651440   1.000000
      3         -8.637794   1.000000
      4         -8.405781   1.000000
      5         -6.004435   1.000000
      6         -5.447505   1.000000
      7         -4.781155   1.000000
      8         -4.057265   1.000000
      9         -3.803353   1.000000
     10         -3.215782   1.000000
     11         -2.744643   1.000000
     12         -2.261118   1.000000
     13         -1.819121   1.000000
     14         -1.385247   1.000000
     15         -0.067762   1.000000
     16         -0.018222   1.000000
     17          0.106653   1.000000
     18          0.197315   1.000000
     19          0.473356   1.000000
     20          1.898487   0.334237
     21          2.007299   0.000228
     22          2.122481   0.000000
     23          5.554979   0.000000
     24          5.763951   0.000000
     25          5.859668   0.000000
     26          6.274288   0.000000
     27          6.758835   0.000000
     28          7.222726   0.000000
     29          8.098531   0.000000
     30          8.625771   0.000000
     31          9.038055   0.000000
     32          9.137062   0.000000
     33          9.235199   0.000000
     34         10.257792   0.000000
     35         10.958090   0.000000
     36         11.137091   0.000000
     37         11.266451   0.000000
     38         11.711562   0.000000
     39         12.148253   0.000000
     40         12.509319   0.000000
     41         13.132497   0.000000
     42         13.139017   0.000000
     43         13.953451   0.000000
     44         14.886351   0.000000
     45         15.716590   0.000000
     46         15.846547   0.000000
     47         16.186207   0.000000
     48         16.506890   0.000000
 
  0.1875000E+00  0.4411765E-01  0.2272727E-01  0.4456328E-03
      1        -12.651606   1.000000
      2        -11.699774   1.000000
      3         -8.623464   1.000000
      4         -8.399089   1.000000
      5         -5.983452   1.000000
      6         -5.587080   1.000000
      7         -4.801452   1.000000
      8         -4.008323   1.000000