       N       E                     dE             d eps       ncg     rms          rms(c)
DAV:   1     0.538941321986E+02    0.53894E+02   -0.17641E+04215424   0.724E+02
