 running   24 mpi-ranks, with    1 threads/rank, on    1 nodes
 distrk:  each k-point on   24 cores,    1 groups
 distr:  one band on    1 cores,   24 groups
 vasp.6.4.3 19Mar24 (build May 31 2024 16:31:43) complex                        
  
 POSCAR found type information on POSCAR B 
 POSCAR found :  1 types and      14 ions
 Reading from existing POTCAR
 scaLAPACK will be used
 Reading from existing POTCAR
 LDA part: xc-table for (Slater+PW92), standard interpolation
 POSCAR, INCAR and KPOINTS ok, starting setup
 FFT: planning ... GRIDC
 FFT: planning ... GRID_SOFT
 FFT: planning ... GRID
 WAVECAR not read
 entering main loop
       N       E                     dE             d eps       ncg     rms          rms(c)
DAV:   1     0.538941321986E+02    0.53894E+02   -0.17641E+04215424   0.724E+02
DAV:   2    -0.928965972275E+02   -0.14679E+03   -0.13813E+03301152   0.150E+02
DAV:   3    -0.975877939504E+02   -0.46912E+01   -0.46678E+01313776   0.240E+01
DAV:   4    -0.976150594744E+02   -0.27266E-01   -0.27264E-01267024   0.210E+00
