  14  14   0   0
  0.1021318E+02  0.5700971E-09  0.4044058E-09  0.6201871E-09  0.5000000E-15
  1.000000000000000E-004
  CAR 
 Dielectric                              
     51.00874036    -15.73274499 4000      1.91230348      1.00000000
    -15.733  0.0000E+00  0.0000E+00
    -15.716  0.0000E+00  0.0000E+00
    -15.699  0.0000E+00  0.0000E+00
    -15.683  0.0000E+00  0.0000E+00
    -15.666  0.0000E+00  0.0000E+00
    -15.649  0.0000E+00  0.0000E+00
    -15.633  0.0000E+00  0.0000E+00
    -15.616  0.0000E+00  0.0000E+00
    -15.599  0.0000E+00  0.0000E+00
    -15.583  0.0000E+00  0.0000E+00
    -15.566  0.0000E+00  0.0000E+00
    -15.549  0.0000E+00  0.0000E+00
    -15.532  0.0000E+00  0.0000E+00
    -15.516  0.0000E+00  0.0000E+00
    -15.499  0.0000E+00  0.0000E+00
    -15.482  0.0000E+00  0.0000E+00
    -15.466  0.0000E+00  0.0000E+00
    -15.449  0.0000E+00  0.0000E+00
    -15.432  0.0000E+00  0.0000E+00
    -15.416  0.0000E+00  0.0000E+00
    -15.399  0.0000E+00  0.0000E+00
    -15.382  0.0000E+00  0.0000E+00
    -15.366  0.0000E+00  0.0000E+00
    -15.349  0.0000E+00  0.0000E+00
    -15.332  0.0000E+00  0.0000E+00
    -15.316  0.0000E+00  0.0000E+00
    -15.299  0.0000E+00  0.0000E+00
    -15.282  0.0000E+00  0.0000E+00
    -15.265  0.0000E+00  0.0000E+00
    -15.249  0.0000E+00  0.0000E+00
    -15.232  0.0000E+00  0.0000E+00
    -15.215  0.0000E+00  0.0000E+00
    -15.199  0.0000E+00  0.0000E+00
    -15.182  0.0000E+00  0.0000E+00
    -15.165  0.0000E+00  0.0000E+00
    -15.149  0.0000E+00  0.0000E+00
    -15.132  0.0000E+00  0.0000E+00
    -15.115  0.0000E+00  0.0000E+00
    -15.099  0.0000E+00  0.0000E+00
    -15.082  0.0000E+00  0.0000E+00
    -15.065  0.0000E+00  0.0000E+00
    -15.048  0.0000E+00  0.0000E+00
    -15.032  0.0000E+00  0.0000E+00
    -15.015  0.0000E+00  0.0000E+00
    -14.998  0.0000E+00  0.0000E+00
    -14.982  0.0000E+00  0.0000E+00
    -14.965  0.0000E+00  0.0000E+00
    -14.948  0.0000E+00  0.0000E+00
    -14.932  0.0000E+00  0.0000E+00
    -14.915  0.0000E+00  0.0000E+00
    -14.898  0.0000E+00  0.0000E+00
    -14.882  0.0000E+00  0.0000E+00
    -14.865  0.0000E+00  0.0000E+00
    -14.848  0.0000E+00  0.0000E+00
    -14.832  0.0000E+00  0.0000E+00
    -14.815  0.0000E+00  0.0000E+00
    -14.798  0.0000E+00  0.0000E+00
    -14.781  0.0000E+00  0.0000E+00
    -14.765  0.0000E+00  0.0000E+00
    -14.748  0.0000E+00  0.0000E+00
    -14.731  0.0000E+00  0.0000E+00
    -14.715  0.0000E+00  0.0000E+00
    -14.698  0.0000E+00  0.0000E+00
    -14.681  0.0000E+00  0.0000E+00
    -14.665  0.0000E+00  0.0000E+00
    -14.648  0.0000E+00  0.0000E+00
    -14.631  0.0000E+00  0.0000E+00
    -14.615  0.0000E+00  0.0000E+00
    -14.598  0.0000E+00  0.0000E+00
    -14.581  0.0000E+00  0.0000E+00
    -14.564  0.0000E+00  0.0000E+00
    -14.548  0.0000E+00  0.0000E+00
    -14.531  0.0000E+00  0.0000E+00
    -14.514  0.0000E+00  0.0000E+00
    -14.498  0.0000E+00  0.0000E+00
    -14.481  0.0000E+00  0.0000E+00
    -14.464  0.0000E+00  0.0000E+00
    -14.448  0.0000E+00  0.0000E+00
    -14.431  0.0000E+00  0.0000E+00
    -14.414  0.0000E+00  0.0000E+00
    -14.398  0.0000E+00  0.0000E+00
    -14.381  0.0000E+00  0.0000E+00
    -14.364  0.0000E+00  0.0000E+00
    -14.348  0.0000E+00  0.0000E+00
    -14.331  0.0000E+00  0.0000E+00
    -14.314  0.0000E+00  0.0000E+00
    -14.297  0.0000E+00  0.0000E+00
    -14.281  0.0000E+00  0.0000E+00
    -14.264  0.0000E+00  0.0000E+00
    -14.247  0.0000E+00  0.0000E+00
    -14.231  0.0000E+00  0.0000E+00
    -14.214  0.0000E+00  0.0000E+00
    -14.197  0.0000E+00  0.0000E+00
    -14.181  0.0000E+00  0.0000E+00
    -14.164  0.0000E+00  0.0000E+00
    -14.147  0.0000E+00  0.0000E+00
    -14.131  0.0000E+00  0.0000E+00
    -14.114  0.0000E+00  0.0000E+00
    -14.097  0.0000E+00  0.0000E+00
    -14.080  0.0000E+00  0.0000E+00
    -14.064  0.0000E+00  0.0000E+00
    -14.047  0.0000E+00  0.0000E+00
    -14.030  0.0000E+00  0.0000E+00
    -14.014  0.0000E+00  0.0000E+00
    -13.997  0.0000E+00  0.0000E+00
    -13.980  0.0000E+00  0.0000E+00
    -13.964  0.0000E+00  0.0000E+00
    -13.947  0.0000E+00  0.0000E+00
    -13.930  0.0000E+00  0.0000E+00
    -13.914  0.0000E+00  0.0000E+00
    -13.897  0.0000E+00  0.0000E+00
    -13.880  0.0000E+00  0.0000E+00
    -13.864  0.0000E+00  0.0000E+00
    -13.847  0.0000E+00  0.0000E+00
    -13.830  0.0000E+00  0.0000E+00
    -13.813  0.0000E+00  0.0000E+00
    -13.797  0.0000E+00  0.0000E+00
    -13.780  0.0000E+00  0.0000E+00
    -13.763  0.0000E+00  0.0000E+00
    -13.747  0.0000E+00  0.0000E+00
    -13.730  0.0000E+00  0.0000E+00
    -13.713  0.0000E+00  0.0000E+00
    -13.697  0.0000E+00  0.0000E+00
    -13.680  0.0000E+00  0.0000E+00
    -13.663  0.0000E+00  0.0000E+00
    -13.647  0.0000E+00  0.0000E+00
    -13.630  0.0000E+00  0.0000E+00
    -13.613  0.0000E+00  0.0000E+00
    -13.596  0.0000E+00  0.0000E+00
    -13.580  0.0000E+00  0.0000E+00
    -13.563  0.0000E+00  0.0000E+00
    -13.546  0.0000E+00  0.0000E+00
    -13.530  0.0000E+00  0.0000E+00
    -13.513  0.0000E+00  0.0000E+00
    -13.496  0.0000E+00  0.0000E+00
    -13.480  0.0000E+00  0.0000E+00
    -13.463  0.0000E+00  0.0000E+00
    -13.446  0.0000E+00  0.0000E+00
    -13.430  0.0000E+00  0.0000E+00
    -13.413  0.0000E+00  0.0000E+00
    -13.396  0.0000E+00  0.0000E+00
    -13.380  0.0000E+00  0.0000E+00
    -13.363  0.0000E+00  0.0000E+00
    -13.346  0.0000E+00  0.0000E+00
    -13.329  0.0000E+00  0.0000E+00
    -13.313  0.0000E+00  0.0000E+00
    -13.296  0.0000E+00  0.0000E+00
    -13.279  0.0000E+00  0.0000E+00
    -13.263  0.0000E+00  0.0000E+00
    -13.246  0.0000E+00  0.0000E+00
    -13.229  0.0000E+00  0.0000E+00
    -13.213  0.0000E+00  0.0000E+00
    -13.196  0.0000E+00  0.0000E+00
    -13.179  0.0000E+00  0.0000E+00
    -13.163  0.0000E+00  0.0000E+00
    -13.146  0.0000E+00  0.0000E+00
    -13.129  0.0000E+00  0.0000E+00
    -13.112  0.0000E+00  0.0000E+00
    -13.096  0.0000E+00  0.0000E+00
    -13.079  0.0000E+00  0.0000E+00
    -13.062  0.0000E+00  0.0000E+00
    -13.046  0.0000E+00  0.0000E+00
    -13.029  0.0000E+00  0.0000E+00
    -13.012  0.0000E+00  0.0000E+00
    -12.996  0.0000E+00  0.0000E+00
    -12.979  0.0000E+00  0.0000E+00
    -12.962  0.0000E+00  0.0000E+00
    -12.946  0.0000E+00  0.0000E+00
    -12.929  0.0000E+00  0.0000E+00
    -12.912  0.0000E+00  0.0000E+00
    -12.896  0.0000E+00  0.0000E+00
    -12.879  0.0000E+00  0.0000E+00
    -12.862  0.0000E+00  0.0000E+00
    -12.845  0.0000E+00  0.0000E+00
    -12.829  0.0000E+00  0.0000E+00
    -12.812  0.0000E+00  0.0000E+00
    -12.795  0.0000E+00  0.0000E+00
    -12.779  0.0000E+00  0.0000E+00
    -12.762  0.0000E+00  0.0000E+00
    -12.745  0.1070E-11  0.1786E-13
    -12.729  0.6500E-06  0.1085E-07
    -12.712  0.2685E-02  0.4483E-04
    -12.695  0.1503E+00  0.2554E-02
    -12.679  0.6548E+00  0.1348E-01
    -12.662  0.1022E+01  0.3054E-01
    -12.645  0.1395E+01  0.5383E-01
    -12.628  0.1655E+01  0.8144E-01
    -12.612  0.1983E+01  0.1145E+00
    -12.595  0.2559E+01  0.1572E+00
    -12.578  0.2833E+01  0.2045E+00
    -12.562  0.2953E+01  0.2538E+00
    -12.545  0.3191E+01  0.3071E+00
    -12.528  0.3180E+01  0.3601E+00
    -12.512  0.3168E+01  0.4130E+00
    -12.495  0.3279E+01  0.4677E+00
    -12.478  0.3522E+01  0.5265E+00
    -12.462  0.3807E+01  0.5900E+00
    -12.445  0.3568E+01  0.6496E+00
    -12.428  0.3992E+01  0.7162E+00
    -12.412  0.4554E+01  0.7922E+00
    -12.395  0.4772E+01  0.8718E+00
    -12.378  0.4423E+01  0.9457E+00
    -12.361  0.4440E+01  0.1020E+01
    -12.345  0.4338E+01  0.1092E+01
    -12.328  0.4513E+01  0.1167E+01
    -12.311  0.3899E+01  0.1233E+01
    -12.295  0.3801E+01  0.1296E+01
    -12.278  0.3476E+01  0.1354E+01
    -12.261  0.3282E+01  0.1409E+01
    -12.245  0.2672E+01  0.1453E+01
    -12.228  0.3237E+01  0.1507E+01
    -12.211  0.3261E+01  0.1562E+01
    -12.195  0.3092E+01  0.1613E+01
    -12.178  0.2644E+01  0.1658E+01
    -12.161  0.2507E+01  0.1699E+01
    -12.144  0.2544E+01  0.1742E+01
    -12.128  0.2838E+01  0.1789E+01
    -12.111  0.3213E+01  0.1843E+01
    -12.094  0.2588E+01  0.1886E+01
    -12.078  0.2345E+01  0.1925E+01
    -12.061  0.2140E+01  0.1961E+01
    -12.044  0.2423E+01  0.2001E+01
    -12.028  0.3311E+01  0.2057E+01
    -12.011  0.2670E+01  0.2101E+01
    -11.994  0.2022E+01  0.2135E+01
    -11.978  0.2474E+01  0.2176E+01
    -11.961  0.2335E+01  0.2215E+01
    -11.944  0.2951E+01  0.2264E+01
    -11.928  0.2548E+01  0.2307E+01
    -11.911  0.2252E+01  0.2345E+01
    -11.894  0.2303E+01  0.2383E+01
    -11.877  0.3067E+01  0.2434E+01
    -11.861  0.2739E+01  0.2480E+01
    -11.844  0.2117E+01  0.2515E+01
    -11.827  0.2652E+01  0.2559E+01
    -11.811  0.2571E+01  0.2602E+01
    -11.794  0.2833E+01  0.2650E+01
    -11.777  0.3472E+01  0.2708E+01
    -11.761  0.2423E+01  0.2748E+01
    -11.744  0.2686E+01  0.2793E+01
    -11.727  0.3046E+01  0.2844E+01
    -11.711  0.3463E+01  0.2901E+01
    -11.694  0.3897E+01  0.2966E+01
    -11.677  0.3761E+01  0.3029E+01
    -11.660  0.3313E+01  0.3085E+01
    -11.644  0.3474E+01  0.3143E+01
    -11.627  0.3714E+01  0.3205E+01
    -11.610  0.3381E+01  0.3261E+01
    -11.594  0.3811E+01  0.3325E+01
    -11.577  0.3561E+01  0.3384E+01
    -11.560  0.3370E+01  0.3440E+01
    -11.544  0.3315E+01  0.3496E+01
    -11.527  0.3405E+01  0.3552E+01
    -11.510  0.3545E+01  0.3612E+01
    -11.494  0.2998E+01  0.3662E+01
    -11.477  0.2922E+01  0.3710E+01
    -11.460  0.2503E+01  0.3752E+01
    -11.444  0.2618E+01  0.3796E+01
    -11.427  0.2335E+01  0.3835E+01
    -11.410  0.1967E+01  0.3868E+01
    -11.393  0.1570E+01  0.3894E+01
    -11.377  0.1358E+01  0.3916E+01
    -11.360  0.1284E+01  0.3938E+01
    -11.343  0.1183E+01  0.3958E+01
    -11.327  0.7880E+00  0.3971E+01
    -11.310  0.7623E+00  0.3984E+01
    -11.293  0.5934E+00  0.3993E+01
    -11.277  0.3196E+00  0.3999E+01
    -11.260  0.7338E-01  0.4000E+01
    -11.243  0.8040E-03  0.4000E+01
    -11.227  0.9791E-07  0.4000E+01
    -11.210  0.6488E-13  0.4000E+01
    -11.193  0.0000E+00  0.4000E+01
    -11.176  0.0000E+00  0.4000E+01
    -11.160  0.0000E+00  0.4000E+01
    -11.143  0.0000E+00  0.4000E+01
    -11.126  0.0000E+00  0.4000E+01
    -11.110  0.0000E+00  0.4000E+01
    -11.093  0.0000E+00  0.4000E+01
    -11.076  0.0000E+00  0.4000E+01
    -11.060  0.0000E+00  0.4000E+01
    -11.043  0.0000E+00  0.4000E+01
    -11.026  0.0000E+00  0.4000E+01
    -11.010  0.0000E+00  0.4000E+01
    -10.993  0.0000E+00  0.4000E+01
    -10.976  0.0000E+00  0.4000E+01
    -10.960  0.0000E+00  0.4000E+01
    -10.943  0.0000E+00  0.4000E+01
    -10.926  0.0000E+00  0.4000E+01
    -10.909  0.0000E+00  0.4000E+01
    -10.893  0.0000E+00  0.4000E+01
    -10.876  0.0000E+00  0.4000E+01
    -10.859  0.0000E+00  0.4000E+01
    -10.843  0.0000E+00  0.4000E+01
    -10.826  0.0000E+00  0.4000E+01
    -10.809  0.0000E+00  0.4000E+01
    -10.793  0.0000E+00  0.4000E+01
    -10.776  0.0000E+00  0.4000E+01
    -10.759  0.0000E+00  0.4000E+01
    -10.743  0.0000E+00  0.4000E+01
    -10.726  0.0000E+00  0.4000E+01
    -10.709  0.0000E+00  0.4000E+01
    -10.693  0.0000E+00  0.4000E+01
    -10.676  0.0000E+00  0.4000E+01
    -10.659  0.0000E+00  0.4000E+01
    -10.642  0.0000E+00  0.4000E+01
    -10.626  0.0000E+00  0.4000E+01
    -10.609  0.0000E+00  0.4000E+01
    -10.592  0.0000E+00  0.4000E+01
    -10.576  0.0000E+00  0.4000E+01
    -10.559  0.0000E+00  0.4000E+01
    -10.542  0.0000E+00  0.4000E+01
    -10.526  0.0000E+00  0.4000E+01
    -10.509  0.0000E+00  0.4000E+01
    -10.492  0.0000E+00  0.4000E+01
    -10.476  0.0000E+00  0.4000E+01
    -10.459  0.0000E+00  0.4000E+01
    -10.442  0.0000E+00  0.4000E+01
    -10.425  0.0000E+00  0.4000E+01
    -10.409  0.0000E+00  0.4000E+01
    -10.392  0.0000E+00  0.4000E+01
    -10.375  0.0000E+00  0.4000E+01
    -10.359  0.0000E+00  0.4000E+01
    -10.342  0.0000E+00  0.4000E+01
    -10.325  0.0000E+00  0.4000E+01
    -10.309  0.0000E+00  0.4000E+01
    -10.292  0.0000E+00  0.4000E+01
    -10.275  0.0000E+00  0.4000E+01
    -10.259  0.0000E+00  0.4000E+01
    -10.242  0.0000E+00  0.4000E+01
    -10.225  0.0000E+00  0.4000E+01
    -10.209  0.0000E+00  0.4000E+01
    -10.192  0.0000E+00  0.4000E+01
    -10.175  0.0000E+00  0.4000E+01
    -10.158  0.0000E+00  0.4000E+01
    -10.142  0.0000E+00  0.4000E+01
    -10.125  0.0000E+00  0.4000E+01
    -10.108  0.0000E+00  0.4000E+01
    -10.092  0.0000E+00  0.4000E+01
    -10.075  0.0000E+00  0.4000E+01
    -10.058  0.0000E+00  0.4000E+01
    -10.042  0.0000E+00  0.4000E+01
    -10.025  0.0000E+00  0.4000E+01
    -10.008  0.0000E+00  0.4000E+01
     -9.992  0.0000E+00  0.4000E+01
     -9.975  0.0000E+00  0.4000E+01
     -9.958  0.0000E+00  0.4000E+01
     -9.941  0.0000E+00  0.4000E+01
     -9.925  0.0000E+00  0.4000E+01
     -9.908  0.0000E+00  0.4000E+01
     -9.891  0.0000E+00  0.4000E+01
     -9.875  0.0000E+00  0.4000E+01
     -9.858  0.0000E+00  0.4000E+01
     -9.841  0.0000E+00  0.4000E+01
     -9.825  0.0000E+00  0.4000E+01
     -9.808  0.0000E+00  0.4000E+01
     -9.791  0.0000E+00  0.4000E+01
     -9.775  0.0000E+00  0.4000E+01
     -9.758  0.0000E+00  0.4000E+01
     -9.741  0.0000E+00  0.4000E+01
     -9.725  0.0000E+00  0.4000E+01
     -9.708  0.0000E+00  0.4000E+01
     -9.691  0.0000E+00  0.4000E+01
     -9.674  0.0000E+00  0.4000E+01
     -9.658  0.0000E+00  0.4000E+01
     -9.641  0.0000E+00  0.4000E+01
     -9.624  0.0000E+00  0.4000E+01
     -9.608  0.0000E+00  0.4000E+01
     -9.591  0.0000E+00  0.4000E+01
     -9.574  0.0000E+00  0.4000E+01
     -9.558  0.0000E+00  0.4000E+01
     -9.541  0.0000E+00  0.4000E+01
     -9.524  0.0000E+00  0.4000E+01
     -9.508  0.0000E+00  0.4000E+01
     -9.491  0.0000E+00  0.4000E+01
     -9.474  0.0000E+00  0.4000E+01
     -9.457  0.0000E+00  0.4000E+01
     -9.441  0.0000E+00  0.4000E+01
     -9.424  0.0000E+00  0.4000E+01
     -9.407  0.0000E+00  0.4000E+01
     -9.391  0.0000E+00  0.4000E+01
     -9.374  0.0000E+00  0.4000E+01
     -9.357  0.0000E+00  0.4000E+01
     -9.341  0.0000E+00  0.4000E+01
     -9.324  0.0000E+00  0.4000E+01
     -9.307  0.0000E+00  0.4000E+01
     -9.291  0.0000E+00  0.4000E+01
     -9.274  0.0000E+00  0.4000E+01
     -9.257  0.0000E+00  0.4000E+01
     -9.241  0.0000E+00  0.4000E+01
     -9.224  0.0000E+00  0.4000E+01
     -9.207  0.0000E+00  0.4000E+01
     -9.190  0.0000E+00  0.4000E+01
     -9.174  0.0000E+00  0.4000E+01
     -9.157  0.0000E+00  0.4000E+01
     -9.140  0.0000E+00  0.4000E+01
     -9.124  0.0000E+00  0.4000E+01
     -9.107  0.0000E+00  0.4000E+01
     -9.090  0.0000E+00  0.4000E+01
     -9.074  0.0000E+00  0.4000E+01
     -9.057  0.0000E+00  0.4000E+01
     -9.040  0.0000E+00  0.4000E+01
     -9.024  0.0000E+00  0.4000E+01
     -9.007  0.0000E+00  0.4000E+01
     -8.990  0.0000E+00  0.4000E+01
     -8.973  0.0000E+00  0.4000E+01
     -8.957  0.0000E+00  0.4000E+01
     -8.940  0.0000E+00  0.4000E+01
     -8.923  0.0000E+00  0.4000E+01
     -8.907  0.0000E+00  0.4000E+01
     -8.890  0.0000E+00  0.4000E+01
     -8.873  0.7700E-12  0.4000E+01
     -8.857  0.6820E-06  0.4000E+01
     -8.840  0.3569E-02  0.4000E+01
     -8.823  0.2030E+00  0.4003E+01
     -8.807  0.7297E+00  0.4016E+01
     -8.790  0.1235E+01  0.4036E+01
     -8.773  0.1557E+01  0.4062E+01
     -8.757  0.1640E+01  0.4090E+01
     -8.740  0.2467E+01  0.4131E+01
     -8.723  0.2444E+01  0.4172E+01
     -8.706  0.2589E+01  0.4215E+01
     -8.690  0.3424E+01  0.4272E+01
     -8.673  0.3929E+01  0.4337E+01
     -8.656  0.4446E+01  0.4412E+01
     -8.640  0.6650E+01  0.4523E+01
     -8.623  0.6554E+01  0.4632E+01
     -8.606  0.6529E+01  0.4741E+01
     -8.590  0.6490E+01  0.4849E+01
     -8.573  0.7088E+01  0.4968E+01
     -8.556  0.6873E+01  0.5082E+01
     -8.540  0.6612E+01  0.5193E+01
     -8.523  0.6781E+01  0.5306E+01
     -8.506  0.6564E+01  0.5415E+01
     -8.489  0.6811E+01  0.5529E+01
     -8.473  0.6862E+01  0.5644E+01
     -8.456  0.6895E+01  0.5759E+01
     -8.439  0.7274E+01  0.5880E+01
     -8.423  0.5031E+01  0.5964E+01
     -8.406  0.4313E+01  0.6036E+01
     -8.389  0.3746E+01  0.6099E+01
     -8.373  0.3544E+01  0.6158E+01
     -8.356  0.3939E+01  0.6223E+01
     -8.339  0.4826E+01  0.6304E+01
     -8.323  0.5050E+01  0.6388E+01
     -8.306  0.4840E+01  0.6469E+01
     -8.289  0.5192E+01  0.6556E+01
     -8.273  0.4966E+01  0.6639E+01
     -8.256  0.5030E+01  0.6723E+01
     -8.239  0.5133E+01  0.6808E+01
     -8.222  0.4415E+01  0.6882E+01
     -8.206  0.4593E+01  0.6958E+01
     -8.189  0.4573E+01  0.7035E+01
     -8.172  0.4558E+01  0.7111E+01
     -8.156  0.4655E+01  0.7189E+01
     -8.139  0.4614E+01  0.7266E+01
     -8.122  0.4358E+01  0.7338E+01
     -8.106  0.4532E+01  0.7414E+01
     -8.089  0.4978E+01  0.7497E+01
     -8.072  0.4323E+01  0.7569E+01
     -8.056  0.3413E+01  0.7626E+01
     -8.039  0.3150E+01  0.7679E+01
     -8.022  0.3126E+01  0.7731E+01
     -8.005  0.2137E+01  0.7767E+01
     -7.989  0.2045E+01  0.7801E+01
     -7.972  0.2087E+01  0.7836E+01
     -7.955  0.1821E+01  0.7866E+01
     -7.939  0.1321E+01  0.7888E+01
     -7.922  0.1248E+01  0.7909E+01
     -7.905  0.1012E+01  0.7926E+01
     -7.889  0.8964E+00  0.7941E+01
     -7.872  0.9837E+00  0.7957E+01
     -7.855  0.6784E+00  0.7968E+01
     -7.839  0.5114E+00  0.7977E+01
     -7.822  0.4888E+00  0.7985E+01
     -7.805  0.4756E+00  0.7993E+01
     -7.789  0.2264E+00  0.7997E+01
     -7.772  0.1722E+00  0.8000E+01
     -7.755  0.1995E-01  0.8000E+01
     -7.738  0.3851E-04  0.8000E+01
     -7.722  0.4454E-09  0.8000E+01
     -7.705  0.2783E-16  0.8000E+01
     -7.688  0.0000E+00  0.8000E+01
     -7.672  0.0000E+00  0.8000E+01
     -7.655  0.0000E+00  0.8000E+01
     -7.638  0.0000E+00  0.8000E+01
     -7.622  0.0000E+00  0.8000E+01
     -7.605  0.0000E+00  0.8000E+01
     -7.588  0.0000E+00  0.8000E+01
     -7.572  0.0000E+00  0.8000E+01
     -7.555  0.0000E+00  0.8000E+01
     -7.538  0.0000E+00  0.8000E+01
     -7.521  0.0000E+00  0.8000E+01
     -7.505  0.0000E+00  0.8000E+01
     -7.488  0.0000E+00  0.8000E+01
     -7.471  0.0000E+00  0.8000E+01
     -7.455  0.0000E+00  0.8000E+01
     -7.438  0.0000E+00  0.8000E+01
     -7.421  0.0000E+00  0.8000E+01
     -7.405  0.0000E+00  0.8000E+01
     -7.388  0.0000E+00  0.8000E+01
     -7.371  0.0000E+00  0.8000E+01
     -7.355  0.0000E+00  0.8000E+01
     -7.338  0.0000E+00  0.8000E+01
     -7.321  0.0000E+00  0.8000E+01
     -7.305  0.0000E+00  0.8000E+01
     -7.288  0.0000E+00  0.8000E+01
     -7.271  0.0000E+00  0.8000E+01
     -7.254  0.0000E+00  0.8000E+01
     -7.238  0.0000E+00  0.8000E+01
     -7.221  0.0000E+00  0.8000E+01
     -7.204  0.0000E+00  0.8000E+01
     -7.188  0.0000E+00  0.8000E+01
     -7.171  0.0000E+00  0.8000E+01
     -7.154  0.0000E+00  0.8000E+01
     -7.138  0.0000E+00  0.8000E+01
     -7.121  0.0000E+00  0.8000E+01
     -7.104  0.0000E+00  0.8000E+01
     -7.088  0.0000E+00  0.8000E+01
     -7.071  0.0000E+00  0.8000E+01
     -7.054  0.0000E+00  0.8000E+01
     -7.037  0.0000E+00  0.8000E+01
     -7.021  0.0000E+00  0.8000E+01
     -7.004  0.2575E-13  0.8000E+01
     -6.987  0.5328E-07  0.8000E+01
     -6.971  0.5927E-03  0.8000E+01
     -6.954  0.5906E-01  0.8001E+01
     -6.937  0.1722E+00  0.8004E+01
     -6.921  0.1015E+00  0.8006E+01
     -6.904  0.1034E+00  0.8007E+01
     -6.887  0.1865E+00  0.8010E+01
     -6.871  0.2421E+00  0.8014E+01
     -6.854  0.2898E+00  0.8019E+01
     -6.837  0.2807E+00  0.8024E+01
     -6.821  0.2438E+00  0.8028E+01
     -6.804  0.3503E+00  0.8034E+01
     -6.787  0.3818E+00  0.8040E+01
     -6.770  0.3963E+00  0.8047E+01
     -6.754  0.3776E+00  0.8053E+01
     -6.737  0.2899E+00  0.8058E+01
     -6.720  0.4641E+00  0.8066E+01
     -6.704  0.4476E+00  0.8073E+01
     -6.687  0.4866E+00  0.8081E+01
     -6.670  0.6169E+00  0.8092E+01
     -6.654  0.6033E+00  0.8102E+01
     -6.637  0.7433E+00  0.8114E+01
     -6.620  0.7668E+00  0.8127E+01
     -6.604  0.8726E+00  0.8141E+01
     -6.587  0.7780E+00  0.8154E+01
     -6.570  0.7249E+00  0.8167E+01
     -6.553  0.6820E+00  0.8178E+01
     -6.537  0.6992E+00  0.8190E+01
     -6.520  0.6743E+00  0.8201E+01
     -6.503  0.6923E+00  0.8212E+01
     -6.487  0.6645E+00  0.8224E+01
     -6.470  0.1135E+01  0.8242E+01
     -6.453  0.1190E+01  0.8262E+01
     -6.437  0.1296E+01  0.8284E+01
     -6.420  0.1444E+01  0.8308E+01
     -6.403  0.1416E+01  0.8332E+01
     -6.387  0.1595E+01  0.8358E+01
     -6.370  0.1294E+01  0.8380E+01
     -6.353  0.1829E+01  0.8410E+01
     -6.337  0.1298E+01  0.8432E+01
     -6.320  0.1731E+01  0.8461E+01
     -6.303  0.1803E+01  0.8491E+01
     -6.286  0.2476E+01  0.8532E+01
     -6.270  0.2050E+01  0.8567E+01
     -6.253  0.2352E+01  0.8606E+01
     -6.236  0.2355E+01  0.8645E+01
     -6.220  0.2393E+01  0.8685E+01
     -6.203  0.2629E+01  0.8729E+01
     -6.186  0.2998E+01  0.8779E+01
     -6.170  0.3915E+01  0.8844E+01
     -6.153  0.4169E+01  0.8914E+01
     -6.136  0.4133E+01  0.8983E+01
     -6.120  0.3241E+01  0.9037E+01
     -6.103  0.3536E+01  0.9096E+01
     -6.086  0.3853E+01  0.9160E+01
     -6.069  0.3636E+01  0.9221E+01
     -6.053  0.3996E+01  0.9288E+01
     -6.036  0.3793E+01  0.9351E+01
     -6.019  0.4115E+01  0.9420E+01
     -6.003  0.4026E+01  0.9487E+01
     -5.986  0.3656E+01  0.9548E+01
     -5.969  0.4267E+01  0.9619E+01
     -5.953  0.4756E+01  0.9698E+01
     -5.936  0.4450E+01  0.9773E+01
     -5.919  0.3884E+01  0.9838E+01
     -5.903  0.4139E+01  0.9907E+01
     -5.886  0.3744E+01  0.9969E+01
     -5.869  0.3485E+01  0.1003E+02
     -5.853  0.3860E+01  0.1009E+02
     -5.836  0.4144E+01  0.1016E+02
     -5.819  0.4148E+01  0.1023E+02
     -5.802  0.4213E+01  0.1030E+02
     -5.786  0.4445E+01  0.1037E+02
     -5.769  0.4172E+01  0.1044E+02
     -5.752  0.4555E+01  0.1052E+02
     -5.736  0.3775E+01  0.1058E+02
     -5.719  0.4354E+01  0.1066E+02
     -5.702  0.4158E+01  0.1073E+02
     -5.686  0.3883E+01  0.1079E+02
     -5.669  0.3822E+01  0.1085E+02
     -5.652  0.3808E+01  0.1092E+02
     -5.636  0.3965E+01  0.1098E+02
     -5.619  0.4247E+01  0.1105E+02
     -5.602  0.4565E+01  0.1113E+02
     -5.586  0.3644E+01  0.1119E+02
     -5.569  0.3681E+01  0.1125E+02
     -5.552  0.4159E+01  0.1132E+02
     -5.535  0.3547E+01  0.1138E+02
     -5.519  0.4655E+01  0.1146E+02
     -5.502  0.4554E+01  0.1154E+02
     -5.485  0.4307E+01  0.1161E+02
     -5.469  0.4792E+01  0.1169E+02
     -5.452  0.4430E+01  0.1176E+02
     -5.435  0.4444E+01  0.1184E+02
     -5.419  0.4402E+01  0.1191E+02
     -5.402  0.4249E+01  0.1198E+02
     -5.385  0.5266E+01  0.1207E+02
     -5.369  0.4452E+01  0.1214E+02
     -5.352  0.4847E+01  0.1222E+02
     -5.335  0.5323E+01  0.1231E+02
     -5.318  0.5217E+01  0.1240E+02
     -5.302  0.4721E+01  0.1248E+02
     -5.285  0.4195E+01  0.1255E+02
     -5.268  0.4542E+01  0.1262E+02
     -5.252  0.5021E+01  0.1271E+02
     -5.235  0.4481E+01  0.1278E+02
     -5.218  0.3868E+01  0.1285E+02
     -5.202  0.3981E+01  0.1291E+02
     -5.185  0.3863E+01  0.1298E+02
     -5.168  0.4582E+01  0.1305E+02
     -5.152  0.4631E+01  0.1313E+02
     -5.135  0.3676E+01  0.1319E+02
     -5.118  0.3811E+01  0.1326E+02
     -5.102  0.3838E+01  0.1332E+02
     -5.085  0.2947E+01  0.1337E+02
     -5.068  0.4091E+01  0.1344E+02
     -5.051  0.3805E+01  0.1350E+02
     -5.035  0.3622E+01  0.1356E+02
     -5.018  0.3544E+01  0.1362E+02
     -5.001  0.3081E+01  0.1367E+02
     -4.985  0.3327E+01  0.1373E+02
     -4.968  0.2662E+01  0.1377E+02
     -4.951  0.2560E+01  0.1381E+02
     -4.935  0.2309E+01  0.1385E+02
     -4.918  0.2557E+01  0.1390E+02
     -4.901  0.2751E+01  0.1394E+02
     -4.885  0.2578E+01  0.1398E+02
     -4.868  0.2227E+01  0.1402E+02
     -4.851  0.1785E+01  0.1405E+02
     -4.834  0.1911E+01  0.1408E+02
     -4.818  0.2258E+01  0.1412E+02
     -4.801  0.3264E+01  0.1418E+02
     -4.784  0.2481E+01  0.1422E+02
     -4.768  0.2665E+01  0.1426E+02
     -4.751  0.2523E+01  0.1430E+02
     -4.734  0.3137E+01  0.1436E+02
     -4.718  0.3677E+01  0.1442E+02
     -4.701  0.3340E+01  0.1447E+02
     -4.684  0.3271E+01  0.1453E+02
     -4.668  0.2898E+01  0.1458E+02
     -4.651  0.2959E+01  0.1463E+02
     -4.634  0.2894E+01  0.1467E+02
     -4.618  0.4070E+01  0.1474E+02
     -4.601  0.4691E+01  0.1482E+02
     -4.584  0.4496E+01  0.1490E+02
     -4.567  0.3682E+01  0.1496E+02
     -4.551  0.2810E+01  0.1500E+02
     -4.534  0.3112E+01  0.1506E+02
     -4.517  0.3771E+01  0.1512E+02
     -4.501  0.3390E+01  0.1517E+02
     -4.484  0.3477E+01  0.1523E+02
     -4.467  0.2980E+01  0.1528E+02
     -4.451  0.3131E+01  0.1533E+02
     -4.434  0.3035E+01  0.1539E+02
     -4.417  0.3324E+01  0.1544E+02
     -4.401  0.3473E+01  0.1550E+02
     -4.384  0.3229E+01  0.1555E+02
     -4.367  0.3263E+01  0.1561E+02
     -4.350  0.2784E+01  0.1565E+02
     -4.334  0.3300E+01  0.1571E+02
     -4.317  0.3370E+01  0.1577E+02
     -4.300  0.3265E+01  0.1582E+02
     -4.284  0.2759E+01  0.1587E+02
     -4.267  0.2410E+01  0.1591E+02
     -4.250  0.2312E+01  0.1594E+02
     -4.234  0.2640E+01  0.1599E+02
     -4.217  0.2817E+01  0.1604E+02
     -4.200  0.2677E+01  0.1608E+02
     -4.184  0.2690E+01  0.1613E+02
     -4.167  0.3309E+01  0.1618E+02
     -4.150  0.2771E+01  0.1623E+02
     -4.134  0.2678E+01  0.1627E+02
     -4.117  0.3099E+01  0.1632E+02
     -4.100  0.3517E+01  0.1638E+02
     -4.083  0.3135E+01  0.1643E+02
     -4.067  0.2974E+01  0.1648E+02
     -4.050  0.3049E+01  0.1653E+02
     -4.033  0.2833E+01  0.1658E+02
     -4.017  0.2768E+01  0.1663E+02
     -4.000  0.2796E+01  0.1667E+02
     -3.983  0.3265E+01  0.1673E+02
     -3.967  0.3212E+01  0.1678E+02
     -3.950  0.3145E+01  0.1684E+02
     -3.933  0.2800E+01  0.1688E+02
     -3.917  0.2651E+01  0.1693E+02
     -3.900  0.2520E+01  0.1697E+02
     -3.883  0.2574E+01  0.1701E+02
     -3.866  0.3417E+01  0.1707E+02
     -3.850  0.3378E+01  0.1712E+02
     -3.833  0.3053E+01  0.1718E+02
     -3.816  0.2820E+01  0.1722E+02
     -3.800  0.2778E+01  0.1727E+02
     -3.783  0.3137E+01  0.1732E+02
     -3.766  0.2915E+01  0.1737E+02
     -3.750  0.2915E+01  0.1742E+02
     -3.733  0.3434E+01  0.1748E+02
     -3.716  0.3097E+01  0.1753E+02
     -3.700  0.3056E+01  0.1758E+02
     -3.683  0.3537E+01  0.1764E+02
     -3.666  0.3061E+01  0.1769E+02
     -3.650  0.2565E+01  0.1773E+02
     -3.633  0.2303E+01  0.1777E+02
     -3.616  0.2825E+01  0.1782E+02
     -3.599  0.2765E+01  0.1786E+02
     -3.583  0.2851E+01  0.1791E+02
     -3.566  0.2577E+01  0.1795E+02
     -3.549  0.2339E+01  0.1799E+02
     -3.533  0.2650E+01  0.1804E+02
     -3.516  0.3146E+01  0.1809E+02
     -3.499  0.3160E+01  0.1814E+02
     -3.483  0.2177E+01  0.1818E+02
     -3.466  0.2234E+01  0.1822E+02
     -3.449  0.2484E+01  0.1826E+02
     -3.433  0.2463E+01  0.1830E+02
     -3.416  0.3167E+01  0.1835E+02
     -3.399  0.2737E+01  0.1840E+02
     -3.382  0.2979E+01  0.1845E+02
     -3.366  0.2866E+01  0.1849E+02
     -3.349  0.2676E+01  0.1854E+02
     -3.332  0.2809E+01  0.1859E+02
     -3.316  0.2673E+01  0.1863E+02
     -3.299  0.3134E+01  0.1868E+02
     -3.282  0.2700E+01  0.1873E+02
     -3.266  0.2167E+01  0.1876E+02
     -3.249  0.2449E+01  0.1881E+02
     -3.232  0.2408E+01  0.1885E+02
     -3.216  0.2365E+01  0.1888E+02
     -3.199  0.2528E+01  0.1893E+02
     -3.182  0.2772E+01  0.1897E+02
     -3.166  0.3066E+01  0.1902E+02
     -3.149  0.2520E+01  0.1907E+02
     -3.132  0.2459E+01  0.1911E+02
     -3.115  0.2718E+01  0.1915E+02
     -3.099  0.2927E+01  0.1920E+02
     -3.082  0.2777E+01  0.1925E+02
     -3.065  0.3078E+01  0.1930E+02
     -3.049  0.3723E+01  0.1936E+02
     -3.032  0.3434E+01  0.1942E+02
     -3.015  0.3409E+01  0.1948E+02
     -2.999  0.3454E+01  0.1953E+02
     -2.982  0.3200E+01  0.1959E+02
     -2.965  0.2804E+01  0.1963E+02
     -2.949  0.2399E+01  0.1967E+02
     -2.932  0.2565E+01  0.1972E+02
     -2.915  0.2909E+01  0.1977E+02
     -2.898  0.3328E+01  0.1982E+02
     -2.882  0.2829E+01  0.1987E+02
     -2.865  0.3044E+01  0.1992E+02
     -2.848  0.2277E+01  0.1996E+02
     -2.832  0.2724E+01  0.2000E+02
     -2.815  0.2637E+01  0.2005E+02
     -2.798  0.2415E+01  0.2009E+02
     -2.782  0.2092E+01  0.2012E+02
     -2.765  0.1938E+01  0.2015E+02
     -2.748  0.1869E+01  0.2019E+02
     -2.732  0.2279E+01  0.2022E+02
     -2.715  0.2717E+01  0.2027E+02
     -2.698  0.2289E+01  0.2031E+02
     -2.682  0.2413E+01  0.2035E+02
     -2.665  0.2058E+01  0.2038E+02
     -2.648  0.2152E+01  0.2042E+02
     -2.631  0.2378E+01  0.2046E+02
     -2.615  0.2574E+01  0.2050E+02
     -2.598  0.2580E+01  0.2054E+02
     -2.581  0.2851E+01  0.2059E+02
     -2.565  0.2635E+01  0.2063E+02
     -2.548  0.2854E+01  0.2068E+02
     -2.531  0.2880E+01  0.2073E+02
     -2.515  0.3206E+01  0.2078E+02
     -2.498  0.3361E+01  0.2084E+02
     -2.481  0.3189E+01  0.2089E+02
     -2.465  0.3221E+01  0.2095E+02
     -2.448  0.2606E+01  0.2099E+02
     -2.431  0.3170E+01  0.2104E+02
     -2.414  0.2842E+01  0.2109E+02
     -2.398  0.3259E+01  0.2114E+02
     -2.381  0.3562E+01  0.2120E+02
     -2.364  0.3811E+01  0.2127E+02
     -2.348  0.4182E+01  0.2134E+02
     -2.331  0.3622E+01  0.2140E+02
     -2.314  0.3781E+01  0.2146E+02
     -2.298  0.3991E+01  0.2153E+02
     -2.281  0.3606E+01  0.2159E+02
     -2.264  0.3401E+01  0.2164E+02
     -2.248  0.3675E+01  0.2171E+02
     -2.231  0.4206E+01  0.2178E+02
     -2.214  0.4239E+01  0.2185E+02
     -2.198  0.4280E+01  0.2192E+02
     -2.181  0.3532E+01  0.2198E+02
     -2.164  0.3455E+01  0.2204E+02
     -2.147  0.2788E+01  0.2208E+02
     -2.131  0.2580E+01  0.2212E+02
     -2.114  0.2802E+01  0.2217E+02
     -2.097  0.3222E+01  0.2223E+02
     -2.081  0.3401E+01  0.2228E+02
     -2.064  0.3092E+01  0.2233E+02
     -2.047  0.4185E+01  0.2240E+02
     -2.031  0.3574E+01  0.2246E+02
     -2.014  0.3094E+01  0.2251E+02
     -1.997  0.2949E+01  0.2256E+02
     -1.981  0.3981E+01  0.2263E+02
     -1.964  0.5180E+01  0.2272E+02