   1   1   0   0
  0.3375000E+04  0.1500000E-08  0.1250000E-08  0.1800000E-08  0.5000000E-15
  1.000000000000000E-004
  CAR 
 Convergence                             
      2.24762542     -9.96489420  301     -3.60661896      1.00000000
     -9.965  0.0000E+00  0.0000E+00
     -9.924  0.0000E+00  0.0000E+00
     -9.883  0.0000E+00  0.0000E+00
     -9.843  0.0000E+00  0.0000E+00
     -9.802  0.0000E+00  0.0000E+00
     -9.761  0.0000E+00  0.0000E+00
     -9.721  0.0000E+00  0.0000E+00
     -9.680  0.5291E-12  0.2154E-13
     -9.639  0.2112E-08  0.8598E-10
     -9.599  0.2302E-05  0.9380E-07
     -9.558  0.6923E-03  0.2827E-04
     -9.517  0.5829E-01  0.2401E-02
     -9.476  0.1404E+01  0.5955E-01
     -9.436  0.9929E+01  0.4637E+00
     -9.395  0.2115E+02  0.1325E+01
     -9.354  0.1373E+02  0.1884E+01
     -9.314  0.2700E+01  0.1994E+01
     -9.273  0.1570E+00  0.2000E+01
     -9.232  0.2629E-02  0.2000E+01
     -9.191  0.1239E-04  0.2000E+01
     -9.151  0.1617E-07  0.2000E+01
     -9.110  0.5776E-11  0.2000E+01
     -9.069  0.0000E+00  0.2000E+01
     -9.029  0.0000E+00  0.2000E+01
     -8.988  0.0000E+00  0.2000E+01
     -8.947  0.0000E+00  0.2000E+01
     -8.906  0.0000E+00  0.2000E+01
     -8.866  0.0000E+00  0.2000E+01
     -8.825  0.0000E+00  0.2000E+01
     -8.784  0.0000E+00  0.2000E+01
     -8.744  0.0000E+00  0.2000E+01
     -8.703  0.0000E+00  0.2000E+01
     -8.662  0.0000E+00  0.2000E+01
     -8.622  0.0000E+00  0.2000E+01
     -8.581  0.0000E+00  0.2000E+01
     -8.540  0.0000E+00  0.2000E+01
     -8.499  0.0000E+00  0.2000E+01
     -8.459  0.0000E+00  0.2000E+01
     -8.418  0.0000E+00  0.2000E+01
     -8.377  0.0000E+00  0.2000E+01
     -8.337  0.0000E+00  0.2000E+01
     -8.296  0.0000E+00  0.2000E+01
     -8.255  0.0000E+00  0.2000E+01
     -8.214  0.0000E+00  0.2000E+01
     -8.174  0.0000E+00  0.2000E+01
     -8.133  0.0000E+00  0.2000E+01
     -8.092  0.0000E+00  0.2000E+01
     -8.052  0.0000E+00  0.2000E+01
     -8.011  0.0000E+00  0.2000E+01
     -7.970  0.0000E+00  0.2000E+01
     -7.929  0.0000E+00  0.2000E+01
     -7.889  0.0000E+00  0.2000E+01
     -7.848  0.0000E+00  0.2000E+01
     -7.807  0.0000E+00  0.2000E+01
     -7.767  0.0000E+00  0.2000E+01
     -7.726  0.0000E+00  0.2000E+01
     -7.685  0.0000E+00  0.2000E+01
     -7.645  0.0000E+00  0.2000E+01
     -7.604  0.0000E+00  0.2000E+01
     -7.563  0.0000E+00  0.2000E+01
     -7.522  0.0000E+00  0.2000E+01
     -7.482  0.0000E+00  0.2000E+01
     -7.441  0.0000E+00  0.2000E+01
     -7.400  0.0000E+00  0.2000E+01
     -7.360  0.0000E+00  0.2000E+01
     -7.319  0.0000E+00  0.2000E+01
     -7.278  0.0000E+00  0.2000E+01
     -7.237  0.0000E+00  0.2000E+01
     -7.197  0.0000E+00  0.2000E+01
     -7.156  0.0000E+00  0.2000E+01
     -7.115  0.0000E+00  0.2000E+01
     -7.075  0.0000E+00  0.2000E+01
     -7.034  0.0000E+00  0.2000E+01
     -6.993  0.0000E+00  0.2000E+01
     -6.952  0.0000E+00  0.2000E+01
     -6.912  0.0000E+00  0.2000E+01
     -6.871  0.0000E+00  0.2000E+01
     -6.830  0.0000E+00  0.2000E+01
     -6.790  0.0000E+00  0.2000E+01
     -6.749  0.0000E+00  0.2000E+01
     -6.708  0.0000E+00  0.2000E+01
     -6.668  0.0000E+00  0.2000E+01
     -6.627  0.0000E+00  0.2000E+01
     -6.586  0.0000E+00  0.2000E+01
     -6.545  0.0000E+00  0.2000E+01
     -6.505  0.0000E+00  0.2000E+01
     -6.464  0.0000E+00  0.2000E+01
     -6.423  0.0000E+00  0.2000E+01
     -6.383  0.0000E+00  0.2000E+01
     -6.342  0.0000E+00  0.2000E+01
     -6.301  0.0000E+00  0.2000E+01
     -6.260  0.0000E+00  0.2000E+01
     -6.220  0.0000E+00  0.2000E+01
     -6.179  0.0000E+00  0.2000E+01
     -6.138  0.0000E+00  0.2000E+01
     -6.098  0.0000E+00  0.2000E+01
     -6.057  0.0000E+00  0.2000E+01
     -6.016  0.0000E+00  0.2000E+01
     -5.975  0.0000E+00  0.2000E+01
     -5.935  0.0000E+00  0.2000E+01
     -5.894  0.0000E+00  0.2000E+01
     -5.853  0.0000E+00  0.2000E+01
     -5.813  0.0000E+00  0.2000E+01
     -5.772  0.0000E+00  0.2000E+01
     -5.731  0.0000E+00  0.2000E+01
     -5.691  0.0000E+00  0.2000E+01
     -5.650  0.0000E+00  0.2000E+01
     -5.609  0.0000E+00  0.2000E+01
     -5.568  0.0000E+00  0.2000E+01
     -5.528  0.0000E+00  0.2000E+01
     -5.487  0.0000E+00  0.2000E+01
     -5.446  0.0000E+00  0.2000E+01
     -5.406  0.0000E+00  0.2000E+01
     -5.365  0.0000E+00  0.2000E+01
     -5.324  0.0000E+00  0.2000E+01
     -5.283  0.0000E+00  0.2000E+01
     -5.243  0.0000E+00  0.2000E+01
     -5.202  0.0000E+00  0.2000E+01
     -5.161  0.0000E+00  0.2000E+01
     -5.121  0.0000E+00  0.2000E+01
     -5.080  0.0000E+00  0.2000E+01
     -5.039  0.0000E+00  0.2000E+01
     -4.998  0.0000E+00  0.2000E+01
     -4.958  0.0000E+00  0.2000E+01
     -4.917  0.0000E+00  0.2000E+01
     -4.876  0.0000E+00  0.2000E+01
     -4.836  0.0000E+00  0.2000E+01
     -4.795  0.0000E+00  0.2000E+01
     -4.754  0.0000E+00  0.2000E+01
     -4.714  0.0000E+00  0.2000E+01
     -4.673  0.0000E+00  0.2000E+01
     -4.632  0.0000E+00  0.2000E+01
     -4.591  0.0000E+00  0.2000E+01
     -4.551  0.0000E+00  0.2000E+01
     -4.510  0.0000E+00  0.2000E+01
     -4.469  0.0000E+00  0.2000E+01
     -4.429  0.0000E+00  0.2000E+01
     -4.388  0.0000E+00  0.2000E+01
     -4.347  0.0000E+00  0.2000E+01
     -4.306  0.0000E+00  0.2000E+01
     -4.266  0.0000E+00  0.2000E+01
     -4.225  0.0000E+00  0.2000E+01
     -4.184  0.0000E+00  0.2000E+01
     -4.144  0.0000E+00  0.2000E+01
     -4.103  0.0000E+00  0.2000E+01
     -4.062  0.0000E+00  0.2000E+01
     -4.021  0.0000E+00  0.2000E+01
     -3.981  0.0000E+00  0.2000E+01
     -3.940  0.0000E+00  0.2000E+01
     -3.899  0.0000E+00  0.2000E+01
     -3.859  0.4091E-13  0.2000E+01
     -3.818  0.2807E-09  0.2000E+01
     -3.777  0.5102E-06  0.2000E+01
     -3.737  0.2547E-03  0.2000E+01
     -3.696  0.3536E-01  0.2001E+01
     -3.655  0.1391E+01  0.2058E+01
     -3.614  0.1591E+02  0.2706E+01
     -3.574  0.5427E+02  0.4915E+01
     -3.533  0.5630E+02  0.7206E+01
     -3.492  0.1777E+02  0.7930E+01
     -3.452  0.1677E+01  0.7998E+01
     -3.411  0.4603E-01  0.8000E+01
     -3.370  0.3587E-03  0.8000E+01
     -3.329  0.7781E-06  0.8000E+01
     -3.289  0.4639E-09  0.8000E+01
     -3.248  0.6545E-13  0.8000E+01
     -3.207  0.0000E+00  0.8000E+01
     -3.167  0.0000E+00  0.8000E+01
     -3.126  0.0000E+00  0.8000E+01
     -3.085  0.0000E+00  0.8000E+01
     -3.044  0.0000E+00  0.8000E+01
     -3.004  0.0000E+00  0.8000E+01
     -2.963  0.0000E+00  0.8000E+01
     -2.922  0.0000E+00  0.8000E+01
     -2.882  0.0000E+00  0.8000E+01
     -2.841  0.0000E+00  0.8000E+01
     -2.800  0.0000E+00  0.8000E+01
     -2.760  0.0000E+00  0.8000E+01
     -2.719  0.0000E+00  0.8000E+01
     -2.678  0.0000E+00  0.8000E+01
     -2.637  0.0000E+00  0.8000E+01
     -2.597  0.0000E+00  0.8000E+01
     -2.556  0.0000E+00  0.8000E+01
     -2.515  0.0000E+00  0.8000E+01
     -2.475  0.0000E+00  0.8000E+01
     -2.434  0.0000E+00  0.8000E+01
     -2.393  0.0000E+00  0.8000E+01
     -2.352  0.0000E+00  0.8000E+01
     -2.312  0.0000E+00  0.8000E+01
     -2.271  0.0000E+00  0.8000E+01
     -2.230  0.0000E+00  0.8000E+01
     -2.190  0.0000E+00  0.8000E+01
     -2.149  0.0000E+00  0.8000E+01
     -2.108  0.0000E+00  0.8000E+01
     -2.067  0.0000E+00  0.8000E+01
     -2.027  0.0000E+00  0.8000E+01
     -1.986  0.0000E+00  0.8000E+01
     -1.945  0.0000E+00  0.8000E+01
     -1.905  0.0000E+00  0.8000E+01
     -1.864  0.0000E+00  0.8000E+01
     -1.823  0.0000E+00  0.8000E+01
     -1.783  0.0000E+00  0.8000E+01
     -1.742  0.0000E+00  0.8000E+01
     -1.701  0.0000E+00  0.8000E+01
     -1.660  0.0000E+00  0.8000E+01
     -1.620  0.0000E+00  0.8000E+01
     -1.579  0.0000E+00  0.8000E+01
     -1.538  0.0000E+00  0.8000E+01
     -1.498  0.0000E+00  0.8000E+01
     -1.457  0.0000E+00  0.8000E+01
     -1.416  0.0000E+00  0.8000E+01
     -1.375  0.0000E+00  0.8000E+01
     -1.335  0.0000E+00  0.8000E+01
     -1.294  0.0000E+00  0.8000E+01
     -1.253  0.0000E+00  0.8000E+01
     -1.213  0.0000E+00  0.8000E+01
     -1.172  0.0000E+00  0.8000E+01
     -1.131  0.0000E+00  0.8000E+01
     -1.090  0.0000E+00  0.8000E+01
     -1.050  0.0000E+00  0.8000E+01
     -1.009  0.0000E+00  0.8000E+01
     -0.968  0.0000E+00  0.8000E+01
     -0.928  0.0000E+00  0.8000E+01
     -0.887  0.0000E+00  0.8000E+01
     -0.846  0.0000E+00  0.8000E+01
     -0.806  0.0000E+00  0.8000E+01
     -0.765  0.0000E+00  0.8000E+01
     -0.724  0.0000E+00  0.8000E+01
     -0.683  0.0000E+00  0.8000E+01
     -0.643  0.0000E+00  0.8000E+01
     -0.602  0.0000E+00  0.8000E+01
     -0.561  0.0000E+00  0.8000E+01
     -0.521  0.1083E-10  0.8000E+01
     -0.480  0.2757E-07  0.8000E+01
     -0.439  0.1921E-04  0.8000E+01
     -0.398  0.3710E-02  0.8000E+01
     -0.358  0.2019E+00  0.8008E+01
     -0.317  0.3171E+01  0.8137E+01
     -0.276  0.1476E+02  0.8738E+01
     -0.236  0.2083E+02  0.9586E+01
     -0.195  0.8958E+01  0.9951E+01
     -0.154  0.1158E+01  0.9998E+01
     -0.113  0.4390E-01  0.1000E+02
     -0.073  0.4750E-03  0.1000E+02
     -0.032  0.1437E-05  0.1000E+02
      0.009  0.1199E-08  0.1000E+02
      0.049  0.1291E-09  0.1000E+02
      0.090  0.2321E-06  0.1000E+02
      0.131  0.1165E-03  0.1000E+02
      0.171  0.1661E-01  0.1000E+02
      0.212  0.6882E+00  0.1003E+02
      0.253  0.8538E+01  0.1038E+02
      0.294  0.3268E+02  0.1171E+02
      0.334  0.3944E+02  0.1331E+02
      0.375  0.1524E+02  0.1393E+02
      0.416  0.4872E+01  0.1413E+02
      0.456  0.1522E+02  0.1475E+02
      0.497  0.2713E+02  0.1586E+02
      0.538  0.2822E+02  0.1700E+02
      0.579  0.1896E+02  0.1778E+02
      0.619  0.5144E+01  0.1799E+02
      0.660  0.1998E+01  0.1807E+02
      0.701  0.1093E+02  0.1851E+02
      0.741  0.2625E+02  0.1958E+02
      0.782  0.3083E+02  0.2083E+02
      0.823  0.2157E+02  0.2171E+02
      0.864  0.6648E+01  0.2198E+02
      0.904  0.4732E+01  0.2218E+02
      0.945  0.2558E+02  0.2322E+02
      0.986  0.6215E+02  0.2575E+02
      1.026  0.6554E+02  0.2842E+02
      1.067  0.3175E+02  0.2971E+02
      1.108  0.6861E+01  0.2999E+02
      1.148  0.3823E+01  0.3014E+02
      1.189  0.1661E+02  0.3082E+02
      1.230  0.3360E+02  0.3219E+02
      1.271  0.4891E+02  0.3418E+02
      1.311  0.6811E+02  0.3695E+02
      1.352  0.5498E+02  0.3919E+02
      1.393  0.1875E+02  0.3995E+02
      1.433  0.1316E+02  0.4049E+02
      1.474  0.4293E+02  0.4224E+02
      1.515  0.5749E+02  0.4458E+02
      1.556  0.2904E+02  0.4576E+02
      1.596  0.5725E+01  0.4599E+02
      1.637  0.3073E+01  0.4612E+02
      1.678  0.1374E+02  0.4668E+02
      1.718  0.2115E+02  0.4754E+02
      1.759  0.9929E+01  0.4794E+02
      1.800  0.1404E+01  0.4800E+02
      1.841  0.5829E-01  0.4800E+02
      1.881  0.6923E-03  0.4800E+02
      1.922  0.2302E-05  0.4800E+02
      1.963  0.2112E-08  0.4800E+02
      2.003  0.5291E-12  0.4800E+02
      2.044  0.0000E+00  0.4800E+02
      2.085  0.0000E+00  0.4800E+02
      2.126  0.0000E+00  0.4800E+02
      2.166  0.0000E+00  0.4800E+02
      2.207  0.0000E+00  0.4800E+02
      2.248  0.0000E+00  0.4800E+02
