 running   24 mpi-ranks, with    1 threads/rank, on    1 nodes
 distrk:  each k-point on   24 cores,    1 groups
 distr:  one band on    1 cores,   24 groups
 vasp.6.4.3 19Mar24 (build May 31 2024 16:31:43) complex                        
  
 POSCAR found type information on POSCAR B 
 POSCAR found :  1 types and       1 ions
 Reading from existing POTCAR
 scaLAPACK will be used
 Reading from existing POTCAR
 LDA part: xc-table for (Slater+PW92), standard interpolation
 POSCAR, INCAR and KPOINTS ok, starting setup
 FFT: planning ... GRIDC
 FFT: planning ... GRID_SOFT
 FFT: planning ... GRID
 WAVECAR not read
 entering main loop
       N       E                     dE             d eps       ncg     rms          rms(c)
DAV:   1     0.662566175593E+01    0.66257E+01   -0.40079E+02    48   0.410E+01
DAV:   2     0.803411239362E-01   -0.65453E+01   -0.65423E+01    96   0.481E+00
DAV:   3    -0.557148163998E-01   -0.13606E+00   -0.12204E+00    48   0.115E+00
DAV:   4    -0.582040307935E-01   -0.24892E-02   -0.24597E-02    48   0.137E-01
DAV:   5    -0.582373724427E-01   -0.33342E-04   -0.33340E-04    96   0.189E-02    0.821E-03
DAV:   6    -0.582374340664E-01   -0.61624E-07   -0.18559E-07    48   0.125E-03
   1 F= -.58237434E-01 E0= -.31736741E-01  d E =-.530014E-01
