   1   1   0   0
  0.3372975E+04  0.1499700E-08  0.1249750E-08  0.1799640E-08  0.5000000E-15
  1.000000000000000E-004
  CAR 
 Convergence                             
      2.49459021     -9.97677238  301     -3.60718532      1.00000000
     -9.977  0.0000E+00  0.0000E+00
     -9.935  0.0000E+00  0.0000E+00
     -9.894  0.0000E+00  0.0000E+00
     -9.852  0.0000E+00  0.0000E+00
     -9.810  0.0000E+00  0.0000E+00
     -9.769  0.0000E+00  0.0000E+00
     -9.727  0.0000E+00  0.0000E+00
     -9.686  0.1442E-12  0.5995E-14
     -9.644  0.8222E-09  0.3418E-10
     -9.603  0.1201E-05  0.4995E-07
     -9.561  0.4572E-03  0.1905E-04
     -9.519  0.4611E-01  0.1936E-02
     -9.478  0.1261E+01  0.5435E-01
     -9.436  0.9621E+01  0.4543E+00
     -9.395  0.2109E+02  0.1331E+01
     -9.353  0.1347E+02  0.1891E+01
     -9.312  0.2487E+01  0.1995E+01
     -9.270  0.1293E+00  0.2000E+01
     -9.228  0.1834E-02  0.2000E+01
     -9.187  0.6933E-05  0.2000E+01
     -9.145  0.6859E-08  0.2000E+01
     -9.104  0.1752E-11  0.2000E+01
     -9.062  0.0000E+00  0.2000E+01
     -9.021  0.0000E+00  0.2000E+01
     -8.979  0.0000E+00  0.2000E+01
     -8.937  0.0000E+00  0.2000E+01
     -8.896  0.0000E+00  0.2000E+01
     -8.854  0.0000E+00  0.2000E+01
     -8.813  0.0000E+00  0.2000E+01
     -8.771  0.0000E+00  0.2000E+01
     -8.730  0.0000E+00  0.2000E+01
     -8.688  0.0000E+00  0.2000E+01
     -8.646  0.0000E+00  0.2000E+01
     -8.605  0.0000E+00  0.2000E+01
     -8.563  0.0000E+00  0.2000E+01
     -8.522  0.0000E+00  0.2000E+01
     -8.480  0.0000E+00  0.2000E+01
     -8.439  0.0000E+00  0.2000E+01
     -8.397  0.0000E+00  0.2000E+01
     -8.355  0.0000E+00  0.2000E+01
     -8.314  0.0000E+00  0.2000E+01
     -8.272  0.0000E+00  0.2000E+01
     -8.231  0.0000E+00  0.2000E+01
     -8.189  0.0000E+00  0.2000E+01
     -8.148  0.0000E+00  0.2000E+01
     -8.106  0.0000E+00  0.2000E+01
     -8.064  0.0000E+00  0.2000E+01
     -8.023  0.0000E+00  0.2000E+01
     -7.981  0.0000E+00  0.2000E+01
     -7.940  0.0000E+00  0.2000E+01
     -7.898  0.0000E+00  0.2000E+01
     -7.857  0.0000E+00  0.2000E+01
     -7.815  0.0000E+00  0.2000E+01
     -7.773  0.0000E+00  0.2000E+01
     -7.732  0.0000E+00  0.2000E+01
     -7.690  0.0000E+00  0.2000E+01
     -7.649  0.0000E+00  0.2000E+01
     -7.607  0.0000E+00  0.2000E+01
     -7.566  0.0000E+00  0.2000E+01
     -7.524  0.0000E+00  0.2000E+01
     -7.482  0.0000E+00  0.2000E+01
     -7.441  0.0000E+00  0.2000E+01
     -7.399  0.0000E+00  0.2000E+01
     -7.358  0.0000E+00  0.2000E+01
     -7.316  0.0000E+00  0.2000E+01
     -7.275  0.0000E+00  0.2000E+01
     -7.233  0.0000E+00  0.2000E+01
     -7.192  0.0000E+00  0.2000E+01
     -7.150  0.0000E+00  0.2000E+01
     -7.108  0.0000E+00  0.2000E+01
     -7.067  0.0000E+00  0.2000E+01
     -7.025  0.0000E+00  0.2000E+01
     -6.984  0.0000E+00  0.2000E+01
     -6.942  0.0000E+00  0.2000E+01
     -6.901  0.0000E+00  0.2000E+01
     -6.859  0.0000E+00  0.2000E+01
     -6.817  0.0000E+00  0.2000E+01
     -6.776  0.0000E+00  0.2000E+01
     -6.734  0.0000E+00  0.2000E+01
     -6.693  0.0000E+00  0.2000E+01
     -6.651  0.0000E+00  0.2000E+01
     -6.610  0.0000E+00  0.2000E+01
     -6.568  0.0000E+00  0.2000E+01
     -6.526  0.0000E+00  0.2000E+01
     -6.485  0.0000E+00  0.2000E+01
     -6.443  0.0000E+00  0.2000E+01
     -6.402  0.0000E+00  0.2000E+01
     -6.360  0.0000E+00  0.2000E+01
     -6.319  0.0000E+00  0.2000E+01
     -6.277  0.0000E+00  0.2000E+01
     -6.235  0.0000E+00  0.2000E+01
     -6.194  0.0000E+00  0.2000E+01
     -6.152  0.0000E+00  0.2000E+01
     -6.111  0.0000E+00  0.2000E+01
     -6.069  0.0000E+00  0.2000E+01
     -6.028  0.0000E+00  0.2000E+01
     -5.986  0.0000E+00  0.2000E+01
     -5.944  0.0000E+00  0.2000E+01
     -5.903  0.0000E+00  0.2000E+01
     -5.861  0.0000E+00  0.2000E+01
     -5.820  0.0000E+00  0.2000E+01
     -5.778  0.0000E+00  0.2000E+01
     -5.737  0.0000E+00  0.2000E+01
     -5.695  0.0000E+00  0.2000E+01
     -5.653  0.0000E+00  0.2000E+01
     -5.612  0.0000E+00  0.2000E+01
     -5.570  0.0000E+00  0.2000E+01
     -5.529  0.0000E+00  0.2000E+01
     -5.487  0.0000E+00  0.2000E+01
     -5.446  0.0000E+00  0.2000E+01
     -5.404  0.0000E+00  0.2000E+01
     -5.362  0.0000E+00  0.2000E+01
     -5.321  0.0000E+00  0.2000E+01
     -5.279  0.0000E+00  0.2000E+01
     -5.238  0.0000E+00  0.2000E+01
     -5.196  0.0000E+00  0.2000E+01
     -5.155  0.0000E+00  0.2000E+01
     -5.113  0.0000E+00  0.2000E+01
     -5.071  0.0000E+00  0.2000E+01
     -5.030  0.0000E+00  0.2000E+01
     -4.988  0.0000E+00  0.2000E+01
     -4.947  0.0000E+00  0.2000E+01
     -4.905  0.0000E+00  0.2000E+01
     -4.864  0.0000E+00  0.2000E+01
     -4.822  0.0000E+00  0.2000E+01
     -4.780  0.0000E+00  0.2000E+01
     -4.739  0.0000E+00  0.2000E+01
     -4.697  0.0000E+00  0.2000E+01
     -4.656  0.0000E+00  0.2000E+01
     -4.614  0.0000E+00  0.2000E+01
     -4.573  0.0000E+00  0.2000E+01
     -4.531  0.0000E+00  0.2000E+01
     -4.489  0.0000E+00  0.2000E+01
     -4.448  0.0000E+00  0.2000E+01
     -4.406  0.0000E+00  0.2000E+01
     -4.365  0.0000E+00  0.2000E+01
     -4.323  0.0000E+00  0.2000E+01
     -4.282  0.0000E+00  0.2000E+01
     -4.240  0.0000E+00  0.2000E+01
     -4.198  0.0000E+00  0.2000E+01
     -4.157  0.0000E+00  0.2000E+01
     -4.115  0.0000E+00  0.2000E+01
     -4.074  0.0000E+00  0.2000E+01
     -4.032  0.0000E+00  0.2000E+01
     -3.991  0.0000E+00  0.2000E+01
     -3.949  0.0000E+00  0.2000E+01
     -3.907  0.0000E+00  0.2000E+01
     -3.866  0.8012E-14  0.2000E+01
     -3.824  0.8591E-10  0.2000E+01
     -3.783  0.2177E-06  0.2000E+01
     -3.741  0.1431E-03  0.2000E+01
     -3.700  0.2474E-01  0.2001E+01
     -3.658  0.1148E+01  0.2049E+01
     -3.616  0.1468E+02  0.2659E+01
     -3.575  0.5334E+02  0.4877E+01
     -3.533  0.5631E+02  0.7217E+01
     -3.492  0.1728E+02  0.7936E+01
     -3.450  0.1511E+01  0.7998E+01
     -3.409  0.3651E-01  0.8000E+01
     -3.367  0.2372E-03  0.8000E+01
     -3.325  0.4060E-06  0.8000E+01
     -3.284  0.1804E-09  0.8000E+01
     -3.242  0.3205E-13  0.8000E+01
     -3.201  0.0000E+00  0.8000E+01
     -3.159  0.0000E+00  0.8000E+01
     -3.118  0.0000E+00  0.8000E+01
     -3.076  0.0000E+00  0.8000E+01
     -3.034  0.0000E+00  0.8000E+01
     -2.993  0.0000E+00  0.8000E+01
     -2.951  0.0000E+00  0.8000E+01
     -2.910  0.0000E+00  0.8000E+01
     -2.868  0.0000E+00  0.8000E+01
     -2.827  0.0000E+00  0.8000E+01
     -2.785  0.0000E+00  0.8000E+01
     -2.743  0.0000E+00  0.8000E+01
     -2.702  0.0000E+00  0.8000E+01
     -2.660  0.0000E+00  0.8000E+01
     -2.619  0.0000E+00  0.8000E+01
     -2.577  0.0000E+00  0.8000E+01
     -2.536  0.0000E+00  0.8000E+01
     -2.494  0.0000E+00  0.8000E+01
     -2.452  0.0000E+00  0.8000E+01
     -2.411  0.0000E+00  0.8000E+01
     -2.369  0.0000E+00  0.8000E+01
     -2.328  0.0000E+00  0.8000E+01
     -2.286  0.0000E+00  0.8000E+01
     -2.245  0.0000E+00  0.8000E+01
     -2.203  0.0000E+00  0.8000E+01
     -2.161  0.0000E+00  0.8000E+01
     -2.120  0.0000E+00  0.8000E+01
     -2.078  0.0000E+00  0.8000E+01
     -2.037  0.0000E+00  0.8000E+01
     -1.995  0.0000E+00  0.8000E+01
     -1.954  0.0000E+00  0.8000E+01
     -1.912  0.0000E+00  0.8000E+01
     -1.870  0.0000E+00  0.8000E+01
     -1.829  0.0000E+00  0.8000E+01
     -1.787  0.0000E+00  0.8000E+01
     -1.746  0.0000E+00  0.8000E+01
     -1.704  0.0000E+00  0.8000E+01
     -1.663  0.0000E+00  0.8000E+01
     -1.621  0.0000E+00  0.8000E+01
     -1.579  0.0000E+00  0.8000E+01
     -1.538  0.0000E+00  0.8000E+01
     -1.496  0.0000E+00  0.8000E+01
     -1.455  0.0000E+00  0.8000E+01
     -1.413  0.0000E+00  0.8000E+01
     -1.372  0.0000E+00  0.8000E+01
     -1.330  0.0000E+00  0.8000E+01
     -1.288  0.0000E+00  0.8000E+01
     -1.247  0.0000E+00  0.8000E+01
     -1.205  0.0000E+00  0.8000E+01
     -1.164  0.0000E+00  0.8000E+01
     -1.122  0.0000E+00  0.8000E+01
     -1.081  0.0000E+00  0.8000E+01
     -1.039  0.0000E+00  0.8000E+01
     -0.997  0.0000E+00  0.8000E+01
     -0.956  0.0000E+00  0.8000E+01
     -0.914  0.0000E+00  0.8000E+01
     -0.873  0.0000E+00  0.8000E+01
     -0.831  0.0000E+00  0.8000E+01
     -0.790  0.0000E+00  0.8000E+01
     -0.748  0.0000E+00  0.8000E+01
     -0.706  0.0000E+00  0.8000E+01
     -0.665  0.0000E+00  0.8000E+01
     -0.623  0.0000E+00  0.8000E+01
     -0.582  0.0000E+00  0.8000E+01
     -0.540  0.7122E-15  0.8000E+01
     -0.499  0.5302E-11  0.8000E+01
     -0.457  0.1014E-07  0.8000E+01
     -0.415  0.5340E-05  0.8000E+01
     -0.374  0.8048E-03  0.8000E+01
     -0.332  0.3674E-01  0.8002E+01
     -0.291  0.5531E+00  0.8025E+01
     -0.249  0.3107E+01  0.8154E+01
     -0.208  0.7766E+01  0.8477E+01
     -0.166  0.1072E+02  0.8922E+01
     -0.124  0.1039E+02  0.9354E+01
     -0.083  0.8458E+01  0.9706E+01
     -0.041  0.5094E+01  0.9918E+01
      0.000  0.1747E+01  0.9990E+01
      0.042  0.6653E+00  0.1002E+02
      0.083  0.2129E+01  0.1011E+02
      0.125  0.5801E+01  0.1035E+02
      0.167  0.1042E+02  0.1078E+02
      0.208  0.1402E+02  0.1136E+02
      0.250  0.1562E+02  0.1201E+02
      0.291  0.1578E+02  0.1267E+02
      0.333  0.1592E+02  0.1333E+02
      0.374  0.1620E+02  0.1400E+02
      0.416  0.1651E+02  0.1469E+02
      0.458  0.1758E+02  0.1542E+02
      0.499  0.1848E+02  0.1619E+02
      0.541  0.1848E+02  0.1696E+02
      0.582  0.1898E+02  0.1775E+02
      0.624  0.1990E+02  0.1857E+02
      0.665  0.2036E+02  0.1942E+02
      0.707  0.2101E+02  0.2029E+02
      0.749  0.2242E+02  0.2123E+02
      0.790  0.2240E+02  0.2216E+02
      0.832  0.2187E+02  0.2307E+02
      0.873  0.2334E+02  0.2404E+02
      0.915  0.2453E+02  0.2506E+02
      0.956  0.2422E+02  0.2606E+02
      0.998  0.2486E+02  0.2710E+02
      1.040  0.2590E+02  0.2817E+02
      1.081  0.2600E+02  0.2925E+02
      1.123  0.2607E+02  0.3034E+02
      1.164  0.2683E+02  0.3145E+02
      1.206  0.2771E+02  0.3261E+02
      1.247  0.2731E+02  0.3374E+02
      1.289  0.2748E+02  0.3488E+02
      1.331  0.2855E+02  0.3607E+02
      1.372  0.2860E+02  0.3726E+02
      1.414  0.2831E+02  0.3844E+02
      1.455  0.2934E+02  0.3966E+02
      1.497  0.3089E+02  0.4094E+02
      1.538  0.3002E+02  0.4219E+02
      1.580  0.2957E+02  0.4342E+02
      1.622  0.3008E+02  0.4467E+02
      1.663  0.2769E+02  0.4582E+02
      1.705  0.2121E+02  0.4670E+02
      1.746  0.1405E+02  0.4728E+02
      1.788  0.8326E+01  0.4763E+02
      1.829  0.4798E+01  0.4783E+02
      1.871  0.2572E+01  0.4794E+02
      1.913  0.1090E+01  0.4798E+02
      1.954  0.3459E+00  0.4800E+02
      1.996  0.7298E-01  0.4800E+02
      2.037  0.7055E-02  0.4800E+02
      2.079  0.2252E-03  0.4800E+02
      2.120  0.2055E-05  0.4800E+02
      2.162  0.5066E-08  0.4800E+02
      2.204  0.3294E-11  0.4800E+02
      2.245  0.5596E-15  0.4800E+02
      2.287  0.0000E+00  0.4800E+02
      2.328  0.0000E+00  0.4800E+02
      2.370  0.0000E+00  0.4800E+02
      2.411  0.0000E+00  0.4800E+02
      2.453  0.0000E+00  0.4800E+02
      2.495  0.0000E+00  0.4800E+02
