 running   24 mpi-ranks, with    1 threads/rank, on    1 nodes
 distrk:  each k-point on   24 cores,    1 groups
 distr:  one band on    1 cores,   24 groups
 vasp.6.4.3 19Mar24 (build May 31 2024 16:31:43) complex                        
  
 POSCAR found type information on POSCAR B 
 POSCAR found :  1 types and       1 ions
 Reading from existing POTCAR
 scaLAPACK will be used
 Reading from existing POTCAR
 LDA part: xc-table for (Slater+PW92), standard interpolation
 POSCAR, INCAR and KPOINTS ok, starting setup
 FFT: planning ... GRIDC
 FFT: planning ... GRID_SOFT
 FFT: planning ... GRID
 WAVECAR not read
 entering main loop
       N       E                     dE             d eps       ncg     rms          rms(c)
DAV:   1     0.806589983287E+01    0.80659E+01   -0.35570E+02  8400   0.407E+01
DAV:   2     0.114433311487E+00   -0.79515E+01   -0.79156E+01 16368   0.579E+00
DAV:   3    -0.546969809185E-01   -0.16913E+00   -0.14689E+00  8616   0.149E+00
DAV:   4    -0.582128317352E-01   -0.35159E-02   -0.33011E-02  9576   0.181E-01
DAV:   5    -0.582521980287E-01   -0.39366E-04   -0.39346E-04 13008   0.216E-02    0.848E-03
DAV:   6    -0.582525170860E-01   -0.31906E-06   -0.29500E-06 11640   0.342E-03
   1 F= -.58252517E-01 E0= -.31751847E-01  d E =-.530013E-01
