 running   24 mpi-ranks, with    1 threads/rank, on    1 nodes
 distrk:  each k-point on   24 cores,    1 groups
 distr:  one band on    1 cores,   24 groups
 vasp.6.4.3 19Mar24 (build May 31 2024 16:31:43) complex                        
  
 POSCAR found type information on POSCAR B 
 POSCAR found :  1 types and      14 ions
 Reading from existing POTCAR
 scaLAPACK will be used
 Reading from existing POTCAR
 LDA part: xc-table for (Slater+PW92), standard interpolation
 POSCAR, INCAR and KPOINTS ok, starting setup
 FFT: planning ... GRIDC
 FFT: planning ... GRID_SOFT
 FFT: planning ... GRID
 WAVECAR not read
 entering main loop
       N       E                     dE             d eps       ncg     rms          rms(c)
DAV:   1     0.685294193642E+02    0.68529E+02   -0.19070E+04 16800   0.806E+02
DAV:   2    -0.923110608192E+02   -0.16084E+03   -0.15099E+03 23256   0.161E+02
DAV:   3    -0.976031116807E+02   -0.52921E+01   -0.52645E+01 24528   0.259E+01
DAV:   4    -0.976341758015E+02   -0.31064E-01   -0.31062E-01 20424   0.229E+00
DAV:   5    -0.976345268200E+02   -0.35102E-03   -0.35101E-03 24432   0.234E-01    0.123E+01
DAV:   6    -0.922190247455E+02    0.54155E+01   -0.39475E+00 24264   0.658E+00    0.680E+00
DAV:   7    -0.905676164456E+02    0.16514E+01   -0.32186E+00 25176   0.586E+00    0.171E+00
DAV:   8    -0.905800152117E+02   -0.12399E-01   -0.23465E-01 18552   0.167E+00    0.705E-01
DAV:   9    -0.905941862580E+02   -0.14171E-01   -0.16907E-02 23496   0.438E-01    0.198E-01
DAV:  10    -0.905982319991E+02   -0.40457E-02   -0.20952E-03 19032   0.161E-01    0.609E-02
DAV:  11    -0.905992961940E+02   -0.10642E-02   -0.62239E-04 21816   0.861E-02    0.320E-02
DAV:  12    -0.905994108463E+02   -0.11465E-03   -0.91373E-05 20544   0.364E-02    0.428E-03
DAV:  13    -0.905994156040E+02   -0.47577E-05   -0.40176E-06 23544   0.858E-03    0.182E-03
DAV:  14    -0.905994162724E+02   -0.66848E-06   -0.27804E-07 20328   0.223E-03
   1 F= -.90599416E+02 E0= -.90597809E+02  d E =-.321356E-02
