<?xml version="1.0" encoding="ISO-8859-1"?>
<modeling>
 <generator>
  <i name="program" type="string">vasp </i>
  <i name="version" type="string">6.4.3  </i>
  <i name="subversion" type="string">19Mar24 (build May 31 2024 16:31:43) complex                          parallel </i>
  <i name="platform" type="string">LinuxIFC </i>
  <i name="date" type="string">2024 11 11 </i>
  <i name="time" type="string">18:22:35 </i>
 </generator>
 <incar>
  <i type="string" name="SYSTEM">Convergence</i>
  <i type="int" name="ISTART">     0</i>
  <i type="string" name="PREC">Accurate</i>
  <i type="string" name="ALGO">Normal</i>
  <i type="int" name="ISPIN">     1</i>
  <i type="int" name="ICHARG">     2</i>
  <i type="int" name="NELM">   100</i>
  <i type="int" name="IBRION">    -1</i>
  <i name="EDIFF">      0.00000100</i>
  <i name="EDIFFG">     -0.00100000</i>
  <i type="int" name="NSW">     0</i>
  <i type="int" name="ISIF">     2</i>
  <i name="ENCUT">    600.00000000</i>
  <i name="POTIM">      0.50000000</i>
  <i type="int" name="ISMEAR">     0</i>
  <i name="SIGMA">      0.05000000</i>
  <i type="logical" name="LWAVE"> F  </i>
  <i type="logical" name="LCHARG"> F  </i>
  <i type="string" name="GGA">PE</i>
 </incar>
 <primitive_cell>
  <structure name="primitive_cell" >
   <crystal>
    <varray name="basis" >
     <v>      15.01800000       0.00000000       0.00000000 </v>
     <v>       0.00000000      12.51500000       0.00000000 </v>
     <v>       0.00000000       0.00000000      18.02160000 </v>
    </varray>
    <i name="volume">   3387.16458583 </i>
    <varray name="rec_basis" >
     <v>       0.06658676       0.00000000       0.00000000 </v>
     <v>       0.00000000       0.07990412       0.00000000 </v>
     <v>       0.00000000       0.00000000       0.05548897 </v>
    </varray>
   </crystal>
   <varray name="positions" >
    <v>       0.52123000       0.54500000       0.63796000 </v>
   </varray>
  </structure>
  <varray name="primitive_index" >
   <v type="int" >        1 </v>
  </varray>
 </primitive_cell>
 <kpoints>
  <generation param="Monkhorst-Pack">
   <v type="int" name="divisions">      10       14        9 </v>
   <v name="usershift">      0.00000000       0.00000000       0.00000000 </v>
   <v name="genvec1">      0.10000000       0.00000000       0.00000000 </v>
   <v name="genvec2">      0.00000000       0.07142857       0.00000000 </v>
   <v name="genvec3">      0.00000000       0.00000000       0.11111111 </v>
   <v name="shift">      0.50000000       0.50000000       0.00000000 </v>
  </generation>
  <varray name="kpointlist" >
   <v>       0.05000000       0.03571429       0.00000000 </v>
   <v>       0.15000000       0.03571429       0.00000000 </v>
   <v>       0.25000000       0.03571429       0.00000000 </v>
   <v>       0.35000000       0.03571429       0.00000000 </v>
   <v>       0.45000000       0.03571429       0.00000000 </v>
   <v>       0.05000000       0.10714286       0.00000000 </v>
   <v>       0.15000000       0.10714286       0.00000000 </v>
   <v>       0.25000000       0.10714286       0.00000000 </v>
   <v>       0.35000000       0.10714286       0.00000000 </v>
   <v>       0.45000000       0.10714286       0.00000000 </v>
   <v>       0.05000000       0.17857143       0.00000000 </v>
   <v>       0.15000000       0.17857143       0.00000000 </v>
   <v>       0.25000000       0.17857143       0.00000000 </v>
   <v>       0.35000000       0.17857143       0.00000000 </v>
   <v>       0.45000000       0.17857143       0.00000000 </v>
   <v>       0.05000000       0.25000000       0.00000000 </v>
   <v>       0.15000000       0.25000000       0.00000000 </v>
   <v>       0.25000000       0.25000000       0.00000000 </v>
   <v>       0.35000000       0.25000000       0.00000000 </v>
   <v>       0.45000000       0.25000000       0.00000000 </v>
   <v>       0.05000000       0.32142857       0.00000000 </v>
   <v>       0.15000000       0.32142857       0.00000000 </v>
   <v>       0.25000000       0.32142857       0.00000000 </v>
   <v>       0.35000000       0.32142857       0.00000000 </v>
   <v>       0.45000000       0.32142857       0.00000000 </v>
   <v>       0.05000000       0.39285714       0.00000000 </v>
   <v>       0.15000000       0.39285714       0.00000000 </v>
   <v>       0.25000000       0.39285714       0.00000000 </v>
   <v>       0.35000000       0.39285714       0.00000000 </v>
   <v>       0.45000000       0.39285714       0.00000000 </v>
   <v>       0.05000000       0.46428571       0.00000000 </v>
   <v>       0.15000000       0.46428571       0.00000000 </v>
   <v>       0.25000000       0.46428571       0.00000000 </v>
   <v>       0.35000000       0.46428571       0.00000000 </v>
   <v>       0.45000000       0.46428571       0.00000000 </v>
   <v>       0.05000000       0.03571429       0.11111111 </v>
   <v>       0.15000000       0.03571429       0.11111111 </v>
   <v>       0.25000000       0.03571429       0.11111111 </v>
   <v>       0.35000000       0.03571429       0.11111111 </v>
   <v>       0.45000000       0.03571429       0.11111111 </v>
   <v>       0.05000000       0.10714286       0.11111111 </v>
   <v>       0.15000000       0.10714286       0.11111111 </v>
   <v>       0.25000000       0.10714286       0.11111111 </v>
   <v>       0.35000000       0.10714286       0.11111111 </v>
   <v>       0.45000000       0.10714286       0.11111111 </v>
   <v>       0.05000000       0.17857143       0.11111111 </v>
   <v>       0.15000000       0.17857143       0.11111111 </v>
   <v>       0.25000000       0.17857143       0.11111111 </v>
   <v>       0.35000000       0.17857143       0.11111111 </v>
   <v>       0.45000000       0.17857143       0.11111111 </v>
   <v>       0.05000000       0.25000000       0.11111111 </v>
   <v>       0.15000000       0.25000000       0.11111111 </v>
   <v>       0.25000000       0.25000000       0.11111111 </v>
   <v>       0.35000000       0.25000000       0.11111111 </v>
   <v>       0.45000000       0.25000000       0.11111111 </v>
   <v>       0.05000000       0.32142857       0.11111111 </v>
   <v>       0.15000000       0.32142857       0.11111111 </v>
   <v>       0.25000000       0.32142857       0.11111111 </v>
   <v>       0.35000000       0.32142857       0.11111111 </v>
   <v>       0.45000000       0.32142857       0.11111111 </v>
   <v>       0.05000000       0.39285714       0.11111111 </v>
   <v>       0.15000000       0.39285714       0.11111111 </v>
   <v>       0.25000000       0.39285714       0.11111111 </v>
   <v>       0.35000000       0.39285714       0.11111111 </v>
   <v>       0.45000000       0.39285714       0.11111111 </v>
   <v>       0.05000000       0.46428571       0.11111111 </v>
   <v>       0.15000000       0.46428571       0.11111111 </v>
   <v>       0.25000000       0.46428571       0.11111111 </v>
   <v>       0.35000000       0.46428571       0.11111111 </v>
   <v>       0.45000000       0.46428571       0.11111111 </v>
   <v>       0.05000000       0.03571429       0.22222222 </v>
   <v>       0.15000000       0.03571429       0.22222222 </v>
   <v>       0.25000000       0.03571429       0.22222222 </v>
   <v>       0.35000000       0.03571429       0.22222222 </v>
   <v>       0.45000000       0.03571429       0.22222222 </v>
   <v>       0.05000000       0.10714286       0.22222222 </v>
   <v>       0.15000000       0.10714286       0.22222222 </v>
   <v>       0.25000000       0.10714286       0.22222222 </v>
   <v>       0.35000000       0.10714286       0.22222222 </v>
   <v>       0.45000000       0.10714286       0.22222222 </v>
   <v>       0.05000000       0.17857143       0.22222222 </v>
   <v>       0.15000000       0.17857143       0.22222222 </v>
   <v>       0.25000000       0.17857143       0.22222222 </v>
   <v>       0.35000000       0.17857143       0.22222222 </v>
   <v>       0.45000000       0.17857143       0.22222222 </v>
   <v>       0.05000000       0.25000000       0.22222222 </v>
   <v>       0.15000000       0.25000000       0.22222222 </v>
   <v>       0.25000000       0.25000000       0.22222222 </v>
   <v>       0.35000000       0.25000000       0.22222222 </v>
   <v>       0.45000000       0.25000000       0.22222222 </v>
   <v>       0.05000000       0.32142857       0.22222222 </v>
   <v>       0.15000000       0.32142857       0.22222222 </v>
   <v>       0.25000000       0.32142857       0.22222222 </v>
   <v>       0.35000000       0.32142857       0.22222222 </v>
   <v>       0.45000000       0.32142857       0.22222222 </v>
   <v>       0.05000000       0.39285714       0.22222222 </v>
   <v>       0.15000000       0.39285714       0.22222222 </v>
   <v>       0.25000000       0.39285714       0.22222222 </v>
   <v>       0.35000000       0.39285714       0.22222222 </v>
   <v>       0.45000000       0.39285714       0.22222222 </v>
   <v>       0.05000000       0.46428571       0.22222222 </v>
   <v>       0.15000000       0.46428571       0.22222222 </v>
   <v>       0.25000000       0.46428571       0.22222222 </v>
   <v>       0.35000000       0.46428571       0.22222222 </v>
   <v>       0.45000000       0.46428571       0.22222222 </v>
   <v>       0.05000000       0.03571429       0.33333333 </v>
   <v>       0.15000000       0.03571429       0.33333333 </v>
   <v>       0.25000000       0.03571429       0.33333333 </v>
   <v>       0.35000000       0.03571429       0.33333333 </v>
   <v>       0.45000000       0.03571429       0.33333333 </v>
   <v>       0.05000000       0.10714286       0.33333333 </v>
   <v>       0.15000000       0.10714286       0.33333333 </v>
   <v>       0.25000000       0.10714286       0.33333333 </v>
   <v>       0.35000000       0.10714286       0.33333333 </v>
   <v>       0.45000000       0.10714286       0.33333333 </v>
   <v>       0.05000000       0.17857143       0.33333333 </v>
   <v>       0.15000000       0.17857143       0.33333333 </v>
   <v>       0.25000000       0.17857143       0.33333333 </v>
   <v>       0.35000000       0.17857143       0.33333333 </v>
   <v>       0.45000000       0.17857143       0.33333333 </v>
   <v>       0.05000000       0.25000000       0.33333333 </v>
   <v>       0.15000000       0.25000000       0.33333333 </v>
   <v>       0.25000000       0.25000000       0.33333333 </v>
   <v>       0.35000000       0.25000000       0.33333333 </v>
   <v>       0.45000000       0.25000000       0.33333333 </v>
   <v>       0.05000000       0.32142857       0.33333333 </v>
   <v>       0.15000000       0.32142857       0.33333333 </v>
   <v>       0.25000000       0.32142857       0.33333333 </v>
   <v>       0.35000000       0.32142857       0.33333333 </v>
   <v>       0.45000000       0.32142857       0.33333333 </v>
   <v>       0.05000000       0.39285714       0.33333333 </v>
   <v>       0.15000000       0.39285714       0.33333333 </v>
   <v>       0.25000000       0.39285714       0.33333333 </v>
   <v>       0.35000000       0.39285714       0.33333333 </v>
   <v>       0.45000000       0.39285714       0.33333333 </v>
   <v>       0.05000000       0.46428571       0.33333333 </v>
   <v>       0.15000000       0.46428571       0.33333333 </v>
   <v>       0.25000000       0.46428571       0.33333333 </v>
   <v>       0.35000000       0.46428571       0.33333333 </v>
   <v>       0.45000000       0.46428571       0.33333333 </v>
   <v>       0.05000000       0.03571429       0.44444444 </v>
   <v>       0.15000000       0.03571429       0.44444444 </v>
   <v>       0.25000000       0.03571429       0.44444444 </v>
   <v>       0.35000000       0.03571429       0.44444444 </v>
   <v>       0.45000000       0.03571429       0.44444444 </v>
   <v>       0.05000000       0.10714286       0.44444444 </v>
   <v>       0.15000000       0.10714286       0.44444444 </v>
   <v>       0.25000000       0.10714286       0.44444444 </v>
   <v>       0.35000000       0.10714286       0.44444444 </v>
   <v>       0.45000000       0.10714286       0.44444444 </v>
   <v>       0.05000000       0.17857143       0.44444444 </v>
   <v>       0.15000000       0.17857143       0.44444444 </v>
   <v>       0.25000000       0.17857143       0.44444444 </v>
   <v>       0.35000000       0.17857143       0.44444444 </v>
   <v>       0.45000000       0.17857143       0.44444444 </v>
   <v>       0.05000000       0.25000000       0.44444444 </v>
   <v>       0.15000000       0.25000000       0.44444444 </v>
   <v>       0.25000000       0.25000000       0.44444444 </v>
   <v>       0.35000000       0.25000000       0.44444444 </v>
   <v>       0.45000000       0.25000000       0.44444444 </v>
   <v>       0.05000000       0.32142857       0.44444444 </v>
   <v>       0.15000000       0.32142857       0.44444444 </v>
   <v>       0.25000000       0.32142857       0.44444444 </v>
   <v>       0.35000000       0.32142857       0.44444444 </v>
   <v>       0.45000000       0.32142857       0.44444444 </v>
   <v>       0.05000000       0.39285714       0.44444444 </v>
   <v>       0.15000000       0.39285714       0.44444444 </v>
   <v>       0.25000000       0.39285714       0.44444444 </v>
   <v>       0.35000000       0.39285714       0.44444444 </v>
   <v>       0.45000000       0.39285714       0.44444444 </v>
   <v>       0.05000000       0.46428571       0.44444444 </v>
   <v>       0.15000000       0.46428571       0.44444444 </v>
   <v>       0.25000000       0.46428571       0.44444444 </v>
   <v>       0.35000000       0.46428571       0.44444444 </v>
   <v>       0.45000000       0.46428571       0.44444444 </v>
  </varray>
  <varray name="weights" >
   <v>       0.00317460 </v>
   <v>       0.00317460 </v>
   <v>       0.00317460 </v>
   <v>       0.00317460 </v>
   <v>       0.00317460 </v>
   <v>       0.00317460 </v>
   <v>       0.00317460 </v>
   <v>       0.00317460 </v>
   <v>       0.00317460 </v>
   <v>       0.00317460 </v>
   <v>       0.00317460 </v>
   <v>       0.00317460 </v>
   <v>       0.00317460 </v>
   <v>       0.00317460 </v>
   <v>       0.00317460 </v>
   <v>       0.00317460 </v>
   <v>       0.00317460 </v>
   <v>       0.00317460 </v>
   <v>       0.00317460 </v>
   <v>       0.00317460 </v>
   <v>       0.00317460 </v>
   <v>       0.00317460 </v>
   <v>       0.00317460 </v>
   <v>       0.00317460 </v>
   <v>       0.00317460 </v>
   <v>       0.00317460 </v>
   <v>       0.00317460 </v>
   <v>       0.00317460 </v>
   <v>       0.00317460 </v>
   <v>       0.00317460 </v>
   <v>       0.00317460 </v>
   <v>       0.00317460 </v>
   <v>       0.00317460 </v>
   <v>       0.00317460 </v>
   <v>       0.00317460 </v>
   <v>       0.00634921 </v>
   <v>       0.00634921 </v>
   <v>       0.00634921 </v>
   <v>       0.00634921 </v>
   <v>       0.00634921 </v>
   <v>       0.00634921 </v>
   <v>       0.00634921 </v>
   <v>       0.00634921 </v>
   <v>       0.00634921 </v>
   <v>       0.00634921 </v>
   <v>       0.00634921 </v>
   <v>       0.00634921 </v>
   <v>       0.00634921 </v>
   <v>       0.00634921 </v>
   <v>       0.00634921 </v>
   <v>       0.00634921 </v>
   <v>       0.00634921 </v>
   <v>       0.00634921 </v>
   <v>       0.00634921 </v>
   <v>       0.00634921 </v>
   <v>       0.00634921 </v>
   <v>       0.00634921 </v>
   <v>       0.00634921 </v>
   <v>       0.00634921 </v>
   <v>       0.00634921 </v>
   <v>       0.00634921 </v>
   <v>       0.00634921 </v>
   <v>       0.00634921 </v>
   <v>       0.00634921 </v>
   <v>       0.00634921 </v>
   <v>       0.00634921 </v>
   <v>       0.00634921 </v>
   <v>       0.00634921 </v>
   <v>       0.00634921 </v>
   <v>       0.00634921 </v>
   <v>       0.00634921 </v>
   <v>       0.00634921 </v>
   <v>       0.00634921 </v>
   <v>       0.00634921 </v>
   <v>       0.00634921 </v>
   <v>       0.00634921 </v>
   <v>       0.00634921 </v>
   <v>       0.00634921 </v>
   <v>       0.00634921 </v>
   <v>       0.00634921 </v>
   <v>       0.00634921 </v>
   <v>       0.00634921 </v>
   <v>       0.00634921 </v>
   <v>       0.00634921 </v>
   <v>       0.00634921 </v>
   <v>       0.00634921 </v>
   <v>       0.00634921 </v>
   <v>       0.00634921 </v>
   <v>       0.00634921 </v>
   <v>       0.00634921 </v>
   <v>       0.00634921 </v>
   <v>       0.00634921 </v>
   <v>       0.00634921 </v>
   <v>       0.00634921 </v>
   <v>       0.00634921 </v>
   <v>       0.00634921 </v>
   <v>       0.00634921 </v>
   <v>       0.00634921 </v>
   <v>       0.00634921 </v>
   <v>       0.00634921 </v>
   <v>       0.00634921 </v>
   <v>       0.00634921 </v>
   <v>       0.00634921 </v>
   <v>       0.00634921 </v>
   <v>       0.00634921 </v>
   <v>       0.00634921 </v>
   <v>       0.00634921 </v>
   <v>       0.00634921 </v>
   <v>       0.00634921 </v>
   <v>       0.00634921 </v>
   <v>       0.00634921 </v>
   <v>       0.00634921 </v>
   <v>       0.00634921 </v>
   <v>       0.00634921 </v>
   <v>       0.00634921 </v>
   <v>       0.00634921 </v>
   <v>       0.00634921 </v>
   <v>       0.00634921 </v>
   <v>       0.00634921 </v>
   <v>       0.00634921 </v>
   <v>       0.00634921 </v>
   <v>       0.00634921 </v>
   <v>       0.00634921 </v>
   <v>       0.00634921 </v>
   <v>       0.00634921 </v>
   <v>       0.00634921 </v>
   <v>       0.00634921 </v>
   <v>       0.00634921 </v>
   <v>       0.00634921 </v>
   <v>       0.00634921 </v>
   <v>       0.00634921 </v>
   <v>       0.00634921 </v>
   <v>       0.00634921 </v>
   <v>       0.00634921 </v>
   <v>       0.00634921 </v>
   <v>       0.00634921 </v>
   <v>       0.00634921 </v>
   <v>       0.00634921 </v>
   <v>       0.00634921 </v>
   <v>       0.00634921 </v>
   <v>       0.00634921 </v>
   <v>       0.00634921 </v>
   <v>       0.00634921 </v>
   <v>       0.00634921 </v>
   <v>       0.00634921 </v>
   <v>       0.00634921 </v>
   <v>       0.00634921 </v>
   <v>       0.00634921 </v>
   <v>       0.00634921 </v>
   <v>       0.00634921 </v>
   <v>       0.00634921 </v>
   <v>       0.00634921 </v>
   <v>       0.00634921 </v>
   <v>       0.00634921 </v>
   <v>       0.00634921 </v>
   <v>       0.00634921 </v>
   <v>       0.00634921 </v>
   <v>       0.00634921 </v>
   <v>       0.00634921 </v>
   <v>       0.00634921 </v>
   <v>       0.00634921 </v>
   <v>       0.00634921 </v>
   <v>       0.00634921 </v>
   <v>       0.00634921 </v>
   <v>       0.00634921 </v>
   <v>       0.00634921 </v>
   <v>       0.00634921 </v>
   <v>       0.00634921 </v>
   <v>       0.00634921 </v>
   <v>       0.00634921 </v>
   <v>       0.00634921 </v>
   <v>       0.00634921 </v>
   <v>       0.00634921 </v>
   <v>       0.00634921 </v>
   <v>       0.00634921 </v>
  </varray>
 </kpoints>
 <parameters>
  <separator name="general" >
   <i type="string" name="SYSTEM">Convergence</i>
   <i type="logical" name="LCOMPAT"> F  </i>
  </separator>
  <separator name="electronic" >
   <i type="string" name="PREC">accura</i>
   <i name="ENMAX">    600.00000000</i>
   <i name="ENAUG">    535.51400000</i>
   <i name="EDIFF">      0.00000100</i>
   <i type="int" name="IALGO">    38</i>
   <i type="int" name="IWAVPR">    10</i>
   <i type="int" name="NBANDS">    24</i>
   <i type="int" name="NBANDSLOW">    -1</i>
   <i type="int" name="NBANDSHIGH">    -1</i>
   <i name="NELECT">      3.00000000</i>
   <i type="int" name="TURBO">     0</i>
   <i type="int" name="IRESTART">     0</i>
   <i type="int" name="NREBOOT">     0</i>
   <i type="int" name="NMIN">     0</i>
   <i name="EREF">      0.00000000</i>
   <separator name="electronic smearing" >
    <i type="int" name="ISMEAR">     0</i>
    <i name="SIGMA">      0.05000000</i>
    <i name="KSPACING">      0.50000000</i>
    <i type="logical" name="KGAMMA"> T  </i>
    <i type="logical" name="KBLOWUP"> T  </i>
   </separator>
   <separator name="electronic projectors" >
    <i type="logical" name="LREAL"> F  </i>
    <v name="ROPT">      0.00000000</v>
    <i type="int" name="LMAXPAW">  -100</i>
    <i type="int" name="LMAXMIX">     2</i>
    <i type="logical" name="NLSPLINE"> F  </i>
   </separator>
   <separator name="electronic startup" >
    <i type="int" name="ISTART">     0</i>
    <i type="int" name="ICHARG">     2</i>
    <i type="int" name="INIWAV">     1</i>
   </separator>
   <separator name="electronic spin" >
    <i type="int" name="ISPIN">     1</i>
    <i type="logical" name="LNONCOLLINEAR"> F  </i>
    <v name="MAGMOM">      1.00000000</v>
    <i name="NUPDOWN">     -1.00000000</i>
    <i type="logical" name="LSORBIT"> F  </i>
    <v name="SAXIS">      0.00000000      0.00000000      1.00000000</v>
    <i type="logical" name="LSPIRAL"> F  </i>
    <v name="QSPIRAL">      0.00000000      0.00000000      0.00000000</v>
    <i type="logical" name="LZEROZ"> F  </i>
   </separator>
   <separator name="electronic exchange-correlation" >
    <i type="logical" name="LASPH"> F  </i>
   </separator>
   <separator name="electronic convergence" >
    <i type="int" name="NELM">   100</i>
    <i type="int" name="NELMDL">    -5</i>
    <i type="int" name="NELMIN">     2</i>
    <i name="ENINI">    600.00000000</i>
    <separator name="electronic convergence detail" >
     <i type="logical" name="LDIAG"> T  </i>
     <i type="logical" name="LSUBROT"> F  </i>
     <i name="WEIMIN">      0.00000000</i>
     <i name="EBREAK">      0.00000001</i>
     <i name="DEPER">      0.30000000</i>
     <i type="int" name="NRMM">     4</i>
     <i name="TIME">      0.40000000</i>
    </separator>
   </separator>
   <separator name="electronic mixer" >
    <i name="AMIX">      0.40000000</i>
    <i name="BMIX">      1.00000000</i>
    <i name="AMIN">      0.10000000</i>
    <i name="AMIX_MAG">      1.60000000</i>
    <i name="BMIX_MAG">      1.00000000</i>
    <separator name="electronic mixer details" >
     <i type="int" name="IMIX">     4</i>
     <i type="logical" name="MIXFIRST"> F  </i>
     <i type="int" name="MAXMIX">   -45</i>
     <i name="WC">    100.00000000</i>
     <i type="int" name="INIMIX">     1</i>
     <i type="int" name="MIXPRE">     1</i>
     <i type="int" name="MREMOVE">     5</i>
    </separator>
   </separator>
   <separator name="electronic dipolcorrection" >
    <i type="logical" name="LDIPOL"> F  </i>
    <i type="logical" name="LMONO"> F  </i>
    <i type="int" name="IDIPOL">     0</i>
    <i name="EPSILON">      1.00000000</i>
    <v name="DIPOL">   -100.00000000   -100.00000000   -100.00000000</v>
    <i name="EFIELD">      0.00000000</i>
    <i type="logical" name="LVACPOTAV"> F  </i>
   </separator>
  </separator>
  <separator name="grids" >
   <i type="int" name="NGX">   120</i>
   <i type="int" name="NGY">   100</i>
   <i type="int" name="NGZ">   144</i>
   <i type="int" name="NGXF">   240</i>
   <i type="int" name="NGYF">   200</i>
   <i type="int" name="NGZF">   288</i>
   <i type="logical" name="ADDGRID"> F  </i>
  </separator>
  <separator name="ionic" >
   <i type="int" name="NSW">     0</i>
   <i type="int" name="IBRION">    -1</i>
   <i type="int" name="MDALGO">     0</i>
   <i type="int" name="ISIF">     2</i>
   <i name="PSTRESS">      0.00000000</i>
   <i name="EDIFFG">     -0.00100000</i>
   <i type="int" name="NFREE">     0</i>
   <i name="POTIM">      0.50000000</i>
   <i name="SMASS">     -3.00000000</i>
   <i name="SCALEE">      1.00000000</i>
  </separator>
  <separator name="ionic md" >
   <i name="TEBEG">      0.00010000</i>
   <i name="TEEND">      0.00010000</i>
   <i type="int" name="NBLOCK">     1</i>
   <i type="int" name="KBLOCK">     1</i>
   <i type="int" name="NPACO">   256</i>
   <i name="APACO">     10.00000000</i>
  </separator>
  <separator name="symmetry" >
   <i type="int" name="ISYM">     2</i>
   <i name="SYMPREC">      0.00001000</i>
  </separator>
  <separator name="dos" >
   <i type="int" name="LORBIT">     0</i>
   <v name="RWIGS">     -1.00000000</v>
   <i type="int" name="NEDOS">   301</i>
   <i name="EMIN">     10.00000000</i>
   <i name="EMAX">    -10.00000000</i>
   <i name="EFERMI">      0.00000000</i>
  </separator>
  <separator name="writing" >
   <i type="int" name="NWRITE">     2</i>
   <i type="logical" name="LWAVE"> F  </i>
   <i type="logical" name="LDOWNSAMPLE"> F  </i>
   <i type="logical" name="LCHARG"> F  </i>
   <i type="logical" name="LPARD"> F  </i>
   <i type="logical" name="LVTOT"> F  </i>
   <i type="logical" name="LVHAR"> F  </i>
   <i type="logical" name="LELF"> F  </i>
   <i type="logical" name="LOPTICS"> F  </i>
   <v name="STM">      0.00000000      0.00000000      0.00000000      0.00000000      0.00000000      0.00000000      0.00000000</v>
  </separator>
  <separator name="performance" >
   <i type="int" name="NPAR">    24</i>
   <i type="int" name="NSIM">     4</i>
   <i type="int" name="NBLK">    -1</i>
   <i type="logical" name="LPLANE"> T  </i>
   <i type="logical" name="LSCALAPACK"> T  </i>
   <i type="logical" name="LSCAAWARE"> F  </i>
   <i type="logical" name="LSCALU"> F  </i>
   <i type="logical" name="LASYNC"> F  </i>
   <i type="logical" name="LORBITALREAL"> F  </i>
  </separator>
  <separator name="miscellaneous" >
   <i type="int" name="IDIOT">     3</i>
   <i type="int" name="PHON_NSTRUCT">    -1</i>
   <i type="logical" name="LMUSIC"> F  </i>
   <v name="POMASS">     10.81100000</v>
   <v name="DARWINR">      0.00000000</v>
   <v name="DARWINV">      1.00000000</v>
   <i type="logical" name="LCORR"> T  </i>
  </separator>
  <i type="logical" name="GGA_COMPAT"> T  </i>
  <i type="logical" name="LBERRY"> F  </i>
  <i type="int" name="ICORELEVEL">     0</i>
  <i type="logical" name="LDAU"> F  </i>
  <i type="int" name="I_CONSTRAINED_M">     0</i>
  <separator name="electronic exchange-correlation" >
   <i type="string" name="GGA    ">PE</i>
   <i type="string" name="XC_C">1</i>
   <i type="int" name="VOSKOWN">     0</i>
   <i type="logical" name="LHFCALC"> F  </i>
   <i type="string" name="PRECFOCK"></i>
   <i type="logical" name="LSYMGRAD"> F  </i>
   <i type="logical" name="LHFONE"> F  </i>
   <i type="logical" name="LRHFCALC"> F  </i>
   <i type="logical" name="LTHOMAS"> F  </i>
   <i type="logical" name="LMODELHF"> F  </i>
   <i type="logical" name="LFOCKACE"> F  </i>
   <i name="ENCUT4O">     -1.00000000</i>
   <i type="int" name="EXXOEP">     0</i>
   <i type="int" name="FOURORBIT">     0</i>
   <i name="AEXX">      0.00000000</i>
   <i name="HFALPHA">      0.00000000</i>
   <i name="MCALPHA">      0.00000000</i>
   <i name="ALDAX">      1.00000000</i>
   <i name="AGGAX">      1.00000000</i>
   <i name="AMGGAX">      1.00000000</i>
   <i name="ALDAC">      1.00000000</i>
   <i name="AGGAC">      1.00000000</i>
   <i name="AMGGAC">      1.00000000</i>
   <i type="int" name="NKREDX">     1</i>
   <i type="int" name="NKREDY">     1</i>
   <i type="int" name="NKREDZ">     1</i>
   <i type="logical" name="SHIFTRED"> F  </i>
   <i type="logical" name="ODDONLY"> F  </i>
   <i type="logical" name="EVENONLY"> F  </i>
   <i type="int" name="LMAXFOCK">     0</i>
   <i type="int" name="NMAXFOCKAE">     0</i>
   <i type="logical" name="LFOCKAEDFT"> F  </i>
   <i name="HFSCREEN">      0.00000000</i>
   <i name="HFSCREENC">      0.00000000</i>
   <i type="int" name="NBANDSGWLOW">     0</i>
  </separator>
  <separator name="vdW DFT" >
   <i type="logical" name="LUSE_VDW"> F  </i>
   <i type="int" name="IVDW_NL">    -1</i>
   <i type="logical" name="LSPIN_VDW"> F  </i>
   <i name="ZAB_VDW">     -0.84910000</i>
   <i name="GAMMA_VDW">      1.39626340</i>
   <i name="ALPHA_VDW">      0.00000000</i>
   <i name="PARAM1">      0.12340000</i>
   <i name="PARAM2">      1.00000000</i>
   <i name="BPARAM">      6.30000000</i>
   <i name="CPARAM">      0.00930000</i>
  </separator>
  <separator name="model GW" >
   <i type="int" name="MODEL_GW">     0</i>
   <i name="MODEL_EPS0">   2032.29875150</i>
   <i name="MODEL_ALPHA">      1.00000000</i>
  </separator>
  <separator name="linear response parameters" >
   <i type="logical" name="LEPSILON"> F  </i>
   <i type="logical" name="LRPA"> F  </i>
   <i type="logical" name="LNABLA"> F  </i>
   <i type="logical" name="LVEL"> F  </i>
   <i name="CSHIFT">      0.10000000</i>
   <i name="OMEGAMAX">     -1.00000000</i>
   <i name="DEG_THRESHOLD">      0.00200000</i>
   <i name="RTIME">     -0.10000000</i>
   <i name="WPLASMAI">      0.00000000</i>
   <v name="DFIELD">      0.00000000      0.00000000      0.00000000</v>
   <v name="WPLASMA">      0.00000000      0.00000000      0.00000000      0.00000000      0.00000000      0.00000000      0.00000000      0.00000000      0.00000000</v>
  </separator>
  <separator name="orbital magnetization" >
   <i type="logical" name="NUCIND"> F  </i>
   <v name="MAGPOS">      0.00000000      0.00000000      0.00000000</v>
   <i type="logical" name="LNICSALL"> T  </i>
   <i type="logical" name="ORBITALMAG"> F  </i>
   <i type="logical" name="LMAGBLOCH"> F  </i>
   <i type="logical" name="LCHIMAG"> F  </i>
   <i type="logical" name="LGAUGE"> T  </i>
   <i type="int" name="MAGATOM">     0</i>
   <v name="MAGDIPOL">      0.00000000      0.00000000      0.00000000</v>
   <v name="AVECCONST">      0.00000000      0.00000000      0.00000000</v>
  </separator>
  <separator name="response functions" >
   <i type="logical" name="LALL_IN_ONE"> F  </i>
   <i type="int" name="IALL_IN_ONE">    -1</i>
   <i type="int" name="NBANDS_WAVE">    -1</i>
   <i type="logical" name="LFINITE_TEMPERATURE"> F  </i>
   <i type="logical" name="LADDER"> F  </i>
   <i type="logical" name="LRPAFORCE"> F  </i>
   <i type="logical" name="LFXC"> F  </i>
   <i type="logical" name="LHARTREE"> T  </i>
   <i type="int" name="IBSE">     0</i>
   <v type="int" name="KPOINT">    -1     0     0     0</v>
   <i type="logical" name="LTCTC"> F  </i>
   <i type="logical" name="LTCTE"> F  </i>
   <i type="logical" name="LTETE"> F  </i>
   <i type="logical" name="LTRIPLET"> F  </i>
   <i type="logical" name="LFXCEPS"> F  </i>
   <i type="logical" name="LFXHEG"> F  </i>
   <i type="int" name="NATURALO">     2</i>
   <i type="logical" name="LHOLEGF"> F  </i>
   <i type="logical" name="L2ORDER"> F  </i>
   <i type="logical" name="LDMP1"> F  </i>
   <i type="logical" name="LMP2LT"> F  </i>
   <i type="logical" name="LSMP2LT"> F  </i>
   <i type="logical" name="LGWLF"> F  </i>
   <i name="ENCUTGW">     -1.60000002</i>
   <i name="ENCUTGWSOFT">     -1.60000002</i>
   <i name="ENCUTLF">     -1.00000000</i>
   <i type="logical" name="ESF_SPLINES"> F  </i>
   <i name="ESF_CONV">      0.01000000</i>
   <i type="int" name="ESF_NINTER">    15</i>
   <i type="int" name="LMAXMP2">    -1</i>
   <i name="SCISSOR">      0.00000000</i>
   <i type="int" name="NOMEGA">     0</i>
   <i type="int" name="NOMEGAR">     0</i>
   <i type="int" name="NBANDSGW">    -1</i>
   <i type="int" name="NBANDSO">    -1</i>
   <i type="int" name="NBANDSV">    -1</i>
   <i type="int" name="NELMGW">     1</i>
   <i type="int" name="NELMHF">     1</i>
   <i type="int" name="DIM">     3</i>
   <i type="int" name="IESPILON">     4</i>
   <i type="int" name="ANTIRES">     0</i>
   <i name="OMEGAMAX">    -30.00000000</i>
   <i name="OMEGAMIN">    -30.00000000</i>
   <i name="OMEGATL">   -200.00000000</i>
   <i type="int" name="OMEGAGRID">     0</i>
   <i name="CSHIFT">     -0.10000000</i>
   <i type="logical" name="LSELFENERGY"> F  </i>
   <i type="logical" name="LSPECTRAL"> F  </i>
   <i type="logical" name="LSPECTRALGW"> F  </i>
   <i type="logical" name="LSINGLES"> F  </i>
   <i type="logical" name="LFERMIGW"> F  </i>
   <i type="logical" name="ODDONLYGW"> F  </i>
   <i type="logical" name="EVENONLYGW"> F  </i>
   <i type="int" name="NKREDLFX">     1</i>
   <i type="int" name="NKREDLFY">     1</i>
   <i type="int" name="NKREDLFZ">     1</i>
   <i type="int" name="MAXMEM">  2800</i>
   <i type="int" name="TELESCOPE">     0</i>
   <i type="int" name="NTAUPAR">    -1</i>
   <i type="int" name="NOMEGAPAR">    -1</i>
   <i name="DAMP_NEWTON">      0.80000001</i>
   <i name="LAMBDA">      1.00000000</i>
  </separator>
  <separator name="External order field" >
   <i name="OFIELD_KAPPA">      0.00000000</i>
   <v name="OFIELD_K">      0.00000000      0.00000000      0.00000000</v>
   <i name="OFIELD_Q6_NEAR">      0.00000000</i>
   <i name="OFIELD_Q6_FAR">      0.00000000</i>
   <i name="OFIELD_A">      0.00000000</i>
  </separator>
  <separator name="optional k-points parameters" >
   <i type="int" name="KPOINTS_OPT_MODE">     1</i>
   <i type="logical" name="LKPOINTS_OPT"> F  </i>
  </separator>
 </parameters>
 <atominfo>
  <atoms>       1 </atoms>
  <types>       1 </types>
  <array name="atoms" >
   <dimension dim="1">ion</dimension>
   <field type="string">element</field>
   <field type="int">atomtype</field>
   <set>
    <rc><c>B </c><c>   1</c></rc>
   </set>
  </array>
  <array name="atomtypes" >
   <dimension dim="1">type</dimension>
   <field type="int">atomspertype</field>
   <field type="string">element</field>
   <field>mass</field>
   <field>valence</field>
   <field type="string">pseudopotential</field>
   <set>
    <rc><c>   1</c><c>B </c><c>     10.81100000</c><c>      3.00000000</c><c>  PAW_PBE B 06Sep2000                   </c></rc>
   </set>
  </array>
 </atominfo>
 <structure name="initialpos" >
  <crystal>
   <varray name="basis" >
    <v>      15.01800000       0.00000000       0.00000000 </v>
    <v>       0.00000000      12.51500000       0.00000000 </v>
    <v>       0.00000000       0.00000000      18.02160000 </v>
   </varray>
   <i name="volume">   3387.16458583 </i>
   <varray name="rec_basis" >
    <v>       0.06658676       0.00000000       0.00000000 </v>
    <v>       0.00000000       0.07990412       0.00000000 </v>
    <v>       0.00000000       0.00000000       0.05548897 </v>
   </varray>
  </crystal>
  <varray name="positions" >
   <v>       0.52123000       0.54500000       0.63796000 </v>
  </varray>
 </structure>
 <calculation>
  <scstep>
   <time name="dav">   61.98   63.13</time>
   <time name="total">   62.52   63.68</time>
   <energy>
    <i name="alphaZ">      0.02031053 </i>
    <i name="ewald">    -11.81483884 </i>
    <i name="hartreedc">    -42.59770874 </i>
    <i name="XCdc">      4.75549672 </i>
    <i name="pawpsdc">     43.49986551 </i>
    <i name="pawaedc">    -42.64454556 </i>
    <i name="eentropy">     -0.01076086 </i>
    <i name="bandstr">    -14.35163417 </i>
    <i name="atom">     71.16960075 </i>
    <i name="e_fr_energy">      8.02578534 </i>
    <i name="e_wo_entrp">      8.03654620 </i>
    <i name="e_0_energy">      8.03116577 </i>
   </energy>
  </scstep>
  <scstep>
   <time name="dav">  100.26  101.52</time>
   <time name="total">  100.26  101.52</time>
   <energy>
    <i name="e_fr_energy">      0.10576613 </i>
    <i name="e_wo_entrp">      0.13452285 </i>
    <i name="e_0_energy">      0.12014449 </i>
   </energy>
  </scstep>
  <scstep>
   <time name="dav">   62.72   63.78</time>
   <time name="total">   62.73   63.78</time>
   <energy>
    <i name="e_fr_energy">     -0.05488178 </i>
    <i name="e_wo_entrp">     -0.00204035 </i>
    <i name="e_0_energy">     -0.02846107 </i>
   </energy>
  </scstep>
  <scstep>
   <time name="dav">   69.08   70.13</time>
   <time name="total">   69.08   70.13</time>
   <energy>
    <i name="e_fr_energy">     -0.05821605 </i>
    <i name="e_wo_entrp">     -0.00521474 </i>
    <i name="e_0_energy">     -0.03171539 </i>
   </energy>
  </scstep>
  <scstep>
   <time name="dav">   85.26   86.40</time>
   <time name="total">   88.70   89.88</time>
   <energy>
    <i name="e_fr_energy">     -0.05825222 </i>
    <i name="e_wo_entrp">     -0.00525088 </i>
    <i name="e_0_energy">     -0.03175155 </i>
   </energy>
  </scstep>
  <scstep>
   <time name="dav">   76.12   77.43</time>
   <time name="total">   76.59   78.53</time>
   <energy>
    <i name="alphaZ">      0.02031053 </i>
    <i name="ewald">    -11.81483884 </i>
    <i name="hartreedc">    -42.59792930 </i>
    <i name="XCdc">      4.75548730 </i>
    <i name="pawpsdc">     43.56773300 </i>
    <i name="pawaedc">    -42.71244603 </i>
    <i name="eentropy">     -0.05300134 </i>
    <i name="bandstr">    -22.39316871 </i>
    <i name="atom">     71.16960075 </i>
    <i name="e_fr_energy">     -0.05825263 </i>
    <i name="e_wo_entrp">     -0.00525129 </i>
    <i name="e_0_energy">     -0.03175196 </i>
   </energy>
  </scstep>
  <structure>
   <crystal>
    <varray name="basis" >
     <v>      15.01800000       0.00000000       0.00000000 </v>
     <v>       0.00000000      12.51500000       0.00000000 </v>
     <v>       0.00000000       0.00000000      18.02160000 </v>
    </varray>
    <i name="volume">   3387.16458583 </i>
    <varray name="rec_basis" >
     <v>       0.06658676       0.00000000       0.00000000 </v>
     <v>       0.00000000       0.07990412       0.00000000 </v>
     <v>       0.00000000       0.00000000       0.05548897 </v>
    </varray>
   </crystal>
   <varray name="positions" >
    <v>       0.52123000       0.54500000       0.63796000 </v>
   </varray>
  </structure>
  <varray name="forces" >
   <v>       0.00000000       0.00000000      -0.00000000 </v>
  </varray>
  <varray name="stress" >
   <v>      -0.00046621       0.00000000       0.00000000 </v>
   <v>      -0.00000000      -0.00047371       0.00000000 </v>
   <v>       0.00000000       0.00000000      -0.00045582 </v>
  </varray>
  <energy>
   <i name="e_fr_energy">     -0.05825263 </i>
   <i name="e_wo_entrp">     -0.00525129 </i>
   <i name="e_0_energy">     -0.03175196 </i>
  </energy>
  <time name="totalsc">  519.15  527.09</time>
  <eigenvalues>
   <array>
    <dimension dim="1">band</dimension>
    <dimension dim="2">kpoint</dimension>
    <dimension dim="3">spin</dimension>
    <field>eigene</field>
    <field>occ</field>
    <set>
     <set comment="spin 1">
      <set comment="kpoint 1">
       <r>   -9.4100    1.0000 </r>
       <r>   -3.5731    0.1667 </r>
       <r>   -3.5731    0.1667 </r>
       <r>   -3.5730    0.1659 </r>
       <r>   -0.2617    0.0000 </r>
       <r>    0.2933    0.0000 </r>
       <r>    0.3088    0.0000 </r>
       <r>    0.4381    0.0000 </r>
       <r>    0.5721    0.0000 </r>
       <r>    0.6848    0.0000 </r>
       <r>    0.8267    0.0000 </r>
       <r>    0.9085    0.0000 </r>
       <r>    0.9415    0.0000 </r>
       <r>    1.0333    0.0000 </r>
       <r>    1.0759    0.0000 </r>
       <r>    1.1713    0.0000 </r>
       <r>    1.2053    0.0000 </r>
       <r>    1.2866    0.0000 </r>
       <r>    1.3313    0.0000 </r>
       <r>    1.3489    0.0000 </r>
       <r>    1.4246    0.0000 </r>
       <r>    1.4949    0.0000 </r>
       <r>    1.5725    0.0000 </r>
       <r>    1.7033    0.0000 </r>
      </set>
      <set comment="kpoint 2">
       <r>   -9.4100    1.0000 </r>
       <r>   -3.5731    0.1667 </r>
       <r>   -3.5731    0.1667 </r>
       <r>   -3.5730    0.1659 </r>
       <r>   -0.2518    0.0000 </r>
       <r>    0.2681    0.0000 </r>
       <r>    0.3200    0.0000 </r>
       <r>    0.3725    0.0000 </r>
       <r>    0.6875    0.0000 </r>
       <r>    0.7062    0.0000 </r>
       <r>    0.7990    0.0000 </r>
       <r>    0.8283    0.0000 </r>
       <r>    0.8391    0.0000 </r>
       <r>    1.1491    0.0000 </r>
       <r>    1.1620    0.0000 </r>
       <r>    1.1950    0.0000 </r>
       <r>    1.2163    0.0000 </r>
       <r>    1.2539    0.0000 </r>
       <r>    1.3286    0.0000 </r>
       <r>    1.3480    0.0000 </r>
       <r>    1.3845    0.0000 </r>
       <r>    1.5728    0.0000 </r>
       <r>    1.6339    0.0000 </r>
       <r>    1.6837    0.0000 </r>
      </set>
      <set comment="kpoint 3">
       <r>   -9.4100    1.0000 </r>
       <r>   -3.5731    0.1667 </r>
       <r>   -3.5731    0.1667 </r>
       <r>   -3.5730    0.1659 </r>
       <r>   -0.2337    0.0000 </r>
       <r>    0.1985    0.0000 </r>
       <r>    0.3416    0.0000 </r>
       <r>    0.3744    0.0000 </r>
       <r>    0.7023    0.0000 </r>
       <r>    0.7097    0.0000 </r>
       <r>    0.7138    0.0000 </r>
       <r>    0.8521    0.0000 </r>
       <r>    0.8702    0.0000 </r>
       <r>    1.0870    0.0000 </r>
       <r>    1.1909    0.0000 </r>
       <r>    1.2309    0.0000 </r>
       <r>    1.2697    0.0000 </r>
       <r>    1.2924    0.0000 </r>
       <r>    1.3840    0.0000 </r>
       <r>    1.3953    0.0000 </r>
       <r>    1.4025    0.0000 </r>
       <r>    1.5921    0.0000 </r>
       <r>    1.5929    0.0000 </r>
       <r>    1.6457    0.0000 </r>
      </set>
      <set comment="kpoint 4">
       <r>   -9.4100    1.0000 </r>
       <r>   -3.5731    0.1668 </r>
       <r>   -3.5731    0.1667 </r>
       <r>   -3.5730    0.1659 </r>
       <r>   -0.2116    0.0000 </r>
       <r>    0.1309    0.0000 </r>
       <r>    0.3707    0.0000 </r>
       <r>    0.4055    0.0000 </r>
       <r>    0.6229    0.0000 </r>
       <r>    0.6252    0.0000 </r>
       <r>    0.7374    0.0000 </r>
       <r>    0.8850    0.0000 </r>
       <r>    0.9988    0.0000 </r>
       <r>    1.0378    0.0000 </r>
       <r>    1.1641    0.0000 </r>
       <r>    1.2168    0.0000 </r>
       <r>    1.3037    0.0000 </r>
       <r>    1.3595    0.0000 </r>
       <r>    1.4326    0.0000 </r>
       <r>    1.4817    0.0000 </r>
       <r>    1.5017    0.0000 </r>
       <r>    1.5416    0.0000 </r>
       <r>    1.5550    0.0000 </r>
       <r>    1.6013    0.0000 </r>
      </set>
      <set comment="kpoint 5">
       <r>   -9.4100    1.0000 </r>
       <r>   -3.5731    0.1668 </r>
       <r>   -3.5731    0.1667 </r>
       <r>   -3.5730    0.1659 </r>
       <r>   -0.1946    0.0000 </r>
       <r>    0.0899    0.0000 </r>
       <r>    0.3971    0.0000 </r>
       <r>    0.4435    0.0000 </r>
       <r>    0.5597    0.0000 </r>
       <r>    0.5712    0.0000 </r>
       <r>    0.7576    0.0000 </r>
       <r>    0.9099    0.0000 </r>
       <r>    0.9684    0.0000 </r>
       <r>    1.0985    0.0000 </r>
       <r>    1.2091    0.0000 </r>
       <r>    1.2366    0.0000 </r>
       <r>    1.3382    0.0000 </r>
       <r>    1.3998    0.0000 </r>
       <r>    1.4003    0.0000 </r>
       <r>    1.4447    0.0000 </r>
       <r>    1.4500    0.0000 </r>
       <r>    1.5117    0.0000 </r>
       <r>    1.5773    0.0000 </r>
       <r>    1.5795    0.0000 </r>
      </set>
      <set comment="kpoint 6">
       <r>   -9.4100    1.0000 </r>
       <r>   -3.5731    0.1667 </r>
       <r>   -3.5731    0.1666 </r>
       <r>   -3.5730    0.1660 </r>
       <r>   -0.2526    0.0000 </r>
       <r>    0.3014    0.0000 </r>
       <r>    0.3178    0.0000 </r>
       <r>    0.4469    0.0000 </r>
       <r>    0.5604    0.0000 </r>
       <r>    0.5906    0.0000 </r>
       <r>    0.9160    0.0000 </r>
       <r>    0.9440    0.0000 </r>
       <r>    0.9612    0.0000 </r>
       <r>    1.0225    0.0000 </r>
       <r>    1.0818    0.0000 </r>
       <r>    1.0848    0.0000 </r>
       <r>    1.0926    0.0000 </r>
       <r>    1.1864    0.0000 </r>
       <r>    1.3309    0.0000 </r>
       <r>    1.4524    0.0000 </r>
       <r>    1.4894    0.0000 </r>
       <r>    1.5807    0.0000 </r>
       <r>    1.6341    0.0000 </r>
       <r>    1.6753    0.0000 </r>
      </set>
      <set comment="kpoint 7">
       <r>   -9.4100    1.0000 </r>
       <r>   -3.5731    0.1667 </r>
       <r>   -3.5731    0.1667 </r>
       <r>   -3.5730    0.1660 </r>
       <r>   -0.2428    0.0000 </r>
       <r>    0.2765    0.0000 </r>
       <r>    0.3290    0.0000 </r>
       <r>    0.3815    0.0000 </r>
       <r>    0.5773    0.0000 </r>
       <r>    0.7103    0.0000 </r>
       <r>    0.8076    0.0000 </r>
       <r>    0.8381    0.0000 </r>
       <r>    0.9651    0.0000 </r>
       <r>    1.0563    0.0000 </r>
       <r>    1.0592    0.0000 </r>
       <r>    1.1327    0.0000 </r>
       <r>    1.1902    0.0000 </r>
       <r>    1.2310    0.0000 </r>
       <r>    1.4172    0.0000 </r>
       <r>    1.4625    0.0000 </r>
       <r>    1.4666    0.0000 </r>
       <r>    1.5547    0.0000 </r>
       <r>    1.5709    0.0000 </r>
       <r>    1.6009    0.0000 </r>
      </set>
      <set comment="kpoint 8">
       <r>   -9.4100    1.0000 </r>
       <r>   -3.5731    0.1667 </r>
       <r>   -3.5731    0.1667 </r>
       <r>   -3.5730    0.1660 </r>
       <r>   -0.2247    0.0000 </r>
       <r>    0.2076    0.0000 </r>
       <r>    0.3505    0.0000 </r>
       <r>    0.3830    0.0000 </r>
       <r>    0.5978    0.0000 </r>
       <r>    0.7114    0.0000 </r>
       <r>    0.7192    0.0000 </r>
       <r>    0.8719    0.0000 </r>
       <r>    0.9625    0.0000 </r>
       <r>    1.0006    0.0000 </r>
       <r>    1.0823    0.0000 </r>
       <r>    1.1491    0.0000 </r>
       <r>    1.3220    0.0000 </r>
       <r>    1.3469    0.0000 </r>
       <r>    1.3930    0.0000 </r>
       <r>    1.4652    0.0000 </r>
       <r>    1.4938    0.0000 </r>
       <r>    1.5057    0.0000 </r>
       <r>    1.5280    0.0000 </r>
       <r>    1.6282    0.0000 </r>
      </set>
      <set comment="kpoint 9">
       <r>   -9.4100    1.0000 </r>
       <r>   -3.5731    0.1668 </r>
       <r>   -3.5731    0.1667 </r>
       <r>   -3.5730    0.1660 </r>
       <r>   -0.2026    0.0000 </r>
       <r>    0.1402    0.0000 </r>
       <r>    0.3794    0.0000 </r>
       <r>    0.4139    0.0000 </r>
       <r>    0.6235    0.0000 </r>
       <r>    0.6322    0.0000 </r>
       <r>    0.6344    0.0000 </r>
       <r>    0.8918    0.0000 </r>
       <r>    1.0160    0.0000 </r>
       <r>    1.0368    0.0000 </r>
       <r>    1.1097    0.0000 </r>
       <r>    1.1845    0.0000 </r>
       <r>    1.2889    0.0000 </r>
       <r>    1.3656    0.0000 </r>
       <r>    1.3954    0.0000 </r>
       <r>    1.4812    0.0000 </r>
       <r>    1.5417    0.0000 </r>
       <r>    1.5478    0.0000 </r>
       <r>    1.5666    0.0000 </r>
       <r>    1.6367    0.0000 </r>
      </set>
      <set comment="kpoint 10">
       <r>   -9.4100    1.0000 </r>
       <r>   -3.5731    0.1668 </r>
       <r>   -3.5731    0.1667 </r>
       <r>   -3.5730    0.1660 </r>
       <r>   -0.1857    0.0000 </r>
       <r>    0.0993    0.0000 </r>
       <r>    0.4057    0.0000 </r>
       <r>    0.4518    0.0000 </r>
       <r>    0.5683    0.0000 </r>
       <r>    0.5808    0.0000 </r>
       <r>    0.6465    0.0000 </r>
       <r>    0.8481    0.0000 </r>
       <r>    1.0357    0.0000 </r>
       <r>    1.1329    0.0000 </r>
       <r>    1.1881    0.0000 </r>
       <r>    1.2271    0.0000 </r>
       <r>    1.2561    0.0000 </r>
       <r>    1.3284    0.0000 </r>
       <r>    1.3322    0.0000 </r>
       <r>    1.4164    0.0000 </r>
       <r>    1.5214    0.0000 </r>
       <r>    1.6380    0.0000 </r>
       <r>    1.6444    0.0000 </r>
       <r>    1.7022    0.0000 </r>
      </set>
      <set comment="kpoint 11">
       <r>   -9.4100    1.0000 </r>
       <r>   -3.5731    0.1667 </r>
       <r>   -3.5731    0.1666 </r>
       <r>   -3.5731    0.1663 </r>
       <r>   -0.2347    0.0000 </r>
       <r>    0.3142    0.0000 </r>
       <r>    0.3356    0.0000 </r>
       <r>    0.4599    0.0000 </r>
       <r>    0.4666    0.0000 </r>
       <r>    0.6030    0.0000 </r>
       <r>    0.9158    0.0000 </r>
       <r>    0.9521    0.0000 </r>
       <r>    0.9586    0.0000 </r>
       <r>    0.9718    0.0000 </r>
       <r>    1.0699    0.0000 </r>
       <r>    1.0770    0.0000 </r>
       <r>    1.1006    0.0000 </r>
       <r>    1.1318    0.0000 </r>
       <r>    1.2266    0.0000 </r>
       <r>    1.5429    0.0000 </r>
       <r>    1.5713    0.0000 </r>
       <r>    1.6049    0.0000 </r>
       <r>    1.6397    0.0000 </r>
       <r>    1.6564    0.0000 </r>
      </set>
      <set comment="kpoint 12">
       <r>   -9.4100    1.0000 </r>
       <r>   -3.5731    0.1667 </r>
       <r>   -3.5731    0.1667 </r>
       <r>   -3.5731    0.1663 </r>
       <r>   -0.2249    0.0000 </r>
       <r>    0.2916    0.0000 </r>
       <r>    0.3467    0.0000 </r>
       <r>    0.3979    0.0000 </r>
       <r>    0.4724    0.0000 </r>
       <r>    0.7272    0.0000 </r>
       <r>    0.8240    0.0000 </r>
       <r>    0.8545    0.0000 </r>
       <r>    0.9371    0.0000 </r>
       <r>    0.9558    0.0000 </r>
       <r>    1.0156    0.0000 </r>
       <r>    1.1246    0.0000 </r>
       <r>    1.2054    0.0000 </r>
       <r>    1.2496    0.0000 </r>
       <r>    1.3395    0.0000 </r>
       <r>    1.4483    0.0000 </r>
       <r>    1.4763    0.0000 </r>
       <r>    1.6064    0.0000 </r>
       <r>    1.6098    0.0000 </r>
       <r>    1.6700    0.0000 </r>
      </set>
      <set comment="kpoint 13">
       <r>   -9.4100    1.0000 </r>
       <r>   -3.5731    0.1667 </r>
       <r>   -3.5731    0.1667 </r>
       <r>   -3.5731    0.1663 </r>
       <r>   -0.2069    0.0000 </r>
       <r>    0.2251    0.0000 </r>
       <r>    0.3681    0.0000 </r>
       <r>    0.3970    0.0000 </r>
       <r>    0.4931    0.0000 </r>
       <r>    0.7293    0.0000 </r>
       <r>    0.7338    0.0000 </r>
       <r>    0.8552    0.0000 </r>
       <r>    0.8997    0.0000 </r>
       <r>    0.9758    0.0000 </r>
       <r>    1.0237    0.0000 </r>
       <r>    1.1452    0.0000 </r>
       <r>    1.3157    0.0000 </r>
       <r>    1.3428    0.0000 </r>
       <r>    1.3889    0.0000 </r>
       <r>    1.4040    0.0000 </r>
       <r>    1.4973    0.0000 </r>
       <r>    1.5512    0.0000 </r>
       <r>    1.6263    0.0000 </r>
       <r>    1.6862    0.0000 </r>
      </set>
      <set comment="kpoint 14">
       <r>   -9.4100    1.0000 </r>
       <r>   -3.5731    0.1667 </r>
       <r>   -3.5731    0.1667 </r>
       <r>   -3.5731    0.1663 </r>
       <r>   -0.1850    0.0000 </r>
       <r>    0.1586    0.0000 </r>
       <r>    0.3968    0.0000 </r>
       <r>    0.4268    0.0000 </r>
       <r>    0.5203    0.0000 </r>
       <r>    0.6495    0.0000 </r>
       <r>    0.6508    0.0000 </r>
       <r>    0.7853    0.0000 </r>
       <r>    1.0034    0.0000 </r>
       <r>    1.0480    0.0000 </r>
       <r>    1.0610    0.0000 </r>
       <r>    1.1704    0.0000 </r>
       <r>    1.2641    0.0000 </r>
       <r>    1.2702    0.0000 </r>
       <r>    1.4445    0.0000 </r>
       <r>    1.5123    0.0000 </r>
       <r>    1.5757    0.0000 </r>
       <r>    1.5995    0.0000 </r>
       <r>    1.6548    0.0000 </r>
       <r>    1.6776    0.0000 </r>
      </set>
      <set comment="kpoint 15">
       <r>   -9.4100    1.0000 </r>
       <r>   -3.5731    0.1668 </r>
       <r>   -3.5731    0.1667 </r>
       <r>   -3.5731    0.1663 </r>
       <r>   -0.1682    0.0000 </r>
       <r>    0.1180    0.0000 </r>
       <r>    0.4227    0.0000 </r>
       <r>    0.4629    0.0000 </r>
       <r>    0.5449    0.0000 </r>
       <r>    0.5849    0.0000 </r>
       <r>    0.5998    0.0000 </r>
       <r>    0.7381    0.0000 </r>
       <r>    1.0278    0.0000 </r>
       <r>    1.0908    0.0000 </r>
       <r>    1.1863    0.0000 </r>
       <r>    1.1923    0.0000 </r>
       <r>    1.2164    0.0000 </r>
       <r>    1.2465    0.0000 </r>
       <r>    1.3839    0.0000 </r>
       <r>    1.4558    0.0000 </r>
       <r>    1.6311    0.0000 </r>
       <r>    1.6891    0.0000 </r>
       <r>    1.7358    0.0000 </r>
       <r>    1.7608    0.0000 </r>
      </set>
      <set comment="kpoint 16">
       <r>   -9.4100    1.0000 </r>
       <r>   -3.5731    0.1667 </r>
       <r>   -3.5731    0.1667 </r>
       <r>   -3.5731    0.1666 </r>
       <r>   -0.2088    0.0000 </r>
       <r>    0.3063    0.0000 </r>
       <r>    0.3619    0.0000 </r>
       <r>    0.3983    0.0000 </r>
       <r>    0.4907    0.0000 </r>
       <r>    0.6301    0.0000 </r>
       <r>    0.8364    0.0000 </r>
       <r>    0.8557    0.0000 </r>
       <r>    0.9560    0.0000 </r>
       <r>    0.9681    0.0000 </r>
       <r>    1.0180    0.0000 </r>
       <r>    1.1001    0.0000 </r>
       <r>    1.1055    0.0000 </r>
       <r>    1.1480    0.0000 </r>
       <r>    1.2724    0.0000 </r>
       <r>    1.4580    0.0000 </r>
       <r>    1.4798    0.0000 </r>
       <r>    1.5802    0.0000 </r>
       <r>    1.6175    0.0000 </r>
       <r>    1.6905    0.0000 </r>
      </set>
      <set comment="kpoint 17">
       <r>   -9.4100    1.0000 </r>
       <r>   -3.5731    0.1667 </r>
       <r>   -3.5731    0.1666 </r>
       <r>   -3.5731    0.1666 </r>
       <r>   -0.1991    0.0000 </r>
       <r>    0.2994    0.0000 </r>
       <r>    0.3730    0.0000 </r>
       <r>    0.3834    0.0000 </r>
       <r>    0.4341    0.0000 </r>
       <r>    0.7500    0.0000 </r>
       <r>    0.8279    0.0000 </r>
       <r>    0.8311    0.0000 </r>
       <r>    0.8769    0.0000 </r>
       <r>    0.8903    0.0000 </r>
       <r>    0.9187    0.0000 </r>
       <r>    1.2189    0.0000 </r>
       <r>    1.2274    0.0000 </r>
       <r>    1.2762    0.0000 </r>
       <r>    1.2935    0.0000 </r>
       <r>    1.3526    0.0000 </r>
       <r>    1.3836    0.0000 </r>
       <r>    1.6895    0.0000 </r>
       <r>    1.6952    0.0000 </r>
       <r>    1.7414    0.0000 </r>
      </set>
      <set comment="kpoint 18">
       <r>   -9.4100    1.0000 </r>
       <r>   -3.5731    0.1667 </r>
       <r>   -3.5731    0.1667 </r>
       <r>   -3.5731    0.1666 </r>
       <r>   -0.1813    0.0000 </r>
       <r>    0.2491    0.0000 </r>
       <r>    0.3732    0.0000 </r>
       <r>    0.3942    0.0000 </r>
       <r>    0.4483    0.0000 </r>
       <r>    0.7258    0.0000 </r>
       <r>    0.7550    0.0000 </r>
       <r>    0.7938    0.0000 </r>
       <r>    0.8786    0.0000 </r>
       <r>    0.9204    0.0000 </r>
       <r>    0.9238    0.0000 </r>
       <r>    1.2380    0.0000 </r>
       <r>    1.2429    0.0000 </r>
       <r>    1.2880    0.0000 </r>
       <r>    1.3911    0.0000 </r>
       <r>    1.4154    0.0000 </r>
       <r>    1.4409    0.0000 </r>
       <r>    1.6712    0.0000 </r>
       <r>    1.7363    0.0000 </r>
       <r>    1.7368    0.0000 </r>
      </set>
      <set comment="kpoint 19">
       <r>   -9.4100    1.0000 </r>
       <r>   -3.5731    0.1667 </r>
       <r>   -3.5731    0.1667 </r>
       <r>   -3.5731    0.1667 </r>
       <r>   -0.1596    0.0000 </r>
       <r>    0.1856    0.0000 </r>
       <r>    0.3956    0.0000 </r>
       <r>    0.4225    0.0000 </r>
       <r>    0.4807    0.0000 </r>
       <r>    0.6486    0.0000 </r>
       <r>    0.6782    0.0000 </r>
       <r>    0.7121    0.0000 </r>
       <r>    0.9055    0.0000 </r>
       <r>    0.9548    0.0000 </r>
       <r>    1.0777    0.0000 </r>
       <r>    1.1627    0.0000 </r>
       <r>    1.1668    0.0000 </r>
       <r>    1.3170    0.0000 </r>
       <r>    1.5368    0.0000 </r>
       <r>    1.5400    0.0000 </r>
       <r>    1.5787    0.0000 </r>
       <r>    1.6450    0.0000 </r>
       <r>    1.6644    0.0000 </r>
       <r>    1.7636    0.0000 </r>
      </set>
      <set comment="kpoint 20">
       <r>   -9.4100    1.0000 </r>
       <r>   -3.5731    0.1667 </r>
       <r>   -3.5731    0.1667 </r>
       <r>   -3.5731    0.1667 </r>
       <r>   -0.1430    0.0000 </r>
       <r>    0.1458    0.0000 </r>
       <r>    0.4201    0.0000 </r>
       <r>    0.4478    0.0000 </r>
       <r>    0.5173    0.0000 </r>
       <r>    0.5917    0.0000 </r>
       <r>    0.6281    0.0000 </r>
       <r>    0.6558    0.0000 </r>
       <r>    0.9307    0.0000 </r>
       <r>    0.9950    0.0000 </r>
       <r>    1.0938    0.0000 </r>
       <r>    1.1122    0.0000 </r>
       <r>    1.2533    0.0000 </r>
       <r>    1.3385    0.0000 </r>
       <r>    1.4418    0.0000 </r>
       <r>    1.5760    0.0000 </r>
       <r>    1.6831    0.0000 </r>
       <r>    1.7177    0.0000 </r>
       <r>    1.7682    0.0000 </r>
       <r>    1.7970    0.0000 </r>
      </set>
      <set comment="kpoint 21">
       <r>   -9.4100    1.0000 </r>
       <r>   -3.5732    0.1670 </r>
       <r>   -3.5731    0.1666 </r>
       <r>   -3.5731    0.1666 </r>
       <r>   -0.1768    0.0000 </r>
       <r>    0.2422    0.0000 </r>
       <r>    0.3960    0.0000 </r>
       <r>    0.4124    0.0000 </r>
       <r>    0.5241    0.0000 </r>
       <r>    0.6658    0.0000 </r>
       <r>    0.7495    0.0000 </r>
       <r>    0.7600    0.0000 </r>
       <r>    0.8799    0.0000 </r>
       <r>    1.0003    0.0000 </r>
       <r>    1.0207    0.0000 </r>
       <r>    1.0472    0.0000 </r>
       <r>    1.1334    0.0000 </r>
       <r>    1.1777    0.0000 </r>
       <r>    1.3691    0.0000 </r>
       <r>    1.3718    0.0000 </r>
       <r>    1.4332    0.0000 </r>
       <r>    1.4939    0.0000 </r>
       <r>    1.5365    0.0000 </r>
       <r>    1.7271    0.0000 </r>
      </set>
      <set comment="kpoint 22">
       <r>   -9.4100    1.0000 </r>
       <r>   -3.5732    0.1670 </r>
       <r>   -3.5731    0.1666 </r>
       <r>   -3.5731    0.1666 </r>
       <r>   -0.1672    0.0000 </r>
       <r>    0.2510    0.0000 </r>
       <r>    0.3831    0.0000 </r>
       <r>    0.4069    0.0000 </r>
       <r>    0.4674    0.0000 </r>
       <r>    0.7261    0.0000 </r>
       <r>    0.7597    0.0000 </r>
       <r>    0.7933    0.0000 </r>
       <r>    0.8220    0.0000 </r>
       <r>    0.8944    0.0000 </r>
       <r>    0.9321    0.0000 </r>
       <r>    1.1453    0.0000 </r>
       <r>    1.2294    0.0000 </r>
       <r>    1.2710    0.0000 </r>
       <r>    1.2931    0.0000 </r>
       <r>    1.3182    0.0000 </r>
       <r>    1.4472    0.0000 </r>
       <r>    1.6301    0.0000 </r>
       <r>    1.6637    0.0000 </r>
       <r>    1.7345    0.0000 </r>
      </set>
      <set comment="kpoint 23">
       <r>   -9.4100    1.0000 </r>
       <r>   -3.5732    0.1670 </r>
       <r>   -3.5731    0.1666 </r>
       <r>   -3.5731    0.1666 </r>
       <r>   -0.1497    0.0000 </r>
       <r>    0.2575    0.0000 </r>
       <r>    0.3205    0.0000 </r>
       <r>    0.4278    0.0000 </r>
       <r>    0.4780    0.0000 </r>
       <r>    0.6500    0.0000 </r>
       <r>    0.7691    0.0000 </r>
       <r>    0.8113    0.0000 </r>
       <r>    0.8145    0.0000 </r>
       <r>    0.8271    0.0000 </r>
       <r>    0.9569    0.0000 </r>
       <r>    1.1494    0.0000 </r>
       <r>    1.1545    0.0000 </r>
       <r>    1.3065    0.0000 </r>
       <r>    1.4208    0.0000 </r>
       <r>    1.4469    0.0000 </r>
       <r>    1.4931    0.0000 </r>
       <r>    1.7287    0.0000 </r>
       <r>    1.7678    0.0000 </r>
       <r>    1.8148    0.0000 </r>
      </set>
      <set comment="kpoint 24">
       <r>   -9.4100    1.0000 </r>
       <r>   -3.5732    0.1670 </r>
       <r>   -3.5731    0.1667 </r>
       <r>   -3.5731    0.1666 </r>
       <r>   -0.1284    0.0000 </r>
       <r>    0.2191    0.0000 </r>
       <r>    0.3184    0.0000 </r>
       <r>    0.4555    0.0000 </r>
       <r>    0.5107    0.0000 </r>
       <r>    0.5756    0.0000 </r>
       <r>    0.7133    0.0000 </r>
       <r>    0.7305    0.0000 </r>
       <r>    0.8189    0.0000 </r>
       <r>    0.8598    0.0000 </r>
       <r>    1.0609    0.0000 </r>
       <r>    1.0699    0.0000 </r>
       <r>    1.1249    0.0000 </r>
       <r>    1.4353    0.0000 </r>
       <r>    1.5032    0.0000 </r>
       <r>    1.5727    0.0000 </r>
       <r>    1.6326    0.0000 </r>
       <r>    1.6656    0.0000 </r>
       <r>    1.7972    0.0000 </r>
       <r>    1.8283    0.0000 </r>
      </set>
      <set comment="kpoint 25">
       <r>   -9.4100    1.0000 </r>
       <r>   -3.5732    0.1670 </r>
       <r>   -3.5731    0.1667 </r>
       <r>   -3.5731    0.1666 </r>
       <r>   -0.1124    0.0000 </r>
       <r>    0.1824    0.0000 </r>
       <r>    0.3393    0.0000 </r>
       <r>    0.4799    0.0000 </r>
       <r>    0.5243    0.0000 </r>
       <r>    0.5511    0.0000 </r>
       <r>    0.6654    0.0000 </r>
       <r>    0.6658    0.0000 </r>
       <r>    0.8442    0.0000 </r>
       <r>    0.9004    0.0000 </r>
       <r>    1.0003    0.0000 </r>
       <r>    1.0175    0.0000 </r>
       <r>    1.2887    0.0000 </r>
       <r>    1.4514    0.0000 </r>
       <r>    1.5081    0.0000 </r>
       <r>    1.6396    0.0000 </r>
       <r>    1.7174    0.0000 </r>
       <r>    1.7338    0.0000 </r>
       <r>    1.8098    0.0000 </r>
       <r>    1.8292    0.0000 </r>
      </set>
      <set comment="kpoint 26">
       <r>   -9.4100    1.0000 </r>
       <r>   -3.5732    0.1673 </r>
       <r>   -3.5731    0.1666 </r>
       <r>   -3.5731    0.1666 </r>
       <r>   -0.1429    0.0000 </r>
       <r>    0.1754    0.0000 </r>
       <r>    0.4354    0.0000 </r>
       <r>    0.4545    0.0000 </r>
       <r>    0.5623    0.0000 </r>
       <r>    0.6738    0.0000 </r>
       <r>    0.6741    0.0000 </r>
       <r>    0.7084    0.0000 </r>
       <r>    0.8072    0.0000 </r>
       <r>    0.9435    0.0000 </r>
       <r>    1.0382    0.0000 </r>
       <r>    1.0908    0.0000 </r>
       <r>    1.1725    0.0000 </r>
       <r>    1.2241    0.0000 </r>
       <r>    1.2929    0.0000 </r>
       <r>    1.2969    0.0000 </r>
       <r>    1.4183    0.0000 </r>
       <r>    1.4267    0.0000 </r>
       <r>    1.6038    0.0000 </r>
       <r>    1.7721    0.0000 </r>
      </set>
      <set comment="kpoint 27">
       <r>   -9.4100    1.0000 </r>
       <r>   -3.5732    0.1673 </r>
       <r>   -3.5731    0.1666 </r>
       <r>   -3.5731    0.1666 </r>
       <r>   -0.1335    0.0000 </r>
       <r>    0.1864    0.0000 </r>
       <r>    0.4204    0.0000 </r>
       <r>    0.4461    0.0000 </r>
       <r>    0.5104    0.0000 </r>
       <r>    0.6493    0.0000 </r>
       <r>    0.6853    0.0000 </r>
       <r>    0.7357    0.0000 </r>
       <r>    0.8341    0.0000 </r>
       <r>    0.9333    0.0000 </r>
       <r>    0.9789    0.0000 </r>
       <r>    1.0709    0.0000 </r>
       <r>    1.1677    0.0000 </r>
       <r>    1.1877    0.0000 </r>
       <r>    1.3149    0.0000 </r>
       <r>    1.3652    0.0000 </r>
       <r>    1.5503    0.0000 </r>
       <r>    1.5569    0.0000 </r>
       <r>    1.6280    0.0000 </r>
       <r>    1.7775    0.0000 </r>
      </set>
      <set comment="kpoint 28">
       <r>   -9.4100    1.0000 </r>
       <r>   -3.5732    0.1673 </r>
       <r>   -3.5731    0.1666 </r>
       <r>   -3.5731    0.1666 </r>
       <r>   -0.1165    0.0000 </r>
       <r>    0.2072    0.0000 </r>
       <r>    0.3437    0.0000 </r>
       <r>    0.4663    0.0000 </r>
       <r>    0.5218    0.0000 </r>
       <r>    0.5734    0.0000 </r>
       <r>    0.7072    0.0000 </r>
       <r>    0.7421    0.0000 </r>
       <r>    0.8396    0.0000 </r>
       <r>    0.8573    0.0000 </r>
       <r>    0.9959    0.0000 </r>
       <r>    1.0707    0.0000 </r>
       <r>    1.0754    0.0000 </r>
       <r>    1.2341    0.0000 </r>
       <r>    1.4572    0.0000 </r>
       <r>    1.5141    0.0000 </r>
       <r>    1.6119    0.0000 </r>
       <r>    1.7053    0.0000 </r>
       <r>    1.7322    0.0000 </r>
       <r>    1.7773    0.0000 </r>
      </set>
      <set comment="kpoint 29">
       <r>   -9.4100    1.0000 </r>
       <r>   -3.5732    0.1673 </r>
       <r>   -3.5731    0.1667 </r>
       <r>   -3.5731    0.1666 </r>
       <r>   -0.0961    0.0000 </r>
       <r>    0.2312    0.0000 </r>
       <r>    0.2805    0.0000 </r>
       <r>    0.4929    0.0000 </r>
       <r>    0.4961    0.0000 </r>
       <r>    0.5573    0.0000 </r>
       <r>    0.7324    0.0000 </r>
       <r>    0.7687    0.0000 </r>
       <r>    0.7729    0.0000 </r>
       <r>    0.7760    0.0000 </r>
       <r>    0.9822    0.0000 </r>
       <r>    0.9888    0.0000 </r>
       <r>    1.1595    0.0000 </r>
       <r>    1.3916    0.0000 </r>
       <r>    1.6085    0.0000 </r>
       <r>    1.6103    0.0000 </r>
       <r>    1.6789    0.0000 </r>
       <r>    1.7055    0.0000 </r>
       <r>    1.8450    0.0000 </r>
       <r>    1.8784    0.0000 </r>
      </set>
      <set comment="kpoint 30">
       <r>   -9.4100    1.0000 </r>
       <r>   -3.5732    0.1673 </r>
       <r>   -3.5731    0.1667 </r>
       <r>   -3.5731    0.1666 </r>
       <r>   -0.0809    0.0000 </r>
       <r>    0.2255    0.0000 </r>
       <r>    0.2723    0.0000 </r>
       <r>    0.4464    0.0000 </r>
       <r>    0.5159    0.0000 </r>
       <r>    0.5959    0.0000 </r>
       <r>    0.7086    0.0000 </r>
       <r>    0.7099    0.0000 </r>
       <r>    0.7722    0.0000 </r>
       <r>    0.8154    0.0000 </r>
       <r>    0.9164    0.0000 </r>
       <r>    0.9342    0.0000 </r>
       <r>    1.3265    0.0000 </r>
       <r>    1.4974    0.0000 </r>
       <r>    1.5767    0.0000 </r>
       <r>    1.6353    0.0000 </r>
       <r>    1.7472    0.0000 </r>
       <r>    1.7498    0.0000 </r>
       <r>    1.8704    0.0000 </r>
       <r>    1.8755    0.0000 </r>
      </set>
      <set comment="kpoint 31">
       <r>   -9.4100    1.0000 </r>
       <r>   -3.5732    0.1675 </r>
       <r>   -3.5731    0.1666 </r>
       <r>   -3.5731    0.1665 </r>
       <r>   -0.1178    0.0000 </r>
       <r>    0.1327    0.0000 </r>
       <r>    0.4704    0.0000 </r>
       <r>    0.5021    0.0000 </r>
       <r>    0.5946    0.0000 </r>
       <r>    0.6066    0.0000 </r>
       <r>    0.6207    0.0000 </r>
       <r>    0.7447    0.0000 </r>
       <r>    0.7591    0.0000 </r>
       <r>    0.8858    0.0000 </r>
       <r>    1.0705    0.0000 </r>
       <r>    1.1426    0.0000 </r>
       <r>    1.2090    0.0000 </r>
       <r>    1.2251    0.0000 </r>
       <r>    1.2389    0.0000 </r>
       <r>    1.2791    0.0000 </r>
       <r>    1.3580    0.0000 </r>
       <r>    1.3660    0.0000 </r>
       <r>    1.7088    0.0000 </r>
       <r>    1.8493    0.0000 </r>
      </set>
      <set comment="kpoint 32">
       <r>   -9.4100    1.0000 </r>
       <r>   -3.5732    0.1675 </r>
       <r>   -3.5731    0.1666 </r>
       <r>   -3.5731    0.1666 </r>
       <r>   -0.1087    0.0000 </r>
       <r>    0.1444    0.0000 </r>
       <r>    0.4602    0.0000 </r>
       <r>    0.4806    0.0000 </r>
       <r>    0.5536    0.0000 </r>
       <r>    0.5884    0.0000 </r>
       <r>    0.6328    0.0000 </r>
       <r>    0.6754    0.0000 </r>
       <r>    0.8678    0.0000 </r>
       <r>    0.9694    0.0000 </r>
       <r>    1.0176    0.0000 </r>
       <r>    1.0336    0.0000 </r>
       <r>    1.1145    0.0000 </r>
       <r>    1.1146    0.0000 </r>
       <r>    1.3457    0.0000 </r>
       <r>    1.4179    0.0000 </r>
       <r>    1.4975    0.0000 </r>
       <r>    1.5059    0.0000 </r>
       <r>    1.7167    0.0000 </r>
       <r>    1.8496    0.0000 </r>
      </set>
      <set comment="kpoint 33">
       <r>   -9.4100    1.0000 </r>
       <r>   -3.5732    0.1675 </r>
       <r>   -3.5731    0.1666 </r>
       <r>   -3.5731    0.1666 </r>
       <r>   -0.0923    0.0000 </r>
       <r>    0.1670    0.0000 </r>
       <r>    0.3803    0.0000 </r>
       <r>    0.4998    0.0000 </r>
       <r>    0.5138    0.0000 </r>
       <r>    0.5715    0.0000 </r>
       <r>    0.6564    0.0000 </r>
       <r>    0.6749    0.0000 </r>
       <r>    0.8773    0.0000 </r>
       <r>    0.9033    0.0000 </r>
       <r>    0.9968    0.0000 </r>
       <r>    1.0133    0.0000 </r>
       <r>    1.0476    0.0000 </r>
       <r>    1.1782    0.0000 </r>
       <r>    1.4882    0.0000 </r>
       <r>    1.5671    0.0000 </r>
       <r>    1.6459    0.0000 </r>
       <r>    1.6578    0.0000 </r>
       <r>    1.7344    0.0000 </r>
       <r>    1.8243    0.0000 </r>
      </set>
      <set comment="kpoint 34">
       <r>   -9.4100    1.0000 </r>
       <r>   -3.5732    0.1675 </r>
       <r>   -3.5731    0.1666 </r>
       <r>   -3.5731    0.1666 </r>
       <r>   -0.0728    0.0000 </r>
       <r>    0.1982    0.0000 </r>
       <r>    0.3126    0.0000 </r>
       <r>    0.4375    0.0000 </r>
       <r>    0.5247    0.0000 </r>
       <r>    0.6054    0.0000 </r>
       <r>    0.6894    0.0000 </r>
       <r>    0.7066    0.0000 </r>
       <r>    0.8031    0.0000 </r>
       <r>    0.8233    0.0000 </r>
       <r>    0.9140    0.0000 </r>
       <r>    0.9283    0.0000 </r>
       <r>    1.1938    0.0000 </r>
       <r>    1.3416    0.0000 </r>
       <r>    1.6372    0.0000 </r>
       <r>    1.6928    0.0000 </r>
       <r>    1.7058    0.0000 </r>
       <r>    1.7678    0.0000 </r>
       <r>    1.8125    0.0000 </r>
       <r>    1.8223    0.0000 </r>
      </set>
      <set comment="kpoint 35">
       <r>   -9.4100    1.0000 </r>
       <r>   -3.5732    0.1675 </r>
       <r>   -3.5731    0.1667 </r>
       <r>   -3.5731    0.1666 </r>
       <r>   -0.0585    0.0000 </r>
       <r>    0.2286    0.0000 </r>
       <r>    0.2724    0.0000 </r>
       <r>    0.3842    0.0000 </r>
       <r>    0.5455    0.0000 </r>
       <r>    0.6448    0.0000 </r>
       <r>    0.7225    0.0000 </r>
       <r>    0.7467    0.0000 </r>
       <r>    0.7568    0.0000 </r>
       <r>    0.7584    0.0000 </r>
       <r>    0.8469    0.0000 </r>
       <r>    0.8699    0.0000 </r>
       <r>    1.3579    0.0000 </r>
       <r>    1.5101    0.0000 </r>
       <r>    1.5491    0.0000 </r>
       <r>    1.7130    0.0000 </r>
       <r>    1.7277    0.0000 </r>
       <r>    1.7731    0.0000 </r>
       <r>    1.9155    0.0000 </r>
       <r>    1.9222    0.0000 </r>
      </set>
      <set comment="kpoint 36">
       <r>   -9.4100    1.0000 </r>
       <r>   -3.5731    0.1667 </r>
       <r>   -3.5731    0.1667 </r>
       <r>   -3.5730    0.1659 </r>
       <r>   -0.2586    0.0000 </r>
       <r>    0.2167    0.0000 </r>
       <r>    0.3869    0.0000 </r>
       <r>    0.4513    0.0000 </r>
       <r>    0.5789    0.0000 </r>
       <r>    0.6883    0.0000 </r>
       <r>    0.8294    0.0000 </r>
       <r>    0.8351    0.0000 </r>
       <r>    0.9625    0.0000 </r>
       <r>    1.0268    0.0000 </r>
       <r>    1.1014    0.0000 </r>
       <r>    1.1604    0.0000 </r>
       <r>    1.2507    0.0000 </r>
       <r>    1.2669    0.0000 </r>
       <r>    1.3089    0.0000 </r>
       <r>    1.4109    0.0000 </r>
       <r>    1.4351    0.0000 </r>
       <r>    1.4936    0.0000 </r>
       <r>    1.5155    0.0000 </r>
       <r>    1.6224    0.0000 </r>
      </set>
      <set comment="kpoint 37">
       <r>   -9.4100    1.0000 </r>
       <r>   -3.5731    0.1667 </r>
       <r>   -3.5731    0.1667 </r>
       <r>   -3.5730    0.1659 </r>
       <r>   -0.2488    0.0000 </r>
       <r>    0.2220    0.0000 </r>
       <r>    0.3181    0.0000 </r>
       <r>    0.4371    0.0000 </r>
       <r>    0.6902    0.0000 </r>
       <r>    0.7039    0.0000 </r>
       <r>    0.7311    0.0000 </r>
       <r>    0.8417    0.0000 </r>
       <r>    0.9169    0.0000 </r>
       <r>    1.0901    0.0000 </r>
       <r>    1.1178    0.0000 </r>
       <r>    1.1896    0.0000 </r>
       <r>    1.2449    0.0000 </r>
       <r>    1.2953    0.0000 </r>
       <r>    1.3323    0.0000 </r>
       <r>    1.3444    0.0000 </r>
       <r>    1.4582    0.0000 </r>
       <r>    1.4963    0.0000 </r>
       <r>    1.5830    0.0000 </r>
       <r>    1.6280    0.0000 </r>
      </set>
      <set comment="kpoint 38">
       <r>   -9.4100    1.0000 </r>
       <r>   -3.5731    0.1667 </r>
       <r>   -3.5731    0.1667 </r>
       <r>   -3.5730    0.1659 </r>
       <r>   -0.2309    0.0000 </r>
       <r>    0.1965    0.0000 </r>
       <r>    0.2778    0.0000 </r>
       <r>    0.4569    0.0000 </r>
       <r>    0.6182    0.0000 </r>
       <r>    0.7159    0.0000 </r>
       <r>    0.8013    0.0000 </r>
       <r>    0.8597    0.0000 </r>
       <r>    0.8768    0.0000 </r>
       <r>    1.0874    0.0000 </r>
       <r>    1.1420    0.0000 </r>
       <r>    1.2305    0.0000 </r>
       <r>    1.2412    0.0000 </r>
       <r>    1.3001    0.0000 </r>
       <r>    1.3430    0.0000 </r>
       <r>    1.4514    0.0000 </r>
       <r>    1.4888    0.0000 </r>
       <r>    1.5113    0.0000 </r>
       <r>    1.5214    0.0000 </r>
       <r>    1.6369    0.0000 </r>
      </set>
      <set comment="kpoint 39">
       <r>   -9.4100    1.0000 </r>
       <r>   -3.5731    0.1668 </r>
       <r>   -3.5731    0.1667 </r>
       <r>   -3.5730    0.1659 </r>
       <r>   -0.2089    0.0000 </r>
       <r>    0.1349    0.0000 </r>
       <r>    0.3002    0.0000 </r>
       <r>    0.4858    0.0000 </r>
       <r>    0.5372    0.0000 </r>
       <r>    0.7263    0.0000 </r>
       <r>    0.7406    0.0000 </r>
       <r>    0.8887    0.0000 </r>
       <r>    1.0029    0.0000 </r>
       <r>    1.0420    0.0000 </r>
       <r>    1.1651    0.0000 </r>
       <r>    1.1716    0.0000 </r>
       <r>    1.2989    0.0000 </r>
       <r>    1.3612    0.0000 </r>
       <r>    1.4022    0.0000 </r>
       <r>    1.4604    0.0000 </r>
       <r>    1.4954    0.0000 </r>
       <r>    1.5328    0.0000 </r>
       <r>    1.5660    0.0000 </r>
       <r>    1.6036    0.0000 </r>
      </set>
      <set comment="kpoint 40">
       <r>   -9.4100    1.0000 </r>
       <r>   -3.5731    0.1668 </r>
       <r>   -3.5731    0.1667 </r>
       <r>   -3.5730    0.1659 </r>
       <r>   -0.1921    0.0000 </r>
       <r>    0.0948    0.0000 </r>
       <r>    0.3305    0.0000 </r>
       <r>    0.4708    0.0000 </r>
       <r>    0.5259    0.0000 </r>
       <r>    0.6694    0.0000 </r>
       <r>    0.7605    0.0000 </r>
       <r>    0.9133    0.0000 </r>
       <r>    0.9732    0.0000 </r>
       <r>    1.1031    0.0000 </r>
       <r>    1.1910    0.0000 </r>
       <r>    1.2160    0.0000 </r>
       <r>    1.3241    0.0000 </r>
       <r>    1.3639    0.0000 </r>
       <r>    1.3999    0.0000 </r>
       <r>    1.4230    0.0000 </r>
       <r>    1.4765    0.0000 </r>
       <r>    1.5366    0.0000 </r>
       <r>    1.5622    0.0000 </r>
       <r>    1.6069    0.0000 </r>
      </set>
      <set comment="kpoint 41">
       <r>   -9.4100    1.0000 </r>
       <r>   -3.5731    0.1667 </r>
       <r>   -3.5731    0.1666 </r>
       <r>   -3.5730    0.1660 </r>
       <r>   -0.2495    0.0000 </r>
       <r>    0.2256    0.0000 </r>
       <r>    0.3943    0.0000 </r>
       <r>    0.4600    0.0000 </r>
       <r>    0.5664    0.0000 </r>
       <r>    0.5956    0.0000 </r>
       <r>    0.8423    0.0000 </r>
       <r>    0.9476    0.0000 </r>
       <r>    0.9709    0.0000 </r>
       <r>    0.9978    0.0000 </r>
       <r>    1.0388    0.0000 </r>
       <r>    1.1597    0.0000 </r>
       <r>    1.1650    0.0000 </r>
       <r>    1.2060    0.0000 </r>
       <r>    1.3310    0.0000 </r>
       <r>    1.3922    0.0000 </r>
       <r>    1.4885    0.0000 </r>
       <r>    1.5659    0.0000 </r>
       <r>    1.5846    0.0000 </r>
       <r>    1.6242    0.0000 </r>
      </set>
      <set comment="kpoint 42">
       <r>   -9.4100    1.0000 </r>
       <r>   -3.5731    0.1667 </r>
       <r>   -3.5731    0.1667 </r>
       <r>   -3.5730    0.1660 </r>
       <r>   -0.2398    0.0000 </r>
       <r>    0.2310    0.0000 </r>
       <r>    0.3269    0.0000 </r>
       <r>    0.4451    0.0000 </r>
       <r>    0.5816    0.0000 </r>
       <r>    0.7073    0.0000 </r>
       <r>    0.7404    0.0000 </r>
       <r>    0.9237    0.0000 </r>
       <r>    0.9620    0.0000 </r>
       <r>    1.0023    0.0000 </r>
       <r>    1.0708    0.0000 </r>
       <r>    1.1226    0.0000 </r>
       <r>    1.1956    0.0000 </r>
       <r>    1.3054    0.0000 </r>
       <r>    1.3991    0.0000 </r>
       <r>    1.4091    0.0000 </r>
       <r>    1.4922    0.0000 </r>
       <r>    1.5099    0.0000 </r>
       <r>    1.5296    0.0000 </r>
       <r>    1.6029    0.0000 </r>
      </set>
      <set comment="kpoint 43">
       <r>   -9.4100    1.0000 </r>
       <r>   -3.5731    0.1667 </r>
       <r>   -3.5731    0.1667 </r>
       <r>   -3.5730    0.1660 </r>
       <r>   -0.2218    0.0000 </r>
       <r>    0.2055    0.0000 </r>
       <r>    0.2869    0.0000 </r>
       <r>    0.4647    0.0000 </r>
       <r>    0.6016    0.0000 </r>
       <r>    0.6277    0.0000 </r>
       <r>    0.8093    0.0000 </r>
       <r>    0.8822    0.0000 </r>
       <r>    0.9619    0.0000 </r>
       <r>    1.0043    0.0000 </r>
       <r>    1.0300    0.0000 </r>
       <r>    1.2143    0.0000 </r>
       <r>    1.2612    0.0000 </r>
       <r>    1.3443    0.0000 </r>
       <r>    1.4083    0.0000 </r>
       <r>    1.4131    0.0000 </r>
       <r>    1.4776    0.0000 </r>
       <r>    1.5308    0.0000 </r>
       <r>    1.5753    0.0000 </r>
       <r>    1.5963    0.0000 </r>
      </set>
      <set comment="kpoint 44">
       <r>   -9.4100    1.0000 </r>
       <r>   -3.5731    0.1668 </r>
       <r>   -3.5731    0.1667 </r>
       <r>   -3.5730    0.1660 </r>
       <r>   -0.1999    0.0000 </r>
       <r>    0.1442    0.0000 </r>
       <r>    0.3092    0.0000 </r>
       <r>    0.4936    0.0000 </r>
       <r>    0.5462    0.0000 </r>
       <r>    0.6282    0.0000 </r>
       <r>    0.7346    0.0000 </r>
       <r>    0.8965    0.0000 </r>
       <r>    1.0166    0.0000 </r>
       <r>    1.0404    0.0000 </r>
       <r>    1.0590    0.0000 </r>
       <r>    1.2391    0.0000 </r>
       <r>    1.2811    0.0000 </r>
       <r>    1.3166    0.0000 </r>
       <r>    1.4125    0.0000 </r>
       <r>    1.4704    0.0000 </r>
       <r>    1.4877    0.0000 </r>
       <r>    1.5509    0.0000 </r>
       <r>    1.5985    0.0000 </r>
       <r>    1.6480    0.0000 </r>
      </set>
      <set comment="kpoint 45">
       <r>   -9.4100    1.0000 </r>
       <r>   -3.5731    0.1668 </r>
       <r>   -3.5731    0.1667 </r>
       <r>   -3.5730    0.1660 </r>
       <r>   -0.1832    0.0000 </r>
       <r>    0.1042    0.0000 </r>
       <r>    0.3394    0.0000 </r>
       <r>    0.4801    0.0000 </r>
       <r>    0.5334    0.0000 </r>
       <r>    0.6502    0.0000 </r>
       <r>    0.6778    0.0000 </r>
       <r>    0.8535    0.0000 </r>
       <r>    1.0361    0.0000 </r>
       <r>    1.0866    0.0000 </r>
       <r>    1.1969    0.0000 </r>
       <r>    1.2202    0.0000 </r>
       <r>    1.2593    0.0000 </r>
       <r>    1.3074    0.0000 </r>
       <r>    1.4112    0.0000 </r>
       <r>    1.4270    0.0000 </r>
       <r>    1.4822    0.0000 </r>
       <r>    1.5788    0.0000 </r>
       <r>    1.5969    0.0000 </r>
       <r>    1.6554    0.0000 </r>
      </set>
      <set comment="kpoint 46">
       <r>   -9.4100    1.0000 </r>
       <r>   -3.5731    0.1667 </r>
       <r>   -3.5731    0.1666 </r>
       <r>   -3.5731    0.1663 </r>
       <r>   -0.2317    0.0000 </r>
       <r>    0.2430    0.0000 </r>
       <r>    0.4010    0.0000 </r>
       <r>    0.4699    0.0000 </r>
       <r>    0.4812    0.0000 </r>
       <r>    0.6093    0.0000 </r>
       <r>    0.8477    0.0000 </r>
       <r>    0.8787    0.0000 </r>
       <r>    0.9917    0.0000 </r>
       <r>    1.0225    0.0000 </r>
       <r>    1.0620    0.0000 </r>
       <r>    1.0926    0.0000 </r>
       <r>    1.1245    0.0000 </r>
       <r>    1.1977    0.0000 </r>
       <r>    1.2324    0.0000 </r>
       <r>    1.4732    0.0000 </r>
       <r>    1.5018    0.0000 </r>
       <r>    1.5477    0.0000 </r>
       <r>    1.6181    0.0000 </r>
       <r>    1.6606    0.0000 </r>
      </set>
      <set comment="kpoint 47">
       <r>   -9.4100    1.0000 </r>
       <r>   -3.5731    0.1667 </r>
       <r>   -3.5731    0.1667 </r>
       <r>   -3.5731    0.1663 </r>
       <r>   -0.2220    0.0000 </r>
       <r>    0.2481    0.0000 </r>
       <r>    0.3438    0.0000 </r>
       <r>    0.4480    0.0000 </r>
[...]
       <r>    1.0304    0.0000 </r>
       <r>    1.0682    0.0000 </r>
       <r>    1.1337    0.0000 </r>
       <r>    1.1558    0.0000 </r>
       <r>    1.2788    0.0000 </r>
       <r>    1.5629    0.0000 </r>
       <r>    1.6794    0.0000 </r>
       <r>    1.7122    0.0000 </r>
       <r>    1.7587    0.0000 </r>
      </set>
      <set comment="kpoint 172">
       <r>   -9.4100    1.0000 </r>
       <r>   -3.5732    0.1675 </r>
       <r>   -3.5731    0.1666 </r>
       <r>   -3.5731    0.1666 </r>
       <r>   -0.0854    0.0000 </r>
       <r>    0.1967    0.0000 </r>
       <r>    0.2644    0.0000 </r>
       <r>    0.3627    0.0000 </r>
       <r>    0.5229    0.0000 </r>
       <r>    0.6844    0.0000 </r>
       <r>    0.7299    0.0000 </r>
       <r>    0.8286    0.0000 </r>
       <r>    0.9132    0.0000 </r>
       <r>    0.9833    0.0000 </r>
       <r>    1.0529    0.0000 </r>
       <r>    1.1059    0.0000 </r>
       <r>    1.1285    0.0000 </r>
       <r>    1.1861    0.0000 </r>
       <r>    1.2290    0.0000 </r>
       <r>    1.3015    0.0000 </r>
       <r>    1.4693    0.0000 </r>
       <r>    1.5984    0.0000 </r>
       <r>    1.6255    0.0000 </r>
       <r>    1.7446    0.0000 </r>
      </set>
      <set comment="kpoint 173">
       <r>   -9.4100    1.0000 </r>
       <r>   -3.5732    0.1675 </r>
       <r>   -3.5731    0.1666 </r>
       <r>   -3.5731    0.1666 </r>
       <r>   -0.0700    0.0000 </r>
       <r>    0.2178    0.0000 </r>
       <r>    0.2882    0.0000 </r>
       <r>    0.3882    0.0000 </r>
       <r>    0.4336    0.0000 </r>
       <r>    0.5881    0.0000 </r>
       <r>    0.6314    0.0000 </r>
       <r>    0.7255    0.0000 </r>
       <r>    1.0095    0.0000 </r>
       <r>    1.0568    0.0000 </r>
       <r>    1.1334    0.0000 </r>
       <r>    1.1544    0.0000 </r>
       <r>    1.2193    0.0000 </r>
       <r>    1.2929    0.0000 </r>
       <r>    1.3068    0.0000 </r>
       <r>    1.3822    0.0000 </r>
       <r>    1.4134    0.0000 </r>
       <r>    1.5008    0.0000 </r>
       <r>    1.5396    0.0000 </r>
       <r>    1.6505    0.0000 </r>
      </set>
      <set comment="kpoint 174">
       <r>   -9.4100    1.0000 </r>
       <r>   -3.5732    0.1675 </r>
       <r>   -3.5731    0.1666 </r>
       <r>   -3.5731    0.1666 </r>
       <r>   -0.0520    0.0000 </r>
       <r>    0.2460    0.0000 </r>
       <r>    0.3216    0.0000 </r>
       <r>    0.3653    0.0000 </r>
       <r>    0.4253    0.0000 </r>
       <r>    0.5099    0.0000 </r>
       <r>    0.5473    0.0000 </r>
       <r>    0.6358    0.0000 </r>
       <r>    1.0406    0.0000 </r>
       <r>    1.1704    0.0000 </r>
       <r>    1.1787    0.0000 </r>
       <r>    1.2137    0.0000 </r>
       <r>    1.2942    0.0000 </r>
       <r>    1.3147    0.0000 </r>
       <r>    1.3934    0.0000 </r>
       <r>    1.4193    0.0000 </r>
       <r>    1.4482    0.0000 </r>
       <r>    1.5012    0.0000 </r>
       <r>    1.5642    0.0000 </r>
       <r>    1.5809    0.0000 </r>
      </set>
      <set comment="kpoint 175">
       <r>   -9.4100    1.0000 </r>
       <r>   -3.5732    0.1675 </r>
       <r>   -3.5731    0.1667 </r>
       <r>   -3.5731    0.1666 </r>
       <r>   -0.0390    0.0000 </r>
       <r>    0.2712    0.0000 </r>
       <r>    0.3248    0.0000 </r>
       <r>    0.3580    0.0000 </r>
       <r>    0.4542    0.0000 </r>
       <r>    0.4737    0.0000 </r>
       <r>    0.4886    0.0000 </r>
       <r>    0.5653    0.0000 </r>
       <r>    1.0679    0.0000 </r>
       <r>    1.2039    0.0000 </r>
       <r>    1.2113    0.0000 </r>
       <r>    1.2273    0.0000 </r>
       <r>    1.3380    0.0000 </r>
       <r>    1.3592    0.0000 </r>
       <r>    1.3718    0.0000 </r>
       <r>    1.4383    0.0000 </r>
       <r>    1.4917    0.0000 </r>
       <r>    1.5741    0.0000 </r>
       <r>    1.6024    0.0000 </r>
       <r>    1.6626    0.0000 </r>
      </set>
     </set>
    </set>
   </array>
  </eigenvalues>
  <separator name="orbital magnetization" >
   <v name="MAGDIPOLOUT">      0.00000000      0.00000000      0.00000000</v>
  </separator>
  <dos>
   <i name="efermi">     -3.60732023 </i>
   <total>
    <array>
     <dimension dim="1">gridpoints</dimension>
     <dimension dim="2">spin</dimension>
     <field>energy</field>
     <field>total</field>
     <field>integrated</field>
     <set>
      <set comment="spin 1">
       <r>    -9.9766     0.0000     0.0000 </r>
       <r>    -9.9351     0.0000     0.0000 </r>
       <r>    -9.8935     0.0000     0.0000 </r>
       <r>    -9.8520     0.0000     0.0000 </r>
       <r>    -9.8104     0.0000     0.0000 </r>
       <r>    -9.7689     0.0000     0.0000 </r>
       <r>    -9.7273     0.0000     0.0000 </r>
       <r>    -9.6858     0.0000     0.0000 </r>
       <r>    -9.6442     0.0000     0.0000 </r>
       <r>    -9.6027     0.0000     0.0000 </r>
       <r>    -9.5611     0.0005     0.0000 </r>
       <r>    -9.5196     0.0464     0.0019 </r>
       <r>    -9.4780     1.2639     0.0545 </r>
       <r>    -9.4365     9.6281     0.4545 </r>
       <r>    -9.3949    21.0909     1.3309 </r>
       <r>    -9.3534    13.4798     1.8910 </r>
       <r>    -9.3118     2.4921     1.9945 </r>
       <r>    -9.2703     0.1298     1.9999 </r>
       <r>    -9.2287     0.0018     2.0000 </r>
       <r>    -9.1872     0.0000     2.0000 </r>
       <r>    -9.1456     0.0000     2.0000 </r>
       <r>    -9.1041     0.0000     2.0000 </r>
       <r>    -9.0625     0.0000     2.0000 </r>
       <r>    -9.0210     0.0000     2.0000 </r>
       <r>    -8.9794     0.0000     2.0000 </r>
       <r>    -8.9379     0.0000     2.0000 </r>
       <r>    -8.8963     0.0000     2.0000 </r>
       <r>    -8.8547     0.0000     2.0000 </r>
       <r>    -8.8132     0.0000     2.0000 </r>
       <r>    -8.7716     0.0000     2.0000 </r>
       <r>    -8.7301     0.0000     2.0000 </r>
       <r>    -8.6885     0.0000     2.0000 </r>
       <r>    -8.6470     0.0000     2.0000 </r>
       <r>    -8.6054     0.0000     2.0000 </r>
       <r>    -8.5639     0.0000     2.0000 </r>
       <r>    -8.5223     0.0000     2.0000 </r>
       <r>    -8.4808     0.0000     2.0000 </r>
       <r>    -8.4392     0.0000     2.0000 </r>
       <r>    -8.3977     0.0000     2.0000 </r>
       <r>    -8.3561     0.0000     2.0000 </r>
       <r>    -8.3146     0.0000     2.0000 </r>
       <r>    -8.2730     0.0000     2.0000 </r>
       <r>    -8.2315     0.0000     2.0000 </r>
       <r>    -8.1899     0.0000     2.0000 </r>
       <r>    -8.1484     0.0000     2.0000 </r>
       <r>    -8.1068     0.0000     2.0000 </r>
       <r>    -8.0653     0.0000     2.0000 </r>
       <r>    -8.0237     0.0000     2.0000 </r>
       <r>    -7.9822     0.0000     2.0000 </r>
       <r>    -7.9406     0.0000     2.0000 </r>
       <r>    -7.8991     0.0000     2.0000 </r>
       <r>    -7.8575     0.0000     2.0000 </r>
       <r>    -7.8160     0.0000     2.0000 </r>
       <r>    -7.7744     0.0000     2.0000 </r>
       <r>    -7.7329     0.0000     2.0000 </r>
       <r>    -7.6913     0.0000     2.0000 </r>
       <r>    -7.6498     0.0000     2.0000 </r>
       <r>    -7.6082     0.0000     2.0000 </r>
       <r>    -7.5667     0.0000     2.0000 </r>
       <r>    -7.5251     0.0000     2.0000 </r>
       <r>    -7.4836     0.0000     2.0000 </r>
       <r>    -7.4420     0.0000     2.0000 </r>
       <r>    -7.4005     0.0000     2.0000 </r>
       <r>    -7.3589     0.0000     2.0000 </r>
       <r>    -7.3173     0.0000     2.0000 </r>
       <r>    -7.2758     0.0000     2.0000 </r>
       <r>    -7.2342     0.0000     2.0000 </r>
       <r>    -7.1927     0.0000     2.0000 </r>
       <r>    -7.1511     0.0000     2.0000 </r>
       <r>    -7.1096     0.0000     2.0000 </r>
       <r>    -7.0680     0.0000     2.0000 </r>
       <r>    -7.0265     0.0000     2.0000 </r>
       <r>    -6.9849     0.0000     2.0000 </r>
       <r>    -6.9434     0.0000     2.0000 </r>
       <r>    -6.9018     0.0000     2.0000 </r>
       <r>    -6.8603     0.0000     2.0000 </r>
       <r>    -6.8187     0.0000     2.0000 </r>
       <r>    -6.7772     0.0000     2.0000 </r>
       <r>    -6.7356     0.0000     2.0000 </r>
       <r>    -6.6941     0.0000     2.0000 </r>
       <r>    -6.6525     0.0000     2.0000 </r>
       <r>    -6.6110     0.0000     2.0000 </r>
       <r>    -6.5694     0.0000     2.0000 </r>
       <r>    -6.5279     0.0000     2.0000 </r>
       <r>    -6.4863     0.0000     2.0000 </r>
       <r>    -6.4448     0.0000     2.0000 </r>
       <r>    -6.4032     0.0000     2.0000 </r>
       <r>    -6.3617     0.0000     2.0000 </r>
       <r>    -6.3201     0.0000     2.0000 </r>
       <r>    -6.2786     0.0000     2.0000 </r>
       <r>    -6.2370     0.0000     2.0000 </r>
       <r>    -6.1955     0.0000     2.0000 </r>
       <r>    -6.1539     0.0000     2.0000 </r>
       <r>    -6.1124     0.0000     2.0000 </r>
       <r>    -6.0708     0.0000     2.0000 </r>
       <r>    -6.0293     0.0000     2.0000 </r>
       <r>    -5.9877     0.0000     2.0000 </r>
       <r>    -5.9462     0.0000     2.0000 </r>
       <r>    -5.9046     0.0000     2.0000 </r>
       <r>    -5.8631     0.0000     2.0000 </r>
       <r>    -5.8215     0.0000     2.0000 </r>
       <r>    -5.7799     0.0000     2.0000 </r>
       <r>    -5.7384     0.0000     2.0000 </r>
       <r>    -5.6968     0.0000     2.0000 </r>
       <r>    -5.6553     0.0000     2.0000 </r>
       <r>    -5.6137     0.0000     2.0000 </r>
       <r>    -5.5722     0.0000     2.0000 </r>
       <r>    -5.5306     0.0000     2.0000 </r>
       <r>    -5.4891     0.0000     2.0000 </r>
       <r>    -5.4475     0.0000     2.0000 </r>
       <r>    -5.4060     0.0000     2.0000 </r>
       <r>    -5.3644     0.0000     2.0000 </r>
       <r>    -5.3229     0.0000     2.0000 </r>
       <r>    -5.2813     0.0000     2.0000 </r>
       <r>    -5.2398     0.0000     2.0000 </r>
       <r>    -5.1982     0.0000     2.0000 </r>
       <r>    -5.1567     0.0000     2.0000 </r>
       <r>    -5.1151     0.0000     2.0000 </r>
       <r>    -5.0736     0.0000     2.0000 </r>
       <r>    -5.0320     0.0000     2.0000 </r>
       <r>    -4.9905     0.0000     2.0000 </r>
       <r>    -4.9489     0.0000     2.0000 </r>
       <r>    -4.9074     0.0000     2.0000 </r>
       <r>    -4.8658     0.0000     2.0000 </r>
       <r>    -4.8243     0.0000     2.0000 </r>
       <r>    -4.7827     0.0000     2.0000 </r>
       <r>    -4.7412     0.0000     2.0000 </r>
       <r>    -4.6996     0.0000     2.0000 </r>
       <r>    -4.6581     0.0000     2.0000 </r>
       <r>    -4.6165     0.0000     2.0000 </r>
       <r>    -4.5750     0.0000     2.0000 </r>
       <r>    -4.5334     0.0000     2.0000 </r>
       <r>    -4.4919     0.0000     2.0000 </r>
       <r>    -4.4503     0.0000     2.0000 </r>
       <r>    -4.4088     0.0000     2.0000 </r>
       <r>    -4.3672     0.0000     2.0000 </r>
       <r>    -4.3257     0.0000     2.0000 </r>
       <r>    -4.2841     0.0000     2.0000 </r>
       <r>    -4.2425     0.0000     2.0000 </r>
       <r>    -4.2010     0.0000     2.0000 </r>
       <r>    -4.1594     0.0000     2.0000 </r>
       <r>    -4.1179     0.0000     2.0000 </r>
       <r>    -4.0763     0.0000     2.0000 </r>
       <r>    -4.0348     0.0000     2.0000 </r>
       <r>    -3.9932     0.0000     2.0000 </r>
       <r>    -3.9517     0.0000     2.0000 </r>
       <r>    -3.9101     0.0000     2.0000 </r>
       <r>    -3.8686     0.0000     2.0000 </r>
       <r>    -3.8270     0.0000     2.0000 </r>
       <r>    -3.7855     0.0000     2.0000 </r>
       <r>    -3.7439     0.0001     2.0000 </r>
       <r>    -3.7024     0.0184     2.0008 </r>
       <r>    -3.6608     0.9276     2.0393 </r>
       <r>    -3.6193    12.8917     2.5750 </r>
       <r>    -3.5777    50.8691     4.6887 </r>
       <r>    -3.5362    58.3136     7.1117 </r>
       <r>    -3.4946    19.4720     7.9208 </r>
       <r>    -3.4531     1.8576     7.9979 </r>
       <r>    -3.4115     0.0491     8.0000 </r>
       <r>    -3.3700     0.0004     8.0000 </r>
       <r>    -3.3284     0.0000     8.0000 </r>
       <r>    -3.2869     0.0000     8.0000 </r>
       <r>    -3.2453     0.0000     8.0000 </r>
       <r>    -3.2038     0.0000     8.0000 </r>
       <r>    -3.1622     0.0000     8.0000 </r>
       <r>    -3.1207     0.0000     8.0000 </r>
       <r>    -3.0791     0.0000     8.0000 </r>
       <r>    -3.0376     0.0000     8.0000 </r>
       <r>    -2.9960     0.0000     8.0000 </r>
       <r>    -2.9545     0.0000     8.0000 </r>
       <r>    -2.9129     0.0000     8.0000 </r>
       <r>    -2.8714     0.0000     8.0000 </r>
       <r>    -2.8298     0.0000     8.0000 </r>
       <r>    -2.7883     0.0000     8.0000 </r>
       <r>    -2.7467     0.0000     8.0000 </r>
       <r>    -2.7052     0.0000     8.0000 </r>
       <r>    -2.6636     0.0000     8.0000 </r>
       <r>    -2.6220     0.0000     8.0000 </r>
       <r>    -2.5805     0.0000     8.0000 </r>
       <r>    -2.5389     0.0000     8.0000 </r>
       <r>    -2.4974     0.0000     8.0000 </r>
       <r>    -2.4558     0.0000     8.0000 </r>
       <r>    -2.4143     0.0000     8.0000 </r>
       <r>    -2.3727     0.0000     8.0000 </r>
       <r>    -2.3312     0.0000     8.0000 </r>
       <r>    -2.2896     0.0000     8.0000 </r>
       <r>    -2.2481     0.0000     8.0000 </r>
       <r>    -2.2065     0.0000     8.0000 </r>
       <r>    -2.1650     0.0000     8.0000 </r>
       <r>    -2.1234     0.0000     8.0000 </r>
       <r>    -2.0819     0.0000     8.0000 </r>
       <r>    -2.0403     0.0000     8.0000 </r>
       <r>    -1.9988     0.0000     8.0000 </r>
       <r>    -1.9572     0.0000     8.0000 </r>
       <r>    -1.9157     0.0000     8.0000 </r>
       <r>    -1.8741     0.0000     8.0000 </r>
       <r>    -1.8326     0.0000     8.0000 </r>
       <r>    -1.7910     0.0000     8.0000 </r>
       <r>    -1.7495     0.0000     8.0000 </r>
       <r>    -1.7079     0.0000     8.0000 </r>
       <r>    -1.6664     0.0000     8.0000 </r>
       <r>    -1.6248     0.0000     8.0000 </r>
       <r>    -1.5833     0.0000     8.0000 </r>
       <r>    -1.5417     0.0000     8.0000 </r>
       <r>    -1.5002     0.0000     8.0000 </r>
       <r>    -1.4586     0.0000     8.0000 </r>
       <r>    -1.4171     0.0000     8.0000 </r>
       <r>    -1.3755     0.0000     8.0000 </r>
       <r>    -1.3340     0.0000     8.0000 </r>
       <r>    -1.2924     0.0000     8.0000 </r>
       <r>    -1.2509     0.0000     8.0000 </r>
       <r>    -1.2093     0.0000     8.0000 </r>
       <r>    -1.1678     0.0000     8.0000 </r>
       <r>    -1.1262     0.0000     8.0000 </r>
       <r>    -1.0846     0.0000     8.0000 </r>
       <r>    -1.0431     0.0000     8.0000 </r>
       <r>    -1.0015     0.0000     8.0000 </r>
       <r>    -0.9600     0.0000     8.0000 </r>
       <r>    -0.9184     0.0000     8.0000 </r>
       <r>    -0.8769     0.0000     8.0000 </r>
       <r>    -0.8353     0.0000     8.0000 </r>
       <r>    -0.7938     0.0000     8.0000 </r>
       <r>    -0.7522     0.0000     8.0000 </r>
       <r>    -0.7107     0.0000     8.0000 </r>
       <r>    -0.6691     0.0000     8.0000 </r>
       <r>    -0.6276     0.0000     8.0000 </r>
       <r>    -0.5860     0.0000     8.0000 </r>
       <r>    -0.5445     0.0000     8.0000 </r>
       <r>    -0.5029     0.0000     8.0000 </r>
       <r>    -0.4614     0.0000     8.0000 </r>
       <r>    -0.4198     0.0000     8.0000 </r>
       <r>    -0.3783     0.0005     8.0000 </r>
       <r>    -0.3367     0.0253     8.0011 </r>
       <r>    -0.2952     0.4293     8.0189 </r>
       <r>    -0.2536     2.6797     8.1303 </r>
       <r>    -0.2121     7.2736     8.4325 </r>
       <r>    -0.1705    10.6158     8.8736 </r>
       <r>    -0.1290    10.5707     9.3128 </r>
       <r>    -0.0874     8.7520     9.6765 </r>
       <r>    -0.0459     5.4847     9.9044 </r>
       <r>    -0.0043     1.9903     9.9871 </r>
       <r>     0.0372     0.6467    10.0139 </r>
       <r>     0.0788     1.8615    10.0913 </r>
       <r>     0.1203     5.3505    10.3136 </r>
       <r>     0.1619     9.9838    10.7284 </r>
       <r>     0.2034    13.7815    11.3011 </r>
       <r>     0.2450    15.5969    11.9492 </r>
       <r>     0.2865    15.8260    12.6068 </r>
       <r>     0.3281    15.9362    13.2689 </r>
       <r>     0.3696    16.2247    13.9431 </r>
       <r>     0.4112    16.5126    14.6292 </r>
       <r>     0.4528    17.5113    15.3568 </r>
       <r>     0.4943    18.5017    16.1256 </r>
       <r>     0.5359    18.5294    16.8955 </r>
       <r>     0.5774    18.9639    17.6835 </r>
       <r>     0.6190    19.8924    18.5100 </r>
       <r>     0.6605    20.3851    19.3571 </r>
       <r>     0.7021    20.9915    20.2293 </r>
       <r>     0.7436    22.3863    21.1595 </r>
       <r>     0.7852    22.5155    22.0950 </r>
       <r>     0.8267    21.9010    23.0050 </r>
       <r>     0.8683    23.2818    23.9724 </r>
       <r>     0.9098    24.5704    24.9934 </r>
       <r>     0.9514    24.3017    26.0031 </r>
       <r>     0.9929    24.8542    27.0359 </r>
       <r>     1.0345    25.9395    28.1137 </r>
       <r>     1.0760    26.0723    29.1970 </r>
       <r>     1.1176    26.1212    30.2824 </r>
       <r>     1.1591    26.8445    31.3978 </r>
       <r>     1.2007    27.7617    32.5514 </r>
       <r>     1.2422    27.4204    33.6907 </r>
       <r>     1.2838    27.5278    34.8345 </r>
       <r>     1.3253    28.6069    36.0232 </r>
       <r>     1.3669    28.7036    37.2159 </r>
       <r>     1.4084    28.3850    38.3953 </r>
       <r>     1.4500    29.3581    39.6152 </r>
       <r>     1.4915    30.9489    40.9011 </r>
       <r>     1.5331    30.1454    42.1537 </r>
       <r>     1.5746    29.6331    43.3850 </r>
       <r>     1.6162    30.1591    44.6382 </r>
       <r>     1.6577    27.8644    45.7960 </r>
       <r>     1.6993    21.4144    46.6858 </r>
       <r>     1.7408    14.2119    47.2763 </r>
       <r>     1.7824     8.4306    47.6266 </r>
       <r>     1.8239     4.8516    47.8282 </r>
       <r>     1.8655     2.6014    47.9363 </r>
       <r>     1.9070     1.1031    47.9821 </r>
       <r>     1.9486     0.3499    47.9966 </r>
       <r>     1.9902     0.0737    47.9997 </r>
       <r>     2.0317     0.0071    48.0000 </r>
       <r>     2.0733     0.0002    48.0000 </r>
       <r>     2.1148     0.0000    48.0000 </r>
       <r>     2.1564     0.0000    48.0000 </r>
       <r>     2.1979     0.0000    48.0000 </r>
       <r>     2.2395     0.0000    48.0000 </r>
       <r>     2.2810     0.0000    48.0000 </r>
       <r>     2.3226     0.0000    48.0000 </r>
       <r>     2.3641     0.0000    48.0000 </r>
       <r>     2.4057     0.0000    48.0000 </r>
       <r>     2.4472     0.0000    48.0000 </r>
       <r>     2.4888     0.0000    48.0000 </r>
      </set>
     </set>
    </array>
   </total>
  </dos>
 </calculation>
 <structure name="finalpos" >
  <crystal>
   <varray name="basis" >
    <v>      15.01800000       0.00000000       0.00000000 </v>
    <v>       0.00000000      12.51500000       0.00000000 </v>
    <v>       0.00000000       0.00000000      18.02160000 </v>
   </varray>
   <i name="volume">   3387.16458583 </i>
   <varray name="rec_basis" >
    <v>       0.06658676       0.00000000       0.00000000 </v>
    <v>       0.00000000       0.07990412       0.00000000 </v>
    <v>       0.00000000       0.00000000       0.05548897 </v>
   </varray>
  </crystal>
  <varray name="positions" >
   <v>       0.52123000       0.54500000       0.63796000 </v>
  </varray>
 </structure>
</modeling>
