       N       E                     dE             d eps       ncg     rms          rms(c)
DAV:   1     0.494477255594E+02    0.49448E+02   -0.17220E+04120960   0.700E+02
