       N       E                     dE             d eps       ncg     rms          rms(c)
DAV:   1     0.494477255594E+02    0.49448E+02   -0.17220E+04120960   0.700E+02
DAV:   2    -0.930847130123E+02   -0.14253E+03   -0.13425E+03169584   0.147E+02
DAV:   3    -0.975873041044E+02   -0.45026E+01   -0.44812E+01175344   0.234E+01
DAV:   4    -0.976133991903E+02   -0.26095E-01   -0.26094E-01151440   0.203E+00
DAV:   5    -0.976136997335E+02   -0.30054E-03   -0.30054E-03174360   0.211E-01    0.123E+01
DAV:   6    -0.922004011888E+02    0.54133E+01   -0.39485E+00175008   0.657E+00    0.677E+00
DAV:   7    -0.905500211246E+02    0.16504E+01   -0.32031E+00180480   0.584E+00    0.171E+00
DAV:   8    -0.905609301278E+02   -0.10909E-01   -0.22752E-01133056   0.162E+00    0.752E-01
DAV:   9    -0.905756118737E+02   -0.14682E-01   -0.17523E-02170640   0.454E-01    0.206E-01
