 vasp.6.4.3 19Mar24 (build May 31 2024 16:31:43) complex                        
  
 executed on             LinuxIFC date 2024.11.03  02:06:43
 running   24 mpi-ranks, with    1 threads/rank, on    1 nodes
 distrk:  each k-point on   24 cores,    1 groups
 distr:  one band on NCORE=   1 cores,   24 groups


--------------------------------------------------------------------------------------------------------


 INCAR:
   SYSTEM = Convergence
   ISTART = 0
   ICHARG = 2
   PREC = Accurate
   ENCUT = 920
   LCHARG = .FALSE.
   LWAVE = .FALSE.
   ALGO = Normal
   NELM = 100
   EDIFF = 1E-6
   EDIFFG = -1E-3
   SIGMA = 0.05
   ISMEAR = 0
   ISPIN = 1
   NSW = 0
   IBRION = -1
   POTIM = .5
   ISIF = 2
   GGA = PE

 POTCAR:    PAW_PBE B 06Sep2000                   
 POTCAR:    PAW_PBE B 06Sep2000                   
   SHA256 =  a32ced30f5ae56fd4d10b4325ff17eb3e4e38ee0f4288bc219fb012fddfa6e97 B/POTCAR              
   COPYR  = (c) Copyright 06Sep2000 Georg Kresse                                                    
   COPYR  = This file is part of the software VASP. Any use, copying, and all other rights are regul
   COPYR  = If you do not have a valid VASP license, you may not use, copy or distribute this file. 
   VRHFIN =B: s2p1                                                                                  
   LEXCH  = PE                                                                                      
   EATOM  =    71.1703 eV,    5.2309 Ry                                                             
                                                                                                    
   TITEL  = PAW_PBE B 06Sep2000                                                                     
   LULTRA =        F    use ultrasoft PP ?                                                          
   IUNSCR =        1    unscreen: 0-lin 1-nonlin 2-no                                               
   RPACOR =    1.200    partial core radius                                                         
   POMASS =   10.811; ZVAL   =    3.000    mass and valenz                                          
   RCORE  =    1.700    outmost cutoff radius                                                       
   RWIGS  =    1.710; RWIGS  =    0.905    wigner-seitz radius (au A)                               
   ENMAX  =  318.614; ENMIN  =  238.960 eV                                                          
   ICORE  =        2    local potential                                                             
   LCOR   =        T    correct aug charges                                                         
   LPAW   =        T    paw PP                                                                      
   EAUG   =  535.514                                                                                
   DEXC   =    0.000                                                                                
   RMAX   =    1.732    core radius for proj-oper                                                   
   RAUG   =    1.300    factor for augmentation sphere                                              
   RDEP   =    1.757    radius for radial grids                                                     
   RDEPT  =    1.436    core radius for aug-charge                                                  
                                                                                                    
   Atomic configuration                                                                             
    4 entries                                                                                       
     n  l   j            E        occ.                                                              
     1  0  0.50      -180.5896   2.0000                                                             
     2  0  0.50        -9.4431   2.0000                                                             
     2  1  0.50        -3.6068   1.0000                                                             
     3  2  1.50        -4.0817   0.0000                                                             
   Description                                                                                      
     l       E           TYP  RCUT    TYP  RCUT                                                     
     0     -9.4430752     23  1.500                                                                 
     0      0.8675899     23  1.500                                                                 
     1     -3.6067955     23  1.700                                                                 
     1      6.1086146     23  1.700                                                                 
     2     -4.0817478      7  1.700                                                                 
  local pseudopotential read in
  partial core-charges read in
  partial kinetic energy density read in
  atomic valenz-charges read in
  non local Contribution for L=           0  read in
    real space projection operators read in
  non local Contribution for L=           0  read in
    real space projection operators read in
  non local Contribution for L=           1  read in
    real space projection operators read in
  non local Contribution for L=           1  read in
    real space projection operators read in
    PAW grid and wavefunctions read in
 
   number of l-projection  operators is LMAX  =           4
   number of lm-projection operators is LMMAX =           8
 
  PAW_PBE B 06Sep2000                   :
 energy of atom  1       EATOM=  -71.1703
 kinetic energy error for atom=    0.0002 (will be added to EATOM!!)
 
 
 POSCAR: B1
  positions in direct lattice
  No initial velocities read in


 exchange-correlation table for PE
   RHO(1)=    0.500       N(1)  =     2000
   RHO(2)=  100.500       N(2)  =     4000
 


--------------------------------------------------------------------------------------------------------


 ion  position               nearest neighbor table
   1  0.521  0.545  0.638-
 
  LATTYP: Found a simple orthorhombic cell.
 ALAT       =    12.5000000000
 B/A-ratio  =     1.2000000000
 C/A-ratio  =     1.4400000000
  
  Lattice vectors:
  
 A1 = (   0.0000000000, -12.5000000000,   0.0000000000)
 A2 = (  15.0000000000,   0.0000000000,   0.0000000000)
 A3 = (   0.0000000000,   0.0000000000,  18.0000000000)


Analysis of symmetry for initial positions (statically):
=====================================================================
 Subroutine PRICEL returns:
 Original cell was already a primitive cell.
 

 Routine SETGRP: Setting up the symmetry group for a 
 simple orthorhombic supercell.


 Subroutine GETGRP returns: Found  8 space group operations
 (whereof  1 operations were pure point group operations)
 out of a pool of  8 trial point group operations.


The static configuration has the point symmetry C_1 .
 The point group associated with its full space group is D_2h.


Analysis of symmetry for dynamics (positions and initial velocities):
=====================================================================
 Subroutine PRICEL returns:
 Original cell was already a primitive cell.
 

 Routine SETGRP: Setting up the symmetry group for a 
 simple orthorhombic supercell.


 Subroutine GETGRP returns: Found  8 space group operations
 (whereof  1 operations were pure point group operations)
 out of a pool of  8 trial point group operations.


The dynamic configuration has the point symmetry C_1 .
 The point group associated with its full space group is D_2h.


 Subroutine INISYM returns: Found  8 space group operations
 (whereof  1 operations are pure point group operations),
 and found     1 'primitive' translations


----------------------------------------------------------------------------------------

                                     Primitive cell                                     

  volume of cell :    3375.0000

  direct lattice vectors                    reciprocal lattice vectors
    15.000000000  0.000000000  0.000000000     0.066666667  0.000000000  0.000000000
     0.000000000 12.500000000  0.000000000     0.000000000  0.080000000  0.000000000
     0.000000000  0.000000000 18.000000000     0.000000000  0.000000000  0.055555556

  length of vectors
    15.000000000 12.500000000 18.000000000     0.066666667  0.080000000  0.055555556

  position of ions in fractional coordinates (direct lattice)
     0.521230000  0.545000000  0.637960000

  ion indices of the primitive-cell ions
   primitive index   ion index
                 1           1

----------------------------------------------------------------------------------------

 
 
 KPOINTS: k-points                                

Automatic generation of k-mesh.
 Grid dimensions read from file:
 generate k-points for:   10   14    9

 Generating k-lattice:

  Cartesian coordinates                     Fractional coordinates (reciprocal lattice)
     0.006666667  0.000000000  0.000000000     0.100000000  0.000000000  0.000000000
     0.000000000  0.005714286  0.000000000     0.000000000  0.071428571  0.000000000
     0.000000000  0.000000000  0.006172840     0.000000000  0.000000000  0.111111111

  Length of vectors
     0.006666667  0.005714286  0.006172840

  Shift w.r.t. Gamma in fractional coordinates (k-lattice)
     0.500000000  0.500000000  0.000000000

 
 Subroutine IBZKPT returns following result:
 ===========================================
 
 Found    175 irreducible k-points:
 
 Following reciprocal coordinates:
            Coordinates               Weight
  0.050000  0.035714  0.000000      4.000000
  0.150000  0.035714  0.000000      4.000000
  0.250000  0.035714  0.000000      4.000000
  0.350000  0.035714  0.000000      4.000000
  0.450000  0.035714  0.000000      4.000000
  0.050000  0.107143  0.000000      4.000000
  0.150000  0.107143  0.000000      4.000000
  0.250000  0.107143  0.000000      4.000000
  0.350000  0.107143  0.000000      4.000000
  0.450000  0.107143  0.000000      4.000000
  0.050000  0.178571  0.000000      4.000000
  0.150000  0.178571  0.000000      4.000000
  0.250000  0.178571  0.000000      4.000000
  0.350000  0.178571  0.000000      4.000000
  0.450000  0.178571  0.000000      4.000000
  0.050000  0.250000  0.000000      4.000000
  0.150000  0.250000  0.000000      4.000000
  0.250000  0.250000  0.000000      4.000000
  0.350000  0.250000  0.000000      4.000000
  0.450000  0.250000  0.000000      4.000000
  0.050000  0.321429  0.000000      4.000000
  0.150000  0.321429  0.000000      4.000000
  0.250000  0.321429  0.000000      4.000000
  0.350000  0.321429  0.000000      4.000000
  0.450000  0.321429  0.000000      4.000000
  0.050000  0.392857  0.000000      4.000000
  0.150000  0.392857  0.000000      4.000000
  0.250000  0.392857  0.000000      4.000000
  0.350000  0.392857  0.000000      4.000000
  0.450000  0.392857  0.000000      4.000000
  0.050000  0.464286  0.000000      4.000000
  0.150000  0.464286  0.000000      4.000000
  0.250000  0.464286  0.000000      4.000000
  0.350000  0.464286  0.000000      4.000000
  0.450000  0.464286  0.000000      4.000000
  0.050000  0.035714  0.111111      8.000000
  0.150000  0.035714  0.111111      8.000000
  0.250000  0.035714  0.111111      8.000000
  0.350000  0.035714  0.111111      8.000000
  0.450000  0.035714  0.111111      8.000000
  0.050000  0.107143  0.111111      8.000000
  0.150000  0.107143  0.111111      8.000000
  0.250000  0.107143  0.111111      8.000000
  0.350000  0.107143  0.111111      8.000000
  0.450000  0.107143  0.111111      8.000000
  0.050000  0.178571  0.111111      8.000000
  0.150000  0.178571  0.111111      8.000000
  0.250000  0.178571  0.111111      8.000000
  0.350000  0.178571  0.111111      8.000000
  0.450000  0.178571  0.111111      8.000000
  0.050000  0.250000  0.111111      8.000000
  0.150000  0.250000  0.111111      8.000000
  0.250000  0.250000  0.111111      8.000000
  0.350000  0.250000  0.111111      8.000000
  0.450000  0.250000  0.111111      8.000000
  0.050000  0.321429  0.111111      8.000000
  0.150000  0.321429  0.111111      8.000000
  0.250000  0.321429  0.111111      8.000000
  0.350000  0.321429  0.111111      8.000000
  0.450000  0.321429  0.111111      8.000000
  0.050000  0.392857  0.111111      8.000000
  0.150000  0.392857  0.111111      8.000000
  0.250000  0.392857  0.111111      8.000000
  0.350000  0.392857  0.111111      8.000000
  0.450000  0.392857  0.111111      8.000000
  0.050000  0.464286  0.111111      8.000000
  0.150000  0.464286  0.111111      8.000000
  0.250000  0.464286  0.111111      8.000000
  0.350000  0.464286  0.111111      8.000000
  0.450000  0.464286  0.111111      8.000000
  0.050000  0.035714  0.222222      8.000000
  0.150000  0.035714  0.222222      8.000000
  0.250000  0.035714  0.222222      8.000000
  0.350000  0.035714  0.222222      8.000000
  0.450000  0.035714  0.222222      8.000000
  0.050000  0.107143  0.222222      8.000000
  0.150000  0.107143  0.222222      8.000000
  0.250000  0.107143  0.222222      8.000000
  0.350000  0.107143  0.222222      8.000000
  0.450000  0.107143  0.222222      8.000000
  0.050000  0.178571  0.222222      8.000000
  0.150000  0.178571  0.222222      8.000000
  0.250000  0.178571  0.222222      8.000000
  0.350000  0.178571  0.222222      8.000000
  0.450000  0.178571  0.222222      8.000000
  0.050000  0.250000  0.222222      8.000000
  0.150000  0.250000  0.222222      8.000000
  0.250000  0.250000  0.222222      8.000000
  0.350000  0.250000  0.222222      8.000000
  0.450000  0.250000  0.222222      8.000000
  0.050000  0.321429  0.222222      8.000000
  0.150000  0.321429  0.222222      8.000000
  0.250000  0.321429  0.222222      8.000000
  0.350000  0.321429  0.222222      8.000000
  0.450000  0.321429  0.222222      8.000000
  0.050000  0.392857  0.222222      8.000000
  0.150000  0.392857  0.222222      8.000000
  0.250000  0.392857  0.222222      8.000000
  0.350000  0.392857  0.222222      8.000000
  0.450000  0.392857  0.222222      8.000000
  0.050000  0.464286  0.222222      8.000000
  0.150000  0.464286  0.222222      8.000000
  0.250000  0.464286  0.222222      8.000000
  0.350000  0.464286  0.222222      8.000000
  0.450000  0.464286  0.222222      8.000000
  0.050000  0.035714  0.333333      8.000000
  0.150000  0.035714  0.333333      8.000000
  0.250000  0.035714  0.333333      8.000000
  0.350000  0.035714  0.333333      8.000000
  0.450000  0.035714  0.333333      8.000000
  0.050000  0.107143  0.333333      8.000000
  0.150000  0.107143  0.333333      8.000000
  0.250000  0.107143  0.333333      8.000000
  0.350000  0.107143  0.333333      8.000000
  0.450000  0.107143  0.333333      8.000000
  0.050000  0.178571  0.333333      8.000000
  0.150000  0.178571  0.333333      8.000000
  0.250000  0.178571  0.333333      8.000000
  0.350000  0.178571  0.333333      8.000000
  0.450000  0.178571  0.333333      8.000000
  0.050000  0.250000  0.333333      8.000000
  0.150000  0.250000  0.333333      8.000000
  0.250000  0.250000  0.333333      8.000000
  0.350000  0.250000  0.333333      8.000000
  0.450000  0.250000  0.333333      8.000000
  0.050000  0.321429  0.333333      8.000000
  0.150000  0.321429  0.333333      8.000000
  0.250000  0.321429  0.333333      8.000000
  0.350000  0.321429  0.333333      8.000000
  0.450000  0.321429  0.333333      8.000000
  0.050000  0.392857  0.333333      8.000000
  0.150000  0.392857  0.333333      8.000000
  0.250000  0.392857  0.333333      8.000000
  0.350000  0.392857  0.333333      8.000000
  0.450000  0.392857  0.333333      8.000000
  0.050000  0.464286  0.333333      8.000000
  0.150000  0.464286  0.333333      8.000000
  0.250000  0.464286  0.333333      8.000000
  0.350000  0.464286  0.333333      8.000000
  0.450000  0.464286  0.333333      8.000000
  0.050000  0.035714  0.444444      8.000000
  0.150000  0.035714  0.444444      8.000000
  0.250000  0.035714  0.444444      8.000000
  0.350000  0.035714  0.444444      8.000000
  0.450000  0.035714  0.444444      8.000000
  0.050000  0.107143  0.444444      8.000000
  0.150000  0.107143  0.444444      8.000000
  0.250000  0.107143  0.444444      8.000000
  0.350000  0.107143  0.444444      8.000000
  0.450000  0.107143  0.444444      8.000000
  0.050000  0.178571  0.444444      8.000000
  0.150000  0.178571  0.444444      8.000000
  0.250000  0.178571  0.444444      8.000000
  0.350000  0.178571  0.444444      8.000000
  0.450000  0.178571  0.444444      8.000000
  0.050000  0.250000  0.444444      8.000000
  0.150000  0.250000  0.444444      8.000000
  0.250000  0.250000  0.444444      8.000000
  0.350000  0.250000  0.444444      8.000000
  0.450000  0.250000  0.444444      8.000000
  0.050000  0.321429  0.444444      8.000000
  0.150000  0.321429  0.444444      8.000000
  0.250000  0.321429  0.444444      8.000000
  0.350000  0.321429  0.444444      8.000000
  0.450000  0.321429  0.444444      8.000000
  0.050000  0.392857  0.444444      8.000000
  0.150000  0.392857  0.444444      8.000000
  0.250000  0.392857  0.444444      8.000000
  0.350000  0.392857  0.444444      8.000000
  0.450000  0.392857  0.444444      8.000000
  0.050000  0.464286  0.444444      8.000000
  0.150000  0.464286  0.444444      8.000000
  0.250000  0.464286  0.444444      8.000000
  0.350000  0.464286  0.444444      8.000000
  0.450000  0.464286  0.444444      8.000000
 
 Following cartesian coordinates:
            Coordinates               Weight
  0.003333  0.002857  0.000000      4.000000
  0.010000  0.002857  0.000000      4.000000
  0.016667  0.002857  0.000000      4.000000
  0.023333  0.002857  0.000000      4.000000
  0.030000  0.002857  0.000000      4.000000
  0.003333  0.008571  0.000000      4.000000
  0.010000  0.008571  0.000000      4.000000
  0.016667  0.008571  0.000000      4.000000
  0.023333  0.008571  0.000000      4.000000
  0.030000  0.008571  0.000000      4.000000
  0.003333  0.014286  0.000000      4.000000
  0.010000  0.014286  0.000000      4.000000
  0.016667  0.014286  0.000000      4.000000
  0.023333  0.014286  0.000000      4.000000
  0.030000  0.014286  0.000000      4.000000
  0.003333  0.020000  0.000000      4.000000
  0.010000  0.020000  0.000000      4.000000
  0.016667  0.020000  0.000000      4.000000
  0.023333  0.020000  0.000000      4.000000
  0.030000  0.020000  0.000000      4.000000
  0.003333  0.025714  0.000000      4.000000
  0.010000  0.025714  0.000000      4.000000
  0.016667  0.025714  0.000000      4.000000
  0.023333  0.025714  0.000000      4.000000
  0.030000  0.025714  0.000000      4.000000
  0.003333  0.031429  0.000000      4.000000
  0.010000  0.031429  0.000000      4.000000
  0.016667  0.031429  0.000000      4.000000
  0.023333  0.031429  0.000000      4.000000
  0.030000  0.031429  0.000000      4.000000
  0.003333  0.037143  0.000000      4.000000
  0.010000  0.037143  0.000000      4.000000
  0.016667  0.037143  0.000000      4.000000
  0.023333  0.037143  0.000000      4.000000
  0.030000  0.037143  0.000000      4.000000
  0.003333  0.002857  0.006173      8.000000
  0.010000  0.002857  0.006173      8.000000
  0.016667  0.002857  0.006173      8.000000
  0.023333  0.002857  0.006173      8.000000
  0.030000  0.002857  0.006173      8.000000
  0.003333  0.008571  0.006173      8.000000
  0.010000  0.008571  0.006173      8.000000
  0.016667  0.008571  0.006173      8.000000
  0.023333  0.008571  0.006173      8.000000
  0.030000  0.008571  0.006173      8.000000
  0.003333  0.014286  0.006173      8.000000
  0.010000  0.014286  0.006173      8.000000
  0.016667  0.014286  0.006173      8.000000
  0.023333  0.014286  0.006173      8.000000
  0.030000  0.014286  0.006173      8.000000
  0.003333  0.020000  0.006173      8.000000
  0.010000  0.020000  0.006173      8.000000
  0.016667  0.020000  0.006173      8.000000
  0.023333  0.020000  0.006173      8.000000
  0.030000  0.020000  0.006173      8.000000
  0.003333  0.025714  0.006173      8.000000
  0.010000  0.025714  0.006173      8.000000
  0.016667  0.025714  0.006173      8.000000
  0.023333  0.025714  0.006173      8.000000
  0.030000  0.025714  0.006173      8.000000
  0.003333  0.031429  0.006173      8.000000
  0.010000  0.031429  0.006173      8.000000
  0.016667  0.031429  0.006173      8.000000
  0.023333  0.031429  0.006173      8.000000
  0.030000  0.031429  0.006173      8.000000
  0.003333  0.037143  0.006173      8.000000
  0.010000  0.037143  0.006173      8.000000
  0.016667  0.037143  0.006173      8.000000
  0.023333  0.037143  0.006173      8.000000
  0.030000  0.037143  0.006173      8.000000
  0.003333  0.002857  0.012346      8.000000
  0.010000  0.002857  0.012346      8.000000
  0.016667  0.002857  0.012346      8.000000
  0.023333  0.002857  0.012346      8.000000
  0.030000  0.002857  0.012346      8.000000
  0.003333  0.008571  0.012346      8.000000
  0.010000  0.008571  0.012346      8.000000
  0.016667  0.008571  0.012346      8.000000
  0.023333  0.008571  0.012346      8.000000
  0.030000  0.008571  0.012346      8.000000
  0.003333  0.014286  0.012346      8.000000
  0.010000  0.014286  0.012346      8.000000
  0.016667  0.014286  0.012346      8.000000
  0.023333  0.014286  0.012346      8.000000
  0.030000  0.014286  0.012346      8.000000
  0.003333  0.020000  0.012346      8.000000
  0.010000  0.020000  0.012346      8.000000
  0.016667  0.020000  0.012346      8.000000
  0.023333  0.020000  0.012346      8.000000
  0.030000  0.020000  0.012346      8.000000
  0.003333  0.025714  0.012346      8.000000
  0.010000  0.025714  0.012346      8.000000
  0.016667  0.025714  0.012346      8.000000
  0.023333  0.025714  0.012346      8.000000
  0.030000  0.025714  0.012346      8.000000
  0.003333  0.031429  0.012346      8.000000
  0.010000  0.031429  0.012346      8.000000
  0.016667  0.031429  0.012346      8.000000
  0.023333  0.031429  0.012346      8.000000
  0.030000  0.031429  0.012346      8.000000
  0.003333  0.037143  0.012346      8.000000
  0.010000  0.037143  0.012346      8.000000
  0.016667  0.037143  0.012346      8.000000
  0.023333  0.037143  0.012346      8.000000
  0.030000  0.037143  0.012346      8.000000
  0.003333  0.002857  0.018519      8.000000
  0.010000  0.002857  0.018519      8.000000
  0.016667  0.002857  0.018519      8.000000
  0.023333  0.002857  0.018519      8.000000
  0.030000  0.002857  0.018519      8.000000
  0.003333  0.008571  0.018519      8.000000
  0.010000  0.008571  0.018519      8.000000
  0.016667  0.008571  0.018519      8.000000
  0.023333  0.008571  0.018519      8.000000
  0.030000  0.008571  0.018519      8.000000
  0.003333  0.014286  0.018519      8.000000
  0.010000  0.014286  0.018519      8.000000
  0.016667  0.014286  0.018519      8.000000
  0.023333  0.014286  0.018519      8.000000
  0.030000  0.014286  0.018519      8.000000
  0.003333  0.020000  0.018519      8.000000
  0.010000  0.020000  0.018519      8.000000
  0.016667  0.020000  0.018519      8.000000
  0.023333  0.020000  0.018519      8.000000
  0.030000  0.020000  0.018519      8.000000
  0.003333  0.025714  0.018519      8.000000
  0.010000  0.025714  0.018519      8.000000
  0.016667  0.025714  0.018519      8.000000
  0.023333  0.025714  0.018519      8.000000
  0.030000  0.025714  0.018519      8.000000
  0.003333  0.031429  0.018519      8.000000
  0.010000  0.031429  0.018519      8.000000
  0.016667  0.031429  0.018519      8.000000
  0.023333  0.031429  0.018519      8.000000
  0.030000  0.031429  0.018519      8.000000
  0.003333  0.037143  0.018519      8.000000
  0.010000  0.037143  0.018519      8.000000
  0.016667  0.037143  0.018519      8.000000
  0.023333  0.037143  0.018519      8.000000
  0.030000  0.037143  0.018519      8.000000
  0.003333  0.002857  0.024691      8.000000
  0.010000  0.002857  0.024691      8.000000
  0.016667  0.002857  0.024691      8.000000
  0.023333  0.002857  0.024691      8.000000
  0.030000  0.002857  0.024691      8.000000
  0.003333  0.008571  0.024691      8.000000
  0.010000  0.008571  0.024691      8.000000
  0.016667  0.008571  0.024691      8.000000
  0.023333  0.008571  0.024691      8.000000
  0.030000  0.008571  0.024691      8.000000
  0.003333  0.014286  0.024691      8.000000
  0.010000  0.014286  0.024691      8.000000
  0.016667  0.014286  0.024691      8.000000
  0.023333  0.014286  0.024691      8.000000
  0.030000  0.014286  0.024691      8.000000
  0.003333  0.020000  0.024691      8.000000
  0.010000  0.020000  0.024691      8.000000
  0.016667  0.020000  0.024691      8.000000
  0.023333  0.020000  0.024691      8.000000
  0.030000  0.020000  0.024691      8.000000
  0.003333  0.025714  0.024691      8.000000
  0.010000  0.025714  0.024691      8.000000
  0.016667  0.025714  0.024691      8.000000
  0.023333  0.025714  0.024691      8.000000
  0.030000  0.025714  0.024691      8.000000
  0.003333  0.031429  0.024691      8.000000
  0.010000  0.031429  0.024691      8.000000
  0.016667  0.031429  0.024691      8.000000
  0.023333  0.031429  0.024691      8.000000
  0.030000  0.031429  0.024691      8.000000
  0.003333  0.037143  0.024691      8.000000
  0.010000  0.037143  0.024691      8.000000
  0.016667  0.037143  0.024691      8.000000
  0.023333  0.037143  0.024691      8.000000
  0.030000  0.037143  0.024691      8.000000
 


--------------------------------------------------------------------------------------------------------




 Dimension of arrays:
   k-points           NKPTS =    175   k-points in BZ     NKDIM =    175   number of bands    NBANDS=     24
   number of dos      NEDOS =    301   number of ions     NIONS =      1
   non local maximal  LDIM  =      4   non local SUM 2l+1 LMDIM =      8
   total plane-waves  NPLWV = ******
   max r-space proj   IRMAX =      1   max aug-charges    IRDMAX=  15917
   dimension x,y,z NGX =   150 NGY =  126 NGZ =  180
   dimension x,y,z NGXF=   300 NGYF=  252 NGZF=  360
   support grid    NGXF=   300 NGYF=  252 NGZF=  360
   ions per type =               1
   NGX,Y,Z   is equivalent  to a cutoff of  16.62, 16.76, 16.62 a.u.
   NGXF,Y,Z  is equivalent  to a cutoff of  33.25, 33.52, 33.25 a.u.

 SYSTEM =  Convergence                             
 POSCAR =  B1                                      

 Startparameter for this run:
   NWRITE =      2    write-flag & timer
   PREC   = accura    normal or accurate (medium, high low for compatibility)
   ISTART =      0    job   : 0-new  1-cont  2-samecut
   ICHARG =      2    charge: 1-file 2-atom 10-const
   ISPIN  =      1    spin polarized calculation?
   LNONCOLLINEAR =      F non collinear calculations
   LSORBIT =      F    spin-orbit coupling
   INIWAV =      1    electr: 0-lowe 1-rand  2-diag
   LASPH  =      F    aspherical Exc in radial PAW
 Electronic Relaxation 1
   ENCUT  =  920.0 eV  67.62 Ry    8.22 a.u.  37.10 30.91 44.52*2*pi/ulx,y,z
   ENINI  =  920.0     initial cutoff
   ENAUG  =  535.5 eV  augmentation charge cutoff
   NELM   =    100;   NELMIN=  2; NELMDL= -5     # of ELM steps 
   EDIFF  = 0.1E-05   stopping-criterion for ELM
   LREAL  =      F    real-space projection
   NLSPLINE    = F    spline interpolate recip. space projectors
   LCOMPAT=      F    compatible to vasp.4.4
   GGA_COMPAT  = T    GGA compatible to vasp.4.4-vasp.4.6
   LMAXPAW     = -100 max onsite density
   LMAXMIX     =    2 max onsite mixed and CHGCAR
   VOSKOWN=      0    Vosko Wilk Nusair interpolation
   ROPT   =    0.00000
 Ionic relaxation
   EDIFFG = -.1E-02   stopping-criterion for IOM
   NSW    =      0    number of steps for IOM
   NBLOCK =      1;   KBLOCK =      1    inner block; outer block 
   IBRION =     -1    ionic relax: 0-MD 1-quasi-New 2-CG
   NFREE  =      0    steps in history (QN), initial steepest desc. (CG)
   ISIF   =      2    stress and relaxation
   IWAVPR =     10    prediction:  0-non 1-charg 2-wave 3-comb
   ISYM   =      2    0-nonsym 1-usesym 2-fastsym
   LCORR  =      T    Harris-Foulkes like correction to forces

   POTIM  = 0.5000    time-step for ionic-motion
   TEIN   =    0.0    initial temperature
   TEBEG  =    0.0;   TEEND  =   0.0 temperature during run
   SMASS  =  -3.00    Nose mass-parameter (am)
   estimated Nose-frequenzy (Omega)   =  0.10E-29 period in steps = 0.13E+47 mass=  -0.514E-26a.u.
   SCALEE = 1.0000    scale energy and forces
   NPACO  =    256;   APACO  = 10.0  distance and # of slots for P.C.
   PSTRESS=    0.0 pullay stress

  Mass of Ions in am
   POMASS =  10.81
  Ionic Valenz
   ZVAL   =   3.00
  Atomic Wigner-Seitz radii
   RWIGS  =  -1.00
  virtual crystal weights 
   VCA    =   1.00
   NELECT =       3.0000    total number of electrons
   NUPDOWN=      -1.0000    fix difference up-down

 DOS related values:
   EMIN   =  10.00;   EMAX   =-10.00  energy-range for DOS
   EFERMI =   0.00;   METHOD = LEGACY      
   ISMEAR =     0;   SIGMA  =   0.05  broadening in eV -4-tet -1-fermi 0-gaus

 Electronic relaxation 2 (details)
   IALGO  =     38    algorithm
   LDIAG  =      T    sub-space diagonalisation (order eigenvalues)
   LSUBROT=      F    optimize rotation matrix (better conditioning)
   TURBO    =      0    0=normal 1=particle mesh
   IRESTART =      0    0=no restart 2=restart with 2 vectors
   NREBOOT  =      0    no. of reboots
   NMIN     =      0    reboot dimension
   EREF     =   0.00    reference energy to select bands
   IMIX   =      4    mixing-type and parameters
     AMIX     =   0.40;   BMIX     =  1.00
     AMIX_MAG =   1.60;   BMIX_MAG =  1.00
     AMIN     =   0.10
     WC   =   100.;   INIMIX=   1;  MIXPRE=   1;  MAXMIX= -45

 Intra band minimization:
   WEIMIN = 0.0000     energy-eigenvalue tresh-hold
   EBREAK =  0.10E-07  absolut break condition
   DEPER  =   0.30     relativ break condition  

   TIME   =   0.40     timestep for ELM

  volume/ion in A,a.u.               =    3375.00     22775.62
  Fermi-wavevector in a.u.,A,eV,Ry     =   0.157407  0.297456  0.337111  0.024777
  Thomas-Fermi vector in A             =   0.845991
 
 Write flags
   LWAVE        =      F    write WAVECAR
   LDOWNSAMPLE  =      F    k-point downsampling of WAVECAR
   LCHARG       =      F    write CHGCAR
   LVTOT        =      F    write LOCPOT, total local potential
   LVHAR        =      F    write LOCPOT, Hartree potential only
   WRT_POTENTIAL= false  ! write potential to hdf5 file
   LELF         =      F    write electronic localiz. function (ELF)
   LORBIT       =      0    0 simple, 1 ext, 2 COOP (PROOUT), +10 PAW based schemes


 Dipole corrections
   LMONO      =      F    monopole corrections only (constant potential shift)
   LDIPOL     =      F    correct potential (dipole corrections)
   IDIPOL     =      0    1-x, 2-y, 3-z, 4-all directions 
   EPSILON    =  1.0000000 bulk dielectric constant
   LVACPOTAV  =      F  vacuum potentials using an averaging scheme for the charge density
   VACPOTFLAT =  0.1000000 required flatness to determine vacuum potential
 Exchange correlation treatment:
   GGA     = PE    functional components
   XC_C    = 1    coefficients multiplying the functional components
   LIBXC   =     F    Libxc                    
   VOSKOWN =     0    Vosko Wilk Nusair interpolation
   LHFCALC =     F    Hartree Fock is set to
   LHFONE  =     F    Hartree Fock one center treatment
   AEXX    =    0.0000 exact exchange contribution

 Parameters of functionals:
   PE:
     No parameter
 
 Van der Waals corrections
   IVDW    =     0    specifies the selected vdW correction

 Linear response parameters
   LEPSILON=     F    determine dielectric tensor
   LRPA    =     F    only Hartree local field effects (RPA)
   LNABLA  =     F    use nabla operator in PAW spheres
   LVEL    =     F    velocity operator in full k-point grid
   CSHIFT  =0.1000    complex shift for real part using Kramers Kronig
   OMEGAMAX=  -1.0    maximum frequency
   DEG_THRESHOLD= 0.2000000E-02 threshold for treating states as degnerate
   RTIME   =   -0.100 relaxation time in fs
  (WPLASMAI=    0.000 imaginary part of plasma frequency in eV, 0.658/RTIME)
   DFIELD  = 0.0000000 0.0000000 0.0000000 field for delta impulse in time
 
  Optional k-point grid parameters
   LKPOINTS_OPT  =     F    use optional k-point grid
   KPOINTS_OPT_MODE=     1    mode for optional k-point grid
 
 Orbital magnetization related:
   ORBITALMAG=     F  switch on orbital magnetization
   LCHIMAG   =     F  perturbation theory with respect to B field
   DQ        =  0.001000  dq finite difference perturbation B field
   LLRAUG    =     F  two centre corrections for induced B field
   LBONE     =     F  B-component reconstruction in AE one-centre
   LVGVCALC  =     T  calculate vGv susceptibility
   LVGVAPPL  =     F  apply vGv susceptibility instead of pGv for G=0

 Random number generation:
   RANDOM_GENERATOR = DEFAULT
   PCG_SEED         = not used


--------------------------------------------------------------------------------------------------------


 Static calculation
 charge density and potential will be updated during run
 non-spin polarized calculation
 Variant of blocked Davidson
 Davidson routine will perform the subspace rotation
 perform sub-space diagonalisation
    after iterative eigenvector-optimisation
 modified Broyden-mixing scheme, WC =      100.0
 initial mixing is a Kerker type mixing with AMIX =  0.4000 and BMIX =      1.0000
 Hartree-type preconditioning will be used
 using additional bands           22
 reciprocal scheme for non local part
 use partial core corrections
 calculate Harris-corrections to forces 
   (improved forces if not selfconsistent)
 use gradient corrections 
 use of overlap-Matrix (Vanderbilt PP)
 Gauss-broadening in eV      SIGMA  =   0.05


--------------------------------------------------------------------------------------------------------


  energy-cutoff  :      920.00
  volume of cell :     3375.00
      direct lattice vectors                 reciprocal lattice vectors
    15.000000000  0.000000000  0.000000000     0.066666667  0.000000000  0.000000000
     0.000000000 12.500000000  0.000000000     0.000000000  0.080000000  0.000000000
     0.000000000  0.000000000 18.000000000     0.000000000  0.000000000  0.055555556

  length of vectors
    15.000000000 12.500000000 18.000000000     0.066666667  0.080000000  0.055555556


 
 k-points in units of 2pi/SCALE and weight: k-points                                
   0.00333333  0.00285714  0.00000000       0.003
   0.01000000  0.00285714  0.00000000       0.003
   0.01666667  0.00285714  0.00000000       0.003
   0.02333333  0.00285714  0.00000000       0.003
   0.03000000  0.00285714  0.00000000       0.003
   0.00333333  0.00857143  0.00000000       0.003
   0.01000000  0.00857143  0.00000000       0.003
   0.01666667  0.00857143  0.00000000       0.003
   0.02333333  0.00857143  0.00000000       0.003
   0.03000000  0.00857143  0.00000000       0.003
   0.00333333  0.01428571  0.00000000       0.003
   0.01000000  0.01428571  0.00000000       0.003
   0.01666667  0.01428571  0.00000000       0.003
   0.02333333  0.01428571  0.00000000       0.003
   0.03000000  0.01428571  0.00000000       0.003
   0.00333333  0.02000000  0.00000000       0.003
   0.01000000  0.02000000  0.00000000       0.003
   0.01666667  0.02000000  0.00000000       0.003
   0.02333333  0.02000000  0.00000000       0.003
   0.03000000  0.02000000  0.00000000       0.003
   0.00333333  0.02571429  0.00000000       0.003
   0.01000000  0.02571429  0.00000000       0.003
   0.01666667  0.02571429  0.00000000       0.003
   0.02333333  0.02571429  0.00000000       0.003
   0.03000000  0.02571429  0.00000000       0.003
   0.00333333  0.03142857  0.00000000       0.003
   0.01000000  0.03142857  0.00000000       0.003
   0.01666667  0.03142857  0.00000000       0.003
   0.02333333  0.03142857  0.00000000       0.003
   0.03000000  0.03142857  0.00000000       0.003
   0.00333333  0.03714286  0.00000000       0.003
   0.01000000  0.03714286  0.00000000       0.003
   0.01666667  0.03714286  0.00000000       0.003
   0.02333333  0.03714286  0.00000000       0.003
   0.03000000  0.03714286  0.00000000       0.003
   0.00333333  0.00285714  0.00617284       0.006
   0.01000000  0.00285714  0.00617284       0.006
   0.01666667  0.00285714  0.00617284       0.006
   0.02333333  0.00285714  0.00617284       0.006
   0.03000000  0.00285714  0.00617284       0.006
   0.00333333  0.00857143  0.00617284       0.006
   0.01000000  0.00857143  0.00617284       0.006
   0.01666667  0.00857143  0.00617284       0.006
   0.02333333  0.00857143  0.00617284       0.006
   0.03000000  0.00857143  0.00617284       0.006
   0.00333333  0.01428571  0.00617284       0.006
   0.01000000  0.01428571  0.00617284       0.006
   0.01666667  0.01428571  0.00617284       0.006
   0.02333333  0.01428571  0.00617284       0.006
   0.03000000  0.01428571  0.00617284       0.006
   0.00333333  0.02000000  0.00617284       0.006
   0.01000000  0.02000000  0.00617284       0.006
   0.01666667  0.02000000  0.00617284       0.006
   0.02333333  0.02000000  0.00617284       0.006
   0.03000000  0.02000000  0.00617284       0.006
   0.00333333  0.02571429  0.00617284       0.006
   0.01000000  0.02571429  0.00617284       0.006
   0.01666667  0.02571429  0.00617284       0.006
   0.02333333  0.02571429  0.00617284       0.006
   0.03000000  0.02571429  0.00617284       0.006
   0.00333333  0.03142857  0.00617284       0.006
   0.01000000  0.03142857  0.00617284       0.006
   0.01666667  0.03142857  0.00617284       0.006
   0.02333333  0.03142857  0.00617284       0.006
   0.03000000  0.03142857  0.00617284       0.006
   0.00333333  0.03714286  0.00617284       0.006
   0.01000000  0.03714286  0.00617284       0.006
   0.01666667  0.03714286  0.00617284       0.006
   0.02333333  0.03714286  0.00617284       0.006
   0.03000000  0.03714286  0.00617284       0.006
   0.00333333  0.00285714  0.01234568       0.006
   0.01000000  0.00285714  0.01234568       0.006
   0.01666667  0.00285714  0.01234568       0.006
   0.02333333  0.00285714  0.01234568       0.006
   0.03000000  0.00285714  0.01234568       0.006
   0.00333333  0.00857143  0.01234568       0.006
   0.01000000  0.00857143  0.01234568       0.006
   0.01666667  0.00857143  0.01234568       0.006
   0.02333333  0.00857143  0.01234568       0.006
   0.03000000  0.00857143  0.01234568       0.006
   0.00333333  0.01428571  0.01234568       0.006
   0.01000000  0.01428571  0.01234568       0.006
   0.01666667  0.01428571  0.01234568       0.006
   0.02333333  0.01428571  0.01234568       0.006
   0.03000000  0.01428571  0.01234568       0.006
   0.00333333  0.02000000  0.01234568       0.006
   0.01000000  0.02000000  0.01234568       0.006
   0.01666667  0.02000000  0.01234568       0.006
   0.02333333  0.02000000  0.01234568       0.006
   0.03000000  0.02000000  0.01234568       0.006
   0.00333333  0.02571429  0.01234568       0.006
   0.01000000  0.02571429  0.01234568       0.006
   0.01666667  0.02571429  0.01234568       0.006
   0.02333333  0.02571429  0.01234568       0.006
   0.03000000  0.02571429  0.01234568       0.006
   0.00333333  0.03142857  0.01234568       0.006
   0.01000000  0.03142857  0.01234568       0.006
   0.01666667  0.03142857  0.01234568       0.006
   0.02333333  0.03142857  0.01234568       0.006
   0.03000000  0.03142857  0.01234568       0.006
   0.00333333  0.03714286  0.01234568       0.006
   0.01000000  0.03714286  0.01234568       0.006
   0.01666667  0.03714286  0.01234568       0.006
   0.02333333  0.03714286  0.01234568       0.006
   0.03000000  0.03714286  0.01234568       0.006
   0.00333333  0.00285714  0.01851852       0.006
   0.01000000  0.00285714  0.01851852       0.006
   0.01666667  0.00285714  0.01851852       0.006
   0.02333333  0.00285714  0.01851852       0.006
   0.03000000  0.00285714  0.01851852       0.006
   0.00333333  0.00857143  0.01851852       0.006
   0.01000000  0.00857143  0.01851852       0.006
   0.01666667  0.00857143  0.01851852       0.006
   0.02333333  0.00857143  0.01851852       0.006
   0.03000000  0.00857143  0.01851852       0.006
   0.00333333  0.01428571  0.01851852       0.006
   0.01000000  0.01428571  0.01851852       0.006
   0.01666667  0.01428571  0.01851852       0.006
   0.02333333  0.01428571  0.01851852       0.006
   0.03000000  0.01428571  0.01851852       0.006
   0.00333333  0.02000000  0.01851852       0.006
   0.01000000  0.02000000  0.01851852       0.006
   0.01666667  0.02000000  0.01851852       0.006
   0.02333333  0.02000000  0.01851852       0.006
   0.03000000  0.02000000  0.01851852       0.006
   0.00333333  0.02571429  0.01851852       0.006
   0.01000000  0.02571429  0.01851852       0.006
   0.01666667  0.02571429  0.01851852       0.006
   0.02333333  0.02571429  0.01851852       0.006
   0.03000000  0.02571429  0.01851852       0.006
   0.00333333  0.03142857  0.01851852       0.006
   0.01000000  0.03142857  0.01851852       0.006
   0.01666667  0.03142857  0.01851852       0.006
   0.02333333  0.03142857  0.01851852       0.006
   0.03000000  0.03142857  0.01851852       0.006
   0.00333333  0.03714286  0.01851852       0.006
   0.01000000  0.03714286  0.01851852       0.006
   0.01666667  0.03714286  0.01851852       0.006
   0.02333333  0.03714286  0.01851852       0.006
   0.03000000  0.03714286  0.01851852       0.006
   0.00333333  0.00285714  0.02469136       0.006
   0.01000000  0.00285714  0.02469136       0.006
   0.01666667  0.00285714  0.02469136       0.006
   0.02333333  0.00285714  0.02469136       0.006
   0.03000000  0.00285714  0.02469136       0.006
   0.00333333  0.00857143  0.02469136       0.006
   0.01000000  0.00857143  0.02469136       0.006
   0.01666667  0.00857143  0.02469136       0.006
   0.02333333  0.00857143  0.02469136       0.006
   0.03000000  0.00857143  0.02469136       0.006
   0.00333333  0.01428571  0.02469136       0.006
   0.01000000  0.01428571  0.02469136       0.006
   0.01666667  0.01428571  0.02469136       0.006
   0.02333333  0.01428571  0.02469136       0.006
   0.03000000  0.01428571  0.02469136       0.006
   0.00333333  0.02000000  0.02469136       0.006
   0.01000000  0.02000000  0.02469136       0.006
   0.01666667  0.02000000  0.02469136       0.006
   0.02333333  0.02000000  0.02469136       0.006
   0.03000000  0.02000000  0.02469136       0.006
   0.00333333  0.02571429  0.02469136       0.006
   0.01000000  0.02571429  0.02469136       0.006
   0.01666667  0.02571429  0.02469136       0.006
   0.02333333  0.02571429  0.02469136       0.006
   0.03000000  0.02571429  0.02469136       0.006
   0.00333333  0.03142857  0.02469136       0.006
   0.01000000  0.03142857  0.02469136       0.006
   0.01666667  0.03142857  0.02469136       0.006
   0.02333333  0.03142857  0.02469136       0.006
   0.03000000  0.03142857  0.02469136       0.006
   0.00333333  0.03714286  0.02469136       0.006
   0.01000000  0.03714286  0.02469136       0.006
   0.01666667  0.03714286  0.02469136       0.006
   0.02333333  0.03714286  0.02469136       0.006
   0.03000000  0.03714286  0.02469136       0.006
 
 k-points in reciprocal lattice and weights: k-points                                
   0.05000000  0.03571429  0.00000000       0.003
   0.15000000  0.03571429  0.00000000       0.003
   0.25000000  0.03571429  0.00000000       0.003
   0.35000000  0.03571429  0.00000000       0.003
   0.45000000  0.03571429  0.00000000       0.003
   0.05000000  0.10714286  0.00000000       0.003
   0.15000000  0.10714286  0.00000000       0.003
   0.25000000  0.10714286  0.00000000       0.003
   0.35000000  0.10714286  0.00000000       0.003
   0.45000000  0.10714286  0.00000000       0.003
   0.05000000  0.17857143  0.00000000       0.003
   0.15000000  0.17857143  0.00000000       0.003
   0.25000000  0.17857143  0.00000000       0.003
   0.35000000  0.17857143  0.00000000       0.003
   0.45000000  0.17857143  0.00000000       0.003
   0.05000000  0.25000000  0.00000000       0.003
   0.15000000  0.25000000  0.00000000       0.003
   0.25000000  0.25000000  0.00000000       0.003
   0.35000000  0.25000000  0.00000000       0.003
   0.45000000  0.25000000  0.00000000       0.003
   0.05000000  0.32142857  0.00000000       0.003
   0.15000000  0.32142857  0.00000000       0.003
   0.25000000  0.32142857  0.00000000       0.003
   0.35000000  0.32142857  0.00000000       0.003
   0.45000000  0.32142857  0.00000000       0.003
   0.05000000  0.39285714  0.00000000       0.003
   0.15000000  0.39285714  0.00000000       0.003
   0.25000000  0.39285714  0.00000000       0.003
   0.35000000  0.39285714  0.00000000       0.003
   0.45000000  0.39285714  0.00000000       0.003
   0.05000000  0.46428571  0.00000000       0.003
   0.15000000  0.46428571  0.00000000       0.003
   0.25000000  0.46428571  0.00000000       0.003
   0.35000000  0.46428571  0.00000000       0.003
   0.45000000  0.46428571  0.00000000       0.003
   0.05000000  0.03571429  0.11111111       0.006
   0.15000000  0.03571429  0.11111111       0.006
   0.25000000  0.03571429  0.11111111       0.006
   0.35000000  0.03571429  0.11111111       0.006
   0.45000000  0.03571429  0.11111111       0.006
   0.05000000  0.10714286  0.11111111       0.006
   0.15000000  0.10714286  0.11111111       0.006
   0.25000000  0.10714286  0.11111111       0.006
   0.35000000  0.10714286  0.11111111       0.006
   0.45000000  0.10714286  0.11111111       0.006
   0.05000000  0.17857143  0.11111111       0.006
   0.15000000  0.17857143  0.11111111       0.006
   0.25000000  0.17857143  0.11111111       0.006
   0.35000000  0.17857143  0.11111111       0.006
   0.45000000  0.17857143  0.11111111       0.006
   0.05000000  0.25000000  0.11111111       0.006
   0.15000000  0.25000000  0.11111111       0.006
   0.25000000  0.25000000  0.11111111       0.006
   0.35000000  0.25000000  0.11111111       0.006
   0.45000000  0.25000000  0.11111111       0.006
   0.05000000  0.32142857  0.11111111       0.006
   0.15000000  0.32142857  0.11111111       0.006
   0.25000000  0.32142857  0.11111111       0.006
   0.35000000  0.32142857  0.11111111       0.006
   0.45000000  0.32142857  0.11111111       0.006
   0.05000000  0.39285714  0.11111111       0.006
   0.15000000  0.39285714  0.11111111       0.006
   0.25000000  0.39285714  0.11111111       0.006
   0.35000000  0.39285714  0.11111111       0.006
   0.45000000  0.39285714  0.11111111       0.006
   0.05000000  0.46428571  0.11111111       0.006
   0.15000000  0.46428571  0.11111111       0.006
   0.25000000  0.46428571  0.11111111       0.006
   0.35000000  0.46428571  0.11111111       0.006
   0.45000000  0.46428571  0.11111111       0.006
   0.05000000  0.03571429  0.22222222       0.006
   0.15000000  0.03571429  0.22222222       0.006
   0.25000000  0.03571429  0.22222222       0.006
   0.35000000  0.03571429  0.22222222       0.006
   0.45000000  0.03571429  0.22222222       0.006
   0.05000000  0.10714286  0.22222222       0.006
   0.15000000  0.10714286  0.22222222       0.006
   0.25000000  0.10714286  0.22222222       0.006
   0.35000000  0.10714286  0.22222222       0.006
   0.45000000  0.10714286  0.22222222       0.006
   0.05000000  0.17857143  0.22222222       0.006
   0.15000000  0.17857143  0.22222222       0.006
   0.25000000  0.17857143  0.22222222       0.006
   0.35000000  0.17857143  0.22222222       0.006
   0.45000000  0.17857143  0.22222222       0.006
   0.05000000  0.25000000  0.22222222       0.006
   0.15000000  0.25000000  0.22222222       0.006
   0.25000000  0.25000000  0.22222222       0.006
   0.35000000  0.25000000  0.22222222       0.006
   0.45000000  0.25000000  0.22222222       0.006
   0.05000000  0.32142857  0.22222222       0.006
   0.15000000  0.32142857  0.22222222       0.006
   0.25000000  0.32142857  0.22222222       0.006
   0.35000000  0.32142857  0.22222222       0.006
   0.45000000  0.32142857  0.22222222       0.006
   0.05000000  0.39285714  0.22222222       0.006
   0.15000000  0.39285714  0.22222222       0.006
   0.25000000  0.39285714  0.22222222       0.006
   0.35000000  0.39285714  0.22222222       0.006
   0.45000000  0.39285714  0.22222222       0.006
   0.05000000  0.46428571  0.22222222       0.006
   0.15000000  0.46428571  0.22222222       0.006
   0.25000000  0.46428571  0.22222222       0.006
   0.35000000  0.46428571  0.22222222       0.006
   0.45000000  0.46428571  0.22222222       0.006
   0.05000000  0.03571429  0.33333333       0.006
   0.15000000  0.03571429  0.33333333       0.006
   0.25000000  0.03571429  0.33333333       0.006
   0.35000000  0.03571429  0.33333333       0.006
   0.45000000  0.03571429  0.33333333       0.006
   0.05000000  0.10714286  0.33333333       0.006
   0.15000000  0.10714286  0.33333333       0.006
   0.25000000  0.10714286  0.33333333       0.006
   0.35000000  0.10714286  0.33333333       0.006
   0.45000000  0.10714286  0.33333333       0.006
   0.05000000  0.17857143  0.33333333       0.006
   0.15000000  0.17857143  0.33333333       0.006
   0.25000000  0.17857143  0.33333333       0.006
   0.35000000  0.17857143  0.33333333       0.006
   0.45000000  0.17857143  0.33333333       0.006
   0.05000000  0.25000000  0.33333333       0.006
   0.15000000  0.25000000  0.33333333       0.006
   0.25000000  0.25000000  0.33333333       0.006
   0.35000000  0.25000000  0.33333333       0.006
   0.45000000  0.25000000  0.33333333       0.006
   0.05000000  0.32142857  0.33333333       0.006
   0.15000000  0.32142857  0.33333333       0.006
   0.25000000  0.32142857  0.33333333       0.006
   0.35000000  0.32142857  0.33333333       0.006
   0.45000000  0.32142857  0.33333333       0.006
   0.05000000  0.39285714  0.33333333       0.006
   0.15000000  0.39285714  0.33333333       0.006
   0.25000000  0.39285714  0.33333333       0.006
   0.35000000  0.39285714  0.33333333       0.006
   0.45000000  0.39285714  0.33333333       0.006
   0.05000000  0.46428571  0.33333333       0.006
   0.15000000  0.46428571  0.33333333       0.006
   0.25000000  0.46428571  0.33333333       0.006
   0.35000000  0.46428571  0.33333333       0.006
   0.45000000  0.46428571  0.33333333       0.006
   0.05000000  0.03571429  0.44444444       0.006
   0.15000000  0.03571429  0.44444444       0.006
   0.25000000  0.03571429  0.44444444       0.006
   0.35000000  0.03571429  0.44444444       0.006
   0.45000000  0.03571429  0.44444444       0.006
   0.05000000  0.10714286  0.44444444       0.006
   0.15000000  0.10714286  0.44444444       0.006
   0.25000000  0.10714286  0.44444444       0.006
   0.35000000  0.10714286  0.44444444       0.006
   0.45000000  0.10714286  0.44444444       0.006
   0.05000000  0.17857143  0.44444444       0.006
   0.15000000  0.17857143  0.44444444       0.006
   0.25000000  0.17857143  0.44444444       0.006
   0.35000000  0.17857143  0.44444444       0.006
   0.45000000  0.17857143  0.44444444       0.006
   0.05000000  0.25000000  0.44444444       0.006
   0.15000000  0.25000000  0.44444444       0.006
   0.25000000  0.25000000  0.44444444       0.006
   0.35000000  0.25000000  0.44444444       0.006
   0.45000000  0.25000000  0.44444444       0.006
   0.05000000  0.32142857  0.44444444       0.006
   0.15000000  0.32142857  0.44444444       0.006
   0.25000000  0.32142857  0.44444444       0.006
   0.35000000  0.32142857  0.44444444       0.006
   0.45000000  0.32142857  0.44444444       0.006
   0.05000000  0.39285714  0.44444444       0.006
   0.15000000  0.39285714  0.44444444       0.006
   0.25000000  0.39285714  0.44444444       0.006
   0.35000000  0.39285714  0.44444444       0.006
   0.45000000  0.39285714  0.44444444       0.006
   0.05000000  0.46428571  0.44444444       0.006
   0.15000000  0.46428571  0.44444444       0.006
   0.25000000  0.46428571  0.44444444       0.006
   0.35000000  0.46428571  0.44444444       0.006
   0.45000000  0.46428571  0.44444444       0.006
 
 position of ions in fractional coordinates (direct lattice) 
   0.52123000  0.54500000  0.63796000
 
 position of ions in cartesian coordinates  (Angst):
   7.81845000  6.81250000 11.48328000
 


--------------------------------------------------------------------------------------------------------


 k-point     1 :   0.0500 0.0357 0.0000  plane waves:  213801
 k-point     2 :   0.1500 0.0357 0.0000  plane waves:  213792
 k-point     3 :   0.2500 0.0357 0.0000  plane waves:  213800
 k-point     4 :   0.3500 0.0357 0.0000  plane waves:  213813
 k-point     5 :   0.4500 0.0357 0.0000  plane waves:  213841
 k-point     6 :   0.0500 0.1071 0.0000  plane waves:  213817
 k-point     7 :   0.1500 0.1071 0.0000  plane waves:  213839
 k-point     8 :   0.2500 0.1071 0.0000  plane waves:  213825
 k-point     9 :   0.3500 0.1071 0.0000  plane waves:  213818
 k-point    10 :   0.4500 0.1071 0.0000  plane waves:  213818
 k-point    11 :   0.0500 0.1786 0.0000  plane waves:  213806
 k-point    12 :   0.1500 0.1786 0.0000  plane waves:  213821
 k-point    13 :   0.2500 0.1786 0.0000  plane waves:  213893
 k-point    14 :   0.3500 0.1786 0.0000  plane waves:  213874
 k-point    15 :   0.4500 0.1786 0.0000  plane waves:  213871
 k-point    16 :   0.0500 0.2500 0.0000  plane waves:  213818
 k-point    17 :   0.1500 0.2500 0.0000  plane waves:  213870
 k-point    18 :   0.2500 0.2500 0.0000  plane waves:  213888
 k-point    19 :   0.3500 0.2500 0.0000  plane waves:  213911
 k-point    20 :   0.4500 0.2500 0.0000  plane waves:  213848
 k-point    21 :   0.0500 0.3214 0.0000  plane waves:  213865
 k-point    22 :   0.1500 0.3214 0.0000  plane waves:  213847
 k-point    23 :   0.2500 0.3214 0.0000  plane waves:  213907
 k-point    24 :   0.3500 0.3214 0.0000  plane waves:  213869
 k-point    25 :   0.4500 0.3214 0.0000  plane waves:  213937
 k-point    26 :   0.0500 0.3929 0.0000  plane waves:  213808
 k-point    27 :   0.1500 0.3929 0.0000  plane waves:  213848
 k-point    28 :   0.2500 0.3929 0.0000  plane waves:  213869
 k-point    29 :   0.3500 0.3929 0.0000  plane waves:  213937
 k-point    30 :   0.4500 0.3929 0.0000  plane waves:  213972
 k-point    31 :   0.0500 0.4643 0.0000  plane waves:  213882
 k-point    32 :   0.1500 0.4643 0.0000  plane waves:  213867
 k-point    33 :   0.2500 0.4643 0.0000  plane waves:  213864
 k-point    34 :   0.3500 0.4643 0.0000  plane waves:  213928
 k-point    35 :   0.4500 0.4643 0.0000  plane waves:  213971
 k-point    36 :   0.0500 0.0357 0.1111  plane waves:  213821
 k-point    37 :   0.1500 0.0357 0.1111  plane waves:  213818
 k-point    38 :   0.2500 0.0357 0.1111  plane waves:  213828
 k-point    39 :   0.3500 0.0357 0.1111  plane waves:  213850
 k-point    40 :   0.4500 0.0357 0.1111  plane waves:  213851
 k-point    41 :   0.0500 0.1071 0.1111  plane waves:  213828
 k-point    42 :   0.1500 0.1071 0.1111  plane waves:  213835
 k-point    43 :   0.2500 0.1071 0.1111  plane waves:  213832
 k-point    44 :   0.3500 0.1071 0.1111  plane waves:  213834
 k-point    45 :   0.4500 0.1071 0.1111  plane waves:  213843
 k-point    46 :   0.0500 0.1786 0.1111  plane waves:  213826
 k-point    47 :   0.1500 0.1786 0.1111  plane waves:  213839
 k-point    48 :   0.2500 0.1786 0.1111  plane waves:  213844
 k-point    49 :   0.3500 0.1786 0.1111  plane waves:  213893
 k-point    50 :   0.4500 0.1786 0.1111  plane waves:  213878
 k-point    51 :   0.0500 0.2500 0.1111  plane waves:  213839
 k-point    52 :   0.1500 0.2500 0.1111  plane waves:  213878
 k-point    53 :   0.2500 0.2500 0.1111  plane waves:  213870
 k-point    54 :   0.3500 0.2500 0.1111  plane waves:  213890
 k-point    55 :   0.4500 0.2500 0.1111  plane waves:  213887
 k-point    56 :   0.0500 0.3214 0.1111  plane waves:  213862
 k-point    57 :   0.1500 0.3214 0.1111  plane waves:  213863
 k-point    58 :   0.2500 0.3214 0.1111  plane waves:  213864
 k-point    59 :   0.3500 0.3214 0.1111  plane waves:  213877
 k-point    60 :   0.4500 0.3214 0.1111  plane waves:  213907
 k-point    61 :   0.0500 0.3929 0.1111  plane waves:  213844
 k-point    62 :   0.1500 0.3929 0.1111  plane waves:  213857
 k-point    63 :   0.2500 0.3929 0.1111  plane waves:  213871
 k-point    64 :   0.3500 0.3929 0.1111  plane waves:  213909
 k-point    65 :   0.4500 0.3929 0.1111  plane waves:  213951
 k-point    66 :   0.0500 0.4643 0.1111  plane waves:  213849
 k-point    67 :   0.1500 0.4643 0.1111  plane waves:  213856
 k-point    68 :   0.2500 0.4643 0.1111  plane waves:  213879
 k-point    69 :   0.3500 0.4643 0.1111  plane waves:  213923
 k-point    70 :   0.4500 0.4643 0.1111  plane waves:  213965
 k-point    71 :   0.0500 0.0357 0.2222  plane waves:  213798
 k-point    72 :   0.1500 0.0357 0.2222  plane waves:  213780
 k-point    73 :   0.2500 0.0357 0.2222  plane waves:  213808
 k-point    74 :   0.3500 0.0357 0.2222  plane waves:  213842
 k-point    75 :   0.4500 0.0357 0.2222  plane waves:  213876
 k-point    76 :   0.0500 0.1071 0.2222  plane waves:  213842
 k-point    77 :   0.1500 0.1071 0.2222  plane waves:  213796
 k-point    78 :   0.2500 0.1071 0.2222  plane waves:  213827
 k-point    79 :   0.3500 0.1071 0.2222  plane waves:  213832
 k-point    80 :   0.4500 0.1071 0.2222  plane waves:  213876
 k-point    81 :   0.0500 0.1786 0.2222  plane waves:  213867
 k-point    82 :   0.1500 0.1786 0.2222  plane waves:  213836
 k-point    83 :   0.2500 0.1786 0.2222  plane waves:  213842
 k-point    84 :   0.3500 0.1786 0.2222  plane waves:  213854
 k-point    85 :   0.4500 0.1786 0.2222  plane waves:  213873
 k-point    86 :   0.0500 0.2500 0.2222  plane waves:  213844
 k-point    87 :   0.1500 0.2500 0.2222  plane waves:  213874
 k-point    88 :   0.2500 0.2500 0.2222  plane waves:  213888
 k-point    89 :   0.3500 0.2500 0.2222  plane waves:  213859
 k-point    90 :   0.4500 0.2500 0.2222  plane waves:  213866
 k-point    91 :   0.0500 0.3214 0.2222  plane waves:  213833
 k-point    92 :   0.1500 0.3214 0.2222  plane waves:  213858
 k-point    93 :   0.2500 0.3214 0.2222  plane waves:  213863
 k-point    94 :   0.3500 0.3214 0.2222  plane waves:  213891
 k-point    95 :   0.4500 0.3214 0.2222  plane waves:  213876
 k-point    96 :   0.0500 0.3929 0.2222  plane waves:  213837
 k-point    97 :   0.1500 0.3929 0.2222  plane waves:  213853
 k-point    98 :   0.2500 0.3929 0.2222  plane waves:  213879
 k-point    99 :   0.3500 0.3929 0.2222  plane waves:  213895
 k-point   100 :   0.4500 0.3929 0.2222  plane waves:  213916
 k-point   101 :   0.0500 0.4643 0.2222  plane waves:  213805
 k-point   102 :   0.1500 0.4643 0.2222  plane waves:  213862
 k-point   103 :   0.2500 0.4643 0.2222  plane waves:  213891
 k-point   104 :   0.3500 0.4643 0.2222  plane waves:  213912
 k-point   105 :   0.4500 0.4643 0.2222  plane waves:  213951
 k-point   106 :   0.0500 0.0357 0.3333  plane waves:  213806
 k-point   107 :   0.1500 0.0357 0.3333  plane waves:  213792
 k-point   108 :   0.2500 0.0357 0.3333  plane waves:  213809
 k-point   109 :   0.3500 0.0357 0.3333  plane waves:  213845
 k-point   110 :   0.4500 0.0357 0.3333  plane waves:  213861
 k-point   111 :   0.0500 0.1071 0.3333  plane waves:  213804
 k-point   112 :   0.1500 0.1071 0.3333  plane waves:  213817
 k-point   113 :   0.2500 0.1071 0.3333  plane waves:  213825
 k-point   114 :   0.3500 0.1071 0.3333  plane waves:  213839
 k-point   115 :   0.4500 0.1071 0.3333  plane waves:  213819
 k-point   116 :   0.0500 0.1786 0.3333  plane waves:  213854
 k-point   117 :   0.1500 0.1786 0.3333  plane waves:  213814
 k-point   118 :   0.2500 0.1786 0.3333  plane waves:  213856
 k-point   119 :   0.3500 0.1786 0.3333  plane waves:  213818
 k-point   120 :   0.4500 0.1786 0.3333  plane waves:  213828
 k-point   121 :   0.0500 0.2500 0.3333  plane waves:  213842
 k-point   122 :   0.1500 0.2500 0.3333  plane waves:  213858
 k-point   123 :   0.2500 0.2500 0.3333  plane waves:  213836
 k-point   124 :   0.3500 0.2500 0.3333  plane waves:  213854
 k-point   125 :   0.4500 0.2500 0.3333  plane waves:  213869
 k-point   126 :   0.0500 0.3214 0.3333  plane waves:  213844
 k-point   127 :   0.1500 0.3214 0.3333  plane waves:  213897
 k-point   128 :   0.2500 0.3214 0.3333  plane waves:  213872
 k-point   129 :   0.3500 0.3214 0.3333  plane waves:  213864
 k-point   130 :   0.4500 0.3214 0.3333  plane waves:  213866
 k-point   131 :   0.0500 0.3929 0.3333  plane waves:  213856
 k-point   132 :   0.1500 0.3929 0.3333  plane waves:  213888
 k-point   133 :   0.2500 0.3929 0.3333  plane waves:  213902
 k-point   134 :   0.3500 0.3929 0.3333  plane waves:  213862
 k-point   135 :   0.4500 0.3929 0.3333  plane waves:  213883
 k-point   136 :   0.0500 0.4643 0.3333  plane waves:  213847
 k-point   137 :   0.1500 0.4643 0.3333  plane waves:  213855
 k-point   138 :   0.2500 0.4643 0.3333  plane waves:  213901
 k-point   139 :   0.3500 0.4643 0.3333  plane waves:  213897
 k-point   140 :   0.4500 0.4643 0.3333  plane waves:  213871
 k-point   141 :   0.0500 0.0357 0.4444  plane waves:  213829
 k-point   142 :   0.1500 0.0357 0.4444  plane waves:  213781
 k-point   143 :   0.2500 0.0357 0.4444  plane waves:  213803
 k-point   144 :   0.3500 0.0357 0.4444  plane waves:  213828
 k-point   145 :   0.4500 0.0357 0.4444  plane waves:  213862
 k-point   146 :   0.0500 0.1071 0.4444  plane waves:  213818
 k-point   147 :   0.1500 0.1071 0.4444  plane waves:  213801
 k-point   148 :   0.2500 0.1071 0.4444  plane waves:  213821
 k-point   149 :   0.3500 0.1071 0.4444  plane waves:  213803
 k-point   150 :   0.4500 0.1071 0.4444  plane waves:  213773
 k-point   151 :   0.0500 0.1786 0.4444  plane waves:  213822
 k-point   152 :   0.1500 0.1786 0.4444  plane waves:  213823
 k-point   153 :   0.2500 0.1786 0.4444  plane waves:  213830
 k-point   154 :   0.3500 0.1786 0.4444  plane waves:  213832
 k-point   155 :   0.4500 0.1786 0.4444  plane waves:  213798
 k-point   156 :   0.0500 0.2500 0.4444  plane waves:  213821
 k-point   157 :   0.1500 0.2500 0.4444  plane waves:  213844
 k-point   158 :   0.2500 0.2500 0.4444  plane waves:  213855
 k-point   159 :   0.3500 0.2500 0.4444  plane waves:  213836
 k-point   160 :   0.4500 0.2500 0.4444  plane waves:  213823
 k-point   161 :   0.0500 0.3214 0.4444  plane waves:  213813
 k-point   162 :   0.1500 0.3214 0.4444  plane waves:  213877
 k-point   163 :   0.2500 0.3214 0.4444  plane waves:  213844
 k-point   164 :   0.3500 0.3214 0.4444  plane waves:  213863
 k-point   165 :   0.4500 0.3214 0.4444  plane waves:  213837
 k-point   166 :   0.0500 0.3929 0.4444  plane waves:  213854
 k-point   167 :   0.1500 0.3929 0.4444  plane waves:  213847
 k-point   168 :   0.2500 0.3929 0.4444  plane waves:  213884
 k-point   169 :   0.3500 0.3929 0.4444  plane waves:  213851
 k-point   170 :   0.4500 0.3929 0.4444  plane waves:  213839
 k-point   171 :   0.0500 0.4643 0.4444  plane waves:  213872
 k-point   172 :   0.1500 0.4643 0.4444  plane waves:  213852
 k-point   173 :   0.2500 0.4643 0.4444  plane waves:  213862
 k-point   174 :   0.3500 0.4643 0.4444  plane waves:  213884
 k-point   175 :   0.4500 0.4643 0.4444  plane waves:  213825

 maximum and minimum number of plane-waves per node :    213972   213773

 maximum number of plane-waves:    213972
 maximum index in each direction: 
   IXMAX=   37   IYMAX=   30   IZMAX=   44
   IXMIN=  -37   IYMIN=  -31   IZMIN=  -44


 serial   3D FFT for wavefunctions
 parallel 3D FFT for charge:
    minimum data exchange during FFTs selected (reduces bandwidth)


 total amount of memory used by VASP MPI-rank0  3275704. kBytes
=======================================================================

   base      :      30000. kBytes
   nonl-proj :    2400044. kBytes
   fftplans  :      53234. kBytes
   grid      :     193201. kBytes
   one-center:          3. kBytes
   wavefun   :     599222. kBytes
 
     INWAV:  cpu time      0.0000: real time      0.0001
 Broyden mixing: mesh for mixing (old mesh)
   NGX = 75   NGY = 61   NGZ = 89
  (NGX  =300   NGY  =252   NGZ  =360)
  gives a total of 407175 points

 initial charge density was supplied:
 charge density of overlapping atoms calculated
 number of electron       3.0000000 magnetization 
 keeping initial charge density in first step


--------------------------------------------------------------------------------------------------------


