  14  14   1   0
  0.1021318E+02  0.5700971E-09  0.4044058E-09  0.6201871E-09  0.5000000E-15
  1.000000000000000E-004
  CAR 
 BS                                      
     18.00020250    -14.16197673  301      2.16675379      1.00000000
    -14.162  0.0000E+00  0.0000E+00
    -14.055  0.0000E+00  0.0000E+00
    -13.948  0.0000E+00  0.0000E+00
    -13.840  0.0000E+00  0.0000E+00
    -13.733  0.0000E+00  0.0000E+00
    -13.626  0.0000E+00  0.0000E+00
    -13.519  0.0000E+00  0.0000E+00
    -13.412  0.0000E+00  0.0000E+00
    -13.304  0.0000E+00  0.0000E+00
    -13.197  0.3680E-12  0.3946E-13
    -13.090  0.6877E-08  0.7373E-09
    -12.983  0.1415E-04  0.1518E-05
    -12.875  0.3426E-02  0.3689E-03
    -12.768  0.1141E+00  0.1260E-01
    -12.661  0.7699E+00  0.9514E-01
    -12.554  0.1871E+01  0.2957E+00
    -12.447  0.2728E+01  0.5881E+00
    -12.339  0.3706E+01  0.9855E+00
    -12.232  0.3655E+01  0.1377E+01
    -12.125  0.4287E+01  0.1837E+01
    -12.018  0.2676E+01  0.2124E+01
    -11.911  0.3604E+01  0.2510E+01
    -11.803  0.3486E+01  0.2884E+01
    -11.696  0.2108E+01  0.3110E+01
    -11.589  0.1911E+01  0.3315E+01
    -11.482  0.1874E+01  0.3516E+01
    -11.375  0.2008E+01  0.3731E+01
    -11.267  0.1721E+01  0.3916E+01
    -11.160  0.7182E+00  0.3993E+01
    -11.053  0.6767E-01  0.4000E+01
    -10.946  0.9588E-03  0.4000E+01
    -10.839  0.1694E-05  0.4000E+01
    -10.731  0.3406E-09  0.4000E+01
    -10.624  0.7434E-14  0.4000E+01
    -10.517  0.0000E+00  0.4000E+01
    -10.410  0.0000E+00  0.4000E+01
    -10.303  0.0000E+00  0.4000E+01
    -10.195  0.0000E+00  0.4000E+01
    -10.088  0.0000E+00  0.4000E+01
     -9.981  0.0000E+00  0.4000E+01
     -9.874  0.0000E+00  0.4000E+01
     -9.766  0.0000E+00  0.4000E+01
     -9.659  0.0000E+00  0.4000E+01
     -9.552  0.0000E+00  0.4000E+01
     -9.445  0.0000E+00  0.4000E+01
     -9.338  0.1506E-12  0.4000E+01
     -9.230  0.3592E-08  0.4000E+01
     -9.123  0.9424E-05  0.4000E+01
     -9.016  0.2891E-02  0.4000E+01
     -8.909  0.1192E+00  0.4013E+01
     -8.802  0.9245E+00  0.4112E+01
     -8.694  0.2497E+01  0.4380E+01
     -8.587  0.3809E+01  0.4788E+01
     -8.480  0.5166E+01  0.5342E+01
     -8.373  0.7461E+01  0.6142E+01
     -8.266  0.5181E+01  0.6697E+01
     -8.158  0.3222E+01  0.7043E+01
     -8.051  0.3254E+01  0.7392E+01
     -7.944  0.2392E+01  0.7648E+01
     -7.837  0.1687E+01  0.7829E+01
     -7.730  0.1238E+01  0.7962E+01
     -7.622  0.3399E+00  0.7998E+01
     -7.515  0.1731E-01  0.8000E+01
     -7.408  0.1222E-03  0.8000E+01
     -7.301  0.1145E-05  0.8000E+01
     -7.194  0.6028E-03  0.8000E+01
     -7.086  0.4318E-01  0.8005E+01
     -6.979  0.4530E+00  0.8053E+01
     -6.872  0.9568E+00  0.8156E+01
     -6.765  0.8489E+00  0.8247E+01
     -6.657  0.9430E+00  0.8348E+01
     -6.550  0.1013E+01  0.8457E+01
     -6.443  0.1468E+01  0.8614E+01
     -6.336  0.2009E+01  0.8829E+01
     -6.229  0.2148E+01  0.9060E+01
     -6.121  0.2831E+01  0.9363E+01
     -6.014  0.3180E+01  0.9704E+01
     -5.907  0.4658E+01  0.1020E+02
     -5.800  0.5942E+01  0.1084E+02
     -5.693  0.5144E+01  0.1139E+02
     -5.585  0.4412E+01  0.1187E+02
     -5.478  0.3825E+01  0.1228E+02
     -5.371  0.3562E+01  0.1266E+02
     -5.264  0.3325E+01  0.1301E+02
     -5.157  0.2534E+01  0.1329E+02
     -5.049  0.1919E+01  0.1349E+02
     -4.942  0.1758E+01  0.1368E+02
     -4.835  0.1496E+01  0.1384E+02
     -4.728  0.1626E+01  0.1401E+02
     -4.621  0.2014E+01  0.1423E+02
     -4.513  0.2268E+01  0.1447E+02
     -4.406  0.2069E+01  0.1470E+02
     -4.299  0.2024E+01  0.1491E+02
     -4.192  0.1886E+01  0.1511E+02
     -4.084  0.2122E+01  0.1534E+02
     -3.977  0.2263E+01  0.1558E+02
     -3.870  0.2641E+01  0.1587E+02
     -3.763  0.2966E+01  0.1619E+02
     -3.656  0.3739E+01  0.1659E+02
     -3.548  0.4284E+01  0.1705E+02
     -3.441  0.3971E+01  0.1747E+02
     -3.334  0.2924E+01  0.1778E+02
     -3.227  0.3734E+01  0.1819E+02
     -3.120  0.5255E+01  0.1875E+02
     -3.012  0.3381E+01  0.1911E+02
     -2.905  0.2618E+01  0.1939E+02
     -2.798  0.3181E+01  0.1973E+02
     -2.691  0.3473E+01  0.2010E+02
     -2.584  0.2901E+01  0.2042E+02
     -2.476  0.2831E+01  0.2072E+02
     -2.369  0.6705E+01  0.2144E+02
     -2.262  0.7424E+01  0.2223E+02
     -2.155  0.5562E+01  0.2283E+02
     -2.048  0.5824E+01  0.2345E+02
     -1.940  0.5810E+01  0.2408E+02
     -1.833  0.6287E+01  0.2475E+02
     -1.726  0.6653E+01  0.2546E+02
     -1.619  0.7166E+01  0.2623E+02
     -1.512  0.6784E+01  0.2696E+02
     -1.404  0.4705E+01  0.2746E+02
     -1.297  0.2909E+01  0.2778E+02
     -1.190  0.2889E+01  0.2809E+02
     -1.083  0.3212E+01  0.2843E+02
     -0.975  0.2726E+01  0.2872E+02
     -0.868  0.1667E+01  0.2890E+02
     -0.761  0.2167E+01  0.2913E+02
     -0.654  0.3147E+01  0.2947E+02
     -0.547  0.3911E+01  0.2989E+02
     -0.439  0.4963E+01  0.3042E+02
     -0.332  0.5699E+01  0.3103E+02
     -0.225  0.6504E+01  0.3173E+02
     -0.118  0.6810E+01  0.3246E+02
     -0.011  0.6754E+01  0.3319E+02
      0.097  0.7590E+01  0.3400E+02
      0.204  0.8778E+01  0.3494E+02
      0.311  0.8614E+01  0.3586E+02
      0.418  0.6137E+01  0.3652E+02
      0.525  0.3333E+01  0.3688E+02
      0.633  0.3432E+01  0.3725E+02
      0.740  0.3540E+01  0.3763E+02
      0.847  0.3035E+01  0.3795E+02
      0.954  0.3175E+01  0.3829E+02
      1.061  0.3365E+01  0.3865E+02
      1.169  0.2365E+01  0.3891E+02
      1.276  0.1747E+01  0.3909E+02
      1.383  0.2148E+01  0.3932E+02
      1.490  0.1951E+01  0.3953E+02
      1.597  0.2287E+01  0.3978E+02
      1.705  0.3477E+01  0.4015E+02
      1.812  0.4114E+01  0.4059E+02
      1.919  0.4189E+01  0.4104E+02
      2.026  0.4206E+01  0.4149E+02
      2.134  0.3726E+01  0.4189E+02
      2.241  0.3128E+01  0.4223E+02
      2.348  0.2974E+01  0.4255E+02
      2.455  0.3388E+01  0.4291E+02
      2.562  0.2852E+01  0.4321E+02
      2.670  0.1299E+01  0.4335E+02
      2.777  0.3255E+00  0.4339E+02
      2.884  0.1801E+00  0.4341E+02
      2.991  0.1703E+00  0.4343E+02
      3.098  0.1734E+00  0.4345E+02
      3.206  0.1667E+00  0.4346E+02
      3.313  0.1757E+00  0.4348E+02
      3.420  0.1740E+00  0.4350E+02
      3.527  0.1820E+00  0.4352E+02
      3.634  0.1916E+00  0.4354E+02
      3.742  0.2017E+00  0.4356E+02
      3.849  0.2277E+00  0.4359E+02
      3.956  0.3544E+00  0.4362E+02
      4.063  0.1089E+01  0.4374E+02
      4.170  0.1770E+01  0.4393E+02
      4.278  0.1345E+01  0.4408E+02
      4.385  0.1178E+01  0.4420E+02
      4.492  0.1152E+01  0.4432E+02
      4.599  0.1446E+01  0.4448E+02
      4.707  0.1281E+01  0.4462E+02
      4.814  0.1020E+01  0.4473E+02
      4.921  0.1052E+01  0.4484E+02
      5.028  0.8929E+00  0.4494E+02
      5.135  0.8235E+00  0.4502E+02
      5.243  0.1049E+01  0.4514E+02
      5.350  0.1434E+01  0.4529E+02
      5.457  0.1576E+01  0.4546E+02
      5.564  0.2400E+01  0.4572E+02
      5.671  0.3903E+01  0.4613E+02
      5.779  0.4815E+01  0.4665E+02
      5.886  0.4480E+01  0.4713E+02
      5.993  0.5149E+01  0.4768E+02
      6.100  0.3776E+01  0.4809E+02
      6.207  0.2614E+01  0.4837E+02
      6.315  0.2143E+01  0.4860E+02
      6.422  0.2244E+01  0.4884E+02
      6.529  0.4182E+01  0.4929E+02
      6.636  0.3986E+01  0.4971E+02
      6.743  0.3465E+01  0.5009E+02
      6.851  0.4068E+01  0.5052E+02
      6.958  0.6290E+01  0.5120E+02
      7.065  0.7353E+01  0.5198E+02
      7.172  0.6626E+01  0.5269E+02
      7.279  0.5049E+01  0.5324E+02
      7.387  0.3901E+01  0.5365E+02
      7.494  0.3859E+01  0.5407E+02
      7.601  0.4118E+01  0.5451E+02
      7.708  0.3424E+01  0.5488E+02
      7.816  0.2978E+01  0.5520E+02
      7.923  0.3162E+01  0.5553E+02
      8.030  0.2969E+01  0.5585E+02
      8.137  0.3079E+01  0.5618E+02
      8.244  0.3364E+01  0.5654E+02
      8.352  0.4983E+01  0.5708E+02
      8.459  0.5781E+01  0.5770E+02
      8.566  0.4740E+01  0.5821E+02
      8.673  0.3323E+01  0.5856E+02
      8.780  0.2590E+01  0.5884E+02
      8.888  0.2728E+01  0.5913E+02
      8.995  0.3560E+01  0.5951E+02
      9.102  0.3854E+01  0.5993E+02
      9.209  0.2892E+01  0.6024E+02
      9.316  0.2726E+01  0.6053E+02
      9.424  0.4307E+01  0.6099E+02
      9.531  0.6063E+01  0.6164E+02
      9.638  0.5808E+01  0.6226E+02
      9.745  0.4481E+01  0.6274E+02
      9.852  0.4622E+01  0.6324E+02
      9.960  0.4322E+01  0.6370E+02
     10.067  0.3972E+01  0.6413E+02
     10.174  0.4606E+01  0.6462E+02
     10.281  0.4580E+01  0.6511E+02
     10.388  0.4485E+01  0.6559E+02
     10.496  0.4562E+01  0.6608E+02
     10.603  0.4870E+01  0.6661E+02
     10.710  0.4045E+01  0.6704E+02
     10.817  0.3353E+01  0.6740E+02
     10.925  0.3445E+01  0.6777E+02
     11.032  0.4988E+01  0.6830E+02
     11.139  0.5324E+01  0.6887E+02
     11.246  0.6168E+01  0.6953E+02
     11.353  0.5968E+01  0.7017E+02
     11.461  0.5507E+01  0.7076E+02
     11.568  0.5383E+01  0.7134E+02
     11.675  0.5284E+01  0.7191E+02
     11.782  0.6119E+01  0.7256E+02
     11.889  0.7985E+01  0.7342E+02
     11.997  0.8805E+01  0.7436E+02
     12.104  0.9223E+01  0.7535E+02
     12.211  0.7933E+01  0.7620E+02
     12.318  0.5655E+01  0.7681E+02
     12.425  0.5050E+01  0.7735E+02
     12.533  0.5535E+01  0.7794E+02
     12.640  0.5440E+01  0.7853E+02
     12.747  0.4614E+01  0.7902E+02
     12.854  0.4072E+01  0.7946E+02
     12.961  0.3804E+01  0.7987E+02
     13.069  0.5717E+01  0.8048E+02
     13.176  0.8312E+01  0.8137E+02
     13.283  0.6709E+01  0.8209E+02
     13.390  0.5603E+01  0.8269E+02
     13.497  0.5180E+01  0.8325E+02
     13.605  0.4220E+01  0.8370E+02
     13.712  0.3940E+01  0.8412E+02
     13.819  0.3552E+01  0.8450E+02
     13.926  0.4948E+01  0.8503E+02
     14.034  0.8427E+01  0.8594E+02
     14.141  0.8487E+01  0.8685E+02
     14.248  0.5097E+01  0.8739E+02
     14.355  0.4552E+01  0.8788E+02
     14.462  0.4741E+01  0.8839E+02
     14.570  0.4287E+01  0.8885E+02
     14.677  0.5067E+01  0.8939E+02
     14.784  0.5699E+01  0.9000E+02
     14.891  0.4888E+01  0.9053E+02
     14.998  0.4873E+01  0.9105E+02
     15.106  0.4542E+01  0.9154E+02
     15.213  0.3729E+01  0.9194E+02
     15.320  0.4902E+01  0.9246E+02
     15.427  0.6753E+01  0.9319E+02
     15.534  0.6859E+01  0.9392E+02
     15.642  0.5152E+01  0.9447E+02
     15.749  0.3027E+01  0.9480E+02
     15.856  0.2271E+01  0.9504E+02
     15.963  0.1963E+01  0.9525E+02
     16.070  0.1345E+01  0.9540E+02
     16.178  0.1053E+01  0.9551E+02
     16.285  0.1348E+01  0.9565E+02
     16.392  0.1552E+01  0.9582E+02
     16.499  0.1127E+01  0.9594E+02
     16.607  0.4903E+00  0.9599E+02
     16.714  0.6785E-01  0.9600E+02
     16.821  0.1809E-02  0.9600E+02
     16.928  0.7106E-05  0.9600E+02
     17.035  0.3462E-08  0.9600E+02
     17.143  0.1896E-12  0.9600E+02
     17.250  0.0000E+00  0.9600E+02
     17.357  0.0000E+00  0.9600E+02
     17.464  0.0000E+00  0.9600E+02
     17.571  0.0000E+00  0.9600E+02
     17.679  0.0000E+00  0.9600E+02
     17.786  0.0000E+00  0.9600E+02
     17.893  0.0000E+00  0.9600E+02
     18.000  0.0000E+00  0.9600E+02
     18.00020250    -14.16197673  301      2.16675379      1.00000000
    -14.162  0.0000E+00  0.0000E+00  0.0000E+00  0.0000E+00  0.0000E+00  0.0000E+00  0.0000E+00  0.0000E+00  0.0000E+00
    -14.055  0.0000E+00  0.0000E+00  0.0000E+00  0.0000E+00  0.0000E+00  0.0000E+00  0.0000E+00  0.0000E+00  0.0000E+00
    -13.948  0.0000E+00  0.0000E+00  0.0000E+00  0.0000E+00  0.0000E+00  0.0000E+00  0.0000E+00  0.0000E+00  0.0000E+00
    -13.840  0.0000E+00  0.0000E+00  0.0000E+00  0.0000E+00  0.0000E+00  0.0000E+00  0.0000E+00  0.0000E+00  0.0000E+00
    -13.733  0.0000E+00  0.0000E+00  0.0000E+00  0.0000E+00  0.0000E+00  0.0000E+00  0.0000E+00  0.0000E+00  0.0000E+00
    -13.626  0.0000E+00  0.0000E+00  0.0000E+00  0.0000E+00  0.0000E+00  0.0000E+00  0.0000E+00  0.0000E+00  0.0000E+00
    -13.519  0.0000E+00  0.0000E+00  0.0000E+00  0.0000E+00  0.0000E+00  0.0000E+00  0.0000E+00  0.0000E+00  0.0000E+00
    -13.412  0.0000E+00  0.0000E+00  0.0000E+00  0.0000E+00  0.0000E+00  0.0000E+00  0.0000E+00  0.0000E+00  0.0000E+00
    -13.304  0.0000E+00  0.0000E+00  0.0000E+00  0.0000E+00  0.0000E+00  0.0000E+00  0.0000E+00  0.0000E+00  0.0000E+00
    -13.197  0.2321E-13  0.2129E-27  0.4762E-15  0.1805E-14  0.0000E+00  0.0000E+00  0.0000E+00  0.0000E+00  0.0000E+00
    -13.090  0.4335E-09  0.5254E-18  0.8905E-11  0.3381E-10  0.0000E+00  0.0000E+00  0.0000E+00  0.0000E+00  0.0000E+00
    -12.983  0.8918E-06  0.1205E-13  0.1836E-07  0.6987E-07  0.0000E+00  0.0000E+00  0.0000E+00  0.0000E+00  0.0000E+00
    -12.875  0.2158E-03  0.3202E-10  0.4466E-05  0.1704E-04  0.0000E+00  0.0000E+00  0.0000E+00  0.0000E+00  0.0000E+00
    -12.768  0.7188E-02  0.1068E-07  0.1523E-03  0.5767E-03  0.0000E+00  0.0000E+00  0.0000E+00  0.0000E+00  0.0000E+00
    -12.661  0.4884E-01  0.5190E-06  0.1122E-02  0.4031E-02  0.0000E+00  0.0000E+00  0.0000E+00  0.0000E+00  0.0000E+00
    -12.554  0.1200E+00  0.4715E-05  0.3059E-02  0.1032E-01  0.0000E+00  0.0000E+00  0.0000E+00  0.0000E+00  0.0000E+00
    -12.447  0.1768E+00  0.1143E-04  0.4603E-02  0.1596E-01  0.0000E+00  0.0000E+00  0.0000E+00  0.0000E+00  0.0000E+00
    -12.339  0.2416E+00  0.1006E-04  0.6334E-02  0.2294E-01  0.0000E+00  0.0000E+00  0.0000E+00  0.0000E+00  0.0000E+00
    -12.232  0.2184E+00  0.3028E-05  0.6812E-02  0.3033E-01  0.0000E+00  0.0000E+00  0.0000E+00  0.0000E+00  0.0000E+00
    -12.125  0.2278E+00  0.2190E-06  0.8673E-02  0.4559E-01  0.0000E+00  0.0000E+00  0.0000E+00  0.0000E+00  0.0000E+00
    -12.018  0.1390E+00  0.2737E-08  0.5706E-02  0.3056E-01  0.0000E+00  0.0000E+00  0.0000E+00  0.0000E+00  0.0000E+00
    -11.911  0.1878E+00  0.1433E-08  0.8259E-02  0.4425E-01  0.0000E+00  0.0000E+00  0.0000E+00  0.0000E+00  0.0000E+00
    -11.803  0.1718E+00  0.1126E-06  0.8702E-02  0.4542E-01  0.0000E+00  0.0000E+00  0.0000E+00  0.0000E+00  0.0000E+00
    -11.696  0.7682E-01  0.1539E-05  0.6977E-02  0.3342E-01  0.0000E+00  0.0000E+00  0.0000E+00  0.0000E+00  0.0000E+00
    -11.589  0.5950E-01  0.5087E-05  0.7054E-02  0.3343E-01  0.0000E+00  0.0000E+00  0.0000E+00  0.0000E+00  0.0000E+00
    -11.482  0.5631E-01  0.5797E-05  0.7245E-02  0.3480E-01  0.0000E+00  0.0000E+00  0.0000E+00  0.0000E+00  0.0000E+00
    -11.375  0.5890E-01  0.2414E-05  0.8157E-02  0.3884E-01  0.0000E+00  0.0000E+00  0.0000E+00  0.0000E+00  0.0000E+00
    -11.267  0.4989E-01  0.2688E-06  0.6958E-02  0.3532E-01  0.0000E+00  0.0000E+00  0.0000E+00  0.0000E+00  0.0000E+00
    -11.160  0.2058E-01  0.5604E-08  0.2875E-02  0.1525E-01  0.0000E+00  0.0000E+00  0.0000E+00  0.0000E+00  0.0000E+00
    -11.053  0.1926E-02  0.1702E-10  0.2703E-03  0.1453E-02  0.0000E+00  0.0000E+00  0.0000E+00  0.0000E+00  0.0000E+00
    -10.946  0.2720E-04  0.6499E-14  0.3827E-05  0.2068E-04  0.0000E+00  0.0000E+00  0.0000E+00  0.0000E+00  0.0000E+00
    -10.839  0.4798E-07  0.2894E-18  0.6761E-08  0.3662E-07  0.0000E+00  0.0000E+00  0.0000E+00  0.0000E+00  0.0000E+00
    -10.731  0.9634E-11  0.4373E-24  0.1359E-11  0.7372E-11  0.0000E+00  0.0000E+00  0.0000E+00  0.0000E+00  0.0000E+00
    -10.624  0.2101E-15  0.9835E-29  0.2966E-16  0.1610E-15  0.0000E+00  0.0000E+00  0.0000E+00  0.0000E+00  0.0000E+00
    -10.517  0.0000E+00  0.0000E+00  0.0000E+00  0.0000E+00  0.0000E+00  0.0000E+00  0.0000E+00  0.0000E+00  0.0000E+00
    -10.410  0.0000E+00  0.0000E+00  0.0000E+00  0.0000E+00  0.0000E+00  0.0000E+00  0.0000E+00  0.0000E+00  0.0000E+00
    -10.303  0.0000E+00  0.0000E+00  0.0000E+00  0.0000E+00  0.0000E+00  0.0000E+00  0.0000E+00  0.0000E+00  0.0000E+00
    -10.195  0.0000E+00  0.0000E+00  0.0000E+00  0.0000E+00  0.0000E+00  0.0000E+00  0.0000E+00  0.0000E+00  0.0000E+00
    -10.088  0.0000E+00  0.0000E+00  0.0000E+00  0.0000E+00  0.0000E+00  0.0000E+00  0.0000E+00  0.0000E+00  0.0000E+00
     -9.981  0.0000E+00  0.0000E+00  0.0000E+00  0.0000E+00  0.0000E+00  0.0000E+00  0.0000E+00  0.0000E+00  0.0000E+00
     -9.874  0.0000E+00  0.0000E+00  0.0000E+00  0.0000E+00  0.0000E+00  0.0000E+00  0.0000E+00  0.0000E+00  0.0000E+00
     -9.766  0.0000E+00  0.0000E+00  0.0000E+00  0.0000E+00  0.0000E+00  0.0000E+00  0.0000E+00  0.0000E+00  0.0000E+00
     -9.659  0.0000E+00  0.0000E+00  0.0000E+00  0.0000E+00  0.0000E+00  0.0000E+00  0.0000E+00  0.0000E+00  0.0000E+00
     -9.552  0.0000E+00  0.0000E+00  0.0000E+00  0.0000E+00  0.0000E+00  0.0000E+00  0.0000E+00  0.0000E+00  0.0000E+00
     -9.445  0.0000E+00  0.0000E+00  0.0000E+00  0.0000E+00  0.0000E+00  0.0000E+00  0.0000E+00  0.0000E+00  0.0000E+00
     -9.338  0.1055E-13  0.1843E-27  0.3140E-14  0.6882E-16  0.0000E+00  0.0000E+00  0.0000E+00  0.0000E+00  0.0000E+00
     -9.230  0.2518E-09  0.4467E-23  0.7492E-10  0.1664E-11  0.0000E+00  0.0000E+00  0.0000E+00  0.0000E+00  0.0000E+00
     -9.123  0.6612E-06  0.1008E-18  0.1967E-06  0.4460E-08  0.0000E+00  0.0000E+00  0.0000E+00  0.0000E+00  0.0000E+00
     -9.016  0.2028E-03  0.3174E-14  0.6043E-04  0.1432E-05  0.0000E+00  0.0000E+00  0.0000E+00  0.0000E+00  0.0000E+00
     -8.909  0.8307E-02  0.1290E-10  0.2508E-02  0.6736E-04  0.0000E+00  0.0000E+00  0.0000E+00  0.0000E+00  0.0000E+00
     -8.802  0.6280E-01  0.6439E-08  0.1992E-01  0.7192E-03  0.0000E+00  0.0000E+00  0.0000E+00  0.0000E+00  0.0000E+00
     -8.694  0.1728E+00  0.4475E-06  0.5507E-01  0.2552E-02  0.0000E+00  0.0000E+00  0.0000E+00  0.0000E+00  0.0000E+00
     -8.587  0.2973E+00  0.5342E-05  0.8411E-01  0.3798E-02  0.0000E+00  0.0000E+00  0.0000E+00  0.0000E+00  0.0000E+00
     -8.480  0.4144E+00  0.1432E-04  0.1228E+00  0.5923E-02  0.0000E+00  0.0000E+00  0.0000E+00  0.0000E+00  0.0000E+00
     -8.373  0.5494E+00  0.1027E-04  0.1963E+00  0.1087E-01  0.0000E+00  0.0000E+00  0.0000E+00  0.0000E+00  0.0000E+00
     -8.266  0.3059E+00  0.1844E-05  0.1548E+00  0.1085E-01  0.0000E+00  0.0000E+00  0.0000E+00  0.0000E+00  0.0000E+00
     -8.158  0.1477E+00  0.6463E-07  0.1098E+00  0.9802E-02  0.0000E+00  0.0000E+00  0.0000E+00  0.0000E+00  0.0000E+00
     -8.051  0.9613E-01  0.1741E-08  0.1255E+00  0.1267E-01  0.0000E+00  0.0000E+00  0.0000E+00  0.0000E+00  0.0000E+00
     -7.944  0.4397E-01  0.1040E-07  0.9663E-01  0.1267E-01  0.0000E+00  0.0000E+00  0.0000E+00  0.0000E+00  0.0000E+00
     -7.837  0.2499E-01  0.4298E-07  0.6939E-01  0.1135E-01  0.0000E+00  0.0000E+00  0.0000E+00  0.0000E+00  0.0000E+00
     -7.730  0.1808E-01  0.6194E-07  0.5192E-01  0.9036E-02  0.0000E+00  0.0000E+00  0.0000E+00  0.0000E+00  0.0000E+00
     -7.622  0.4972E-02  0.1716E-07  0.1436E-01  0.2531E-02  0.0000E+00  0.0000E+00  0.0000E+00  0.0000E+00  0.0000E+00
     -7.515  0.2534E-03  0.7447E-09  0.7329E-03  0.1297E-03  0.0000E+00  0.0000E+00  0.0000E+00  0.0000E+00  0.0000E+00
     -7.408  0.1789E-05  0.4349E-11  0.5181E-05  0.9178E-06  0.0000E+00  0.0000E+00  0.0000E+00  0.0000E+00  0.0000E+00
     -7.301  0.1727E-08  0.2791E-12  0.9372E-08  0.3553E-07  0.0000E+00  0.0000E+00  0.0000E+00  0.0000E+00  0.0000E+00
     -7.194  0.1399E-06  0.2302E-09  0.2884E-05  0.2012E-04  0.0000E+00  0.0000E+00  0.0000E+00  0.0000E+00  0.0000E+00
     -7.086  0.1245E-04  0.2682E-07  0.2068E-03  0.1442E-02  0.0000E+00  0.0000E+00  0.0000E+00  0.0000E+00  0.0000E+00
     -6.979  0.1876E-03  0.5547E-06  0.2177E-02  0.1515E-01  0.0000E+00  0.0000E+00  0.0000E+00  0.0000E+00  0.0000E+00
     -6.872  0.7132E-03  0.3030E-05  0.4643E-02  0.3214E-01  0.0000E+00  0.0000E+00  0.0000E+00  0.0000E+00  0.0000E+00
     -6.765  0.1227E-02  0.7263E-05  0.4257E-02  0.2889E-01  0.0000E+00  0.0000E+00  0.0000E+00  0.0000E+00  0.0000E+00
     -6.657  0.1648E-02  0.7272E-04  0.5012E-02  0.3256E-01  0.0000E+00  0.0000E+00  0.0000E+00  0.0000E+00  0.0000E+00
     -6.550  0.1915E-02  0.3014E-02  0.4942E-02  0.3066E-01  0.0000E+00  0.0000E+00  0.0000E+00  0.0000E+00  0.0000E+00
     -6.443  0.1979E-02  0.2184E-01  0.3001E-02  0.1724E-01  0.0000E+00  0.0000E+00  0.0000E+00  0.0000E+00  0.0000E+00
     -6.336  0.2505E-02  0.3679E-01  0.2555E-02  0.1284E-01  0.0000E+00  0.0000E+00  0.0000E+00  0.0000E+00  0.0000E+00
     -6.229  0.1192E-01  0.3307E-01  0.6825E-02  0.1542E-01  0.0000E+00  0.0000E+00  0.0000E+00  0.0000E+00  0.0000E+00
     -6.121  0.3983E-01  0.2174E-01  0.2085E-01  0.2919E-01  0.0000E+00  0.0000E+00  0.0000E+00  0.0000E+00  0.0000E+00
     -6.014  0.4251E-01  0.1632E-01  0.2587E-01  0.4577E-01  0.0000E+00  0.0000E+00  0.0000E+00  0.0000E+00  0.0000E+00
     -5.907  0.3967E-01  0.4579E-01  0.2432E-01  0.4556E-01  0.0000E+00  0.0000E+00  0.0000E+00  0.0000E+00  0.0000E+00
     -5.800  0.7913E-01  0.5564E-01  0.3822E-01  0.4229E-01  0.0000E+00  0.0000E+00  0.0000E+00  0.0000E+00  0.0000E+00
     -5.693  0.1087E+00  0.1871E-01  0.5533E-01  0.5928E-01  0.0000E+00  0.0000E+00  0.0000E+00  0.0000E+00  0.0000E+00
     -5.585  0.8764E-01  0.1384E-01  0.4766E-01  0.5118E-01  0.0000E+00  0.0000E+00  0.0000E+00  0.0000E+00  0.0000E+00
     -5.478  0.7853E-01  0.1624E-01  0.4040E-01  0.3104E-01  0.0000E+00  0.0000E+00  0.0000E+00  0.0000E+00  0.0000E+00
     -5.371  0.8299E-01  0.1601E-01  0.4085E-01  0.2142E-01  0.0000E+00  0.0000E+00  0.0000E+00  0.0000E+00  0.0000E+00
     -5.264  0.6628E-01  0.1765E-01  0.3589E-01  0.1956E-01  0.0000E+00  0.0000E+00  0.0000E+00  0.0000E+00  0.0000E+00
     -5.157  0.5686E-01  0.1106E-01  0.3356E-01  0.1955E-01  0.0000E+00  0.0000E+00  0.0000E+00  0.0000E+00  0.0000E+00
     -5.049  0.5617E-01  0.4169E-02  0.3476E-01  0.2115E-01  0.0000E+00  0.0000E+00  0.0000E+00  0.0000E+00  0.0000E+00
     -4.942  0.4989E-01  0.3250E-02  0.3450E-01  0.2213E-01  0.0000E+00  0.0000E+00  0.0000E+00  0.0000E+00  0.0000E+00
     -4.835  0.3833E-01  0.3111E-02  0.3675E-01  0.1727E-01  0.0000E+00  0.0000E+00  0.0000E+00  0.0000E+00  0.0000E+00
     -4.728  0.3722E-01  0.3057E-02  0.5173E-01  0.1689E-01  0.0000E+00  0.0000E+00  0.0000E+00  0.0000E+00  0.0000E+00
     -4.621  0.4359E-01  0.3153E-02  0.6806E-01  0.2526E-01  0.0000E+00  0.0000E+00  0.0000E+00  0.0000E+00  0.0000E+00
     -4.513  0.3652E-01  0.3008E-02  0.7962E-01  0.3752E-01  0.0000E+00  0.0000E+00  0.0000E+00  0.0000E+00  0.0000E+00
     -4.406  0.2254E-01  0.3151E-02  0.7325E-01  0.3875E-01  0.0000E+00  0.0000E+00  0.0000E+00  0.0000E+00  0.0000E+00
     -4.299  0.2012E-01  0.3245E-02  0.6507E-01  0.4450E-01  0.0000E+00  0.0000E+00  0.0000E+00  0.0000E+00  0.0000E+00
     -4.192  0.2143E-01  0.3215E-02  0.5230E-01  0.4764E-01  0.0000E+00  0.0000E+00  0.0000E+00  0.0000E+00  0.0000E+00
     -4.084  0.2351E-01  0.3957E-02  0.5035E-01  0.5787E-01  0.0000E+00  0.0000E+00  0.0000E+00  0.0000E+00  0.0000E+00
     -3.977  0.2506E-01  0.1093E-01  0.5209E-01  0.5943E-01  0.0000E+00  0.0000E+00  0.0000E+00  0.0000E+00  0.0000E+00
     -3.870  0.2666E-01  0.2921E-01  0.5559E-01  0.6102E-01  0.0000E+00  0.0000E+00  0.0000E+00  0.0000E+00  0.0000E+00
     -3.763  0.3018E-01  0.3659E-01  0.6290E-01  0.7084E-01  0.0000E+00  0.0000E+00  0.0000E+00  0.0000E+00  0.0000E+00
     -3.656  0.3860E-01  0.4960E-01  0.8223E-01  0.9467E-01  0.0000E+00  0.0000E+00  0.0000E+00  0.0000E+00  0.0000E+00
     -3.548  0.4539E-01  0.4399E-01  0.1201E+00  0.1076E+00  0.0000E+00  0.0000E+00  0.0000E+00  0.0000E+00  0.0000E+00
     -3.441  0.4353E-01  0.3139E-01  0.1282E+00  0.9193E-01  0.0000E+00  0.0000E+00  0.0000E+00  0.0000E+00  0.0000E+00
     -3.334  0.2812E-01  0.2977E-01  0.9403E-01  0.5087E-01  0.0000E+00  0.0000E+00  0.0000E+00  0.0000E+00  0.0000E+00
     -3.227  0.2676E-01  0.7045E-01  0.8932E-01  0.3101E-01  0.0000E+00  0.0000E+00  0.0000E+00  0.0000E+00  0.0000E+00
     -3.120  0.3465E-01  0.1372E+00  0.5384E-01  0.2801E-01  0.0000E+00  0.0000E+00  0.0000E+00  0.0000E+00  0.0000E+00
     -3.012  0.3200E-01  0.7697E-01  0.2003E-01  0.2807E-01  0.0000E+00  0.0000E+00  0.0000E+00  0.0000E+00  0.0000E+00
     -2.905  0.5046E-01  0.2599E-01  0.1871E-01  0.3332E-01  0.0000E+00  0.0000E+00  0.0000E+00  0.0000E+00  0.0000E+00
     -2.798  0.7299E-01  0.2354E-01  0.1769E-01  0.3516E-01  0.0000E+00  0.0000E+00  0.0000E+00  0.0000E+00  0.0000E+00
     -2.691  0.6777E-01  0.2887E-01  0.1704E-01  0.3652E-01  0.0000E+00  0.0000E+00  0.0000E+00  0.0000E+00  0.0000E+00
     -2.584  0.4422E-01  0.2080E-01  0.1449E-01  0.3797E-01  0.0000E+00  0.0000E+00  0.0000E+00  0.0000E+00  0.0000E+00
     -2.476  0.2758E-01  0.9240E-02  0.1024E-01  0.3465E-01  0.0000E+00  0.0000E+00  0.0000E+00  0.0000E+00  0.0000E+00
     -2.369  0.4448E-01  0.8155E-02  0.1499E-01  0.4615E-01  0.0000E+00  0.0000E+00  0.0000E+00  0.0000E+00  0.0000E+00
     -2.262  0.3892E-01  0.1446E-01  0.1692E-01  0.5793E-01  0.0000E+00  0.0000E+00  0.0000E+00  0.0000E+00  0.0000E+00
     -2.155  0.2890E-01  0.3764E-01  0.1826E-01  0.8463E-01  0.0000E+00  0.0000E+00  0.0000E+00  0.0000E+00  0.0000E+00
     -2.048  0.5083E-01  0.4168E-01  0.3282E-01  0.1368E+00  0.0000E+00  0.0000E+00  0.0000E+00  0.0000E+00  0.0000E+00
     -1.940  0.6031E-01  0.2905E-01  0.5028E-01  0.1464E+00  0.0000E+00  0.0000E+00  0.0000E+00  0.0000E+00  0.0000E+00
     -1.833  0.5514E-01  0.5375E-01  0.6024E-01  0.1291E+00  0.0000E+00  0.0000E+00  0.0000E+00  0.0000E+00  0.0000E+00
     -1.726  0.3354E-01  0.1234E+00  0.5532E-01  0.9249E-01  0.0000E+00  0.0000E+00  0.0000E+00  0.0000E+00  0.0000E+00
     -1.619  0.2013E-01  0.1372E+00  0.7647E-01  0.1143E+00  0.0000E+00  0.0000E+00  0.0000E+00  0.0000E+00  0.0000E+00
     -1.512  0.1700E-01  0.8791E-01  0.8279E-01  0.1900E+00  0.0000E+00  0.0000E+00  0.0000E+00  0.0000E+00  0.0000E+00
     -1.404  0.1090E-01  0.5415E-01  0.5098E-01  0.1690E+00  0.0000E+00  0.0000E+00  0.0000E+00  0.0000E+00  0.0000E+00
     -1.297  0.8025E-02  0.3143E-01  0.2555E-01  0.1024E+00  0.0000E+00  0.0000E+00  0.0000E+00  0.0000E+00  0.0000E+00
     -1.190  0.1284E-01  0.2074E-01  0.2013E-01  0.9000E-01  0.0000E+00  0.0000E+00  0.0000E+00  0.0000E+00  0.0000E+00
     -1.083  0.1740E-01  0.1661E-01  0.1724E-01  0.1030E+00  0.0000E+00  0.0000E+00  0.0000E+00  0.0000E+00  0.0000E+00
     -0.975  0.1549E-01  0.1395E-01  0.1495E-01  0.9450E-01  0.0000E+00  0.0000E+00  0.0000E+00  0.0000E+00  0.0000E+00
     -0.868  0.1086E-01  0.1464E-01  0.1112E-01  0.2919E-01  0.0000E+00  0.0000E+00  0.0000E+00  0.0000E+00  0.0000E+00
     -0.761  0.2049E-01  0.1611E-01  0.1302E-01  0.7696E-02  0.0000E+00  0.0000E+00  0.0000E+00  0.0000E+00  0.0000E+00
     -0.654  0.3395E-01  0.1465E-01  0.1894E-01  0.8804E-02  0.0000E+00  0.0000E+00  0.0000E+00  0.0000E+00  0.0000E+00
     -0.547  0.3733E-01  0.2767E-01  0.2562E-01  0.1129E-01  0.0000E+00  0.0000E+00  0.0000E+00  0.0000E+00  0.0000E+00
     -0.439  0.3067E-01  0.5437E-01  0.3142E-01  0.1376E-01  0.0000E+00  0.0000E+00  0.0000E+00  0.0000E+00  0.0000E+00
     -0.332  0.2315E-01  0.8684E-01  0.3844E-01  0.1597E-01  0.0000E+00  0.0000E+00  0.0000E+00  0.0000E+00  0.0000E+00
     -0.225  0.2069E-01  0.1146E+00  0.5515E-01  0.1793E-01  0.0000E+00  0.0000E+00  0.0000E+00  0.0000E+00  0.0000E+00
     -0.118  0.2093E-01  0.1032E+00  0.8214E-01  0.1929E-01  0.0000E+00  0.0000E+00  0.0000E+00  0.0000E+00  0.0000E+00
     -0.011  0.1997E-01  0.1159E+00  0.8082E-01  0.2257E-01  0.0000E+00  0.0000E+00  0.0000E+00  0.0000E+00  0.0000E+00
      0.097  0.3028E-01  0.1456E+00  0.5835E-01  0.4631E-01  0.0000E+00  0.0000E+00  0.0000E+00  0.0000E+00  0.0000E+00
      0.204  0.5643E-01  0.1365E+00  0.6425E-01  0.9270E-01  0.0000E+00  0.0000E+00  0.0000E+00  0.0000E+00  0.0000E+00
      0.311  0.6958E-01  0.1331E+00  0.8017E-01  0.1132E+00  0.0000E+00  0.0000E+00  0.0000E+00  0.0000E+00  0.0000E+00
      0.418  0.4585E-01  0.1059E+00  0.5677E-01  0.7333E-01  0.0000E+00  0.0000E+00  0.0000E+00  0.0000E+00  0.0000E+00
      0.525  0.1690E-01  0.4186E-01  0.5662E-01  0.3962E-01  0.0000E+00  0.0000E+00  0.0000E+00  0.0000E+00  0.0000E+00
      0.633  0.1879E-01  0.1324E-01  0.8877E-01  0.6449E-01  0.0000E+00  0.0000E+00  0.0000E+00  0.0000E+00  0.0000E+00
      0.740  0.1885E-01  0.9158E-02  0.9333E-01  0.6243E-01  0.0000E+00  0.0000E+00  0.0000E+00  0.0000E+00  0.0000E+00
      0.847  0.1443E-01  0.1095E-01  0.7369E-01  0.4648E-01  0.0000E+00  0.0000E+00  0.0000E+00  0.0000E+00  0.0000E+00
      0.954  0.1358E-01  0.1094E-01  0.8332E-01  0.4715E-01  0.0000E+00  0.0000E+00  0.0000E+00  0.0000E+00  0.0000E+00
      1.061  0.1305E-01  0.1126E-01  0.8972E-01  0.5044E-01  0.0000E+00  0.0000E+00  0.0000E+00  0.0000E+00  0.0000E+00
      1.169  0.8194E-02  0.1202E-01  0.5379E-01  0.3526E-01  0.0000E+00  0.0000E+00  0.0000E+00  0.0000E+00  0.0000E+00
      1.276  0.3293E-02  0.2241E-01  0.2038E-01  0.1560E-01  0.0000E+00  0.0000E+00  0.0000E+00  0.0000E+00  0.0000E+00
      1.383  0.1794E-02  0.3643E-01  0.1131E-01  0.9835E-02  0.0000E+00  0.0000E+00  0.0000E+00  0.0000E+00  0.0000E+00
      1.490  0.1524E-02  0.3119E-01  0.1020E-01  0.9258E-02  0.0000E+00  0.0000E+00  0.0000E+00  0.0000E+00  0.0000E+00
      1.597  0.1435E-02  0.4559E-01  0.9847E-02  0.9253E-02  0.0000E+00  0.0000E+00  0.0000E+00  0.0000E+00  0.0000E+00
      1.705  0.1338E-02  0.8020E-01  0.9353E-02  0.8785E-02  0.0000E+00  0.0000E+00  0.0000E+00  0.0000E+00  0.0000E+00
      1.812  0.1368E-02  0.9104E-01  0.9324E-02  0.8789E-02  0.0000E+00  0.0000E+00  0.0000E+00  0.0000E+00  0.0000E+00
      1.919  0.1427E-02  0.9205E-01  0.9237E-02  0.8342E-02  0.0000E+00  0.0000E+00  0.0000E+00  0.0000E+00  0.0000E+00
      2.026  0.1695E-02  0.9719E-01  0.9649E-02  0.8100E-02  0.0000E+00  0.0000E+00  0.0000E+00  0.0000E+00  0.0000E+00
      2.134  0.2405E-02  0.8594E-01  0.1099E-01  0.7794E-02  0.0000E+00  0.0000E+00  0.0000E+00  0.0000E+00  0.0000E+00
      2.241  0.3540E-02  0.5944E-01  0.1290E-01  0.7015E-02  0.0000E+00  0.0000E+00  0.0000E+00  0.0000E+00  0.0000E+00
      2.348  0.3296E-02  0.5580E-01  0.1124E-01  0.5613E-02  0.0000E+00  0.0000E+00  0.0000E+00  0.0000E+00  0.0000E+00
      2.455  0.3763E-02  0.6834E-01  0.1150E-01  0.4190E-02  0.0000E+00  0.0000E+00  0.0000E+00  0.0000E+00  0.0000E+00
      2.562  0.3200E-02  0.6460E-01  0.9930E-02  0.3369E-02  0.0000E+00  0.0000E+00  0.0000E+00  0.0000E+00  0.0000E+00