   14   14    1    1
  0.1021318E+02  0.5700971E-09  0.4044058E-09  0.6201871E-09  0.5000000E-15
  1.000000000000000E-004
  CAR 
 BS                                      
     42    168     48
 
  0.0000000E+00  0.0000000E+00  0.0000000E+00  0.5952381E-02
      1        -12.700096   1.000000
      2        -11.518524   1.000000
      3         -8.660206   1.000000
      4         -8.367302   1.000000
      5         -6.054677   1.000000
      6         -5.092636   1.000000
      7         -4.680632   1.000000
      8         -4.377621   1.000000
      9         -3.934889   1.000000
     10         -3.527783   1.000000
     11         -2.404745   1.000000
     12         -2.222287   1.000000
     13         -2.104480   1.000000
     14         -1.066439   1.000000
     15         -0.020374   1.000000
     16          0.013827   1.000000
     17          0.041246   1.000000
     18          0.089713   1.000000
     19          0.673144   1.000000
     20          2.119477   0.900129
     21          2.153411   0.788836
     22          2.242307   0.324632
     23          5.505208   0.000000
     24          5.726946   0.000000
     25          5.734976   0.000000
     26          5.971506   0.000000
     27          6.724531   0.000000
     28          7.698082   0.000000
     29          7.719012   0.000000
     30          8.621849   0.000000
     31          8.850178   0.000000
     32          8.854946   0.000000
     33          9.051221   0.000000
     34         10.026568   0.000000
     35         11.192000   0.000000
     36         11.406385   0.000000
     37         11.517933   0.000000
     38         11.781980   0.000000
     39         11.958538   0.000000
     40         12.294842   0.000000
     41         12.921513   0.000000
     42         13.342175   0.000000
     43         13.527666   0.000000
     44         15.523651   0.000000
     45         15.581719   0.000000
     46         15.920744   0.000000
     47         16.310171   0.000000
     48         16.538283   0.000000
 
  0.0000000E+00  0.0000000E+00  0.2173913E-01  0.5952381E-02
      1        -12.699672   1.000000
      2        -11.519357   1.000000
      3         -8.659965   1.000000
      4         -8.366007   1.000000
      5         -6.060025   1.000000
      6         -5.103756   1.000000
      7         -4.668169   1.000000
      8         -4.371817   1.000000
      9         -3.934077   1.000000
     10         -3.523333   1.000000
     11         -2.404396   1.000000
     12         -2.222562   1.000000
     13         -2.107343   1.000000
     14         -1.068642   1.000000
     15         -0.019293   1.000000
     16          0.014681   1.000000
     17          0.045004   1.000000
     18          0.081136   1.000000
     19          0.661835   1.000000
     20          2.115751   0.909058
     21          2.151445   0.796786
     22          2.256534   0.255916
     23          5.504663   0.000000
     24          5.727432   0.000000
     25          5.733575   0.000000
     26          5.971127   0.000000
     27          6.729861   0.000000
     28          7.692972   0.000000
     29          7.719909   0.000000
     30          8.626345   0.000000
     31          8.818062   0.000000
     32          8.896462   0.000000
     33          9.053360   0.000000
     34         10.030437   0.000000
     35         11.192594   0.000000
     36         11.404601   0.000000
     37         11.520088   0.000000
     38         11.761710   0.000000
     39         11.954964   0.000000
     40         12.297250   0.000000
     41         12.929052   0.000000
     42         13.334040   0.000000
     43         13.545512   0.000000
     44         15.527232   0.000000
     45         15.570460   0.000000
     46         15.900750   0.000000
     47         16.311033   0.000000
     48         16.542369   0.000000
 
  0.0000000E+00  0.0000000E+00  0.4347826E-01  0.5952381E-02
      1        -12.698402   1.000000
      2        -11.521839   1.000000
      3         -8.659244   1.000000
      4         -8.362128   1.000000
      5         -6.075801   1.000000
      6         -5.133689   1.000000
      7         -4.634217   1.000000
      8         -4.354653   1.000000
      9         -3.931647   1.000000
     10         -3.510013   1.000000
     11         -2.403356   1.000000
     12         -2.223393   1.000000
     13         -2.115853   1.000000
     14         -1.075206   1.000000
     15         -0.016055   1.000000
     16          0.017221   1.000000
     17          0.055395   1.000000
     18          0.056211   1.000000
     19          0.629413   1.000000
     20          2.104665   0.932119
     21          2.145554   0.819513
     22          2.297722   0.107769
     23          5.503026   0.000000
     24          5.705502   0.000000
     25          5.753339   0.000000
     26          5.970016   0.000000
     27          6.745208   0.000000
     28          7.677993   0.000000
     29          7.722561   0.000000
     30          8.639761   0.000000
     31          8.792996   0.000000
     32          8.949295   0.000000
     33          9.059765   0.000000
     34         10.042072   0.000000
     35         11.194185   0.000000
     36         11.399211   0.000000
     37         11.526543   0.000000
     38         11.703345   0.000000
     39         11.944992   0.000000
     40         12.304460   0.000000
     41         12.950956   0.000000
     42         13.309894   0.000000
     43         13.596597   0.000000
     44         15.537444   0.000000
     45         15.538167   0.000000
     46         15.843478   0.000000
     47         16.314619   0.000000
     48         16.429270   0.000000
 
  0.0000000E+00  0.0000000E+00  0.6521739E-01  0.5952381E-02
      1        -12.696297   1.000000
      2        -11.525935   1.000000
      3         -8.658057   1.000000
      4         -8.355706   1.000000
      5         -6.101255   1.000000
      6         -5.175712   1.000000
      7         -4.585540   1.000000
      8         -4.326826   1.000000
      9         -3.927609   1.000000
     10         -3.487927   1.000000
     11         -2.401612   1.000000
     12         -2.224766   1.000000
     13         -2.129759   1.000000
     14         -1.086017   1.000000
     15         -0.010687   1.000000
     16          0.012652   1.000000
     17          0.021363   1.000000
     18          0.074616   1.000000
     19          0.579697   1.000000
     20          2.086512   0.959810
     21          2.135787   0.853517
     22          2.361948   0.015906
     23          5.500241   0.000000
     24          5.670996   0.000000
     25          5.785974   0.000000
     26          5.968243   0.000000
     27          6.768825   0.000000
     28          7.654077   0.000000
     29          7.726829   0.000000
     30          8.661952   0.000000
     31          8.776730   0.000000
     32          9.010491   0.000000
     33          9.070384   0.000000
     34         10.061532   0.000000
     35         11.196193   0.000000
     36         11.390339   0.000000
     37         11.537219   0.000000
     38         11.612900   0.000000
     39         11.930747   0.000000
     40         12.316434   0.000000
     41         12.985361   0.000000
     42         13.270590   0.000000
     43         13.674806   0.000000
     44         15.488583   0.000000
     45         15.552885   0.000000
     46         15.755830   0.000000
     47         16.310612   0.000000
     48         16.318681   0.000000
 
  0.0000000E+00  0.0000000E+00  0.8695652E-01  0.5952381E-02
      1        -12.693390   1.000000
      2        -11.531569   1.000000
      3         -8.656415   1.000000
      4         -8.346781   1.000000
      5         -6.135285   1.000000
      6         -5.224246   1.000000
      7         -4.527765   1.000000
      8         -4.289368   1.000000
      9         -3.922025   1.000000
     10         -3.457240   1.000000
     11         -2.399171   1.000000
     12         -2.226683   1.000000
     13         -2.148705   1.000000
     14         -1.100919   1.000000
     15         -0.046607   1.000000
     16         -0.003224   1.000000
     17          0.026959   1.000000
     18          0.099856   1.000000
     19          0.517322   1.000000
     20          2.061759   0.982072
     21          2.122124   0.893407
     22          2.444334   0.000463
     23          5.496304   0.000000
     24          5.626339   0.000000
     25          5.831004   0.000000
     26          5.965936   0.000000
     27          6.798473   0.000000
     28          7.622625   0.000000
     29          7.732510   0.000000
     30          8.692602   0.000000
     31          8.768414   0.000000
     32          9.079134   0.000000
     33          9.085133   0.000000
     34         10.088922   0.000000
     35         11.197703   0.000000
     36         11.378125   0.000000
     37         11.497481   0.000000
     38         11.552064   0.000000
     39         11.915186   0.000000
     40         12.333123   0.000000
     41         13.029741   0.000000
     42         13.217398   0.000000
     43         13.772878   0.000000
     44         15.426294   0.000000
     45         15.571345   0.000000
     46         15.645392   0.000000
     47         16.186269   0.000000
     48         16.368572   0.000000
 
  0.0000000E+00  0.0000000E+00  0.1086957E+00  0.5952381E-02
      1        -12.689712   1.000000
      2        -11.538658   1.000000
      3         -8.654360   1.000000
      4         -8.335435   1.000000
      5         -6.176589   1.000000
      6         -5.275791   1.000000
      7         -4.464471   1.000000
      8         -4.243438   1.000000
      9         -3.914923   1.000000
     10         -3.418224   1.000000
     11         -2.396015   1.000000
     12         -2.229114   1.000000
     13         -2.172184   1.000000
     14         -1.119650   1.000000
     15         -0.121369   1.000000
     16          0.006291   1.000000
     17          0.033843   1.000000
     18          0.131457   1.000000
     19          0.446293   1.000000
     20          2.031009   0.994352
     21          2.104641   0.932163
     22          2.540102   0.000002
     23          5.491175   0.000000
     24          5.574080   0.000000
     25          5.887855   0.000000
     26          5.963240   0.000000
     27          6.831899   0.000000
     28          7.585211   0.000000
     29          7.739311   0.000000
     30          8.731360   0.000000
     31          8.766950   0.000000
     32          9.103882   0.000000
     33          9.154224   0.000000
     34         10.124347   0.000000
     35         11.197536   0.000000
     36         11.362801   0.000000
     37         11.363484   0.000000
     38         11.570867   0.000000
     39         11.901536   0.000000
     40         12.354508   0.000000
     41         13.081362   0.000000
     42         13.151884   0.000000
     43         13.884222   0.000000
     44         15.355545   0.000000
     45         15.518557   0.000000
     46         15.589983   0.000000
     47         16.054401   0.000000
     48         16.332333   0.000000
 
  0.0000000E+00  0.0000000E+00  0.1304348E+00  0.5952381E-02
      1        -12.685309   1.000000
      2        -11.547081   1.000000
      3         -8.651910   1.000000
      4         -8.321757   1.000000
      5         -6.223802   1.000000
      6         -5.328257   1.000000
      7         -4.397828   1.000000
      8         -4.190216   1.000000
      9         -3.906361   1.000000
     10         -3.371230   1.000000
     11         -2.392126   1.000000
     12         -2.232025   1.000000
     13         -2.199624   1.000000
     14         -1.141914   1.000000
     15         -0.210025   1.000000
     16          0.017809   1.000000
     17          0.041822   1.000000
     18          0.168880   1.000000
     19          0.369407   1.000000
     20          1.994976   0.998829
     21          2.083408   0.963463
     22          2.645184   0.000000
     23          5.484810   0.000000
     24          5.516532   0.000000
     25          5.955854   0.000000
     26          5.960341   0.000000
     27          6.867166   0.000000
     28          7.543430   0.000000
     29          7.746941   0.000000
     30          8.771142   0.000000
     31          8.777775   0.000000
     32          9.126437   0.000000
     33          9.234810   0.000000
     34         10.167879   0.000000
     35         11.194442   0.000000
     36         11.215909   0.000000
     37         11.344656   0.000000
     38         11.593367   0.000000
     39         11.892794   0.000000
     40         12.380609   0.000000
     41         13.075632   0.000000
     42         13.137575   0.000000
     43         14.003612   0.000000
     44         15.279862   0.000000
     45         15.380083   0.000000
     46         15.605598   0.000000
     47         15.918844   0.000000
     48         16.341815   0.000000
 
  0.0000000E+00  0.0000000E+00  0.1521739E+00  0.5952381E-02
      1        -12.680237   1.000000
      2        -11.556705   1.000000
      3         -8.649115   1.000000
      4         -8.305875   1.000000
      5         -6.275613   1.000000
      6         -5.380394   1.000000
      7         -4.329225   1.000000
      8         -4.130769   1.000000
      9         -3.896423   1.000000
     10         -3.316728   1.000000
     11         -2.387483   1.000000
     12         -2.235388   1.000000
     13         -2.230407   1.000000
     14         -1.167374   1.000000
     15         -0.310460   1.000000
     16          0.031220   1.000000
     17          0.050676   1.000000
     18          0.211542   1.000000
     19          0.288191   1.000000
     20          1.954425   0.999851
     21          2.058501   0.984008
     22          2.756290   0.000000
     23          5.455672   0.000000
     24          5.477155   0.000000
     25          5.957387   0.000000
     26          6.034271   0.000000
     27          6.902746   0.000000
     28          7.498748   0.000000
     29          7.754997   0.000000
     30          8.779791   0.000000
     31          8.831290   0.000000
     32          9.152513   0.000000
     33          9.319942   0.000000
     34         10.219521   0.000000
     35         11.058457   0.000000
     36         11.187346   0.000000
     37         11.324043   0.000000
     38         11.619120   0.000000
     39         11.891377   0.000000
     40         12.411514   0.000000
     41         12.990251   0.000000
     42         13.195911   0.000000
     43         14.127048   0.000000
     44         15.201996   0.000000
     45         15.233403   0.000000
     46         15.615006   0.000000
     47         15.779999   0.000000
     48         16.353617   0.000000
 
  0.0000000E+00  0.0000000E+00  0.1739130E+00  0.5952381E-02
      1        -12.674564   1.000000
      2        -11.567365   1.000000
      3         -8.646018   1.000000
      4         -8.287923   1.000000
      5         -6.330807   1.000000
      6         -5.431376   1.000000
      7         -4.259636   1.000000
      8         -4.065993   1.000000
      9         -3.885199   1.000000
     10         -3.255319   1.000000
     11         -2.382061   1.000000
     12         -2.263880   1.000000
     13         -2.239133   1.000000
     14         -1.195663   1.000000
     15         -0.420334   1.000000
     16          0.046436   1.000000
     17          0.060173   1.000000
     18          0.203303   1.000000
     19          0.258864   1.000000
     20          1.910166   0.999989
     21          2.030026   0.994572
     22          2.870842   0.000000
     23          5.393148   0.000000
     24          5.468159   0.000000
     25          5.954554   0.000000
     26          6.122352   0.000000
     27          6.937545   0.000000
     28          7.452461   0.000000
     29          7.763074   0.000000
     30          8.791784   0.000000
     31          8.891307   0.000000
     32          9.181755   0.000000
     33          9.408770   0.000000
     34         10.279176   0.000000
     35         10.893801   0.000000
     36         11.175647   0.000000
     37         11.301389   0.000000
     38         11.647538   0.000000
     39         11.898826   0.000000
     40         12.447402   0.000000
     41         12.897241   0.000000
     42         13.254121   0.000000
     43         14.251502   0.000000
     44         15.081109   0.000000
     45         15.123988   0.000000
     46         15.615629   0.000000
     47         15.639195   0.000000
     48         16.367554   0.000000
 
  0.0000000E+00  0.0000000E+00  0.1956522E+00  0.5952381E-02
      1        -12.668369   1.000000
      2        -11.578880   1.000000
      3         -8.642674   1.000000
      4         -8.268059   1.000000
      5         -6.388295   1.000000
      6         -5.480641   1.000000
      7         -4.189813   1.000000
      8         -3.996624   1.000000
      9         -3.872807   1.000000
     10         -3.187729   1.000000
     11         -2.375827   1.000000
     12         -2.299408   1.000000
     13         -2.243155   1.000000
     14         -1.226374   1.000000
     15         -0.537301   1.000000
     16          0.063329   1.000000
     17          0.070117   1.000000
     18          0.114946   1.000000
     19          0.310228   1.000000
     20          1.863011   1.000000
     21          1.998101   0.998645
     22          2.986788   0.000000
     23          5.330321   0.000000
     24          5.457784   0.000000
     25          5.951993   0.000000
     26          6.219340   0.000000
     27          6.970829   0.000000
     28          7.405658   0.000000
     29          7.770814   0.000000
     30          8.806129   0.000000
     31          8.957172   0.000000
     32          9.213726   0.000000
     33          9.500541   0.000000
     34         10.346608   0.000000
     35         10.723949   0.000000
     36         11.159386   0.000000
     37         11.277195   0.000000
     38         11.677853   0.000000
     39         11.915654   0.000000
     40         12.488552   0.000000
     41         12.797992   0.000000
     42         13.310114   0.000000
     43         14.374617   0.000000
     44         14.925329   0.000000
     45         15.047397   0.000000
     46         15.497603   0.000000
     47         15.606105   0.000000
     48         16.382964   0.000000
 
  0.0000000E+00  0.0000000E+00  0.2173913E+00  0.5952381E-02
      1        -12.661746   1.000000
      2        -11.591063   1.000000
      3         -8.639140   1.000000
      4         -8.246495   1.000000
      5         -6.447102   1.000000
      6         -5.527763   1.000000
      7         -4.120396   1.000000
      8         -3.923241   1.000000
      9         -3.859388   1.000000
     10         -3.114874   1.000000
     11         -2.368757   1.000000
     12         -2.336341   1.000000
     13         -2.247281   1.000000
     14         -1.259057   1.000000
     15         -0.659242   1.000000
     16          0.023187   1.000000
     17          0.080305   1.000000
     18          0.081749   1.000000
     19          0.365071   1.000000
     20          1.813785   1.000000
     21          1.962847   0.999765
     22          3.102469   0.000000
     23          5.268309   0.000000
     24          5.445983   0.000000
     25          5.949797   0.000000
     26          6.324506   0.000000
     27          7.002142   0.000000
     28          7.359272   0.000000
     29          7.777917   0.000000
     30          8.821970   0.000000
     31          9.028126   0.000000
     32          9.247889   0.000000
     33          9.594521   0.000000
     34         10.421406   0.000000
     35         10.550355   0.000000
     36         11.139236   0.000000
     37         11.252016   0.000000
     38         11.709131   0.000000
     39         11.941448   0.000000
     40         12.535364   0.000000
     41         12.693766   0.000000
     42         13.361847   0.000000
     43         14.494532   0.000000
     44         14.768008   0.000000
     45         14.973339   0.000000
     46         15.356258   0.000000
     47         15.586676   0.000000
     48         16.398077   0.000000
 
  0.0000000E+00  0.0000000E+00  0.2391304E+00  0.5952381E-02
      1        -12.654797   1.000000
      2        -11.603698   1.000000
      3         -8.635479   1.000000
      4         -8.223442   1.000000
      5         -6.506352   1.000000
      6         -5.572429   1.000000
      7         -4.051996   1.000000
      8         -3.846286   1.000000
      9         -3.845102   1.000000
     10         -3.037839   1.000000
     11         -2.374058   1.000000
     12         -2.360864   1.000000
     13         -2.251206   1.000000
     14         -1.293248   1.000000
     15         -0.784217   1.000000
     16         -0.071918   1.000000
     17          0.090515   1.000000
     18          0.101511   1.000000
     19          0.422856   1.000000
     20          1.763296   1.000000
     21          1.924429   0.999973
     22          3.216483   0.000000
     23          5.208031   0.000000
     24          5.432742   0.000000
     25          5.948083   0.000000
     26          6.437166   0.000000
     27          7.031238   0.000000
     28          7.314070   0.000000
     29          7.784111   0.000000
     30          8.838570   0.000000
     31          9.103378   0.000000
     32          9.283618   0.000000
     33          9.689968   0.000000
     34         10.374156   0.000000
     35         10.502936   0.000000
     36         11.116344   0.000000
     37         11.226487   0.000000
     38         11.740303   0.000000
     39         11.975090   0.000000
     40         12.585737   0.000000
     41         12.588233   0.000000
     42         13.407367   0.000000
     43         14.609701   0.000000
     44         14.611120   0.000000
     45         14.902559   0.000000
     46         15.216152   0.000000
     47         15.558995   0.000000
     48         16.419473   0.000000
 
  0.0000000E+00  0.0000000E+00  0.2608696E+00  0.5952381E-02
      1        -12.647630   1.000000
      2        -11.616559   1.000000
      3         -8.631753   1.000000
      4         -8.199175   1.000000
      5         -6.565250   1.000000
      6         -5.614368   1.000000
      7         -3.985182   1.000000
      8         -3.830138   1.000000
      9         -3.766113   1.000000
     10         -2.957989   1.000000
     11         -2.411932   1.000000
     12         -2.352283   1.000000
     13         -2.254342   1.000000
     14         -1.328432   1.000000
     15         -0.910504   1.000000
     16         -0.170176   1.000000
     17          0.100578   1.000000
     18          0.122390   1.000000
     19          0.483069   1.000000
     20          1.712313   1.000000
     21          1.883033   0.999998
     22          3.327679   0.000000
     23          5.150271   0.000000
     24          5.418103   0.000000
     25          5.946877   0.000000
     26          6.556660   0.000000
     27          7.058010   0.000000
     28          7.270689   0.000000
     29          7.789239   0.000000
     30          8.855336   0.000000
     31          9.182063   0.000000
     32          9.320258   0.000000
     33          9.786147   0.000000
     34         10.196233   0.000000
     35         10.590202   0.000000
     36         11.092234   0.000000
     37         11.201327   0.000000
     38         11.770293   0.000000
     39         12.014931   0.000000
     40         12.474988   0.000000
     41         12.647537   0.000000
     42         13.444675   0.000000
     43         14.456951   0.000000
     44         14.718853   0.000000
     45         14.835509   0.000000
     46         15.078297   0.000000
     47         15.525527   0.000000
     48         16.451703   0.000000
 
  0.0000000E+00  0.0000000E+00  0.2826087E+00  0.5952381E-02
      1        -12.640377   1.000000
      2        -11.629428   1.000000
      3         -8.628041   1.000000
      4         -8.174012   1.000000
      5         -6.623061   1.000000
      6         -5.653359   1.000000
      7         -3.920578   1.000000
      8         -3.814735   1.000000
      9         -3.683057   1.000000
     10         -2.877138   1.000000
     11         -2.449379   1.000000
     12         -2.343477   1.000000
     13         -2.255561   1.000000
     14         -1.364065   1.000000
     15         -1.036503   1.000000
     16         -0.271290   1.000000
     17          0.110308   1.000000
     18          0.144088   1.000000
     19          0.545221   1.000000
     20          1.661607   1.000000
     21          1.838819   1.000000
     22          3.434879   0.000000
     23          5.095678   0.000000
     24          5.402119   0.000000
     25          5.946175   0.000000
     26          6.682320   0.000000
     27          7.082465   0.000000
     28          7.229660   0.000000
     29          7.793187   0.000000
     30          8.871778   0.000000
     31          9.263120   0.000000
     32          9.357090   0.000000
     33          9.882233   0.000000
     34         10.017320   0.000000
     35         10.681459   0.000000
     36         11.068960   0.000000
     37         11.177247   0.000000
     38         11.798080   0.000000
     39         12.058945   0.000000
     40         12.362598   0.000000
     41         12.713441   0.000000
     42         13.471618   0.000000
     43         14.308190   0.000000
     44         14.772325   0.000000
     45         14.820870   0.000000
     46         14.943727   0.000000
     47         15.488842   0.000000
     48         16.475084   0.000000
 
  0.0000000E+00  0.0000000E+00  0.3043478E+00  0.5952381E-02
      1        -12.633171   1.000000
      2        -11.642058   1.000000
      3         -8.624406   1.000000
      4         -8.148331   1.000000
      5         -6.679055   1.000000
      6         -5.689208   1.000000
      7         -3.858808   1.000000
      8         -3.799149   1.000000
      9         -3.597436   1.000000
     10         -2.797615   1.000000
     11         -2.485803   1.000000
     12         -2.335620   1.000000
     13         -2.252662   1.000000
     14         -1.399551   1.000000
     15         -1.160522   1.000000
     16         -0.374800   1.000000
     17          0.119563   1.000000
     18          0.166283   1.000000
     19          0.608806   1.000000
     20          1.611950   1.000000
     21          1.792027   1.000000
     22          3.537091   0.000000
     23          5.044791   0.000000
     24          5.384948   0.000000
     25          5.945951   0.000000
     26          6.813562   0.000000
     27          7.104560   0.000000
     28          7.191443   0.000000
     29          7.795993   0.000000
     30          8.887513   0.000000
     31          9.345454   0.000000
     32          9.393367   0.000000
     33          9.838039   0.000000
     34          9.977338   0.000000
     35         10.772954   0.000000
     36         11.050412   0.000000
     37         11.155121   0.000000
     38         11.822853   0.000000
     39         12.104720   0.000000
     40         12.249661   0.000000
     41         12.785817   0.000000
     42         13.485877   0.000000
     43         14.168307   0.000000
     44         14.712887   0.000000
     45         14.813693   0.000000
     46         14.914854   0.000000
     47         15.451251   0.000000
     48         16.448460   0.000000
 
  0.0000000E+00  0.0000000E+00  0.3260870E+00  0.5952381E-02
      1        -12.626153   1.000000
      2        -11.654214   1.000000
      3         -8.620923   1.000000
      4         -8.122581   1.000000
      5         -6.732515   1.000000
      6         -5.721740   1.000000
      7         -3.800536   1.000000
      8         -3.783673   1.000000
      9         -3.509643   1.000000
     10         -2.722551   1.000000
     11         -2.520620   1.000000
     12         -2.330594   1.000000
     13         -2.242320   1.000000
     14         -1.434238   1.000000
     15         -1.280661   1.000000
     16         -0.480117   1.000000
     17          0.128197   1.000000
     18          0.188585   1.000000
     19          0.673351   1.000000
     20          1.564143   1.000000
     21          1.742945   1.000000
     22          3.633288   0.000000
     23          4.998120   0.000000
     24          5.366825   0.000000
     25          5.946158   0.000000
     26          6.949842   0.000000
     27          7.124363   0.000000
     28          7.156410   0.000000
     29          7.797711   0.000000
     30          8.902232   0.000000
     31          9.427746   0.000000
     32          9.428366   0.000000
     33          9.658981   0.000000
     34         10.070414   0.000000
     35         10.853499   0.000000
     36         11.047532   0.000000
     37         11.135820   0.000000
     38         11.844088   0.000000
     39         12.137323   0.000000
     40         12.149334   0.000000
     41         12.864110   0.000000
     42         13.485118   0.000000
     43         14.041512   0.000000
     44         14.656847   0.000000
     45         14.689714   0.000000
     46         15.000057   0.000000
     47         15.414579   0.000000
     48         16.345720   0.000000
 
  0.0000000E+00  0.0000000E+00  0.3478261E+00  0.5952381E-02
      1        -12.619473   1.000000
      2        -11.665653   1.000000
      3         -8.617656   1.000000
      4         -8.097266   1.000000
      5         -6.782697   1.000000
      6         -5.750798   1.000000
      7         -3.768650   1.000000
      8         -3.746488   1.000000