   14   14    1    1
  0.1021318E+02  0.5700971E-09  0.4044058E-09  0.6201871E-09  0.5000000E-15
  1.000000000000000E-004
  CAR 
 BS                                      
     42    168     48
 
  0.0000000E+00  0.0000000E+00  0.0000000E+00  0.5952381E-02
      1        -12.700059   1.000000
      2        -11.518480   1.000000
      3         -8.660188   1.000000
      4         -8.367296   1.000000
      5         -6.054658   1.000000
      6         -5.092609   1.000000
      7         -4.680643   1.000000
      8         -4.377631   1.000000
      9         -3.934859   1.000000
     10         -3.527790   1.000000
     11         -2.404713   1.000000
     12         -2.222253   1.000000
     13         -2.104448   1.000000
     14         -1.066424   1.000000
     15         -0.020353   1.000000
     16          0.013802   1.000000
     17          0.041245   1.000000
     18          0.089702   1.000000
     19          0.673141   1.000000
     20          2.119503   0.748005
     21          2.153434   0.574707
     22          2.242302   0.142668
     23          5.505217   0.000000
     24          5.726927   0.000000
     25          5.734988   0.000000
     26          5.971517   0.000000
     27          6.724542   0.000000
     28          7.698107   0.000000
     29          7.719037   0.000000
     30          8.621869   0.000000
     31          8.850186   0.000000
     32          8.854951   0.000000
     33          9.051232   0.000000
     34         10.026569   0.000000
     35         11.191990   0.000000
     36         11.406413   0.000000
     37         11.517922   0.000000
     38         11.781975   0.000000
     39         11.958546   0.000000
     40         12.294839   0.000000
     41         12.921505   0.000000
     42         13.342180   0.000000
     43         13.527683   0.000000
     44         15.523666   0.000000
     45         15.581703   0.000000
     46         15.920771   0.000000
     47         16.310191   0.000000
     48         16.538285   0.000000
 
  0.2173913E-01  0.0000000E+00  0.0000000E+00  0.5952381E-02
      1        -12.699008   1.000000
      2        -11.520371   1.000000
      3         -8.659579   1.000000
      4         -8.366979   1.000000
      5         -6.052405   1.000000
      6         -5.108071   1.000000
      7         -4.686052   1.000000
      8         -4.359656   1.000000
      9         -3.933384   1.000000
     10         -3.517763   1.000000
     11         -2.404276   1.000000
     12         -2.222548   1.000000
     13         -2.108080   1.000000
     14         -1.074333   1.000000
     15         -0.018250   1.000000
     16          0.010764   1.000000
     17          0.042318   1.000000
     18          0.090957   1.000000
     19          0.670651   1.000000
     20          2.117502   0.756949
     21          2.150923   0.588577
     22          2.239361   0.152253
     23          5.507398   0.000000
     24          5.727571   0.000000
     25          5.733698   0.000000
     26          5.981489   0.000000
     27          6.722429   0.000000
     28          7.631493   0.000000
     29          7.781066   0.000000
     30          8.625449   0.000000
     31          8.856521   0.000000
     32          8.863769   0.000000
     33          9.052102   0.000000
     34         10.028548   0.000000
     35         11.193761   0.000000
     36         11.396005   0.000000
     37         11.515663   0.000000
     38         11.762164   0.000000
     39         11.964141   0.000000
     40         12.297050   0.000000
     41         12.931149   0.000000
     42         13.362698   0.000000
     43         13.517846   0.000000
     44         15.529889   0.000000
     45         15.534456   0.000000
     46         15.958074   0.000000
     47         16.313161   0.000000
     48         16.478763   0.000000
 
  0.4347826E-01  0.0000000E+00  0.0000000E+00  0.5952381E-02
      1        -12.695845   1.000000
      2        -11.526021   1.000000
      3         -8.657736   1.000000
      4         -8.366036   1.000000
      5         -6.045792   1.000000
      6         -5.150357   1.000000
      7         -4.701405   1.000000
      8         -4.309834   1.000000
      9         -3.928968   1.000000
     10         -3.488429   1.000000
     11         -2.402971   1.000000
     12         -2.223446   1.000000
     13         -2.118908   1.000000
     14         -1.097880   1.000000
     15         -0.012010   1.000000
     16          0.001663   1.000000
     17          0.045528   1.000000
     18          0.094661   1.000000
     19          0.663161   1.000000
     20          2.111512   0.782669
     21          2.143437   0.629204
     22          2.230557   0.183446
     23          5.513829   0.000000
     24          5.729892   0.000000
     25          5.730619   0.000000
     26          6.010221   0.000000
     27          6.716149   0.000000
     28          7.552347   0.000000
     29          7.846828   0.000000
     30          8.636108   0.000000
     31          8.875455   0.000000
     32          8.889776   0.000000
     33          9.054537   0.000000
     34         10.034544   0.000000
     35         11.199092   0.000000
     36         11.364967   0.000000
     37         11.509721   0.000000
     38         11.705643   0.000000
     39         11.980863   0.000000
     40         12.303595   0.000000
     41         12.958887   0.000000
     42         13.421297   0.000000
     43         13.488757   0.000000
     44         15.428764   0.000000
     45         15.548152   0.000000
     46         16.034400   0.000000
     47         16.323042   0.000000
     48         16.382519   0.000000
 
  0.6521739E-01  0.0000000E+00  0.0000000E+00  0.5952381E-02
      1        -12.690582   1.000000
      2        -11.535366   1.000000
      3         -8.654657   1.000000
      4         -8.364497   1.000000
      5         -6.035296   1.000000
      6         -5.210894   1.000000
      7         -4.724369   1.000000
      8         -4.236773   1.000000
      9         -3.921625   1.000000
     10         -3.441800   1.000000
     11         -2.400790   1.000000
     12         -2.224939   1.000000
     13         -2.136723   1.000000
     14         -1.136581   1.000000
     15         -0.013427   1.000000
     16         -0.001814   1.000000
     17          0.050847   1.000000
     18          0.100704   1.000000
     19          0.650686   1.000000
     20          2.101631   0.821467
     21          2.131089   0.693000
     22          2.215881   0.243601
     23          5.524276   0.000000
     24          5.723728   0.000000
     25          5.738529   0.000000
     26          6.055040   0.000000
     27          6.705877   0.000000
     28          7.471373   0.000000
     29          7.906649   0.000000
     30          8.653581   0.000000
     31          8.906714   0.000000
     32          8.931684   0.000000
     33          9.058101   0.000000
     34         10.044856   0.000000
     35         11.208034   0.000000
     36         11.314081   0.000000
     37         11.502359   0.000000
     38         11.619578   0.000000
     39         12.008530   0.000000
     40         12.314313   0.000000
     41         13.001296   0.000000
     42         13.441611   0.000000
     43         13.510922   0.000000
     44         15.302096   0.000000
     45         15.577469   0.000000
     46         16.114072   0.000000
     47         16.274667   0.000000
     48         16.340499   0.000000
 
  0.8695652E-01  0.0000000E+00  0.0000000E+00  0.5952381E-02
      1        -12.683222   1.000000
      2        -11.548304   1.000000
      3         -8.650324   1.000000
      4         -8.362414   1.000000
      5         -6.021696   1.000000
      6         -5.281930   1.000000
      7         -4.751719   1.000000
      8         -4.148268   1.000000
      9         -3.911342   1.000000
     10         -3.380478   1.000000
     11         -2.397715   1.000000
     12         -2.227009   1.000000
     13         -2.161161   1.000000
     14         -1.189619   1.000000
     15         -0.034405   1.000000
     16          0.012099   1.000000
     17          0.058257   1.000000
     18          0.108847   1.000000
     19          0.633241   1.000000
     20          2.088006   0.867288
     21          2.114119   0.771675
     22          2.195335   0.343031
     23          5.538359   0.000000
     24          5.715532   0.000000
     25          5.753695   0.000000
     26          6.113278   0.000000
     27          6.691908   0.000000
     28          7.390261   0.000000
     29          7.960448   0.000000
     30          8.677469   0.000000
     31          8.949649   0.000000
     32          8.987505   0.000000
     33          9.062221   0.000000
     34         10.060003   0.000000
     35         11.220673   0.000000
     36         11.244527   0.000000
     37         11.496627   0.000000
     38         11.512007   0.000000
     39         12.046672   0.000000
     40         12.329125   0.000000
     41         13.053147   0.000000
     42         13.378136   0.000000
     43         13.623675   0.000000
     44         15.170086   0.000000
     45         15.616411   0.000000
     46         16.159866   0.000000
     47         16.183869   0.000000
     48         16.361984   0.000000
 
  0.1086957E+00  0.0000000E+00  0.0000000E+00  0.5952381E-02
      1        -12.673789   1.000000
      2        -11.564702   1.000000
      3         -8.644730   1.000000
      4         -8.359853   1.000000
      5         -6.006113   1.000000
      6         -5.358174   1.000000
      7         -4.779912   1.000000
      8         -4.049710   1.000000
      9         -3.898168   1.000000
     10         -3.307141   1.000000
     11         -2.393740   1.000000
     12         -2.229671   1.000000
     13         -2.191785   1.000000
     14         -1.255984   1.000000
     15         -0.061121   1.000000
     16          0.029342   1.000000
     17          0.067698   1.000000
     18          0.118673   1.000000
     19          0.611015   1.000000
     20          2.070808   0.912591
     21          2.092776   0.852268
     22          2.168894   0.487928
     23          5.555525   0.000000
     24          5.705701   0.000000
     25          5.777783   0.000000
     26          6.182780   0.000000
     27          6.674637   0.000000
     28          7.310301   0.000000
     29          8.008721   0.000000
     30          8.707095   0.000000
     31          9.001829   0.000000
     32          9.054855   0.000000
     33          9.067684   0.000000
     34         10.080826   0.000000
     35         11.157783   0.000000
     36         11.237063   0.000000
     37         11.389920   0.000000
     38         11.495646   0.000000
     39         12.094196   0.000000
     40         12.348280   0.000000
     41         13.107685   0.000000
     42         13.300314   0.000000
     43         13.752851   0.000000
     44         15.041684   0.000000
     45         15.663402   0.000000
     46         16.039518   0.000000
     47         16.238037   0.000000
     48         16.386367   0.000000
 
  0.1304348E+00  0.0000000E+00  0.0000000E+00  0.5952381E-02
      1        -12.662295   1.000000
      2        -11.584399   1.000000
      3         -8.637875   1.000000
      4         -8.356919   1.000000
      5         -5.989985   1.000000
      6         -5.436290   1.000000
      7         -4.805434   1.000000
      8         -3.944543   1.000000
      9         -3.882101   1.000000
     10         -3.224212   1.000000
     11         -2.388842   1.000000
     12         -2.232912   1.000000
     13         -2.228094   1.000000
     14         -1.334448   1.000000
     15         -0.093374   1.000000
     16          0.049494   1.000000
     17          0.079081   1.000000
     18          0.129513   1.000000
     19          0.584485   1.000000
     20          2.050317   0.950186
     21          2.067446   0.919905
     22          2.136610   0.665052
     23          5.575159   0.000000
     24          5.694693   0.000000
     25          5.811827   0.000000
     26          6.261985   0.000000
     27          6.654550   0.000000
     28          7.232612   0.000000
     29          8.052259   0.000000
     30          8.741601   0.000000
     31          9.044102   0.000000
     32          9.091690   0.000000
     33          9.131263   0.000000
     34         10.108521   0.000000
     35         11.055549   0.000000
     36         11.257207   0.000000
     37         11.258822   0.000000
     38         11.502164   0.000000
     39         12.148923   0.000000
     40         12.372967   0.000000
     41         13.156760   0.000000
     42         13.210159   0.000000
     43         13.893395   0.000000
     44         14.924719   0.000000
     45         15.716909   0.000000
     46         15.914930   0.000000
     47         16.273123   0.000000
     48         16.420959   0.000000
 
  0.1521739E+00  0.0000000E+00  0.0000000E+00  0.5952381E-02
      1        -12.648764   1.000000
      2        -11.607198   1.000000
      3         -8.629749   1.000000
      4         -8.353717   1.000000
      5         -5.974998   1.000000
      6         -5.514168   1.000000
      7         -4.824946   1.000000
      8         -3.863167   1.000000
      9         -3.835031   1.000000
     10         -3.133717   1.000000
     11         -2.382987   1.000000
     12         -2.269505   1.000000
     13         -2.236719   1.000000
     14         -1.423701   1.000000
     15         -0.130927   1.000000
     16          0.072119   1.000000
     17          0.092341   1.000000
     18          0.140246   1.000000
     19          0.554729   1.000000
     20          2.026814   0.976095
     21          2.038566   0.965072
     22          2.098564   0.832565
     23          5.596583   0.000000
     24          5.683053   0.000000
     25          5.856376   0.000000
     26          6.349710   0.000000
     27          6.632212   0.000000
     28          7.158003   0.000000
     29          8.091904   0.000000
     30          8.779762   0.000000
     31          9.048733   0.000000
     32          9.159868   0.000000
     33          9.214491   0.000000
     34         10.144592   0.000000
     35         10.939522   0.000000
     36         11.123165   0.000000
     37         11.280957   0.000000
     38         11.518231   0.000000
     39         12.206552   0.000000
     40         12.406371   0.000000
     41         13.109559   0.000000
     42         13.191045   0.000000
     43         14.041765   0.000000
     44         14.827315   0.000000
     45         15.775567   0.000000
     46         15.787189   0.000000
     47         16.283290   0.000000
     48         16.464256   0.000000
 
  0.1739130E+00  0.0000000E+00  0.0000000E+00  0.5952381E-02
      1        -12.633221   1.000000
      2        -11.632869   1.000000
      3         -8.620363   1.000000
      4         -8.350376   1.000000
      5         -5.962949   1.000000
      6         -5.590407   1.000000
      7         -4.835414   1.000000
      8         -3.841390   1.000000
      9         -3.722817   1.000000
     10         -3.037347   1.000000
     11         -2.376140   1.000000
     12         -2.315435   1.000000
     13         -2.241066   1.000000
     14         -1.522371   1.000000
     15         -0.173509   1.000000
     16          0.096747   1.000000
     17          0.107370   1.000000
     18          0.148837   1.000000
     19          0.523649   1.000000
     20          2.000627   0.990598
     21          2.006645   0.988222
     22          2.054895   0.943167
     23          5.619050   0.000000
     24          5.671344   0.000000
     25          5.911644   0.000000
     26          6.445002   0.000000
     27          6.608231   0.000000
     28          7.087066   0.000000
     29          8.128369   0.000000
     30          8.819913   0.000000
     31          9.040477   0.000000
     32          9.245267   0.000000
     33          9.302643   0.000000
     34         10.190675   0.000000
     35         10.811347   0.000000
     36         10.986839   0.000000
     37         11.307908   0.000000
     38         11.545095   0.000000
     39         12.259873   0.000000
     40         12.454357   0.000000
     41         13.000228   0.000000
     42         13.200957   0.000000
     43         14.195367   0.000000
     44         14.757410   0.000000
     45         15.657215   0.000000
     46         15.838227   0.000000
     47         16.262966   0.000000
     48         16.496837   0.000000
 
  0.1956522E+00  0.0000000E+00  0.0000000E+00  0.5952381E-02
      1        -12.615699   1.000000
      2        -11.661180   1.000000
      3         -8.609742   1.000000
      4         -8.347046   1.000000
      5         -5.955525   1.000000
      6         -5.664033   1.000000
      7         -4.834271   1.000000
      8         -3.816804   1.000000
      9         -3.609214   1.000000
     10         -2.936511   1.000000
     11         -2.368268   1.000000
     12         -2.365289   1.000000
     13         -2.245925   1.000000
     14         -1.628994   1.000000
     15         -0.220795   1.000000
     16          0.122899   1.000000
     17          0.124043   1.000000
     18          0.152032   1.000000
     19          0.494636   1.000000
     20          1.972127   0.997042
     21          1.972236   0.997028
     22          2.005812   0.988579
     23          5.641815   0.000000
     24          5.660120   0.000000
     25          5.977609   0.000000
     26          6.547097   0.000000
     27          6.583275   0.000000
     28          7.020157   0.000000
     29          8.162210   0.000000
     30          8.859798   0.000000
     31          9.025037   0.000000
     32          9.340226   0.000000
     33          9.394334   0.000000
     34         10.248411   0.000000
     35         10.672615   0.000000
     36         10.853605   0.000000
     37         11.337310   0.000000
     38         11.583301   0.000000
     39         12.302268   0.000000
     40         12.522261   0.000000
     41         12.883650   0.000000
     42         13.179072   0.000000
     43         14.352378   0.000000
     44         14.720559   0.000000
     45         15.525927   0.000000
     46         15.903920   0.000000
     47         16.206154   0.000000
     48         16.533413   0.000000
 
  0.2173913E+00  0.0000000E+00  0.0000000E+00  0.5952381E-02
      1        -12.596236   1.000000
      2        -11.691880   1.000000
      3         -8.597930   1.000000
      4         -8.343890   1.000000
      5         -5.953982   1.000000
      6         -5.734305   1.000000
      7         -4.819623   1.000000
      8         -3.789443   1.000000
      9         -3.495437   1.000000
     10         -2.832435   1.000000
     11         -2.418489   1.000000
     12         -2.359368   1.000000
     13         -2.251239   1.000000
     14         -1.741993   1.000000
     15         -0.272386   1.000000
     16          0.142208   1.000000
     17          0.145057   1.000000
     18          0.150110   1.000000
     19          0.472692   1.000000
     20          1.935951   0.999451
     21          1.941726   0.999270
     22          1.951614   0.998827
     23          5.649917   0.000000
     24          5.664126   0.000000
     25          6.054086   0.000000
     26          6.558065   0.000000
     27          6.655334   0.000000
     28          6.957482   0.000000
     29          8.193824   0.000000
     30          8.896344   0.000000
     31          9.003141   0.000000
     32          9.442380   0.000000
     33          9.488641   0.000000
     34         10.319227   0.000000
     35         10.525057   0.000000
     36         10.727338   0.000000
     37         11.367995   0.000000
     38         11.632818   0.000000
     39         12.333316   0.000000
     40         12.609219   0.000000
     41         12.761102   0.000000
     42         13.122851   0.000000
     43         14.511432   0.000000
     44         14.717165   0.000000
     45         15.394295   0.000000
     46         15.971704   0.000000
     47         16.127595   0.000000
     48         16.402946   0.000000
 
  0.2391304E+00  0.0000000E+00  0.0000000E+00  0.5952381E-02
      1        -12.574873   1.000000
      2        -11.724714   1.000000
      3         -8.584996   1.000000
      4         -8.341086   1.000000
      5         -5.958921   1.000000
      6         -5.800649   1.000000
      7         -4.790475   1.000000
      8         -3.759353   1.000000
      9         -3.382825   1.000000
     10         -2.726294   1.000000
     11         -2.474488   1.000000
     12         -2.349560   1.000000
     13         -2.256921   1.000000
     14         -1.859515   1.000000
     15         -0.327844   1.000000
     16          0.122923   1.000000
     17          0.161677   1.000000
     18          0.177867   1.000000
     19          0.463061   1.000000
     20          1.892665   0.999947
     21          1.898433   0.999926
     22          1.909839   0.999860
     23          5.641222   0.000000
     24          5.685250   0.000000
     25          6.140738   0.000000
     26          6.533336   0.000000
     27          6.769144   0.000000
     28          6.899086   0.000000
     29          8.223481   0.000000
     30          8.925416   0.000000
     31          8.975355   0.000000
     32          9.549756   0.000000
     33          9.584987   0.000000
     34         10.370554   0.000000
     35         10.404217   0.000000
     36         10.612338   0.000000
     37         11.398280   0.000000
     38         11.693151   0.000000
     39         12.356906   0.000000
     40         12.633682   0.000000
     41         12.709985   0.000000
     42         13.035332   0.000000
     43         14.671401   0.000000
     44         14.741719   0.000000
     45         15.263359   0.000000
     46         16.031772   0.000000
     47         16.040876   0.000000
     48         16.247595   0.000000
 
  0.2608696E+00  0.0000000E+00  0.0000000E+00  0.5952381E-02
      1        -12.551655   1.000000
      2        -11.759417   1.000000
      3         -8.571025   1.000000
      4         -8.338830   1.000000
      5         -5.970158   1.000000
      6         -5.862597   1.000000
      7         -4.746722   1.000000
      8         -3.726582   1.000000
      9         -3.273013   1.000000
     10         -2.619359   1.000000
     11         -2.532763   1.000000
     12         -2.339437   1.000000
     13         -2.262740   1.000000
     14         -1.978975   1.000000
     15         -0.386613   1.000000
     16          0.083545   1.000000
     17          0.182238   1.000000
     18          0.205703   1.000000
     19          0.468221   1.000000
     20          1.829398   0.999999
     21          1.860354   0.999993
     22          1.876934   0.999979
     23          5.634376   0.000000
     24          5.704473   0.000000
     25          6.237159   0.000000
     26          6.509822   0.000000
     27          6.844887   0.000000
     28          6.888026   0.000000
     29          8.251362   0.000000
     30          8.941738   0.000000
     31          8.942531   0.000000
     32          9.660429   0.000000
     33          9.683115   0.000000
     34         10.211034   0.000000
     35         10.504014   0.000000
     36         10.513657   0.000000
     37         11.426093   0.000000
     38         11.763529   0.000000
     39         12.376698   0.000000
     40         12.502344   0.000000
     41         12.819370   0.000000
     42         12.923025   0.000000
     43         14.784949   0.000000
     44         14.831407   0.000000
     45         15.134387   0.000000
     46         15.923107   0.000000
     47         16.064658   0.000000
     48         16.110602   0.000000
 
  0.2826087E+00  0.0000000E+00  0.0000000E+00  0.5952381E-02
      1        -12.526628   1.000000
      2        -11.795722   1.000000
      3         -8.556111   1.000000
      4         -8.337306   1.000000
      5         -5.986845   1.000000
      6         -5.919730   1.000000
      7         -4.689028   1.000000
      8         -3.691164   1.000000
      9         -3.168289   1.000000
     10         -2.592831   1.000000
     11         -2.513328   1.000000
     12         -2.331570   1.000000
     13         -2.268044   1.000000
     14         -2.095103   1.000000
     15         -0.447961   1.000000
     16          0.028784   1.000000
     17          0.203652   1.000000
     18          0.233144   1.000000
     19          0.486856   1.000000
     20          1.762364   1.000000
     21          1.822443   0.999999
     22          1.843540   0.999998
     23          5.629722   0.000000
     24          5.721169   0.000000
     25          6.342890   0.000000
     26          6.488292   0.000000
     27          6.794770   0.000000
     28          7.011564   0.000000
     29          8.277701   0.000000
     30          8.905762   0.000000
     31          8.939252   0.000000
     32          9.772558   0.000000
     33          9.782959   0.000000
     34         10.048232   0.000000
     35         10.437177   0.000000
     36         10.618801   0.000000
     37         11.449100   0.000000
     38         11.843056   0.000000
     39         12.367972   0.000000
     40         12.395130   0.000000
     41         12.793077   0.000000
     42         12.932974   0.000000
     43         14.836732   0.000000
     44         14.990679   0.000000
     45         15.008967   0.000000
     46         15.805035   0.000000
     47         15.866066   0.000000
     48         16.179976   0.000000
 
  0.3043478E+00  0.0000000E+00  0.0000000E+00  0.5952381E-02
      1        -12.499859   1.000000
      2        -11.833361   1.000000
      3         -8.540402   1.000000
      4         -8.336710   1.000000
      5         -6.007721   1.000000
      6         -5.971701   1.000000
      7         -4.618546   1.000000
      8         -3.653189   1.000000
      9         -3.072379   1.000000
     10         -2.654232   1.000000
     11         -2.412036   1.000000
     12         -2.338902   1.000000
     13         -2.270216   1.000000
     14         -2.191020   1.000000
     15         -0.510974   1.000000
     16         -0.037854   1.000000
     17          0.225603   1.000000
     18          0.259669   1.000000
     19          0.516035   1.000000
     20          1.692121   1.000000
     21          1.785413   1.000000
     22          1.810116   1.000000
     23          5.627444   0.000000
     24          5.734753   0.000000
     25          6.457351   0.000000
     26          6.469448   0.000000
     27          6.748538   0.000000
     28          7.139312   0.000000
     29          8.302708   0.000000
     30          8.866186   0.000000
     31          8.912262   0.000000
     32          9.883589   0.000000
     33          9.884431   0.000000
     34          9.884469   0.000000
     35         10.388316   0.000000
     36         10.748170   0.000000
     37         11.465010   0.000000
     38         11.930704   0.000000
     39         12.231321   0.000000
     40         12.413536   0.000000
     41         12.651726   0.000000
     42         13.046375   0.000000
     43         14.887915   0.000000
     44         14.889182   0.000000
     45         15.148528   0.000000
     46         15.659991   0.000000
     47         15.680366   0.000000
     48         16.248038   0.000000
 
  0.3260870E+00  0.0000000E+00  0.0000000E+00  0.5952381E-02
      1        -12.471411   1.000000
      2        -11.872090   1.000000
      3         -8.524060   1.000000
      4         -8.337231   1.000000
      5         -6.031353   1.000000
      6         -6.018226   1.000000
      7         -4.536665   1.000000
      8         -3.612711   1.000000
      9         -2.992122   1.000000
     10         -2.716562   1.000000
     11         -2.394700   1.000000
     12         -2.334298   1.000000
     13         -2.251929   1.000000
     14         -2.226518   1.000000
     15         -0.574433   1.000000
     16         -0.113156   1.000000
     17          0.247764   1.000000
     18          0.284769   1.000000
     19          0.553205   1.000000
     20          1.619274   1.000000
     21          1.749973   1.000000
     22          1.777227   1.000000
     23          5.627637   0.000000
     24          5.744762   0.000000
     25          6.453918   0.000000
     26          6.579972   0.000000
     27          6.705963   0.000000
     28          7.270940   0.000000
     29          8.326614   0.000000
     30          8.824899   0.000000
     31          8.857314   0.000000
     32          9.718198   0.000000
     33          9.987478   0.000000
     34          9.994606   0.000000
     35         10.370422   0.000000
     36         10.891042   0.000000
     37         11.472023   0.000000
     38         12.025270   0.000000
     39         12.093042   0.000000
     40         12.432065   0.000000
     41         12.503970   0.000000
     42         13.154295   0.000000
     43         14.777899   0.000000
     44         14.930995   0.000000
     45         15.304240   0.000000
     46         15.454245   0.000000
     47         15.551666   0.000000
     48         16.313266   0.000000
 
  0.3478261E+00  0.0000000E+00  0.0000000E+00  0.5952381E-02
      1        -12.441352   1.000000
      2        -11.911655   1.000000
      3         -8.507253   1.000000
      4         -8.339037   1.000000
      5         -6.059046   1.000000
      6         -6.056313   1.000000
      7         -4.444793   1.000000
      8         -3.569805   1.000000