       N       E                     dE             d eps       ncg     rms          rms(c)
DAV:   1     0.731633704746E+02    0.73163E+02   -0.19587E+04 16128   0.860E+02
DAV:   2    -0.852688839924E+02   -0.15843E+03   -0.14712E+03 22800   0.159E+02
DAV:   3    -0.905422906280E+02   -0.52734E+01   -0.52440E+01 23424   0.257E+01
DAV:   4    -0.905680379853E+02   -0.25747E-01   -0.25746E-01 19824   0.205E+00
DAV:   5    -0.905682676468E+02   -0.22966E-03   -0.22966E-03 23448   0.186E-01
DAV:   6    -0.905682704307E+02   -0.27839E-05   -0.27838E-05 18888   0.205E-02
DAV:   7    -0.905682704685E+02   -0.37760E-07   -0.37912E-07 23232   0.236E-03
   1 F= -.92530567E+02 E0= -.92522602E+02  d E =-.159295E-01
