 vasp.6.4.3 19Mar24 (build May 31 2024 16:31:43) complex                        
  
 executed on             LinuxIFC date 2024.11.23  16:58:03
 running   24 mpi-ranks, with    1 threads/rank, on    1 nodes
 distrk:  each k-point on   24 cores,    1 groups
 distr:  one band on NCORE=   1 cores,   24 groups


--------------------------------------------------------------------------------------------------------


 INCAR:
   SYSTEM = BS
   ISTART = 0
   ICHARG = 11
   PREC = Accurate
   LORBIT = 11
   ENCUT = 600
   ALGO = Normal
   NELM = 64
   EDIFF = 1E-6
   EDIFFG = -1E-3
   SIGMA = 0.1
   ISMEAR = 0
   GGA = PE
   IVDW = 12

 POTCAR:    PAW_PBE B 06Sep2000                   
 POTCAR:    PAW_PBE B 06Sep2000                   
   SHA256 =  a32ced30f5ae56fd4d10b4325ff17eb3e4e38ee0f4288bc219fb012fddfa6e97 B/POTCAR              
   COPYR  = (c) Copyright 06Sep2000 Georg Kresse                                                    
   COPYR  = This file is part of the software VASP. Any use, copying, and all other rights are regul
   COPYR  = If you do not have a valid VASP license, you may not use, copy or distribute this file. 
   VRHFIN =B: s2p1                                                                                  
   LEXCH  = PE                                                                                      
   EATOM  =    71.1703 eV,    5.2309 Ry                                                             
                                                                                                    
   TITEL  = PAW_PBE B 06Sep2000                                                                     
   LULTRA =        F    use ultrasoft PP ?                                                          
   IUNSCR =        1    unscreen: 0-lin 1-nonlin 2-no                                               
   RPACOR =    1.200    partial core radius                                                         
   POMASS =   10.811; ZVAL   =    3.000    mass and valenz                                          
   RCORE  =    1.700    outmost cutoff radius                                                       
   RWIGS  =    1.710; RWIGS  =    0.905    wigner-seitz radius (au A)                               
   ENMAX  =  318.614; ENMIN  =  238.960 eV                                                          
   ICORE  =        2    local potential                                                             
   LCOR   =        T    correct aug charges                                                         
   LPAW   =        T    paw PP                                                                      
   EAUG   =  535.514                                                                                
   DEXC   =    0.000                                                                                
   RMAX   =    1.732    core radius for proj-oper                                                   
   RAUG   =    1.300    factor for augmentation sphere                                              
   RDEP   =    1.757    radius for radial grids                                                     
   RDEPT  =    1.436    core radius for aug-charge                                                  
                                                                                                    
   Atomic configuration                                                                             
    4 entries                                                                                       
     n  l   j            E        occ.                                                              
     1  0  0.50      -180.5896   2.0000                                                             
     2  0  0.50        -9.4431   2.0000                                                             
     2  1  0.50        -3.6068   1.0000                                                             
     3  2  1.50        -4.0817   0.0000                                                             
   Description                                                                                      
     l       E           TYP  RCUT    TYP  RCUT                                                     
     0     -9.4430752     23  1.500                                                                 
     0      0.8675899     23  1.500                                                                 
     1     -3.6067955     23  1.700                                                                 
     1      6.1086146     23  1.700                                                                 
     2     -4.0817478      7  1.700                                                                 
  local pseudopotential read in
  partial core-charges read in
  partial kinetic energy density read in
  atomic valenz-charges read in
  non local Contribution for L=           0  read in
    real space projection operators read in
  non local Contribution for L=           0  read in
    real space projection operators read in
  non local Contribution for L=           1  read in
    real space projection operators read in
  non local Contribution for L=           1  read in
    real space projection operators read in
    PAW grid and wavefunctions read in
 
   number of l-projection  operators is LMAX  =           4
   number of lm-projection operators is LMMAX =           8
 
  PAW_PBE B 06Sep2000                   :
 energy of atom  1       EATOM=  -71.1703
 kinetic energy error for atom=    0.0007 (will be added to EATOM!!)
 
 
 POSCAR: o-B14
  positions in direct lattice
  No initial velocities read in
 IVDW         = 12
 VDW_S6       =    1.0000
 VDW_S8       =    0.7875
 VDW_A1       =    0.4289
 VDW_A2       =    4.4407
 VDW_RADIUS   =   50.2022 A
 VDW_CNRADIUS =   21.1671 A


 exchange-correlation table for PE
   RHO(1)=    0.500       N(1)  =     2000
   RHO(2)=  100.500       N(2)  =     4000
 


--------------------------------------------------------------------------------------------------------


 ion  position               nearest neighbor table
   1  0.521  0.500  0.638-  14 1.65   5 1.68  13 1.70   2 1.73   9 1.85  11 1.85
   2  0.479  0.500  0.362-  13 1.65   6 1.68  14 1.70   1 1.73  10 1.85  12 1.85
   3  0.979  0.500  0.638-  14 1.65   7 1.68  13 1.70   4 1.73   9 1.85  11 1.85
   4  0.021  0.500  0.362-  13 1.65   8 1.68  14 1.70   3 1.73  10 1.85  12 1.85
   5  0.597  0.500  0.900-   6 1.67   1 1.68   7 1.74   9 1.81  11 1.81
   6  0.403  0.500  0.100-   5 1.67   2 1.68   8 1.74  10 1.81  12 1.81
   7  0.903  0.500  0.900-   8 1.67   3 1.68   5 1.74   9 1.81  11 1.81
   8  0.097  0.500  0.100-   7 1.67   4 1.68   6 1.74  10 1.81  12 1.81
   9  0.750  0.792  0.730-  11 1.69   7 1.81   5 1.81   3 1.85   1 1.85  14 1.97
  10  0.250  0.208  0.270-  12 1.69   8 1.81   6 1.81   4 1.85   2 1.85  13 1.97
  11  0.750  0.208  0.730-   9 1.69   7 1.81   5 1.81   3 1.85   1 1.85  14 1.97
  12  0.250  0.792  0.270-  10 1.69   8 1.81   6 1.81   4 1.85   2 1.85  13 1.97
  13  0.250  0.500  0.524-   2 1.65   4 1.65   3 1.70   1 1.70  10 1.97  12 1.97
  14  0.750  0.500  0.476-   1 1.65   3 1.65   2 1.70   4 1.70   9 1.97  11 1.97
 
  LATTYP: Found a simple orthorhombic cell.
 ALAT       =     4.0440580961
 B/A-ratio  =     1.4097153303
 C/A-ratio  =     1.5335761871
  
  Lattice vectors:
  
 A1 = (   0.0000000000,  -4.0440580961,   0.0000000000)
 A2 = (   5.7009706948,   0.0000000000,   0.0000000000)
 A3 = (   0.0000000000,   0.0000000000,   6.2018711955)


Analysis of symmetry for initial positions (statically):
=====================================================================
 Subroutine PRICEL returns:
 Original cell was already a primitive cell.
 

 Routine SETGRP: Setting up the symmetry group for a 
 simple orthorhombic supercell.


 Subroutine GETGRP returns: Found  8 space group operations
 (whereof  4 operations were pure point group operations)
 out of a pool of  8 trial point group operations.


The static configuration has the point symmetry C_2h.
 The point group associated with its full space group is D_2h.


Analysis of symmetry for dynamics (positions and initial velocities):
=====================================================================
 Subroutine PRICEL returns:
 Original cell was already a primitive cell.
 

 Routine SETGRP: Setting up the symmetry group for a 
 simple orthorhombic supercell.


 Subroutine GETGRP returns: Found  8 space group operations
 (whereof  4 operations were pure point group operations)
 out of a pool of  8 trial point group operations.


The dynamic configuration has the point symmetry C_2h.
 The point group associated with its full space group is D_2h.


 Subroutine INISYM returns: Found  8 space group operations
 (whereof  4 operations are pure point group operations),
 and found     1 'primitive' translations


----------------------------------------------------------------------------------------

                                     Primitive cell                                     

  volume of cell :     142.9845

  direct lattice vectors                    reciprocal lattice vectors
     5.700970695  0.000000000  0.000000000     0.175408725  0.000000000  0.000000000
     0.000000000  4.044058096  0.000000000     0.000000000  0.247276368  0.000000000
     0.000000000  0.000000000  6.201871195     0.000000000  0.000000000  0.161241659

  length of vectors
     5.700970695  4.044058096  6.201871195     0.175408725  0.247276368  0.161241659

  position of ions in fractional coordinates (direct lattice)
     0.521289885  0.500000000  0.637957702
     0.478710115  0.500000000  0.362042298
     0.978710115  0.500000000  0.637957702
     0.021289885  0.500000000  0.362042298
     0.597449662  0.500000000  0.899868316
     0.402550338  0.500000000  0.100131684
     0.902550338  0.500000000  0.899868316
     0.097449662  0.500000000  0.100131684
     0.750000000  0.791564932  0.729579396
     0.250000000  0.208435068  0.270420604
     0.750000000  0.208435068  0.729579396
     0.250000000  0.791564932  0.270420604
     0.250000000  0.500000000  0.523993035
     0.750000000  0.500000000  0.476006965

  ion indices of the primitive-cell ions
   primitive index   ion index
                 1           1
                 2           2
                 3           3
                 4           4
                 5           5
                 6           6
                 7           7
                 8           8
                 9           9
                10          10
                11          11
                12          12
                13          13
                14          14

----------------------------------------------------------------------------------------

 
 
 KPOINTS: K-points                                

Interpolating k-points between supplied coordinates.

 Line segments in fractional coordinates (reciprocal lattice):
    0.000000  0.000000  0.000000  ...  0.500000  0.000000  0.000000
    0.500000  0.000000  0.000000  ...  0.500000  0.000000  0.500000
    0.500000  0.000000  0.500000  ...  0.000000  0.000000  0.500000
    0.000000  0.000000  0.500000  ...  0.000000  0.500000  0.500000
    0.000000  0.500000  0.500000  ...  0.000000  0.500000  0.000000
    0.000000  0.500000  0.000000  ...  0.500000  0.500000  0.000000
    0.500000  0.500000  0.000000  ...  0.500000  0.500000  0.500000

 Generated    24 points on each line segment, for a total of    168 k-points:

 Following reciprocal coordinates:
            Coordinates               Weight
  0.000000  0.000000  0.000000      0.005952
  0.021739  0.000000  0.000000      0.005952
  0.043478  0.000000  0.000000      0.005952
  0.065217  0.000000  0.000000      0.005952
  0.086957  0.000000  0.000000      0.005952
  0.108696  0.000000  0.000000      0.005952
  0.130435  0.000000  0.000000      0.005952
  0.152174  0.000000  0.000000      0.005952
  0.173913  0.000000  0.000000      0.005952
  0.195652  0.000000  0.000000      0.005952
  0.217391  0.000000  0.000000      0.005952
  0.239130  0.000000  0.000000      0.005952
  0.260870  0.000000  0.000000      0.005952
  0.282609  0.000000  0.000000      0.005952
  0.304348  0.000000  0.000000      0.005952
  0.326087  0.000000  0.000000      0.005952
  0.347826  0.000000  0.000000      0.005952
  0.369565  0.000000  0.000000      0.005952
  0.391304  0.000000  0.000000      0.005952
  0.413043  0.000000  0.000000      0.005952
  0.434783  0.000000  0.000000      0.005952
  0.456522  0.000000  0.000000      0.005952
  0.478261  0.000000  0.000000      0.005952
  0.500000  0.000000  0.000000      0.005952
  0.500000  0.000000  0.000000      0.005952
  0.500000  0.000000  0.021739      0.005952
  0.500000  0.000000  0.043478      0.005952
  0.500000  0.000000  0.065217      0.005952
  0.500000  0.000000  0.086957      0.005952
  0.500000  0.000000  0.108696      0.005952
  0.500000  0.000000  0.130435      0.005952
  0.500000  0.000000  0.152174      0.005952
  0.500000  0.000000  0.173913      0.005952
  0.500000  0.000000  0.195652      0.005952
  0.500000  0.000000  0.217391      0.005952
  0.500000  0.000000  0.239130      0.005952
  0.500000  0.000000  0.260870      0.005952
  0.500000  0.000000  0.282609      0.005952
  0.500000  0.000000  0.304348      0.005952
  0.500000  0.000000  0.326087      0.005952
  0.500000  0.000000  0.347826      0.005952
  0.500000  0.000000  0.369565      0.005952
  0.500000  0.000000  0.391304      0.005952
  0.500000  0.000000  0.413043      0.005952
  0.500000  0.000000  0.434783      0.005952
  0.500000  0.000000  0.456522      0.005952
  0.500000  0.000000  0.478261      0.005952
  0.500000  0.000000  0.500000      0.005952
  0.500000  0.000000  0.500000      0.005952
  0.478261  0.000000  0.500000      0.005952
  0.456522  0.000000  0.500000      0.005952
  0.434783  0.000000  0.500000      0.005952
  0.413043  0.000000  0.500000      0.005952
  0.391304  0.000000  0.500000      0.005952
  0.369565  0.000000  0.500000      0.005952
  0.347826  0.000000  0.500000      0.005952
  0.326087  0.000000  0.500000      0.005952
  0.304348  0.000000  0.500000      0.005952
  0.282609  0.000000  0.500000      0.005952
  0.260870  0.000000  0.500000      0.005952
  0.239130  0.000000  0.500000      0.005952
  0.217391  0.000000  0.500000      0.005952
  0.195652  0.000000  0.500000      0.005952
  0.173913  0.000000  0.500000      0.005952
  0.152174  0.000000  0.500000      0.005952
  0.130435  0.000000  0.500000      0.005952
  0.108696  0.000000  0.500000      0.005952
  0.086957  0.000000  0.500000      0.005952
  0.065217  0.000000  0.500000      0.005952
  0.043478  0.000000  0.500000      0.005952
  0.021739  0.000000  0.500000      0.005952
  0.000000  0.000000  0.500000      0.005952
  0.000000  0.000000  0.500000      0.005952
  0.000000  0.021739  0.500000      0.005952
  0.000000  0.043478  0.500000      0.005952
  0.000000  0.065217  0.500000      0.005952
  0.000000  0.086957  0.500000      0.005952
  0.000000  0.108696  0.500000      0.005952
  0.000000  0.130435  0.500000      0.005952
  0.000000  0.152174  0.500000      0.005952
  0.000000  0.173913  0.500000      0.005952
  0.000000  0.195652  0.500000      0.005952
  0.000000  0.217391  0.500000      0.005952
  0.000000  0.239130  0.500000      0.005952
  0.000000  0.260870  0.500000      0.005952
  0.000000  0.282609  0.500000      0.005952
  0.000000  0.304348  0.500000      0.005952
  0.000000  0.326087  0.500000      0.005952
  0.000000  0.347826  0.500000      0.005952
  0.000000  0.369565  0.500000      0.005952
  0.000000  0.391304  0.500000      0.005952
  0.000000  0.413043  0.500000      0.005952
  0.000000  0.434783  0.500000      0.005952
  0.000000  0.456522  0.500000      0.005952
  0.000000  0.478261  0.500000      0.005952
  0.000000  0.500000  0.500000      0.005952
  0.000000  0.500000  0.500000      0.005952
  0.000000  0.500000  0.478261      0.005952
  0.000000  0.500000  0.456522      0.005952
  0.000000  0.500000  0.434783      0.005952
  0.000000  0.500000  0.413043      0.005952
  0.000000  0.500000  0.391304      0.005952
  0.000000  0.500000  0.369565      0.005952
  0.000000  0.500000  0.347826      0.005952
  0.000000  0.500000  0.326087      0.005952
  0.000000  0.500000  0.304348      0.005952
  0.000000  0.500000  0.282609      0.005952
  0.000000  0.500000  0.260870      0.005952
  0.000000  0.500000  0.239130      0.005952
  0.000000  0.500000  0.217391      0.005952
  0.000000  0.500000  0.195652      0.005952
  0.000000  0.500000  0.173913      0.005952
  0.000000  0.500000  0.152174      0.005952
  0.000000  0.500000  0.130435      0.005952
  0.000000  0.500000  0.108696      0.005952
  0.000000  0.500000  0.086957      0.005952
  0.000000  0.500000  0.065217      0.005952
  0.000000  0.500000  0.043478      0.005952
  0.000000  0.500000  0.021739      0.005952
  0.000000  0.500000  0.000000      0.005952
  0.000000  0.500000  0.000000      0.005952
  0.021739  0.500000  0.000000      0.005952
  0.043478  0.500000  0.000000      0.005952
  0.065217  0.500000  0.000000      0.005952
  0.086957  0.500000  0.000000      0.005952
  0.108696  0.500000  0.000000      0.005952
  0.130435  0.500000  0.000000      0.005952
  0.152174  0.500000  0.000000      0.005952
  0.173913  0.500000  0.000000      0.005952
  0.195652  0.500000  0.000000      0.005952
  0.217391  0.500000  0.000000      0.005952
  0.239130  0.500000  0.000000      0.005952
  0.260870  0.500000  0.000000      0.005952
  0.282609  0.500000  0.000000      0.005952
  0.304348  0.500000  0.000000      0.005952
  0.326087  0.500000  0.000000      0.005952
  0.347826  0.500000  0.000000      0.005952
  0.369565  0.500000  0.000000      0.005952
  0.391304  0.500000  0.000000      0.005952
  0.413043  0.500000  0.000000      0.005952
  0.434783  0.500000  0.000000      0.005952
  0.456522  0.500000  0.000000      0.005952
  0.478261  0.500000  0.000000      0.005952
  0.500000  0.500000  0.000000      0.005952
  0.500000  0.500000  0.000000      0.005952
  0.500000  0.500000  0.021739      0.005952
  0.500000  0.500000  0.043478      0.005952
  0.500000  0.500000  0.065217      0.005952
  0.500000  0.500000  0.086957      0.005952
  0.500000  0.500000  0.108696      0.005952
  0.500000  0.500000  0.130435      0.005952
  0.500000  0.500000  0.152174      0.005952
  0.500000  0.500000  0.173913      0.005952
  0.500000  0.500000  0.195652      0.005952
  0.500000  0.500000  0.217391      0.005952
  0.500000  0.500000  0.239130      0.005952
  0.500000  0.500000  0.260870      0.005952
  0.500000  0.500000  0.282609      0.005952
  0.500000  0.500000  0.304348      0.005952
  0.500000  0.500000  0.326087      0.005952
  0.500000  0.500000  0.347826      0.005952
  0.500000  0.500000  0.369565      0.005952
  0.500000  0.500000  0.391304      0.005952
  0.500000  0.500000  0.413043      0.005952
  0.500000  0.500000  0.434783      0.005952
  0.500000  0.500000  0.456522      0.005952
  0.500000  0.500000  0.478261      0.005952
  0.500000  0.500000  0.500000      0.005952

 Following cartesian coordinates:
            Coordinates               Weight
  0.000000  0.000000  0.000000      0.005952
  0.003813  0.000000  0.000000      0.005952
  0.007626  0.000000  0.000000      0.005952
  0.011440  0.000000  0.000000      0.005952
  0.015253  0.000000  0.000000      0.005952
  0.019066  0.000000  0.000000      0.005952
  0.022879  0.000000  0.000000      0.005952
  0.026693  0.000000  0.000000      0.005952
  0.030506  0.000000  0.000000      0.005952
  0.034319  0.000000  0.000000      0.005952
  0.038132  0.000000  0.000000      0.005952
  0.041946  0.000000  0.000000      0.005952
  0.045759  0.000000  0.000000      0.005952
  0.049572  0.000000  0.000000      0.005952
  0.053385  0.000000  0.000000      0.005952
  0.057198  0.000000  0.000000      0.005952
  0.061012  0.000000  0.000000      0.005952
  0.064825  0.000000  0.000000      0.005952
  0.068638  0.000000  0.000000      0.005952
  0.072451  0.000000  0.000000      0.005952
  0.076265  0.000000  0.000000      0.005952
  0.080078  0.000000  0.000000      0.005952
  0.083891  0.000000  0.000000      0.005952
  0.087704  0.000000  0.000000      0.005952
  0.087704  0.000000  0.000000      0.005952
  0.087704  0.000000  0.003505      0.005952
  0.087704  0.000000  0.007011      0.005952
  0.087704  0.000000  0.010516      0.005952
  0.087704  0.000000  0.014021      0.005952
  0.087704  0.000000  0.017526      0.005952
  0.087704  0.000000  0.021032      0.005952
  0.087704  0.000000  0.024537      0.005952
  0.087704  0.000000  0.028042      0.005952
  0.087704  0.000000  0.031547      0.005952
  0.087704  0.000000  0.035053      0.005952
  0.087704  0.000000  0.038558      0.005952
  0.087704  0.000000  0.042063      0.005952
  0.087704  0.000000  0.045568      0.005952
  0.087704  0.000000  0.049074      0.005952
  0.087704  0.000000  0.052579      0.005952
  0.087704  0.000000  0.056084      0.005952
  0.087704  0.000000  0.059589      0.005952
  0.087704  0.000000  0.063095      0.005952
  0.087704  0.000000  0.066600      0.005952
  0.087704  0.000000  0.070105      0.005952
  0.087704  0.000000  0.073610      0.005952
  0.087704  0.000000  0.077116      0.005952
  0.087704  0.000000  0.080621      0.005952
  0.087704  0.000000  0.080621      0.005952
  0.083891  0.000000  0.080621      0.005952
  0.080078  0.000000  0.080621      0.005952
  0.076265  0.000000  0.080621      0.005952
  0.072451  0.000000  0.080621      0.005952
  0.068638  0.000000  0.080621      0.005952
  0.064825  0.000000  0.080621      0.005952
  0.061012  0.000000  0.080621      0.005952
  0.057198  0.000000  0.080621      0.005952
  0.053385  0.000000  0.080621      0.005952
  0.049572  0.000000  0.080621      0.005952
  0.045759  0.000000  0.080621      0.005952
  0.041946  0.000000  0.080621      0.005952
  0.038132  0.000000  0.080621      0.005952
  0.034319  0.000000  0.080621      0.005952
  0.030506  0.000000  0.080621      0.005952
  0.026693  0.000000  0.080621      0.005952
  0.022879  0.000000  0.080621      0.005952
  0.019066  0.000000  0.080621      0.005952
  0.015253  0.000000  0.080621      0.005952
  0.011440  0.000000  0.080621      0.005952
  0.007626  0.000000  0.080621      0.005952
  0.003813  0.000000  0.080621      0.005952
  0.000000  0.000000  0.080621      0.005952
  0.000000  0.000000  0.080621      0.005952
  0.000000  0.005376  0.080621      0.005952
  0.000000  0.010751  0.080621      0.005952
  0.000000  0.016127  0.080621      0.005952
  0.000000  0.021502  0.080621      0.005952
  0.000000  0.026878  0.080621      0.005952
  0.000000  0.032253  0.080621      0.005952
  0.000000  0.037629  0.080621      0.005952
  0.000000  0.043005  0.080621      0.005952
  0.000000  0.048380  0.080621      0.005952
  0.000000  0.053756  0.080621      0.005952
  0.000000  0.059131  0.080621      0.005952
  0.000000  0.064507  0.080621      0.005952
  0.000000  0.069882  0.080621      0.005952
  0.000000  0.075258  0.080621      0.005952
  0.000000  0.080634  0.080621      0.005952
  0.000000  0.086009  0.080621      0.005952
  0.000000  0.091385  0.080621      0.005952
  0.000000  0.096760  0.080621      0.005952
  0.000000  0.102136  0.080621      0.005952
  0.000000  0.107511  0.080621      0.005952
  0.000000  0.112887  0.080621      0.005952
  0.000000  0.118263  0.080621      0.005952
  0.000000  0.123638  0.080621      0.005952
  0.000000  0.123638  0.080621      0.005952
  0.000000  0.123638  0.077116      0.005952
  0.000000  0.123638  0.073610      0.005952
  0.000000  0.123638  0.070105      0.005952
  0.000000  0.123638  0.066600      0.005952
  0.000000  0.123638  0.063095      0.005952
  0.000000  0.123638  0.059589      0.005952
  0.000000  0.123638  0.056084      0.005952
  0.000000  0.123638  0.052579      0.005952
  0.000000  0.123638  0.049074      0.005952
  0.000000  0.123638  0.045568      0.005952
  0.000000  0.123638  0.042063      0.005952
  0.000000  0.123638  0.038558      0.005952
  0.000000  0.123638  0.035053      0.005952
  0.000000  0.123638  0.031547      0.005952
  0.000000  0.123638  0.028042      0.005952
  0.000000  0.123638  0.024537      0.005952
  0.000000  0.123638  0.021032      0.005952
  0.000000  0.123638  0.017526      0.005952
  0.000000  0.123638  0.014021      0.005952
  0.000000  0.123638  0.010516      0.005952
  0.000000  0.123638  0.007011      0.005952
  0.000000  0.123638  0.003505      0.005952
  0.000000  0.123638  0.000000      0.005952
  0.000000  0.123638  0.000000      0.005952
  0.003813  0.123638  0.000000      0.005952
  0.007626  0.123638  0.000000      0.005952
  0.011440  0.123638  0.000000      0.005952
  0.015253  0.123638  0.000000      0.005952
  0.019066  0.123638  0.000000      0.005952
  0.022879  0.123638  0.000000      0.005952
  0.026693  0.123638  0.000000      0.005952
  0.030506  0.123638  0.000000      0.005952
  0.034319  0.123638  0.000000      0.005952
  0.038132  0.123638  0.000000      0.005952
  0.041946  0.123638  0.000000      0.005952
  0.045759  0.123638  0.000000      0.005952
  0.049572  0.123638  0.000000      0.005952
  0.053385  0.123638  0.000000      0.005952
  0.057198  0.123638  0.000000      0.005952
  0.061012  0.123638  0.000000      0.005952
  0.064825  0.123638  0.000000      0.005952
  0.068638  0.123638  0.000000      0.005952
  0.072451  0.123638  0.000000      0.005952
  0.076265  0.123638  0.000000      0.005952
  0.080078  0.123638  0.000000      0.005952
  0.083891  0.123638  0.000000      0.005952
  0.087704  0.123638  0.000000      0.005952
  0.087704  0.123638  0.000000      0.005952
  0.087704  0.123638  0.003505      0.005952
  0.087704  0.123638  0.007011      0.005952
  0.087704  0.123638  0.010516      0.005952
  0.087704  0.123638  0.014021      0.005952
  0.087704  0.123638  0.017526      0.005952
  0.087704  0.123638  0.021032      0.005952
  0.087704  0.123638  0.024537      0.005952
  0.087704  0.123638  0.028042      0.005952
  0.087704  0.123638  0.031547      0.005952
  0.087704  0.123638  0.035053      0.005952
  0.087704  0.123638  0.038558      0.005952
  0.087704  0.123638  0.042063      0.005952
  0.087704  0.123638  0.045568      0.005952
  0.087704  0.123638  0.049074      0.005952
  0.087704  0.123638  0.052579      0.005952
  0.087704  0.123638  0.056084      0.005952
  0.087704  0.123638  0.059589      0.005952
  0.087704  0.123638  0.063095      0.005952
  0.087704  0.123638  0.066600      0.005952
  0.087704  0.123638  0.070105      0.005952
  0.087704  0.123638  0.073610      0.005952
  0.087704  0.123638  0.077116      0.005952
  0.087704  0.123638  0.080621      0.005952
 


--------------------------------------------------------------------------------------------------------




 Dimension of arrays:
   k-points           NKPTS =    168   k-points in BZ     NKDIM =    168   number of bands    NBANDS=     48
   number of dos      NEDOS =    301   number of ions     NIONS =     14
   non local maximal  LDIM  =      4   non local SUM 2l+1 LMDIM =      8
   total plane-waves  NPLWV =  76800
   max r-space proj   IRMAX =      1   max aug-charges    IRDMAX=   8575
   dimension x,y,z NGX =    48 NGY =   32 NGZ =   50
   dimension x,y,z NGXF=    96 NGYF=   64 NGZF=  100
   support grid    NGXF=    96 NGYF=   64 NGZF=  100
   ions per type =              14
   NGX,Y,Z   is equivalent  to a cutoff of  14.00, 13.15, 13.40 a.u.
   NGXF,Y,Z  is equivalent  to a cutoff of  27.99, 26.31, 26.81 a.u.

 SYSTEM =  BS                                      
 POSCAR =  o-B14                                   

 Startparameter for this run:
   NWRITE =      2    write-flag & timer
   PREC   = accura    normal or accurate (medium, high low for compatibility)
   ISTART =      0    job   : 0-new  1-cont  2-samecut
   ICHARG =     11    charge: 1-file 2-atom 10-const
   ISPIN  =      1    spin polarized calculation?
   LNONCOLLINEAR =      F non collinear calculations
   LSORBIT =      F    spin-orbit coupling
   INIWAV =      1    electr: 0-lowe 1-rand  2-diag
   LASPH  =      F    aspherical Exc in radial PAW
 Electronic Relaxation 1
   ENCUT  =  600.0 eV  44.10 Ry    6.64 a.u.  11.39  8.08 12.39*2*pi/ulx,y,z
   ENINI  =  600.0     initial cutoff
   ENAUG  =  535.5 eV  augmentation charge cutoff
   NELM   =     64;   NELMIN=  2; NELMDL= -5     # of ELM steps 
   EDIFF  = 0.1E-05   stopping-criterion for ELM
   LREAL  =      F    real-space projection
   NLSPLINE    = F    spline interpolate recip. space projectors
   LCOMPAT=      F    compatible to vasp.4.4
   GGA_COMPAT  = T    GGA compatible to vasp.4.4-vasp.4.6
   LMAXPAW     = -100 max onsite density
   LMAXMIX     =    2 max onsite mixed and CHGCAR
   VOSKOWN=      0    Vosko Wilk Nusair interpolation
   ROPT   =    0.00000
 Ionic relaxation
   EDIFFG = -.1E-02   stopping-criterion for IOM
   NSW    =      0    number of steps for IOM
   NBLOCK =      1;   KBLOCK =      1    inner block; outer block 
   IBRION =     -1    ionic relax: 0-MD 1-quasi-New 2-CG
   NFREE  =      0    steps in history (QN), initial steepest desc. (CG)
   ISIF   =      2    stress and relaxation
   IWAVPR =     10    prediction:  0-non 1-charg 2-wave 3-comb
   ISYM   =      2    0-nonsym 1-usesym 2-fastsym
   LCORR  =      T    Harris-Foulkes like correction to forces

   POTIM  = 0.5000    time-step for ionic-motion
   TEIN   =    0.0    initial temperature
   TEBEG  =    0.0;   TEEND  =   0.0 temperature during run
   SMASS  =  -3.00    Nose mass-parameter (am)
   estimated Nose-frequenzy (Omega)   =  0.10E-29 period in steps = 0.13E+47 mass=  -0.743E-27a.u.
   SCALEE = 1.0000    scale energy and forces
   NPACO  =    256;   APACO  = 10.0  distance and # of slots for P.C.
   PSTRESS=    0.0 pullay stress

  Mass of Ions in am
   POMASS =  10.81
  Ionic Valenz
   ZVAL   =   3.00
  Atomic Wigner-Seitz radii
   RWIGS  =  -1.00
  virtual crystal weights 
   VCA    =   1.00
   NELECT =      42.0000    total number of electrons
   NUPDOWN=      -1.0000    fix difference up-down

 DOS related values:
   EMIN   =  10.00;   EMAX   =-10.00  energy-range for DOS
   EFERMI =   0.00;   METHOD = LEGACY      
   ISMEAR =     0;   SIGMA  =   0.10  broadening in eV -4-tet -1-fermi 0-gaus

 Electronic relaxation 2 (details)
   IALGO  =     38    algorithm
   LDIAG  =      T    sub-space diagonalisation (order eigenvalues)
   LSUBROT=      F    optimize rotation matrix (better conditioning)
   TURBO    =      0    0=normal 1=particle mesh
   IRESTART =      0    0=no restart 2=restart with 2 vectors
   NREBOOT  =      0    no. of reboots
   NMIN     =      0    reboot dimension
   EREF     =   0.00    reference energy to select bands
   IMIX   =      4    mixing-type and parameters
     AMIX     =   0.40;   BMIX     =  1.00
     AMIX_MAG =   1.60;   BMIX_MAG =  1.00
     AMIN     =   0.10
     WC   =   100.;   INIMIX=   1;  MIXPRE=   1;  MAXMIX= -45

 Intra band minimization:
   WEIMIN = 0.0000     energy-eigenvalue tresh-hold
   EBREAK =  0.52E-08  absolut break condition
   DEPER  =   0.30     relativ break condition  

   TIME   =   0.40     timestep for ELM

  volume/ion in A,a.u.               =      10.21        68.92
  Fermi-wavevector in a.u.,A,eV,Ry     =   1.088249  2.056492 16.113188  1.184286
  Thomas-Fermi vector in A             =   2.224426
 
 Write flags
   LWAVE        =      T    write WAVECAR
   LDOWNSAMPLE  =      F    k-point downsampling of WAVECAR
   LCHARG       =      T    write CHGCAR
   LVTOT        =      F    write LOCPOT, total local potential
   LVHAR        =      F    write LOCPOT, Hartree potential only
   WRT_POTENTIAL= false  ! write potential to hdf5 file
   LELF         =      F    write electronic localiz. function (ELF)
   LORBIT       =     11    0 simple, 1 ext, 2 COOP (PROOUT), +10 PAW based schemes


 Dipole corrections
   LMONO      =      F    monopole corrections only (constant potential shift)
   LDIPOL     =      F    correct potential (dipole corrections)
   IDIPOL     =      0    1-x, 2-y, 3-z, 4-all directions 
   EPSILON    =  1.0000000 bulk dielectric constant
   LVACPOTAV  =      F  vacuum potentials using an averaging scheme for the charge density
   VACPOTFLAT =  0.1000000 required flatness to determine vacuum potential
 Exchange correlation treatment:
   GGA     = PE    functional components
   XC_C    = 1    coefficients multiplying the functional components
   LIBXC   =     F    Libxc                    
   VOSKOWN =     0    Vosko Wilk Nusair interpolation
   LHFCALC =     F    Hartree Fock is set to
   LHFONE  =     F    Hartree Fock one center treatment
   AEXX    =    0.0000 exact exchange contribution

 Parameters of functionals:
   PE:
     No parameter
 
 Van der Waals corrections
   IVDW    =    12    specifies the selected vdW correction

 Linear response parameters
   LEPSILON=     F    determine dielectric tensor
   LRPA    =     F    only Hartree local field effects (RPA)
   LNABLA  =     F    use nabla operator in PAW spheres
   LVEL    =     F    velocity operator in full k-point grid
   CSHIFT  =0.1000    complex shift for real part using Kramers Kronig
   OMEGAMAX=  -1.0    maximum frequency
   DEG_THRESHOLD= 0.2000000E-02 threshold for treating states as degnerate
   RTIME   =   -0.100 relaxation time in fs
  (WPLASMAI=    0.000 imaginary part of plasma frequency in eV, 0.658/RTIME)
   DFIELD  = 0.0000000 0.0000000 0.0000000 field for delta impulse in time
 
  Optional k-point grid parameters
   LKPOINTS_OPT  =     F    use optional k-point grid
   KPOINTS_OPT_MODE=     1    mode for optional k-point grid
 
 Orbital magnetization related:
   ORBITALMAG=     F  switch on orbital magnetization
   LCHIMAG   =     F  perturbation theory with respect to B field
   DQ        =  0.001000  dq finite difference perturbation B field
   LLRAUG    =     F  two centre corrections for induced B field
   LBONE     =     F  B-component reconstruction in AE one-centre
   LVGVCALC  =     T  calculate vGv susceptibility
   LVGVAPPL  =     F  apply vGv susceptibility instead of pGv for G=0

 Random number generation:
   RANDOM_GENERATOR = DEFAULT
   PCG_SEED         = not used


--------------------------------------------------------------------------------------------------------


 Static calculation
 charge density and potential remain constant during run
 non-spin polarized calculation
 Variant of blocked Davidson
 Davidson routine will perform the subspace rotation
 perform sub-space diagonalisation
    after iterative eigenvector-optimisation
 no mixing
 using additional bands           27
 reciprocal scheme for non local part
 use partial core corrections
 calculate Harris-corrections to forces 
   (improved forces if not selfconsistent)
 use gradient corrections 
 WARNING: stress and forces are not correct
  (second derivative of E(xc) not defined)
 use of overlap-Matrix (Vanderbilt PP)
 Gauss-broadening in eV      SIGMA  =   0.10


--------------------------------------------------------------------------------------------------------


  energy-cutoff  :      600.00
  volume of cell :      142.98
      direct lattice vectors                 reciprocal lattice vectors
     5.700970695  0.000000000  0.000000000     0.175408725  0.000000000  0.000000000
     0.000000000  4.044058096  0.000000000     0.000000000  0.247276368  0.000000000
     0.000000000  0.000000000  6.201871195     0.000000000  0.000000000  0.161241659

  length of vectors
     5.700970695  4.044058096  6.201871195     0.175408725  0.247276368  0.161241659


 
 k-points in units of 2pi/SCALE and weight: K-points                                
   0.00000000  0.00000000  0.00000000       0.006
   0.00381323  0.00000000  0.00000000       0.006
   0.00762647  0.00000000  0.00000000       0.006
   0.01143970  0.00000000  0.00000000       0.006
   0.01525293  0.00000000  0.00000000       0.006
   0.01906617  0.00000000  0.00000000       0.006
   0.02287940  0.00000000  0.00000000       0.006
   0.02669263  0.00000000  0.00000000       0.006
   0.03050587  0.00000000  0.00000000       0.006
   0.03431910  0.00000000  0.00000000       0.006
   0.03813233  0.00000000  0.00000000       0.006
   0.04194556  0.00000000  0.00000000       0.006
   0.04575880  0.00000000  0.00000000       0.006
   0.04957203  0.00000000  0.00000000       0.006
   0.05338526  0.00000000  0.00000000       0.006
   0.05719850  0.00000000  0.00000000       0.006
   0.06101173  0.00000000  0.00000000       0.006
   0.06482496  0.00000000  0.00000000       0.006
   0.06863820  0.00000000  0.00000000       0.006
   0.07245143  0.00000000  0.00000000       0.006
   0.07626466  0.00000000  0.00000000       0.006
   0.08007790  0.00000000  0.00000000       0.006
   0.08389113  0.00000000  0.00000000       0.006
   0.08770436  0.00000000  0.00000000       0.006
   0.08770436  0.00000000  0.00000000       0.006
   0.08770436  0.00000000  0.00350525       0.006
   0.08770436  0.00000000  0.00701051       0.006
   0.08770436  0.00000000  0.01051576       0.006
   0.08770436  0.00000000  0.01402101       0.006
   0.08770436  0.00000000  0.01752627       0.006
   0.08770436  0.00000000  0.02103152       0.006
   0.08770436  0.00000000  0.02453677       0.006
   0.08770436  0.00000000  0.02804203       0.006
   0.08770436  0.00000000  0.03154728       0.006
   0.08770436  0.00000000  0.03505253       0.006
   0.08770436  0.00000000  0.03855779       0.006
   0.08770436  0.00000000  0.04206304       0.006
   0.08770436  0.00000000  0.04556829       0.006
   0.08770436  0.00000000  0.04907355       0.006
   0.08770436  0.00000000  0.05257880       0.006
   0.08770436  0.00000000  0.05608406       0.006
   0.08770436  0.00000000  0.05958931       0.006
   0.08770436  0.00000000  0.06309456       0.006
   0.08770436  0.00000000  0.06659982       0.006
   0.08770436  0.00000000  0.07010507       0.006
   0.08770436  0.00000000  0.07361032       0.006
   0.08770436  0.00000000  0.07711558       0.006
   0.08770436  0.00000000  0.08062083       0.006
   0.08770436  0.00000000  0.08062083       0.006
   0.08389113  0.00000000  0.08062083       0.006
   0.08007790  0.00000000  0.08062083       0.006
   0.07626466  0.00000000  0.08062083       0.006
   0.07245143  0.00000000  0.08062083       0.006
   0.06863820  0.00000000  0.08062083       0.006
   0.06482496  0.00000000  0.08062083       0.006
   0.06101173  0.00000000  0.08062083       0.006
   0.05719850  0.00000000  0.08062083       0.006
   0.05338526  0.00000000  0.08062083       0.006
   0.04957203  0.00000000  0.08062083       0.006
   0.04575880  0.00000000  0.08062083       0.006
   0.04194556  0.00000000  0.08062083       0.006
   0.03813233  0.00000000  0.08062083       0.006
   0.03431910  0.00000000  0.08062083       0.006
   0.03050587  0.00000000  0.08062083       0.006
   0.02669263  0.00000000  0.08062083       0.006
   0.02287940  0.00000000  0.08062083       0.006
   0.01906617  0.00000000  0.08062083       0.006
   0.01525293  0.00000000  0.08062083       0.006
   0.01143970  0.00000000  0.08062083       0.006
   0.00762647  0.00000000  0.08062083       0.006
   0.00381323  0.00000000  0.08062083       0.006
   0.00000000  0.00000000  0.08062083       0.006
   0.00000000  0.00000000  0.08062083       0.006
   0.00000000  0.00537557  0.08062083       0.006
   0.00000000  0.01075115  0.08062083       0.006
   0.00000000  0.01612672  0.08062083       0.006
   0.00000000  0.02150229  0.08062083       0.006
   0.00000000  0.02687787  0.08062083       0.006
   0.00000000  0.03225344  0.08062083       0.006
   0.00000000  0.03762901  0.08062083       0.006
   0.00000000  0.04300459  0.08062083       0.006
   0.00000000  0.04838016  0.08062083       0.006
   0.00000000  0.05375573  0.08062083       0.006
   0.00000000  0.05913131  0.08062083       0.006
   0.00000000  0.06450688  0.08062083       0.006
   0.00000000  0.06988245  0.08062083       0.006
   0.00000000  0.07525803  0.08062083       0.006
   0.00000000  0.08063360  0.08062083       0.006
   0.00000000  0.08600917  0.08062083       0.006
   0.00000000  0.09138474  0.08062083       0.006
   0.00000000  0.09676032  0.08062083       0.006
   0.00000000  0.10213589  0.08062083       0.006
   0.00000000  0.10751146  0.08062083       0.006
   0.00000000  0.11288704  0.08062083       0.006
   0.00000000  0.11826261  0.08062083       0.006
   0.00000000  0.12363818  0.08062083       0.006
   0.00000000  0.12363818  0.08062083       0.006
   0.00000000  0.12363818  0.07711558       0.006
   0.00000000  0.12363818  0.07361032       0.006
   0.00000000  0.12363818  0.07010507       0.006
   0.00000000  0.12363818  0.06659982       0.006
   0.00000000  0.12363818  0.06309456       0.006
   0.00000000  0.12363818  0.05958931       0.006
   0.00000000  0.12363818  0.05608406       0.006
   0.00000000  0.12363818  0.05257880       0.006
   0.00000000  0.12363818  0.04907355       0.006
   0.00000000  0.12363818  0.04556829       0.006
   0.00000000  0.12363818  0.04206304       0.006
   0.00000000  0.12363818  0.03855779       0.006
   0.00000000  0.12363818  0.03505253       0.006
   0.00000000  0.12363818  0.03154728       0.006
   0.00000000  0.12363818  0.02804203       0.006
   0.00000000  0.12363818  0.02453677       0.006
   0.00000000  0.12363818  0.02103152       0.006
   0.00000000  0.12363818  0.01752627       0.006
   0.00000000  0.12363818  0.01402101       0.006
   0.00000000  0.12363818  0.01051576       0.006
   0.00000000  0.12363818  0.00701051       0.006
   0.00000000  0.12363818  0.00350525       0.006
   0.00000000  0.12363818  0.00000000       0.006
   0.00000000  0.12363818  0.00000000       0.006
   0.00381323  0.12363818  0.00000000       0.006
   0.00762647  0.12363818  0.00000000       0.006
   0.01143970  0.12363818  0.00000000       0.006
   0.01525293  0.12363818  0.00000000       0.006
   0.01906617  0.12363818  0.00000000       0.006
   0.02287940  0.12363818  0.00000000       0.006
   0.02669263  0.12363818  0.00000000       0.006
   0.03050587  0.12363818  0.00000000       0.006
   0.03431910  0.12363818  0.00000000       0.006
   0.03813233  0.12363818  0.00000000       0.006
   0.04194556  0.12363818  0.00000000       0.006
   0.04575880  0.12363818  0.00000000       0.006
   0.04957203  0.12363818  0.00000000       0.006
   0.05338526  0.12363818  0.00000000       0.006
   0.05719850  0.12363818  0.00000000       0.006
   0.06101173  0.12363818  0.00000000       0.006
   0.06482496  0.12363818  0.00000000       0.006
   0.06863820  0.12363818  0.00000000       0.006
   0.07245143  0.12363818  0.00000000       0.006
   0.07626466  0.12363818  0.00000000       0.006
   0.08007790  0.12363818  0.00000000       0.006
   0.08389113  0.12363818  0.00000000       0.006
   0.08770436  0.12363818  0.00000000       0.006
   0.08770436  0.12363818  0.00000000       0.006
   0.08770436  0.12363818  0.00350525       0.006
   0.08770436  0.12363818  0.00701051       0.006
   0.08770436  0.12363818  0.01051576       0.006
   0.08770436  0.12363818  0.01402101       0.006
   0.08770436  0.12363818  0.01752627       0.006
   0.08770436  0.12363818  0.02103152       0.006
   0.08770436  0.12363818  0.02453677       0.006
   0.08770436  0.12363818  0.02804203       0.006
   0.08770436  0.12363818  0.03154728       0.006
   0.08770436  0.12363818  0.03505253       0.006
   0.08770436  0.12363818  0.03855779       0.006
   0.08770436  0.12363818  0.04206304       0.006
   0.08770436  0.12363818  0.04556829       0.006
   0.08770436  0.12363818  0.04907355       0.006
   0.08770436  0.12363818  0.05257880       0.006
   0.08770436  0.12363818  0.05608406       0.006
   0.08770436  0.12363818  0.05958931       0.006
   0.08770436  0.12363818  0.06309456       0.006
   0.08770436  0.12363818  0.06659982       0.006
   0.08770436  0.12363818  0.07010507       0.006
   0.08770436  0.12363818  0.07361032       0.006
   0.08770436  0.12363818  0.07711558       0.006
   0.08770436  0.12363818  0.08062083       0.006
 
 k-points in reciprocal lattice and weights: K-points                                
   0.00000000  0.00000000  0.00000000       0.006
   0.02173913  0.00000000  0.00000000       0.006
   0.04347826  0.00000000  0.00000000       0.006
   0.06521739  0.00000000  0.00000000       0.006
   0.08695652  0.00000000  0.00000000       0.006
   0.10869565  0.00000000  0.00000000       0.006
   0.13043478  0.00000000  0.00000000       0.006
   0.15217391  0.00000000  0.00000000       0.006
   0.17391304  0.00000000  0.00000000       0.006
   0.19565217  0.00000000  0.00000000       0.006
   0.21739130  0.00000000  0.00000000       0.006
   0.23913043  0.00000000  0.00000000       0.006
   0.26086957  0.00000000  0.00000000       0.006
   0.28260870  0.00000000  0.00000000       0.006
   0.30434783  0.00000000  0.00000000       0.006
   0.32608696  0.00000000  0.00000000       0.006
   0.34782609  0.00000000  0.00000000       0.006
   0.36956522  0.00000000  0.00000000       0.006
   0.39130435  0.00000000  0.00000000       0.006
   0.41304348  0.00000000  0.00000000       0.006
   0.43478261  0.00000000  0.00000000       0.006
   0.45652174  0.00000000  0.00000000       0.006
   0.47826087  0.00000000  0.00000000       0.006
   0.50000000  0.00000000  0.00000000       0.006
   0.50000000  0.00000000  0.00000000       0.006
   0.50000000  0.00000000  0.02173913       0.006
   0.50000000  0.00000000  0.04347826       0.006
   0.50000000  0.00000000  0.06521739       0.006
   0.50000000  0.00000000  0.08695652       0.006
   0.50000000  0.00000000  0.10869565       0.006
   0.50000000  0.00000000  0.13043478       0.006
   0.50000000  0.00000000  0.15217391       0.006
   0.50000000  0.00000000  0.17391304       0.006
   0.50000000  0.00000000  0.19565217       0.006
   0.50000000  0.00000000  0.21739130       0.006
   0.50000000  0.00000000  0.23913043       0.006
   0.50000000  0.00000000  0.26086957       0.006
   0.50000000  0.00000000  0.28260870       0.006
   0.50000000  0.00000000  0.30434783       0.006
   0.50000000  0.00000000  0.32608696       0.006
   0.50000000  0.00000000  0.34782609       0.006
   0.50000000  0.00000000  0.36956522       0.006
   0.50000000  0.00000000  0.39130435       0.006
   0.50000000  0.00000000  0.41304348       0.006
   0.50000000  0.00000000  0.43478261       0.006
   0.50000000  0.00000000  0.45652174       0.006
   0.50000000  0.00000000  0.47826087       0.006
   0.50000000  0.00000000  0.50000000       0.006
   0.50000000  0.00000000  0.50000000       0.006
   0.47826087  0.00000000  0.50000000       0.006
   0.45652174  0.00000000  0.50000000       0.006
   0.43478261  0.00000000  0.50000000       0.006
   0.41304348  0.00000000  0.50000000       0.006
   0.39130435  0.00000000  0.50000000       0.006
   0.36956522  0.00000000  0.50000000       0.006
   0.34782609  0.00000000  0.50000000       0.006
   0.32608696  0.00000000  0.50000000       0.006
   0.30434783  0.00000000  0.50000000       0.006
   0.28260870  0.00000000  0.50000000       0.006
   0.26086957  0.00000000  0.50000000       0.006
   0.23913043  0.00000000  0.50000000       0.006
   0.21739130  0.00000000  0.50000000       0.006
   0.19565217  0.00000000  0.50000000       0.006
   0.17391304  0.00000000  0.50000000       0.006
   0.15217391  0.00000000  0.50000000       0.006
   0.13043478  0.00000000  0.50000000       0.006
   0.10869565  0.00000000  0.50000000       0.006
   0.08695652  0.00000000  0.50000000       0.006
   0.06521739  0.00000000  0.50000000       0.006
   0.04347826  0.00000000  0.50000000       0.006
   0.02173913  0.00000000  0.50000000       0.006
   0.00000000  0.00000000  0.50000000       0.006
   0.00000000  0.00000000  0.50000000       0.006
   0.00000000  0.02173913  0.50000000       0.006
   0.00000000  0.04347826  0.50000000       0.006
   0.00000000  0.06521739  0.50000000       0.006
   0.00000000  0.08695652  0.50000000       0.006
   0.00000000  0.10869565  0.50000000       0.006
   0.00000000  0.13043478  0.50000000       0.006
   0.00000000  0.15217391  0.50000000       0.006
   0.00000000  0.17391304  0.50000000       0.006
   0.00000000  0.19565217  0.50000000       0.006
   0.00000000  0.21739130  0.50000000       0.006
   0.00000000  0.23913043  0.50000000       0.006
   0.00000000  0.26086957  0.50000000       0.006
   0.00000000  0.28260870  0.50000000       0.006
   0.00000000  0.30434783  0.50000000       0.006
   0.00000000  0.32608696  0.50000000       0.006
   0.00000000  0.34782609  0.50000000       0.006
   0.00000000  0.36956522  0.50000000       0.006
   0.00000000  0.39130435  0.50000000       0.006
   0.00000000  0.41304348  0.50000000       0.006
   0.00000000  0.43478261  0.50000000       0.006
   0.00000000  0.45652174  0.50000000       0.006
   0.00000000  0.47826087  0.50000000       0.006
   0.00000000  0.50000000  0.50000000       0.006
   0.00000000  0.50000000  0.50000000       0.006
   0.00000000  0.50000000  0.47826087       0.006
   0.00000000  0.50000000  0.45652174       0.006
   0.00000000  0.50000000  0.43478261       0.006
   0.00000000  0.50000000  0.41304348       0.006
   0.00000000  0.50000000  0.39130435       0.006
   0.00000000  0.50000000  0.36956522       0.006
   0.00000000  0.50000000  0.34782609       0.006
   0.00000000  0.50000000  0.32608696       0.006
   0.00000000  0.50000000  0.30434783       0.006
   0.00000000  0.50000000  0.28260870       0.006
   0.00000000  0.50000000  0.26086957       0.006
   0.00000000  0.50000000  0.23913043       0.006
   0.00000000  0.50000000  0.21739130       0.006
   0.00000000  0.50000000  0.19565217       0.006
   0.00000000  0.50000000  0.17391304       0.006
   0.00000000  0.50000000  0.15217391       0.006
   0.00000000  0.50000000  0.13043478       0.006
   0.00000000  0.50000000  0.10869565       0.006
   0.00000000  0.50000000  0.08695652       0.006
   0.00000000  0.50000000  0.06521739       0.006
   0.00000000  0.50000000  0.04347826       0.006
   0.00000000  0.50000000  0.02173913       0.006
   0.00000000  0.50000000  0.00000000       0.006
   0.00000000  0.50000000  0.00000000       0.006
   0.02173913  0.50000000  0.00000000       0.006
   0.04347826  0.50000000  0.00000000       0.006
   0.06521739  0.50000000  0.00000000       0.006
   0.08695652  0.50000000  0.00000000       0.006
   0.10869565  0.50000000  0.00000000       0.006
   0.13043478  0.50000000  0.00000000       0.006
   0.15217391  0.50000000  0.00000000       0.006
   0.17391304  0.50000000  0.00000000       0.006
   0.19565217  0.50000000  0.00000000       0.006
   0.21739130  0.50000000  0.00000000       0.006
   0.23913043  0.50000000  0.00000000       0.006
   0.26086957  0.50000000  0.00000000       0.006
   0.28260870  0.50000000  0.00000000       0.006
   0.30434783  0.50000000  0.00000000       0.006
   0.32608696  0.50000000  0.00000000       0.006
   0.34782609  0.50000000  0.00000000       0.006
   0.36956522  0.50000000  0.00000000       0.006
   0.39130435  0.50000000  0.00000000       0.006
   0.41304348  0.50000000  0.00000000       0.006
   0.43478261  0.50000000  0.00000000       0.006
   0.45652174  0.50000000  0.00000000       0.006
   0.47826087  0.50000000  0.00000000       0.006
   0.50000000  0.50000000  0.00000000       0.006
   0.50000000  0.50000000  0.00000000       0.006
   0.50000000  0.50000000  0.02173913       0.006
   0.50000000  0.50000000  0.04347826       0.006
   0.50000000  0.50000000  0.06521739       0.006
   0.50000000  0.50000000  0.08695652       0.006
   0.50000000  0.50000000  0.10869565       0.006
   0.50000000  0.50000000  0.13043478       0.006
   0.50000000  0.50000000  0.15217391       0.006
   0.50000000  0.50000000  0.17391304       0.006
   0.50000000  0.50000000  0.19565217       0.006
   0.50000000  0.50000000  0.21739130       0.006
   0.50000000  0.50000000  0.23913043       0.006
   0.50000000  0.50000000  0.26086957       0.006
   0.50000000  0.50000000  0.28260870       0.006
   0.50000000  0.50000000  0.30434783       0.006
   0.50000000  0.50000000  0.32608696       0.006
   0.50000000  0.50000000  0.34782609       0.006
   0.50000000  0.50000000  0.36956522       0.006
   0.50000000  0.50000000  0.39130435       0.006
   0.50000000  0.50000000  0.41304348       0.006
   0.50000000  0.50000000  0.43478261       0.006
   0.50000000  0.50000000  0.45652174       0.006
   0.50000000  0.50000000  0.47826087       0.006
   0.50000000  0.50000000  0.50000000       0.006
 
 position of ions in fractional coordinates (direct lattice) 
   0.52128988  0.50000000  0.63795770
   0.47871012  0.50000000  0.36204230
   0.97871012  0.50000000  0.63795770
   0.02128988  0.50000000  0.36204230
   0.59744966  0.50000000  0.89986832
   0.40255034  0.50000000  0.10013168
   0.90255034  0.50000000  0.89986832
   0.09744966  0.50000000  0.10013168
   0.75000000  0.79156493  0.72957940
   0.25000000  0.20843507  0.27042060
   0.75000000  0.20843507  0.72957940
   0.25000000  0.79156493  0.27042060
   0.25000000  0.50000000  0.52399303
   0.75000000  0.50000000  0.47600697
 
 position of ions in cartesian coordinates  (Angst):
   2.97185836  2.02202905  3.95653149
   2.72911234  2.02202905  2.24533970
   5.57959769  2.02202905  3.95653149
   0.12137301  2.02202905  2.24533970
   3.40604302  2.02202905  5.58086739
   2.29492768  2.02202905  0.62100381
   5.14541303  2.02202905  5.58086739
   0.55555767  2.02202905  0.62100381
   4.27572802  3.20113457  4.52475744
   1.42524267  0.84292352  1.67711376
   4.27572802  0.84292352  4.52475744
   1.42524267  3.20113457  1.67711376
   1.42524267  2.02202905  3.24973731
   4.27572802  2.02202905  2.95213389
 


--------------------------------------------------------------------------------------------------------


 k-point     1 :   0.0000 0.0000 0.0000  plane waves:    4791
 k-point     2 :   0.0217 0.0000 0.0000  plane waves:    4787
 k-point     3 :   0.0435 0.0000 0.0000  plane waves:    4787
 k-point     4 :   0.0652 0.0000 0.0000  plane waves:    4787
 k-point     5 :   0.0870 0.0000 0.0000  plane waves:    4775
 k-point     6 :   0.1087 0.0000 0.0000  plane waves:    4773
 k-point     7 :   0.1304 0.0000 0.0000  plane waves:    4777
 k-point     8 :   0.1522 0.0000 0.0000  plane waves:    4773
 k-point     9 :   0.1739 0.0000 0.0000  plane waves:    4773
 k-point    10 :   0.1957 0.0000 0.0000  plane waves:    4773
 k-point    11 :   0.2174 0.0000 0.0000  plane waves:    4761
 k-point    12 :   0.2391 0.0000 0.0000  plane waves:    4751
 k-point    13 :   0.2609 0.0000 0.0000  plane waves:    4759
 k-point    14 :   0.2826 0.0000 0.0000  plane waves:    4753
 k-point    15 :   0.3043 0.0000 0.0000  plane waves:    4743
 k-point    16 :   0.3261 0.0000 0.0000  plane waves:    4759
 k-point    17 :   0.3478 0.0000 0.0000  plane waves:    4759
 k-point    18 :   0.3696 0.0000 0.0000  plane waves:    4753
 k-point    19 :   0.3913 0.0000 0.0000  plane waves:    4750
 k-point    20 :   0.4130 0.0000 0.0000  plane waves:    4736
 k-point    21 :   0.4348 0.0000 0.0000  plane waves:    4750
 k-point    22 :   0.4565 0.0000 0.0000  plane waves:    4750
 k-point    23 :   0.4783 0.0000 0.0000  plane waves:    4754
 k-point    24 :   0.5000 0.0000 0.0000  plane waves:    4762
 k-point    25 :   0.5000 0.0000 0.0000  plane waves:    4762
 k-point    26 :   0.5000 0.0000 0.0217  plane waves:    4766
 k-point    27 :   0.5000 0.0000 0.0435  plane waves:    4774
 k-point    28 :   0.5000 0.0000 0.0652  plane waves:    4770
 k-point    29 :   0.5000 0.0000 0.0870  plane waves:    4764
 k-point    30 :   0.5000 0.0000 0.1087  plane waves:    4752
 k-point    31 :   0.5000 0.0000 0.1304  plane waves:    4748
 k-point    32 :   0.5000 0.0000 0.1522  plane waves:    4756
 k-point    33 :   0.5000 0.0000 0.1739  plane waves:    4762
 k-point    34 :   0.5000 0.0000 0.1957  plane waves:    4754
 k-point    35 :   0.5000 0.0000 0.2174  plane waves:    4762
 k-point    36 :   0.5000 0.0000 0.2391  plane waves:    4766
 k-point    37 :   0.5000 0.0000 0.2609  plane waves:    4772
 k-point    38 :   0.5000 0.0000 0.2826  plane waves:    4762
 k-point    39 :   0.5000 0.0000 0.3043  plane waves:    4766
 k-point    40 :   0.5000 0.0000 0.3261  plane waves:    4784
 k-point    41 :   0.5000 0.0000 0.3478  plane waves:    4780
 k-point    42 :   0.5000 0.0000 0.3696  plane waves:    4784
 k-point    43 :   0.5000 0.0000 0.3913  plane waves:    4776
 k-point    44 :   0.5000 0.0000 0.4130  plane waves:    4764
 k-point    45 :   0.5000 0.0000 0.4348  plane waves:    4768
 k-point    46 :   0.5000 0.0000 0.4565  plane waves:    4776
 k-point    47 :   0.5000 0.0000 0.4783  plane waves:    4780
 k-point    48 :   0.5000 0.0000 0.5000  plane waves:    4772
 k-point    49 :   0.5000 0.0000 0.5000  plane waves:    4772
 k-point    50 :   0.4783 0.0000 0.5000  plane waves:    4772
 k-point    51 :   0.4565 0.0000 0.5000  plane waves:    4772
 k-point    52 :   0.4348 0.0000 0.5000  plane waves:    4764
 k-point    53 :   0.4130 0.0000 0.5000  plane waves:    4764
 k-point    54 :   0.3913 0.0000 0.5000  plane waves:    4758
 k-point    55 :   0.3696 0.0000 0.5000  plane waves:    4752
 k-point    56 :   0.3478 0.0000 0.5000  plane waves:    4752
 k-point    57 :   0.3261 0.0000 0.5000  plane waves:    4752
 k-point    58 :   0.3043 0.0000 0.5000  plane waves:    4752
 k-point    59 :   0.2826 0.0000 0.5000  plane waves:    4758
 k-point    60 :   0.2609 0.0000 0.5000  plane waves:    4756
 k-point    61 :   0.2391 0.0000 0.5000  plane waves:    4752
 k-point    62 :   0.2174 0.0000 0.5000  plane waves:    4758
 k-point    63 :   0.1957 0.0000 0.5000  plane waves:    4752
 k-point    64 :   0.1739 0.0000 0.5000  plane waves:    4752
 k-point    65 :   0.1522 0.0000 0.5000  plane waves:    4760
 k-point    66 :   0.1304 0.0000 0.5000  plane waves:    4762
 k-point    67 :   0.1087 0.0000 0.5000  plane waves:    4754
 k-point    68 :   0.0870 0.0000 0.5000  plane waves:    4758
 k-point    69 :   0.0652 0.0000 0.5000  plane waves:    4752
 k-point    70 :   0.0435 0.0000 0.5000  plane waves:    4750
 k-point    71 :   0.0217 0.0000 0.5000  plane waves:    4752
 k-point    72 :   0.0000 0.0000 0.5000  plane waves:    4748
 k-point    73 :   0.0000 0.0000 0.5000  plane waves:    4748
 k-point    74 :   0.0000 0.0217 0.5000  plane waves:    4752
 k-point    75 :   0.0000 0.0435 0.5000  plane waves:    4756
 k-point    76 :   0.0000 0.0652 0.5000  plane waves:    4764
 k-point    77 :   0.0000 0.0870 0.5000  plane waves:    4758
 k-point    78 :   0.0000 0.1087 0.5000  plane waves:    4756
 k-point    79 :   0.0000 0.1304 0.5000  plane waves:    4772
 k-point    80 :   0.0000 0.1522 0.5000  plane waves:    4776
 k-point    81 :   0.0000 0.1739 0.5000  plane waves:    4784
 k-point    82 :   0.0000 0.1957 0.5000  plane waves:    4782
 k-point    83 :   0.0000 0.2174 0.5000  plane waves:    4774
 k-point    84 :   0.0000 0.2391 0.5000  plane waves:    4776
 k-point    85 :   0.0000 0.2609 0.5000  plane waves:    4782
 k-point    86 :   0.0000 0.2826 0.5000  plane waves:    4790
 k-point    87 :   0.0000 0.3043 0.5000  plane waves:    4788
 k-point    88 :   0.0000 0.3261 0.5000  plane waves:    4788
 k-point    89 :   0.0000 0.3478 0.5000  plane waves:    4804
 k-point    90 :   0.0000 0.3696 0.5000  plane waves:    4804
 k-point    91 :   0.0000 0.3913 0.5000  plane waves:    4796
 k-point    92 :   0.0000 0.4130 0.5000  plane waves:    4784
 k-point    93 :   0.0000 0.4348 0.5000  plane waves:    4778
 k-point    94 :   0.0000 0.4565 0.5000  plane waves:    4782
 k-point    95 :   0.0000 0.4783 0.5000  plane waves:    4780
 k-point    96 :   0.0000 0.5000 0.5000  plane waves:    4776
 k-point    97 :   0.0000 0.5000 0.5000  plane waves:    4776
 k-point    98 :   0.0000 0.5000 0.4783  plane waves:    4780
 k-point    99 :   0.0000 0.5000 0.4565  plane waves:    4792
 k-point   100 :   0.0000 0.5000 0.4348  plane waves:    4784
 k-point   101 :   0.0000 0.5000 0.4130  plane waves:    4776
 k-point   102 :   0.0000 0.5000 0.3913  plane waves:    4770
 k-point   103 :   0.0000 0.5000 0.3696  plane waves:    4774
 k-point   104 :   0.0000 0.5000 0.3478  plane waves:    4786
 k-point   105 :   0.0000 0.5000 0.3261  plane waves:    4786
 k-point   106 :   0.0000 0.5000 0.3043  plane waves:    4794
 k-point   107 :   0.0000 0.5000 0.2826  plane waves:    4800
 k-point   108 :   0.0000 0.5000 0.2609  plane waves:    4800
 k-point   109 :   0.0000 0.5000 0.2391  plane waves:    4792
 k-point   110 :   0.0000 0.5000 0.2174  plane waves:    4802
 k-point   111 :   0.0000 0.5000 0.1957  plane waves:    4802
 k-point   112 :   0.0000 0.5000 0.1739  plane waves:    4794
 k-point   113 :   0.0000 0.5000 0.1522  plane waves:    4810
 k-point   114 :   0.0000 0.5000 0.1304  plane waves:    4810
 k-point   115 :   0.0000 0.5000 0.1087  plane waves:    4810
 k-point   116 :   0.0000 0.5000 0.0870  plane waves:    4818
 k-point   117 :   0.0000 0.5000 0.0652  plane waves:    4804
 k-point   118 :   0.0000 0.5000 0.0435  plane waves:    4796
 k-point   119 :   0.0000 0.5000 0.0217  plane waves:    4792
 k-point   120 :   0.0000 0.5000 0.0000  plane waves:    4788
 k-point   121 :   0.0000 0.5000 0.0000  plane waves:    4788
 k-point   122 :   0.0217 0.5000 0.0000  plane waves:    4796
 k-point   123 :   0.0435 0.5000 0.0000  plane waves:    4788
 k-point   124 :   0.0652 0.5000 0.0000  plane waves:    4800
 k-point   125 :   0.0870 0.5000 0.0000  plane waves:    4796
 k-point   126 :   0.1087 0.5000 0.0000  plane waves:    4796
 k-point   127 :   0.1304 0.5000 0.0000  plane waves:    4804
 k-point   128 :   0.1522 0.5000 0.0000  plane waves:    4800
 k-point   129 :   0.1739 0.5000 0.0000  plane waves:    4794
 k-point   130 :   0.1957 0.5000 0.0000  plane waves:    4784
 k-point   131 :   0.2174 0.5000 0.0000  plane waves:    4784
 k-point   132 :   0.2391 0.5000 0.0000  plane waves:    4778
 k-point   133 :   0.2609 0.5000 0.0000  plane waves:    4784
 k-point   134 :   0.2826 0.5000 0.0000  plane waves:    4786
 k-point   135 :   0.3043 0.5000 0.0000  plane waves:    4790
 k-point   136 :   0.3261 0.5000 0.0000  plane waves:    4794
 k-point   137 :   0.3478 0.5000 0.0000  plane waves:    4804
 k-point   138 :   0.3696 0.5000 0.0000  plane waves:    4798
 k-point   139 :   0.3913 0.5000 0.0000  plane waves:    4794
 k-point   140 :   0.4130 0.5000 0.0000  plane waves:    4786
 k-point   141 :   0.4348 0.5000 0.0000  plane waves:    4794
 k-point   142 :   0.4565 0.5000 0.0000  plane waves:    4796
 k-point   143 :   0.4783 0.5000 0.0000  plane waves:    4796
 k-point   144 :   0.5000 0.5000 0.0000  plane waves:    4796
 k-point   145 :   0.5000 0.5000 0.0000  plane waves:    4796
 k-point   146 :   0.5000 0.5000 0.0217  plane waves:    4792
 k-point   147 :   0.5000 0.5000 0.0435  plane waves:    4784
 k-point   148 :   0.5000 0.5000 0.0652  plane waves:    4768
 k-point   149 :   0.5000 0.5000 0.0870  plane waves:    4780
 k-point   150 :   0.5000 0.5000 0.1087  plane waves:    4784
 k-point   151 :   0.5000 0.5000 0.1304  plane waves:    4788
 k-point   152 :   0.5000 0.5000 0.1522  plane waves:    4772
 k-point   153 :   0.5000 0.5000 0.1739  plane waves:    4768
 k-point   154 :   0.5000 0.5000 0.1957  plane waves:    4776
 k-point   155 :   0.5000 0.5000 0.2174  plane waves:    4772
 k-point   156 :   0.5000 0.5000 0.2391  plane waves:    4772
 k-point   157 :   0.5000 0.5000 0.2609  plane waves:    4764
 k-point   158 :   0.5000 0.5000 0.2826  plane waves:    4756
 k-point   159 :   0.5000 0.5000 0.3043  plane waves:    4748
 k-point   160 :   0.5000 0.5000 0.3261  plane waves:    4752
 k-point   161 :   0.5000 0.5000 0.3478  plane waves:    4756
 k-point   162 :   0.5000 0.5000 0.3696  plane waves:    4756
 k-point   163 :   0.5000 0.5000 0.3913  plane waves:    4760
 k-point   164 :   0.5000 0.5000 0.4130  plane waves:    4764
 k-point   165 :   0.5000 0.5000 0.4348  plane waves:    4760
 k-point   166 :   0.5000 0.5000 0.4565  plane waves:    4768
 k-point   167 :   0.5000 0.5000 0.4783  plane waves:    4760
 k-point   168 :   0.5000 0.5000 0.5000  plane waves:    4752

 maximum and minimum number of plane-waves per node :      4818     4736

 maximum number of plane-waves:      4818
 maximum index in each direction: 
   IXMAX=   11   IYMAX=    8   IZMAX=   12
   IXMIN=  -11   IYMIN=   -8   IZMIN=  -12


 serial   3D FFT for wavefunctions
 parallel 3D FFT for charge:
    minimum data exchange during FFTs selected (reduces bandwidth)


 total amount of memory used by VASP MPI-rank0   115110. kBytes
=======================================================================

   base      :      30000. kBytes
   nonl-proj :      52948. kBytes
   fftplans  :       1200. kBytes
   grid      :       4341. kBytes
   one-center:         43. kBytes
   wavefun   :      26578. kBytes
 
     INWAV:  cpu time      0.0000: real time      0.0000
 initial charge density was supplied:
 number of electron      41.9999999 magnetization 
 keeping initial charge density in first step


--------------------------------------------------------------------------------------------------------


 Maximum index for augmentation-charges          471 (set IRDMAX)


--------------------------------------------------------------------------------------------------------


 First call to EWALD:  gamma=   0.339
 Maximum number of real-space cells 3x 3x 2
 Maximum number of reciprocal cells 3x 2x 3

    FEWALD:  cpu time      0.0011: real time      0.0011


--------------------------------------- Ionic step        1  -------------------------------------------




--------------------------------------- Iteration      1(   1)  ---------------------------------------


    POTLOK:  cpu time      0.0207: real time      0.0214
    SETDIJ:  cpu time      0.0024: real time      0.0024
     EDDAV:  cpu time      5.5007: real time      5.5016
       DOS:  cpu time      0.0021: real time      0.0021
    --------------------------------------------
      LOOP:  cpu time      5.5258: real time      5.5275

 eigenvalue-minimisations  : 16128
 total energy-change (2. order) : 0.7316337E+02  (-0.1958736E+04)
 number of electron      41.9999999 magnetization 
 augmentation part       41.9999999 magnetization 

 Free energy of the ion-electron system (eV)
  ---------------------------------------------------
  alpha Z        PSCENC =        94.30280740
  Ewald energy   TEWEN  =      -798.79353645
  -Hartree energ DENC   =      -346.67156164
  -exchange      EXHF   =         0.00000000
  -V(xc)+E(xc)   XCENC  =       101.54540939
  PAW double counting   =      3725.05048951    -3714.23337423
  entropy T*S    EENTRO =        -0.01077337
  eigenvalues    EBANDS =        15.59949933
  atomic energy  EATOM  =       996.37441054
  Solvation  Ediel_sol  =         0.00000000
  ---------------------------------------------------
  free energy    TOTEN  =        73.16337047 eV

  energy without entropy =       73.17414385  energy(sigma->0) =       73.16875716


--------------------------------------------------------------------------------------------------------




--------------------------------------- Iteration      1(   2)  ---------------------------------------


     EDDAV:  cpu time      7.3734: real time      7.3740
       DOS:  cpu time      0.0014: real time      0.0014
    --------------------------------------------
      LOOP:  cpu time      7.3748: real time      7.3754

 eigenvalue-minimisations  : 22800
 total energy-change (2. order) :-0.1584323E+03  (-0.1471231E+03)
 number of electron      41.9999999 magnetization 
 augmentation part       41.9999999 magnetization 

 Free energy of the ion-electron system (eV)
  ---------------------------------------------------
  alpha Z        PSCENC =        94.30280740
  Ewald energy   TEWEN  =      -798.79353645
  -Hartree energ DENC   =      -346.67156164
  -exchange      EXHF   =         0.00000000
  -V(xc)+E(xc)   XCENC  =       101.54540939
  PAW double counting   =      3725.05048951    -3714.23337423
  entropy T*S    EENTRO =        -0.01432428
  eigenvalues    EBANDS =      -142.82920423
  atomic energy  EATOM  =       996.37441054
  Solvation  Ediel_sol  =         0.00000000
  ---------------------------------------------------
  free energy    TOTEN  =       -85.26888399 eV

  energy without entropy =      -85.25455971  energy(sigma->0) =      -85.26172185


--------------------------------------------------------------------------------------------------------




--------------------------------------- Iteration      1(   3)  ---------------------------------------


     EDDAV:  cpu time      7.4091: real time      7.4101
       DOS:  cpu time      0.0015: real time      0.0015
    --------------------------------------------
      LOOP:  cpu time      7.4105: real time      7.4116

 eigenvalue-minimisations  : 23424
 total energy-change (2. order) :-0.5273407E+01  (-0.5244006E+01)
 number of electron      41.9999999 magnetization 
 augmentation part       41.9999999 magnetization 

 Free energy of the ion-electron system (eV)
  ---------------------------------------------------
  alpha Z        PSCENC =        94.30280740
  Ewald energy   TEWEN  =      -798.79353645
  -Hartree energ DENC   =      -346.67156164
  -exchange      EXHF   =         0.00000000
  -V(xc)+E(xc)   XCENC  =       101.54540939
  PAW double counting   =      3725.05048951    -3714.23337423
  entropy T*S    EENTRO =        -0.01591130
  eigenvalues    EBANDS =      -148.10102385
  atomic energy  EATOM  =       996.37441054
  Solvation  Ediel_sol  =         0.00000000
  ---------------------------------------------------
  free energy    TOTEN  =       -90.54229063 eV

  energy without entropy =      -90.52637933  energy(sigma->0) =      -90.53433498


--------------------------------------------------------------------------------------------------------




--------------------------------------- Iteration      1(   4)  ---------------------------------------


     EDDAV:  cpu time      6.4906: real time      6.4917
       DOS:  cpu time      0.0013: real time      0.0013
    --------------------------------------------
      LOOP:  cpu time      6.4919: real time      6.4931

 eigenvalue-minimisations  : 19824
 total energy-change (2. order) :-0.2574736E-01  (-0.2574607E-01)
 number of electron      41.9999999 magnetization 
 augmentation part       41.9999999 magnetization 

 Free energy of the ion-electron system (eV)
  ---------------------------------------------------
  alpha Z        PSCENC =        94.30280740
  Ewald energy   TEWEN  =      -798.79353645
  -Hartree energ DENC   =      -346.67156164
  -exchange      EXHF   =         0.00000000
  -V(xc)+E(xc)   XCENC  =       101.54540939
  PAW double counting   =      3725.05048951    -3714.23337423
  entropy T*S    EENTRO =        -0.01592932
  eigenvalues    EBANDS =      -148.12675319
  atomic energy  EATOM  =       996.37441054
  Solvation  Ediel_sol  =         0.00000000
  ---------------------------------------------------
  free energy    TOTEN  =       -90.56803799 eV

  energy without entropy =      -90.55210867  energy(sigma->0) =      -90.56007333


--------------------------------------------------------------------------------------------------------




--------------------------------------- Iteration      1(   5)  ---------------------------------------


     EDDAV:  cpu time      7.5725: real time      7.5738
       DOS:  cpu time      0.0020: real time      0.0022
    --------------------------------------------
      LOOP:  cpu time      7.5746: real time      7.5760

 eigenvalue-minimisations  : 23448
 total energy-change (2. order) :-0.2296615E-03  (-0.2296567E-03)
 number of electron      41.9999999 magnetization 
 augmentation part       41.9999999 magnetization 

 Free energy of the ion-electron system (eV)
  ---------------------------------------------------
  alpha Z        PSCENC =        94.30280740
  Ewald energy   TEWEN  =      -798.79353645
  -Hartree energ DENC   =      -346.67156164
  -exchange      EXHF   =         0.00000000
  -V(xc)+E(xc)   XCENC  =       101.54540939
  PAW double counting   =      3725.05048951    -3714.23337423
  entropy T*S    EENTRO =        -0.01592951
  eigenvalues    EBANDS =      -148.12698266
  atomic energy  EATOM  =       996.37441054
  Solvation  Ediel_sol  =         0.00000000
  ---------------------------------------------------
  free energy    TOTEN  =       -90.56826765 eV

  energy without entropy =      -90.55233814  energy(sigma->0) =      -90.56030289


--------------------------------------------------------------------------------------------------------




--------------------------------------- Iteration      1(   6)  ---------------------------------------


     EDDAV:  cpu time      6.0726: real time      6.0738
       DOS:  cpu time      0.0014: real time      0.0014
    --------------------------------------------
      LOOP:  cpu time      6.0740: real time      6.0752

 eigenvalue-minimisations  : 18888
 total energy-change (2. order) :-0.2783938E-05  (-0.2783766E-05)
 number of electron      41.9999999 magnetization 
 augmentation part       41.9999999 magnetization 

 Free energy of the ion-electron system (eV)
  ---------------------------------------------------
  alpha Z        PSCENC =        94.30280740
  Ewald energy   TEWEN  =      -798.79353645
  -Hartree energ DENC   =      -346.67156164
  -exchange      EXHF   =         0.00000000
  -V(xc)+E(xc)   XCENC  =       101.54540939
  PAW double counting   =      3725.05048951    -3714.23337423
  entropy T*S    EENTRO =        -0.01592951
  eigenvalues    EBANDS =      -148.12698544
  atomic energy  EATOM  =       996.37441054
  Solvation  Ediel_sol  =         0.00000000
  ---------------------------------------------------
  free energy    TOTEN  =       -90.56827043 eV

  energy without entropy =      -90.55234092  energy(sigma->0) =      -90.56030567


--------------------------------------------------------------------------------------------------------




--------------------------------------- Iteration      1(   7)  ---------------------------------------


     EDDAV:  cpu time      7.5206: real time      7.5217
       DOS:  cpu time      0.0014: real time      0.0014
    --------------------------------------------
      LOOP:  cpu time      7.5221: real time      7.5231

 eigenvalue-minimisations  : 23232
 total energy-change (2. order) :-0.3776040E-07  (-0.3791195E-07)
 number of electron      41.9999999 magnetization 
 augmentation part       41.9999999 magnetization 

 Free energy of the ion-electron system (eV)
  ---------------------------------------------------
  alpha Z        PSCENC =        94.30280740
  Ewald energy   TEWEN  =      -798.79353645
  -Hartree energ DENC   =      -346.67156164
  -exchange      EXHF   =         0.00000000
  -V(xc)+E(xc)   XCENC  =       101.54540939
  PAW double counting   =      3725.05048951    -3714.23337423
  entropy T*S    EENTRO =        -0.01592951
  eigenvalues    EBANDS =      -148.12698548
  atomic energy  EATOM  =       996.37441054
  Solvation  Ediel_sol  =         0.00000000
  ---------------------------------------------------
  free energy    TOTEN  =       -90.56827047 eV

  energy without entropy =      -90.55234096  energy(sigma->0) =      -90.56030571


--------------------------------------------------------------------------------------------------------




 average (electrostatic) potential at core
  the test charge radii are     0.7672
  (the norm of the test charge is              1.0000)
       1 -29.9631       2 -29.9631       3 -29.9631       4 -29.9631       5 -28.9396
       6 -28.9396       7 -28.9396       8 -28.9396       9 -29.3448      10 -29.3448
      11 -29.3448      12 -29.3448      13 -29.9131      14 -29.9131
 
 
 
 E-fermi :   2.1668     XC(G=0):  -9.4486     alpha+bet :-10.8673

 val. band max:        2.1538937757   @ k =   0.0000   0.4565   0.5000
 cond. band min:       2.1688937511   @ k =   0.1087   0.0000   0.0000
 fundamental gap:      0.0149999754
 Fermi energy:         2.1667537920

 k-point     1 :       0.0000    0.0000    0.0000
  band No.  band energies     occupation 
      1     -12.7001      2.00000
      2     -11.5185      2.00000
      3      -8.6602      2.00000
      4      -8.3673      2.00000
      5      -6.0547      2.00000
      6      -5.0926      2.00000
      7      -4.6806      2.00000
      8      -4.3776      2.00000
      9      -3.9349      2.00000
     10      -3.5278      2.00000
     11      -2.4047      2.00000
     12      -2.2223      2.00000
     13      -2.1044      2.00000
     14      -1.0664      2.00000
     15      -0.0204      2.00000
     16       0.0138      2.00000
     17       0.0412      2.00000
     18       0.0897      2.00000
     19       0.6731      2.00000
     20       2.1195      1.49601
     21       2.1534      1.14941
     22       2.2423      0.28534
     23       5.5052      0.00000
     24       5.7269      0.00000
     25       5.7350      0.00000
     26       5.9715      0.00000
     27       6.7245      0.00000
     28       7.6981      0.00000
     29       7.7190      0.00000
     30       8.6219      0.00000
     31       8.8502      0.00000
     32       8.8550      0.00000
     33       9.0512      0.00000
     34      10.0266      0.00000
     35      11.1920      0.00000
     36      11.4064      0.00000
     37      11.5179      0.00000
     38      11.7820      0.00000
     39      11.9585      0.00000
     40      12.2948      0.00000
     41      12.9215      0.00000
     42      13.3422      0.00000
     43      13.5277      0.00000
     44      15.5237      0.00000
     45      15.5817      0.00000
     46      15.9208      0.00000
     47      16.3102      0.00000
     48      16.5383      0.00000

 k-point     2 :       0.0217    0.0000    0.0000
  band No.  band energies     occupation 
      1     -12.6990      2.00000
      2     -11.5204      2.00000
      3      -8.6596      2.00000
      4      -8.3670      2.00000
      5      -6.0524      2.00000
      6      -5.1081      2.00000
      7      -4.6861      2.00000
      8      -4.3597      2.00000
      9      -3.9334      2.00000
     10      -3.5178      2.00000
     11      -2.4043      2.00000
     12      -2.2225      2.00000
     13      -2.1081      2.00000
     14      -1.0743      2.00000
     15      -0.0183      2.00000
     16       0.0108      2.00000
     17       0.0423      2.00000
     18       0.0910      2.00000
     19       0.6707      2.00000
     20       2.1175      1.51390
     21       2.1509      1.17715
     22       2.2394      0.30451
     23       5.5074      0.00000
     24       5.7276      0.00000
     25       5.7337      0.00000
     26       5.9815      0.00000
     27       6.7224      0.00000
     28       7.6315      0.00000
     29       7.7811      0.00000
     30       8.6254      0.00000
     31       8.8565      0.00000
     32       8.8638      0.00000
     33       9.0521      0.00000
     34      10.0285      0.00000
     35      11.1938      0.00000
     36      11.3960      0.00000
     37      11.5157      0.00000
     38      11.7622      0.00000
     39      11.9641      0.00000
     40      12.2970      0.00000
     41      12.9311      0.00000
     42      13.3627      0.00000
     43      13.5178      0.00000
     44      15.5299      0.00000
     45      15.5345      0.00000
     46      15.9581      0.00000
     47      16.3132      0.00000
     48      16.4788      0.00000

 k-point     3 :       0.0435    0.0000    0.0000
  band No.  band energies     occupation 
[...]
      1     -11.9041      2.00000
      2     -11.9041      2.00000
      3      -8.4461      2.00000
      4      -8.4461      2.00000
      5      -5.8703      2.00000
      6      -5.8703      2.00000
      7      -4.7934      2.00000
      8      -4.7934      2.00000
      9      -4.1578      2.00000
     10      -4.1578      2.00000
     11      -2.1658      2.00000
     12      -2.1658      2.00000
     13      -1.9006      2.00000
     14      -1.9006      2.00000
     15      -0.0391      2.00000
     16      -0.0391      2.00000
     17       0.4265      2.00000
     18       0.4265      2.00000
     19       0.5994      2.00000
     20       0.5994      2.00000
     21       1.7588      2.00000
     22       1.7588      2.00000
     23       5.9562      0.00000
     24       5.9562      0.00000
     25       7.1222      0.00000
     26       7.1222      0.00000
     27       7.5869      0.00000
     28       7.5869      0.00000
     29       9.5687      0.00000
     30       9.5687      0.00000
     31       9.6811      0.00000
     32       9.6811      0.00000
     33      10.6860      0.00000
     34      10.6860      0.00000
     35      11.4103      0.00000
     36      11.4103      0.00000
     37      11.5690      0.00000
     38      11.5690      0.00000
     39      13.1447      0.00000
     40      13.1447      0.00000
     41      14.0319      0.00000
     42      14.0319      0.00000
     43      14.1887      0.00000
     44      14.1887      0.00000
     45      14.6133      0.00000
     46      14.6133      0.00000
     47      14.9931      0.00000
     48      14.9934      0.00000

 k-point   165 :       0.5000    0.5000    0.4348
  band No.  band energies     occupation 
      1     -11.9031      2.00000
      2     -11.9031      2.00000
      3      -8.4541      2.00000
      4      -8.4541      2.00000
      5      -5.8688      2.00000
      6      -5.8688      2.00000
      7      -4.7157      2.00000
      8      -4.7157      2.00000
      9      -4.2284      2.00000
     10      -4.2284      2.00000
     11      -2.1794      2.00000
     12      -2.1794      2.00000
     13      -1.9033      2.00000
     14      -1.9033      2.00000
     15      -0.0347      2.00000
     16      -0.0347      2.00000
     17       0.4566      2.00000
     18       0.4566      2.00000
     19       0.5919      2.00000
     20       0.5919      2.00000
     21       1.7447      2.00000
     22       1.7447      2.00000
     23       5.9474      0.00000
     24       5.9474      0.00000
     25       7.1307      0.00000
     26       7.1307      0.00000
     27       7.5872      0.00000
     28       7.5872      0.00000
     29       9.5712      0.00000
     30       9.5712      0.00000
     31       9.7451      0.00000
     32       9.7451      0.00000
     33      10.6282      0.00000
     34      10.6282      0.00000
     35      11.3848      0.00000
     36      11.3848      0.00000
     37      11.5524      0.00000
     38      11.5524      0.00000
     39      13.1595      0.00000
     40      13.1595      0.00000
     41      14.0412      0.00000
     42      14.0412      0.00000
     43      14.2414      0.00000
     44      14.2414      0.00000
     45      14.6974      0.00000
     46      14.6974      0.00000
     47      14.9037      0.00000
     48      14.9037      0.00000

 k-point   166 :       0.5000    0.5000    0.4565
  band No.  band energies     occupation 
      1     -11.9025      2.00000
      2     -11.9025      2.00000
      3      -8.4600      2.00000
      4      -8.4600      2.00000
      5      -5.8676      2.00000
      6      -5.8676      2.00000
      7      -4.6401      2.00000
      8      -4.6401      2.00000
      9      -4.2990      2.00000
     10      -4.2990      2.00000
     11      -2.1891      2.00000
     12      -2.1891      2.00000
     13      -1.9051      2.00000
     14      -1.9051      2.00000
     15      -0.0323      2.00000
     16      -0.0323      2.00000
     17       0.4788      2.00000
     18       0.4788      2.00000
     19       0.5873      2.00000
     20       0.5873      2.00000
     21       1.7340      2.00000
     22       1.7340      2.00000
     23       5.9410      0.00000
     24       5.9410      0.00000
     25       7.1369      0.00000
     26       7.1369      0.00000
     27       7.5865      0.00000
     28       7.5865      0.00000
     29       9.5729      0.00000
     30       9.5729      0.00000
     31       9.8022      0.00000
     32       9.8022      0.00000
     33      10.5763      0.00000
     34      10.5763      0.00000
     35      11.3663      0.00000
     36      11.3663      0.00000
     37      11.5407      0.00000
     38      11.5407      0.00000
     39      13.1716      0.00000
     40      13.1716      0.00000
     41      14.0475      0.00000
     42      14.0475      0.00000
     43      14.2886      0.00000
     44      14.2886      0.00000
     45      14.7621      0.00000
     46      14.7624      0.00000
     47      14.8292      0.00000
     48      14.8292      0.00000

 k-point   167 :       0.5000    0.5000    0.4783
  band No.  band energies     occupation 
      1     -11.9021      2.00000
      2     -11.9021      2.00000
      3      -8.4635      2.00000
      4      -8.4635      2.00000
      5      -5.8669      2.00000
      6      -5.8669      2.00000
      7      -4.5715      2.00000
      8      -4.5715      2.00000
      9      -4.3645      2.00000
     10      -4.3645      2.00000
     11      -2.1949      2.00000
     12      -2.1949      2.00000
     13      -1.9060      2.00000
     14      -1.9060      2.00000
     15      -0.0313      2.00000
     16      -0.0313      2.00000
     17       0.4924      2.00000
     18       0.4924      2.00000
     19       0.5848      2.00000
     20       0.5848      2.00000
     21       1.7273      2.00000
     22       1.7273      2.00000
     23       5.9371      0.00000
     24       5.9371      0.00000
     25       7.1407      0.00000
     26       7.1407      0.00000
     27       7.5856      0.00000
     28       7.5856      0.00000
     29       9.5738      0.00000
     30       9.5738      0.00000
     31       9.8429      0.00000
     32       9.8429      0.00000
     33      10.5389      0.00000
     34      10.5389      0.00000
     35      11.3551      0.00000
     36      11.3551      0.00000
     37      11.5337      0.00000
     38      11.5337      0.00000
     39      13.1794      0.00000
     40      13.1794      0.00000
     41      14.0511      0.00000
     42      14.0511      0.00000
     43      14.3238      0.00000
     44      14.3238      0.00000
     45      14.7772      0.00000
     46      14.7772      0.00000
     47      14.8032      0.00000
     48      14.8034      0.00000

 k-point   168 :       0.5000    0.5000    0.5000
  band No.  band energies     occupation 
      1     -11.9019      2.00000
      2     -11.9019      2.00000
      3      -8.4647      2.00000
      4      -8.4647      2.00000
      5      -5.8667      2.00000
      6      -5.8667      2.00000
      7      -4.5350      2.00000
      8      -4.5350      2.00000
      9      -4.4001      2.00000
     10      -4.4001      2.00000
     11      -2.1969      2.00000
     12      -2.1969      2.00000
     13      -1.9063      2.00000
     14      -1.9063      2.00000
     15      -0.0310      2.00000
     16      -0.0310      2.00000
     17       0.4970      2.00000
     18       0.4970      2.00000
     19       0.5840      2.00000
     20       0.5840      2.00000
     21       1.7250      2.00000
     22       1.7250      2.00000
     23       5.9359      0.00000
     24       5.9359      0.00000
     25       7.1420      0.00000
     26       7.1420      0.00000
     27       7.5853      0.00000
     28       7.5853      0.00000
     29       9.5740      0.00000
     30       9.5740      0.00000
     31       9.8580      0.00000
     32       9.8580      0.00000
     33      10.5251      0.00000
     34      10.5251      0.00000
     35      11.3513      0.00000
     36      11.3513      0.00000
     37      11.5315      0.00000
     38      11.5315      0.00000
     39      13.1822      0.00000
     40      13.1822      0.00000
     41      14.0523      0.00000
     42      14.0523      0.00000
     43      14.3373      0.00000
     44      14.3374      0.00000
     45      14.7579      0.00000
     46      14.7580      0.00000
     47      14.8176      0.00000
     48      14.8250      0.00000


--------------------------------------------------------------------------------------------------------


 soft charge-density along one line, spin component           1
         0         1         2         3         4         5         6         7         8         9
 total charge-density along one line
 
 pseudopotential strength for first ion, spin component:           1
  6.445   9.813  -0.000  -0.009   0.005  -0.000  -0.014   0.008
  9.813  14.936  -0.000  -0.013   0.008  -0.000  -0.021   0.011
 -0.000  -0.000  -2.174  -0.000  -0.000  -3.694  -0.000  -0.000
 -0.009  -0.013  -0.000  -2.178  -0.001  -0.000  -3.704  -0.002
  0.005   0.008  -0.000  -0.001  -2.177  -0.000  -0.002  -3.702
 -0.000  -0.000  -3.694  -0.000  -0.000  -6.079  -0.000  -0.000
 -0.014  -0.021  -0.000  -3.704  -0.002  -0.000  -6.101  -0.004
  0.008   0.011  -0.000  -0.002  -3.702  -0.000  -0.004  -6.096
 total augmentation occupancy for first ion, spin component:           1
  2.000   0.000   0.000   0.000   0.000   0.000   0.000   0.000
  0.000   0.000   0.000   0.000   0.000   0.000   0.000   0.000
  0.000   0.000   0.333   0.000   0.000   0.000   0.000   0.000
  0.000   0.000   0.000   0.333   0.000   0.000   0.000   0.000
  0.000   0.000   0.000   0.000   0.333   0.000   0.000   0.000
  0.000   0.000   0.000   0.000   0.000   0.000   0.000   0.000
  0.000   0.000   0.000   0.000   0.000   0.000   0.000   0.000
  0.000   0.000   0.000   0.000   0.000   0.000   0.000   0.000


------------------------ aborting loop because EDIFF is reached ----------------------------------------





 total charge

# of ion       s       p       d       tot
------------------------------------------
    1        0.709   1.382   0.000   2.091
    2        0.709   1.382   0.000   2.091
    3        0.709   1.382   0.000   2.091
    4        0.709   1.382   0.000   2.091
    5        0.716   1.312   0.000   2.029
    6        0.716   1.312   0.000   2.029
    7        0.716   1.312   0.000   2.029
    8        0.716   1.312   0.000   2.029
    9        0.699   1.200   0.000   1.899
   10        0.699   1.200   0.000   1.899
   11        0.699   1.200   0.000   1.899
   12        0.699   1.200   0.000   1.899
   13        0.714   1.403   0.000   2.118
   14        0.714   1.403   0.000   2.118
--------------------------------------------------
tot          9.924  18.386   0.000  28.310
 
    CHARGE:  cpu time      0.0892: real time      0.0915
    FORLOC:  cpu time      0.0014: real time      0.0014
    FORNL :  cpu time      0.7976: real time      0.7976
    STRESS:  cpu time      3.7298: real time      3.7299
    FORCOR:  cpu time      0.0122: real time      0.0122
    FORHAR:  cpu time      0.0042: real time      0.0042
    OFIELD:  cpu time      0.0001: real time      0.0001

 ---------------------------------------------------------------------------------------------

         DFTD3 V3.0 Rev 1        
 DF pbe       
 parameters
 k1-k3        =   16.0000    1.3333   -4.0000
 Edisp (eV)   -1.96230

 E6    (eV) :    -1.3220
 E8    (eV) :    -0.6403
 % E8        : 32.63
    FORVDW:  cpu time      0.0601: real time      0.0601

  FORCE on cell =-STRESS in cart. coord.  units (eV):
  Direction    XX          YY          ZZ          XY          YZ          ZX
  --------------------------------------------------------------------------------------
  Alpha Z    94.30281    94.30281    94.30281
  Ewald     -93.12989  -561.95728  -143.70902    -0.00000     0.00000     0.00000
  Hartree   192.44752    -6.28937   160.94511    -0.00000    -0.00000    -0.00000
  E(xc)    -134.85190  -135.81609  -134.84553     0.00000    -0.00000     0.00000
  Local    -499.92151   148.33961  -417.04859     0.00000    -0.00000    -0.00000
  n-local    -9.41381   -10.49990   -10.38553     0.00000    -0.00000    -0.00000
  augment     1.30560     1.36567     1.31486     0.00000     0.00000    -0.00000
  Kinetic   446.11280   475.39533   448.82070    -0.00000     0.00000     0.00000
  Fock        0.00000     0.00000     0.00000     0.00000     0.00000     0.00000
  vdW        -2.04354    -2.13134    -2.01285     0.00000     0.00000     0.00000
  -------------------------------------------------------------------------------------
  Total      -5.19191     2.70944    -2.61804     0.00000     0.00000    -0.00000
  in kB     -58.17671    30.35991   -29.33576     0.00000     0.00000    -0.00000
  external pressure =      -19.05 kB  Pullay stress =        0.00 kB


 VOLUME and BASIS-vectors are now :
 -----------------------------------------------------------------------------
  energy-cutoff  :      600.00
  volume of cell :      142.98
      direct lattice vectors                 reciprocal lattice vectors
     5.700970695  0.000000000  0.000000000     0.175408725  0.000000000  0.000000000
     0.000000000  4.044058096  0.000000000     0.000000000  0.247276368  0.000000000
     0.000000000  0.000000000  6.201871195     0.000000000  0.000000000  0.161241659

  length of vectors
     5.700970695  4.044058096  6.201871195     0.175408725  0.247276368  0.161241659


 FORCES acting on ions
    electron-ion (+dipol)            ewald-force                    non-local-force                 convergence-correction
 -----------------------------------------------------------------------------------------------
   0.479E+02 0.935E-12 -.247E+02   -.511E+02 0.185E-14 0.280E+02   0.201E+01 0.126E-23 -.340E+01   0.645E+00 -.429E-12 0.154E+00
   -.479E+02 -.226E-12 0.247E+02   0.511E+02 0.687E-16 -.280E+02   -.201E+01 -.815E-24 0.340E+01   -.645E+00 -.203E-12 -.154E+00
   -.479E+02 0.913E-12 -.247E+02   0.511E+02 -.149E-14 0.280E+02   -.201E+01 -.191E-23 -.340E+01   -.645E+00 0.217E-12 0.154E+00
   0.479E+02 0.201E-13 0.247E+02   -.511E+02 -.171E-14 -.280E+02   0.201E+01 0.967E-24 0.340E+01   0.645E+00 -.356E-12 -.154E+00
   0.284E+02 -.263E-12 -.501E+02   -.315E+02 0.387E-14 0.550E+02   0.253E+01 0.816E-24 -.426E+01   0.410E+00 -.102E-11 -.408E+00
   -.284E+02 0.336E-12 0.501E+02   0.315E+02 0.345E-14 -.550E+02   -.253E+01 0.129E-23 0.426E+01   -.410E+00 -.790E-12 0.408E+00
   -.284E+02 -.129E-11 -.501E+02   0.315E+02 0.431E-14 0.550E+02   -.253E+01 0.756E-24 -.426E+01   -.410E+00 -.911E-12 -.408E+00
   0.284E+02 -.127E-13 0.501E+02   -.315E+02 0.344E-14 -.550E+02   0.253E+01 -.256E-23 0.426E+01   0.410E+00 -.131E-11 0.408E+00
   0.254E-13 -.567E+02 -.161E+02   0.938E-14 0.606E+02 0.172E+02   0.885E-24 -.540E+01 -.108E+01   0.121E-11 0.762E+00 0.183E-01
   0.130E-13 0.567E+02 0.161E+02   0.312E-14 -.606E+02 -.172E+02   0.147E-23 0.540E+01 0.108E+01   -.680E-12 -.762E+00 -.183E-01
   0.256E-13 0.567E+02 -.161E+02   0.561E-14 -.606E+02 0.172E+02   0.998E-24 0.540E+01 -.108E+01   0.601E-12 -.762E+00 0.183E-01
   0.132E-13 -.567E+02 0.161E+02   -.935E-15 0.606E+02 -.172E+02   -.567E-25 -.540E+01 0.108E+01   -.442E-12 0.762E+00 -.183E-01
   -.247E-14 0.363E-12 -.607E+02   -.559E-13 0.564E-16 0.647E+02   -.251E-23 -.764E-24 -.289E+01   0.108E-11 -.117E-12 -.731E+00
   0.264E-14 -.927E-13 0.607E+02   -.571E-13 -.472E-15 -.647E+02   -.736E-23 0.126E-23 0.289E+01   -.254E-11 0.303E-13 0.731E+00
 -----------------------------------------------------------------------------------------------
   -.121E-11 0.656E-12 0.273E-10   -.389E-13 -.415E-15 -.142E-13   -.657E-23 0.495E-24 0.444E-15   0.190E-11 -.446E-11 0.761E-13
 
 
 POSITION                                       TOTAL-FORCE (eV/Angst)
 -----------------------------------------------------------------------------------
      2.97186      2.02203      3.95653        -0.478489      0.000000      0.024468
      2.72911      2.02203      2.24534         0.478489      0.000000     -0.024468
      5.57960      2.02203      3.95653         0.478489      0.000000      0.024468
      0.12137      2.02203      2.24534        -0.478489      0.000000     -0.024468
      3.40604      2.02203      5.58087        -0.216431      0.000000      0.213134
      2.29493      2.02203      0.62100         0.216431      0.000000     -0.213134
      5.14541      2.02203      5.58087         0.216431      0.000000      0.213134
      0.55556      2.02203      0.62100        -0.216431      0.000000     -0.213134
      4.27573      3.20113      4.52476         0.000000     -0.691448     -0.013525
      1.42524      0.84292      1.67711         0.000000      0.691448      0.013525
      4.27573      0.84292      4.52476         0.000000      0.691448     -0.013525
      1.42524      3.20113      1.67711         0.000000     -0.691448      0.013525
      1.42524      2.02203      3.24974         0.000000      0.000000      0.431062
      4.27573      2.02203      2.95213         0.000000      0.000000     -0.431062
 -----------------------------------------------------------------------------------
    total drift:                                0.000000     -0.000000      0.000000


--------------------------------------------------------------------------------------------------------



  FREE ENERGIE OF THE ION-ELECTRON SYSTEM (eV)
  ---------------------------------------------------
  free  energy   TOTEN  =       -92.53056673 eV

  energy  without entropy=      -92.51463722  energy(sigma->0) =      -92.52260198
 


--------------------------------------------------------------------------------------------------------


    POTLOK:  cpu time      0.0198: real time      0.0198


--------------------------------------------------------------------------------------------------------


 writing wavefunctions
     LOOP+:  cpu time     54.6254: real time     54.6401
    4ORBIT:  cpu time      0.0000: real time      0.0000



 total charge

# of ion       s       p       d       tot
------------------------------------------
    1        0.709   1.382   0.000   2.091
    2        0.709   1.382   0.000   2.091
    3        0.709   1.382   0.000   2.091
    4        0.709   1.382   0.000   2.091
    5        0.716   1.312   0.000   2.029
    6        0.716   1.312   0.000   2.029
    7        0.716   1.312   0.000   2.029
    8        0.716   1.312   0.000   2.029
    9        0.699   1.200   0.000   1.899
   10        0.699   1.200   0.000   1.899
   11        0.699   1.200   0.000   1.899
   12        0.699   1.200   0.000   1.899
   13        0.714   1.403   0.000   2.118
   14        0.714   1.403   0.000   2.118
--------------------------------------------------
tot          9.924  18.386   0.000  28.310
 

 total amount of memory used by VASP MPI-rank0   115110. kBytes
=======================================================================

   base      :      30000. kBytes
   nonl-proj :      52948. kBytes
   fftplans  :       1200. kBytes
   grid      :       4341. kBytes
   one-center:         43. kBytes
   wavefun   :      26578. kBytes
 
  
  
 General timing and accounting informations for this job:
 ========================================================
  
                  Total CPU time used (sec):       60.121
                            User time (sec):       58.499
                          System time (sec):        1.621
                         Elapsed time (sec):       61.067
  
                   Maximum memory used (kb):      475792.
                   Average memory used (kb):          N/A
  
                          Minor page faults:       234315
                          Major page faults:         1364
                 Voluntary context switches:         4334
