Convergence                             
           1
    14.986500    0.000000    0.000000
     0.000000   12.488750    0.000000
     0.000000    0.000000   17.983800
   B 
     1
Direct configuration=     1
   0.52123000  0.54500000  0.63796000
