 vasp.6.4.3 19Mar24 (build May 31 2024 16:31:43) complex                        
  
 executed on             LinuxIFC date 2024.11.02  01:41:13
 running   24 mpi-ranks, with    1 threads/rank, on    1 nodes
 distrk:  each k-point on   24 cores,    1 groups
 distr:  one band on NCORE=   1 cores,   24 groups


--------------------------------------------------------------------------------------------------------


 INCAR:
   SYSTEM = Convergence
   ISTART = 0
   ICHARG = 2
   PREC = Accurate
   ENCUT = 480
   LCHARG = .FALSE.
   LWAVE = .FALSE.
   ALGO = Normal
   NELM = 100
   EDIFF = 1E-6
   EDIFFG = -1E-3
   SIGMA = 0.05
   ISMEAR = 0
   ISPIN = 1
   NSW = 0
   IBRION = -1
   POTIM = .5
   ISIF = 2
   GGA = PE

 POTCAR:    PAW_PBE B 06Sep2000                   
 POTCAR:    PAW_PBE B 06Sep2000                   
   SHA256 =  a32ced30f5ae56fd4d10b4325ff17eb3e4e38ee0f4288bc219fb012fddfa6e97 B/POTCAR              
   COPYR  = (c) Copyright 06Sep2000 Georg Kresse                                                    
   COPYR  = This file is part of the software VASP. Any use, copying, and all other rights are regul
   COPYR  = If you do not have a valid VASP license, you may not use, copy or distribute this file. 
   VRHFIN =B: s2p1                                                                                  
   LEXCH  = PE                                                                                      
   EATOM  =    71.1703 eV,    5.2309 Ry                                                             
                                                                                                    
   TITEL  = PAW_PBE B 06Sep2000                                                                     
   LULTRA =        F    use ultrasoft PP ?                                                          
   IUNSCR =        1    unscreen: 0-lin 1-nonlin 2-no                                               
   RPACOR =    1.200    partial core radius                                                         
   POMASS =   10.811; ZVAL   =    3.000    mass and valenz                                          
   RCORE  =    1.700    outmost cutoff radius                                                       
   RWIGS  =    1.710; RWIGS  =    0.905    wigner-seitz radius (au A)                               
   ENMAX  =  318.614; ENMIN  =  238.960 eV                                                          
   ICORE  =        2    local potential                                                             
   LCOR   =        T    correct aug charges                                                         
   LPAW   =        T    paw PP                                                                      
   EAUG   =  535.514                                                                                
   DEXC   =    0.000                                                                                
   RMAX   =    1.732    core radius for proj-oper                                                   
   RAUG   =    1.300    factor for augmentation sphere                                              
   RDEP   =    1.757    radius for radial grids                                                     
   RDEPT  =    1.436    core radius for aug-charge                                                  
                                                                                                    
   Atomic configuration                                                                             
    4 entries                                                                                       
     n  l   j            E        occ.                                                              
     1  0  0.50      -180.5896   2.0000                                                             
     2  0  0.50        -9.4431   2.0000                                                             
     2  1  0.50        -3.6068   1.0000                                                             
     3  2  1.50        -4.0817   0.0000                                                             
   Description                                                                                      
     l       E           TYP  RCUT    TYP  RCUT                                                     
     0     -9.4430752     23  1.500                                                                 
     0      0.8675899     23  1.500                                                                 
     1     -3.6067955     23  1.700                                                                 
     1      6.1086146     23  1.700                                                                 
     2     -4.0817478      7  1.700                                                                 
  local pseudopotential read in
  partial core-charges read in
  partial kinetic energy density read in
  atomic valenz-charges read in
  non local Contribution for L=           0  read in
    real space projection operators read in
  non local Contribution for L=           0  read in
    real space projection operators read in
  non local Contribution for L=           1  read in
    real space projection operators read in
  non local Contribution for L=           1  read in
    real space projection operators read in
    PAW grid and wavefunctions read in
 
   number of l-projection  operators is LMAX  =           4
   number of lm-projection operators is LMMAX =           8
 
  PAW_PBE B 06Sep2000                   :
 energy of atom  1       EATOM=  -71.1703
 kinetic energy error for atom=    0.0013 (will be added to EATOM!!)
 
 
 POSCAR: B1
  positions in direct lattice
  No initial velocities read in


 exchange-correlation table for PE
   RHO(1)=    0.500       N(1)  =     2000
   RHO(2)=  100.500       N(2)  =     4000
 


--------------------------------------------------------------------------------------------------------


 ion  position               nearest neighbor table
   1  0.521  0.545  0.638-
 
  LATTYP: Found a simple orthorhombic cell.
 ALAT       =    12.5000000000
 B/A-ratio  =     1.2000000000
 C/A-ratio  =     1.4400000000
  
  Lattice vectors:
  
 A1 = (   0.0000000000, -12.5000000000,   0.0000000000)
 A2 = (  15.0000000000,   0.0000000000,   0.0000000000)
 A3 = (   0.0000000000,   0.0000000000,  18.0000000000)


Analysis of symmetry for initial positions (statically):
=====================================================================
 Subroutine PRICEL returns:
 Original cell was already a primitive cell.
 

 Routine SETGRP: Setting up the symmetry group for a 
 simple orthorhombic supercell.


 Subroutine GETGRP returns: Found  8 space group operations
 (whereof  1 operations were pure point group operations)
 out of a pool of  8 trial point group operations.


The static configuration has the point symmetry C_1 .
 The point group associated with its full space group is D_2h.


Analysis of symmetry for dynamics (positions and initial velocities):
=====================================================================
 Subroutine PRICEL returns:
 Original cell was already a primitive cell.
 

 Routine SETGRP: Setting up the symmetry group for a 
 simple orthorhombic supercell.


 Subroutine GETGRP returns: Found  8 space group operations
 (whereof  1 operations were pure point group operations)
 out of a pool of  8 trial point group operations.


The dynamic configuration has the point symmetry C_1 .
 The point group associated with its full space group is D_2h.


 Subroutine INISYM returns: Found  8 space group operations
 (whereof  1 operations are pure point group operations),
 and found     1 'primitive' translations


----------------------------------------------------------------------------------------

                                     Primitive cell                                     

  volume of cell :    3375.0000

  direct lattice vectors                    reciprocal lattice vectors
    15.000000000  0.000000000  0.000000000     0.066666667  0.000000000  0.000000000
     0.000000000 12.500000000  0.000000000     0.000000000  0.080000000  0.000000000
     0.000000000  0.000000000 18.000000000     0.000000000  0.000000000  0.055555556

  length of vectors
    15.000000000 12.500000000 18.000000000     0.066666667  0.080000000  0.055555556

  position of ions in fractional coordinates (direct lattice)
     0.521230000  0.545000000  0.637960000

  ion indices of the primitive-cell ions
   primitive index   ion index
                 1           1

----------------------------------------------------------------------------------------

 
 
 KPOINTS: k-points                                

Automatic generation of k-mesh.
 Grid dimensions read from file:
 generate k-points for:    5    7    5

 Generating k-lattice:

  Cartesian coordinates                     Fractional coordinates (reciprocal lattice)
     0.013333333  0.000000000  0.000000000     0.200000000  0.000000000  0.000000000
     0.000000000  0.011428571  0.000000000     0.000000000  0.142857143  0.000000000
     0.000000000  0.000000000  0.011111111     0.000000000  0.000000000  0.200000000

  Length of vectors
     0.013333333  0.011428571  0.011111111

  Shift w.r.t. Gamma in fractional coordinates (k-lattice)
     0.000000000  0.000000000  0.000000000

 
 Subroutine IBZKPT returns following result:
 ===========================================
 
 Found     36 irreducible k-points:
 
 Following reciprocal coordinates:
            Coordinates               Weight
  0.000000  0.000000  0.000000      1.000000
  0.200000  0.000000  0.000000      2.000000
  0.400000  0.000000  0.000000      2.000000
  0.000000  0.142857  0.000000      2.000000
  0.200000  0.142857  0.000000      4.000000
  0.400000  0.142857  0.000000      4.000000
  0.000000  0.285714  0.000000      2.000000
  0.200000  0.285714  0.000000      4.000000
  0.400000  0.285714  0.000000      4.000000
  0.000000  0.428571  0.000000      2.000000
  0.200000  0.428571  0.000000      4.000000
  0.400000  0.428571  0.000000      4.000000
  0.000000  0.000000  0.200000      2.000000
  0.200000  0.000000  0.200000      4.000000
  0.400000  0.000000  0.200000      4.000000
  0.000000  0.142857  0.200000      4.000000
  0.200000  0.142857  0.200000      8.000000
  0.400000  0.142857  0.200000      8.000000
  0.000000  0.285714  0.200000      4.000000
  0.200000  0.285714  0.200000      8.000000
  0.400000  0.285714  0.200000      8.000000
  0.000000  0.428571  0.200000      4.000000
  0.200000  0.428571  0.200000      8.000000
  0.400000  0.428571  0.200000      8.000000
  0.000000  0.000000  0.400000      2.000000
  0.200000  0.000000  0.400000      4.000000
  0.400000  0.000000  0.400000      4.000000
  0.000000  0.142857  0.400000      4.000000
  0.200000  0.142857  0.400000      8.000000
  0.400000  0.142857  0.400000      8.000000
  0.000000  0.285714  0.400000      4.000000
  0.200000  0.285714  0.400000      8.000000
  0.400000  0.285714  0.400000      8.000000
  0.000000  0.428571  0.400000      4.000000
  0.200000  0.428571  0.400000      8.000000
  0.400000  0.428571  0.400000      8.000000
 
 Following cartesian coordinates:
            Coordinates               Weight
  0.000000  0.000000  0.000000      1.000000
  0.013333  0.000000  0.000000      2.000000
  0.026667  0.000000  0.000000      2.000000
  0.000000  0.011429  0.000000      2.000000
  0.013333  0.011429  0.000000      4.000000
  0.026667  0.011429  0.000000      4.000000
  0.000000  0.022857  0.000000      2.000000
  0.013333  0.022857  0.000000      4.000000
  0.026667  0.022857  0.000000      4.000000
  0.000000  0.034286  0.000000      2.000000
  0.013333  0.034286  0.000000      4.000000
  0.026667  0.034286  0.000000      4.000000
  0.000000  0.000000  0.011111      2.000000
  0.013333  0.000000  0.011111      4.000000
  0.026667  0.000000  0.011111      4.000000
  0.000000  0.011429  0.011111      4.000000
  0.013333  0.011429  0.011111      8.000000
  0.026667  0.011429  0.011111      8.000000
  0.000000  0.022857  0.011111      4.000000
  0.013333  0.022857  0.011111      8.000000
  0.026667  0.022857  0.011111      8.000000
  0.000000  0.034286  0.011111      4.000000
  0.013333  0.034286  0.011111      8.000000
  0.026667  0.034286  0.011111      8.000000
  0.000000  0.000000  0.022222      2.000000
  0.013333  0.000000  0.022222      4.000000
  0.026667  0.000000  0.022222      4.000000
  0.000000  0.011429  0.022222      4.000000
  0.013333  0.011429  0.022222      8.000000
  0.026667  0.011429  0.022222      8.000000
  0.000000  0.022857  0.022222      4.000000
  0.013333  0.022857  0.022222      8.000000
  0.026667  0.022857  0.022222      8.000000
  0.000000  0.034286  0.022222      4.000000
  0.013333  0.034286  0.022222      8.000000
  0.026667  0.034286  0.022222      8.000000
 


--------------------------------------------------------------------------------------------------------




 Dimension of arrays:
   k-points           NKPTS =     36   k-points in BZ     NKDIM =     36   number of bands    NBANDS=     24
   number of dos      NEDOS =    301   number of ions     NIONS =      1
   non local maximal  LDIM  =      4   non local SUM 2l+1 LMDIM =      8
   total plane-waves  NPLWV = ******
   max r-space proj   IRMAX =      1   max aug-charges    IRDMAX=   6486
   dimension x,y,z NGX =   108 NGY =   90 NGZ =  140
   dimension x,y,z NGXF=   216 NGYF=  180 NGZF=  280
   support grid    NGXF=   216 NGYF=  180 NGZF=  280
   ions per type =               1
   NGX,Y,Z   is equivalent  to a cutoff of  11.97, 11.97, 12.93 a.u.
   NGXF,Y,Z  is equivalent  to a cutoff of  23.94, 23.94, 25.86 a.u.

 SYSTEM =  Convergence                             
 POSCAR =  B1                                      

 Startparameter for this run:
   NWRITE =      2    write-flag & timer
   PREC   = accura    normal or accurate (medium, high low for compatibility)
   ISTART =      0    job   : 0-new  1-cont  2-samecut
   ICHARG =      2    charge: 1-file 2-atom 10-const
   ISPIN  =      1    spin polarized calculation?
   LNONCOLLINEAR =      F non collinear calculations
   LSORBIT =      F    spin-orbit coupling
   INIWAV =      1    electr: 0-lowe 1-rand  2-diag
   LASPH  =      F    aspherical Exc in radial PAW
 Electronic Relaxation 1
   ENCUT  =  480.0 eV  35.28 Ry    5.94 a.u.  26.80 22.33 32.16*2*pi/ulx,y,z
   ENINI  =  480.0     initial cutoff
   ENAUG  =  535.5 eV  augmentation charge cutoff
   NELM   =    100;   NELMIN=  2; NELMDL= -5     # of ELM steps 
   EDIFF  = 0.1E-05   stopping-criterion for ELM
   LREAL  =      F    real-space projection
   NLSPLINE    = F    spline interpolate recip. space projectors
   LCOMPAT=      F    compatible to vasp.4.4
   GGA_COMPAT  = T    GGA compatible to vasp.4.4-vasp.4.6
   LMAXPAW     = -100 max onsite density
   LMAXMIX     =    2 max onsite mixed and CHGCAR
   VOSKOWN=      0    Vosko Wilk Nusair interpolation
   ROPT   =    0.00000
 Ionic relaxation
   EDIFFG = -.1E-02   stopping-criterion for IOM
   NSW    =      0    number of steps for IOM
   NBLOCK =      1;   KBLOCK =      1    inner block; outer block 
   IBRION =     -1    ionic relax: 0-MD 1-quasi-New 2-CG
   NFREE  =      0    steps in history (QN), initial steepest desc. (CG)
   ISIF   =      2    stress and relaxation
   IWAVPR =     10    prediction:  0-non 1-charg 2-wave 3-comb
   ISYM   =      2    0-nonsym 1-usesym 2-fastsym
   LCORR  =      T    Harris-Foulkes like correction to forces

   POTIM  = 0.5000    time-step for ionic-motion
   TEIN   =    0.0    initial temperature
   TEBEG  =    0.0;   TEEND  =   0.0 temperature during run
   SMASS  =  -3.00    Nose mass-parameter (am)
   estimated Nose-frequenzy (Omega)   =  0.10E-29 period in steps = 0.13E+47 mass=  -0.514E-26a.u.
   SCALEE = 1.0000    scale energy and forces
   NPACO  =    256;   APACO  = 10.0  distance and # of slots for P.C.
   PSTRESS=    0.0 pullay stress

  Mass of Ions in am
   POMASS =  10.81
  Ionic Valenz
   ZVAL   =   3.00
  Atomic Wigner-Seitz radii
   RWIGS  =  -1.00
  virtual crystal weights 
   VCA    =   1.00
   NELECT =       3.0000    total number of electrons
   NUPDOWN=      -1.0000    fix difference up-down

 DOS related values:
   EMIN   =  10.00;   EMAX   =-10.00  energy-range for DOS
   EFERMI =   0.00;   METHOD = LEGACY      
   ISMEAR =     0;   SIGMA  =   0.05  broadening in eV -4-tet -1-fermi 0-gaus

 Electronic relaxation 2 (details)
   IALGO  =     38    algorithm
   LDIAG  =      T    sub-space diagonalisation (order eigenvalues)
   LSUBROT=      F    optimize rotation matrix (better conditioning)
   TURBO    =      0    0=normal 1=particle mesh
   IRESTART =      0    0=no restart 2=restart with 2 vectors
   NREBOOT  =      0    no. of reboots
   NMIN     =      0    reboot dimension
   EREF     =   0.00    reference energy to select bands
   IMIX   =      4    mixing-type and parameters
     AMIX     =   0.40;   BMIX     =  1.00
     AMIX_MAG =   1.60;   BMIX_MAG =  1.00
     AMIN     =   0.10
     WC   =   100.;   INIMIX=   1;  MIXPRE=   1;  MAXMIX= -45

 Intra band minimization:
   WEIMIN = 0.0000     energy-eigenvalue tresh-hold
   EBREAK =  0.10E-07  absolut break condition
   DEPER  =   0.30     relativ break condition  

   TIME   =   0.40     timestep for ELM

  volume/ion in A,a.u.               =    3375.00     22775.62
  Fermi-wavevector in a.u.,A,eV,Ry     =   0.157407  0.297456  0.337111  0.024777
  Thomas-Fermi vector in A             =   0.845991
 
 Write flags
   LWAVE        =      F    write WAVECAR
   LDOWNSAMPLE  =      F    k-point downsampling of WAVECAR
   LCHARG       =      F    write CHGCAR
   LVTOT        =      F    write LOCPOT, total local potential
   LVHAR        =      F    write LOCPOT, Hartree potential only
   WRT_POTENTIAL= false  ! write potential to hdf5 file
   LELF         =      F    write electronic localiz. function (ELF)
   LORBIT       =      0    0 simple, 1 ext, 2 COOP (PROOUT), +10 PAW based schemes


 Dipole corrections
   LMONO      =      F    monopole corrections only (constant potential shift)
   LDIPOL     =      F    correct potential (dipole corrections)
   IDIPOL     =      0    1-x, 2-y, 3-z, 4-all directions 
   EPSILON    =  1.0000000 bulk dielectric constant
   LVACPOTAV  =      F  vacuum potentials using an averaging scheme for the charge density
   VACPOTFLAT =  0.1000000 required flatness to determine vacuum potential
 Exchange correlation treatment:
   GGA     = PE    functional components
   XC_C    = 1    coefficients multiplying the functional components
   LIBXC   =     F    Libxc                    
   VOSKOWN =     0    Vosko Wilk Nusair interpolation
   LHFCALC =     F    Hartree Fock is set to
   LHFONE  =     F    Hartree Fock one center treatment
   AEXX    =    0.0000 exact exchange contribution

 Parameters of functionals:
   PE:
     No parameter
 
 Van der Waals corrections
   IVDW    =     0    specifies the selected vdW correction

 Linear response parameters
   LEPSILON=     F    determine dielectric tensor
   LRPA    =     F    only Hartree local field effects (RPA)
   LNABLA  =     F    use nabla operator in PAW spheres
   LVEL    =     F    velocity operator in full k-point grid
   CSHIFT  =0.1000    complex shift for real part using Kramers Kronig
   OMEGAMAX=  -1.0    maximum frequency
   DEG_THRESHOLD= 0.2000000E-02 threshold for treating states as degnerate
   RTIME   =   -0.100 relaxation time in fs
  (WPLASMAI=    0.000 imaginary part of plasma frequency in eV, 0.658/RTIME)
   DFIELD  = 0.0000000 0.0000000 0.0000000 field for delta impulse in time
 
  Optional k-point grid parameters
   LKPOINTS_OPT  =     F    use optional k-point grid
   KPOINTS_OPT_MODE=     1    mode for optional k-point grid
 
 Orbital magnetization related:
   ORBITALMAG=     F  switch on orbital magnetization
   LCHIMAG   =     F  perturbation theory with respect to B field
   DQ        =  0.001000  dq finite difference perturbation B field
   LLRAUG    =     F  two centre corrections for induced B field
   LBONE     =     F  B-component reconstruction in AE one-centre
   LVGVCALC  =     T  calculate vGv susceptibility
   LVGVAPPL  =     F  apply vGv susceptibility instead of pGv for G=0

 Random number generation:
   RANDOM_GENERATOR = DEFAULT
   PCG_SEED         = not used


--------------------------------------------------------------------------------------------------------


 Static calculation
 charge density and potential will be updated during run
 non-spin polarized calculation
 Variant of blocked Davidson
 Davidson routine will perform the subspace rotation
 perform sub-space diagonalisation
    after iterative eigenvector-optimisation
 modified Broyden-mixing scheme, WC =      100.0
 initial mixing is a Kerker type mixing with AMIX =  0.4000 and BMIX =      1.0000
 Hartree-type preconditioning will be used
 using additional bands           22
 reciprocal scheme for non local part
 use partial core corrections
 calculate Harris-corrections to forces 
   (improved forces if not selfconsistent)
 use gradient corrections 
 use of overlap-Matrix (Vanderbilt PP)
 Gauss-broadening in eV      SIGMA  =   0.05


--------------------------------------------------------------------------------------------------------


  energy-cutoff  :      480.00
  volume of cell :     3375.00
      direct lattice vectors                 reciprocal lattice vectors
    15.000000000  0.000000000  0.000000000     0.066666667  0.000000000  0.000000000
     0.000000000 12.500000000  0.000000000     0.000000000  0.080000000  0.000000000
     0.000000000  0.000000000 18.000000000     0.000000000  0.000000000  0.055555556

  length of vectors
    15.000000000 12.500000000 18.000000000     0.066666667  0.080000000  0.055555556


 
 k-points in units of 2pi/SCALE and weight: k-points                                
   0.00000000  0.00000000  0.00000000       0.006
   0.01333333  0.00000000  0.00000000       0.011
   0.02666667  0.00000000  0.00000000       0.011
   0.00000000  0.01142857  0.00000000       0.011
   0.01333333  0.01142857  0.00000000       0.023
   0.02666667  0.01142857  0.00000000       0.023
   0.00000000  0.02285714  0.00000000       0.011
   0.01333333  0.02285714  0.00000000       0.023
   0.02666667  0.02285714  0.00000000       0.023
   0.00000000  0.03428571  0.00000000       0.011
   0.01333333  0.03428571  0.00000000       0.023
   0.02666667  0.03428571  0.00000000       0.023
   0.00000000  0.00000000  0.01111111       0.011
   0.01333333  0.00000000  0.01111111       0.023
   0.02666667  0.00000000  0.01111111       0.023
   0.00000000  0.01142857  0.01111111       0.023
   0.01333333  0.01142857  0.01111111       0.046
   0.02666667  0.01142857  0.01111111       0.046
   0.00000000  0.02285714  0.01111111       0.023
   0.01333333  0.02285714  0.01111111       0.046
   0.02666667  0.02285714  0.01111111       0.046
   0.00000000  0.03428571  0.01111111       0.023
   0.01333333  0.03428571  0.01111111       0.046
   0.02666667  0.03428571  0.01111111       0.046
   0.00000000  0.00000000  0.02222222       0.011
   0.01333333  0.00000000  0.02222222       0.023
   0.02666667  0.00000000  0.02222222       0.023
   0.00000000  0.01142857  0.02222222       0.023
   0.01333333  0.01142857  0.02222222       0.046
   0.02666667  0.01142857  0.02222222       0.046
   0.00000000  0.02285714  0.02222222       0.023
   0.01333333  0.02285714  0.02222222       0.046
   0.02666667  0.02285714  0.02222222       0.046
   0.00000000  0.03428571  0.02222222       0.023
   0.01333333  0.03428571  0.02222222       0.046
   0.02666667  0.03428571  0.02222222       0.046
 
 k-points in reciprocal lattice and weights: k-points                                
   0.00000000  0.00000000  0.00000000       0.006
   0.20000000  0.00000000  0.00000000       0.011
   0.40000000  0.00000000  0.00000000       0.011
   0.00000000  0.14285714  0.00000000       0.011
   0.20000000  0.14285714  0.00000000       0.023
   0.40000000  0.14285714  0.00000000       0.023
   0.00000000  0.28571429  0.00000000       0.011
   0.20000000  0.28571429  0.00000000       0.023
   0.40000000  0.28571429  0.00000000       0.023
   0.00000000  0.42857143  0.00000000       0.011
   0.20000000  0.42857143  0.00000000       0.023
   0.40000000  0.42857143  0.00000000       0.023
   0.00000000  0.00000000  0.20000000       0.011
   0.20000000  0.00000000  0.20000000       0.023
   0.40000000  0.00000000  0.20000000       0.023
   0.00000000  0.14285714  0.20000000       0.023
   0.20000000  0.14285714  0.20000000       0.046
   0.40000000  0.14285714  0.20000000       0.046
   0.00000000  0.28571429  0.20000000       0.023
   0.20000000  0.28571429  0.20000000       0.046
   0.40000000  0.28571429  0.20000000       0.046
   0.00000000  0.42857143  0.20000000       0.023
   0.20000000  0.42857143  0.20000000       0.046
   0.40000000  0.42857143  0.20000000       0.046
   0.00000000  0.00000000  0.40000000       0.011
   0.20000000  0.00000000  0.40000000       0.023
   0.40000000  0.00000000  0.40000000       0.023
   0.00000000  0.14285714  0.40000000       0.023
   0.20000000  0.14285714  0.40000000       0.046
   0.40000000  0.14285714  0.40000000       0.046
   0.00000000  0.28571429  0.40000000       0.023
   0.20000000  0.28571429  0.40000000       0.046
   0.40000000  0.28571429  0.40000000       0.046
   0.00000000  0.42857143  0.40000000       0.023
   0.20000000  0.42857143  0.40000000       0.046
   0.40000000  0.42857143  0.40000000       0.046
 
 position of ions in fractional coordinates (direct lattice) 
   0.52123000  0.54500000  0.63796000
 
 position of ions in cartesian coordinates  (Angst):
   7.81845000  6.81250000 11.48328000
 


--------------------------------------------------------------------------------------------------------


 k-point     1 :   0.0000 0.0000 0.0000  plane waves:   80605
 k-point     2 :   0.2000 0.0000 0.0000  plane waves:   80541
 k-point     3 :   0.4000 0.0000 0.0000  plane waves:   80566
 k-point     4 :   0.0000 0.1429 0.0000  plane waves:   80617
 k-point     5 :   0.2000 0.1429 0.0000  plane waves:   80572
 k-point     6 :   0.4000 0.1429 0.0000  plane waves:   80601
 k-point     7 :   0.0000 0.2857 0.0000  plane waves:   80631
 k-point     8 :   0.2000 0.2857 0.0000  plane waves:   80566
 k-point     9 :   0.4000 0.2857 0.0000  plane waves:   80616
 k-point    10 :   0.0000 0.4286 0.0000  plane waves:   80552
 k-point    11 :   0.2000 0.4286 0.0000  plane waves:   80565
 k-point    12 :   0.4000 0.4286 0.0000  plane waves:   80601
 k-point    13 :   0.0000 0.0000 0.2000  plane waves:   80586
 k-point    14 :   0.2000 0.0000 0.2000  plane waves:   80592
 k-point    15 :   0.4000 0.0000 0.2000  plane waves:   80621
 k-point    16 :   0.0000 0.1429 0.2000  plane waves:   80598
 k-point    17 :   0.2000 0.1429 0.2000  plane waves:   80609
 k-point    18 :   0.4000 0.1429 0.2000  plane waves:   80589
 k-point    19 :   0.0000 0.2857 0.2000  plane waves:   80591
 k-point    20 :   0.2000 0.2857 0.2000  plane waves:   80563
 k-point    21 :   0.4000 0.2857 0.2000  plane waves:   80582
 k-point    22 :   0.0000 0.4286 0.2000  plane waves:   80592
 k-point    23 :   0.2000 0.4286 0.2000  plane waves:   80553
 k-point    24 :   0.4000 0.4286 0.2000  plane waves:   80594
 k-point    25 :   0.0000 0.0000 0.4000  plane waves:   80572
 k-point    26 :   0.2000 0.0000 0.4000  plane waves:   80631
 k-point    27 :   0.4000 0.0000 0.4000  plane waves:   80639
 k-point    28 :   0.0000 0.1429 0.4000  plane waves:   80604
 k-point    29 :   0.2000 0.1429 0.4000  plane waves:   80598
 k-point    30 :   0.4000 0.1429 0.4000  plane waves:   80617
 k-point    31 :   0.0000 0.2857 0.4000  plane waves:   80612
 k-point    32 :   0.2000 0.2857 0.4000  plane waves:   80586
 k-point    33 :   0.4000 0.2857 0.4000  plane waves:   80572
 k-point    34 :   0.0000 0.4286 0.4000  plane waves:   80620
 k-point    35 :   0.2000 0.4286 0.4000  plane waves:   80592
 k-point    36 :   0.4000 0.4286 0.4000  plane waves:   80571

 maximum and minimum number of plane-waves per node :     80639    80541

 maximum number of plane-waves:     80639
 maximum index in each direction: 
   IXMAX=   26   IYMAX=   22   IZMAX=   32
   IXMIN=  -27   IYMIN=  -22   IZMIN=  -32


 serial   3D FFT for wavefunctions
 parallel 3D FFT for charge:
    minimum data exchange during FFTs selected (reduces bandwidth)


 total amount of memory used by VASP MPI-rank0   360885. kBytes
=======================================================================

   base      :      30000. kBytes
   nonl-proj :     187084. kBytes
   fftplans  :      20866. kBytes
   grid      :      76470. kBytes
   one-center:          3. kBytes
   wavefun   :      46462. kBytes
 
     INWAV:  cpu time      0.0001: real time      0.0004
 Broyden mixing: mesh for mixing (old mesh)
   NGX = 53   NGY = 45   NGZ = 65
  (NGX  =216   NGY  =180   NGZ  =280)
  gives a total of 155025 points

 initial charge density was supplied:
 charge density of overlapping atoms calculated
 number of electron       3.0000000 magnetization 
 keeping initial charge density in first step


--------------------------------------------------------------------------------------------------------


 Maximum index for augmentation-charges          229 (set IRDMAX)


--------------------------------------------------------------------------------------------------------


 First call to EWALD:  gamma=   0.118
 Maximum number of real-space cells 3x 3x 2
 Maximum number of reciprocal cells 3x 2x 3

    FEWALD:  cpu time      0.0022: real time      0.0023


--------------------------------------- Ionic step        1  -------------------------------------------




--------------------------------------- Iteration      1(   1)  ---------------------------------------


    POTLOK:  cpu time      0.3751: real time      0.3840
    SETDIJ:  cpu time      0.0013: real time      0.0013
     EDDAV:  cpu time     10.3264: real time     10.5471
       DOS:  cpu time      0.0010: real time      0.0010
    --------------------------------------------
      LOOP:  cpu time     10.7039: real time     10.9335

 eigenvalue-minimisations  :  1728
 total energy-change (2. order) : 0.7692495E+01  (-0.3293492E+02)
 number of electron       3.0000000 magnetization 
 augmentation part        3.0000000 magnetization 

 Free energy of the ion-electron system (eV)
  ---------------------------------------------------
  alpha Z        PSCENC =         0.02038373
  Ewald energy   TEWEN  =       -11.82901664
  -Hartree energ DENC   =       -42.58396533
  -exchange      EXHF   =         0.00000000
  -V(xc)+E(xc)   XCENC  =         4.75549673
  PAW double counting   =        43.49986551      -42.64454556
  entropy T*S    EENTRO =        -0.01267218
  eigenvalues    EBANDS =       -14.68206087
  atomic energy  EATOM  =        71.16900941
  Solvation  Ediel_sol  =         0.00000000
  ---------------------------------------------------
  free energy    TOTEN  =         7.69249480 eV

  energy without entropy =        7.70516698  energy(sigma->0) =        7.69883089


--------------------------------------------------------------------------------------------------------




--------------------------------------- Iteration      1(   2)  ---------------------------------------


     EDDAV:  cpu time     16.9312: real time     17.2733
       DOS:  cpu time      0.0007: real time      0.0010
    --------------------------------------------
      LOOP:  cpu time     16.9320: real time     17.2743

 eigenvalue-minimisations  :  3456
 total energy-change (2. order) :-0.7628201E+01  (-0.7607422E+01)
 number of electron       3.0000000 magnetization 
 augmentation part        3.0000000 magnetization 

 Free energy of the ion-electron system (eV)
  ---------------------------------------------------
  alpha Z        PSCENC =         0.02038373
  Ewald energy   TEWEN  =       -11.82901664
  -Hartree energ DENC   =       -42.58396533
  -exchange      EXHF   =         0.00000000
  -V(xc)+E(xc)   XCENC  =         4.75549673
  PAW double counting   =        43.49986551      -42.64454556
  entropy T*S    EENTRO =        -0.03109632
  eigenvalues    EBANDS =       -22.29183724
  atomic energy  EATOM  =        71.16900941
  Solvation  Ediel_sol  =         0.00000000
  ---------------------------------------------------
  free energy    TOTEN  =         0.06429428 eV

  energy without entropy =        0.09539061  energy(sigma->0) =        0.07984244


--------------------------------------------------------------------------------------------------------




--------------------------------------- Iteration      1(   3)  ---------------------------------------


     EDDAV:  cpu time     10.2135: real time     10.5754
       DOS:  cpu time      0.0006: real time      0.0007
    --------------------------------------------
      LOOP:  cpu time     10.2141: real time     10.5761

 eigenvalue-minimisations  :  1728
 total energy-change (2. order) :-0.1201666E+00  (-0.9968175E-01)
 number of electron       3.0000000 magnetization 
 augmentation part        3.0000000 magnetization 

 Free energy of the ion-electron system (eV)
  ---------------------------------------------------
  alpha Z        PSCENC =         0.02038373
  Ewald energy   TEWEN  =       -11.82901664
  -Hartree energ DENC   =       -42.58396533
  -exchange      EXHF   =         0.00000000
  -V(xc)+E(xc)   XCENC  =         4.75549673
  PAW double counting   =        43.49986551      -42.64454556
  entropy T*S    EENTRO =        -0.05295534
  eigenvalues    EBANDS =       -22.39014478
  atomic energy  EATOM  =        71.16900941
  Solvation  Ediel_sol  =         0.00000000
  ---------------------------------------------------
  free energy    TOTEN  =        -0.05587228 eV

  energy without entropy =       -0.00291694  energy(sigma->0) =       -0.02939461


--------------------------------------------------------------------------------------------------------




--------------------------------------- Iteration      1(   4)  ---------------------------------------


     EDDAV:  cpu time     10.8257: real time     11.1347
       DOS:  cpu time      0.0006: real time      0.0006
    --------------------------------------------
      LOOP:  cpu time     10.8264: real time     11.1353

 eigenvalue-minimisations  :  1896
 total energy-change (2. order) :-0.2372306E-02  (-0.2328871E-02)
 number of electron       3.0000000 magnetization 
 augmentation part        3.0000000 magnetization 

 Free energy of the ion-electron system (eV)
  ---------------------------------------------------
  alpha Z        PSCENC =         0.02038373
  Ewald energy   TEWEN  =       -11.82901664
  -Hartree energ DENC   =       -42.58396533
  -exchange      EXHF   =         0.00000000
  -V(xc)+E(xc)   XCENC  =         4.75549673
  PAW double counting   =        43.49986551      -42.64454556
  entropy T*S    EENTRO =        -0.05300132
  eigenvalues    EBANDS =       -22.39247111
  atomic energy  EATOM  =        71.16900941
  Solvation  Ediel_sol  =         0.00000000
  ---------------------------------------------------
  free energy    TOTEN  =        -0.05824459 eV

  energy without entropy =       -0.00524327  energy(sigma->0) =       -0.03174393


--------------------------------------------------------------------------------------------------------




--------------------------------------- Iteration      1(   5)  ---------------------------------------


     EDDAV:  cpu time     14.5397: real time     14.7804
       DOS:  cpu time      0.0007: real time      0.0007
    CHARGE:  cpu time      0.7910: real time      0.8158
    MIXING:  cpu time      0.0223: real time      0.0244
    --------------------------------------------
      LOOP:  cpu time     15.3537: real time     15.6212

 eigenvalue-minimisations  :  2832
 total energy-change (2. order) :-0.2723298E-04  (-0.2722789E-04)
 number of electron       3.0000000 magnetization 
 augmentation part       -0.0945661 magnetization 

 Broyden mixing:
  rms(total) = 0.73851E-03    rms(broyden)= 0.68381E-03
  rms(prec ) = 0.68967E-03
  weight for this iteration     100.00

 Free energy of the ion-electron system (eV)
  ---------------------------------------------------
  alpha Z        PSCENC =         0.02038373
  Ewald energy   TEWEN  =       -11.82901664
  -Hartree energ DENC   =       -42.58396533
  -exchange      EXHF   =         0.00000000
  -V(xc)+E(xc)   XCENC  =         4.75549673
  PAW double counting   =        43.49986551      -42.64454556
  entropy T*S    EENTRO =        -0.05300134
  eigenvalues    EBANDS =       -22.39249832
  atomic energy  EATOM  =        71.16900941
  Solvation  Ediel_sol  =         0.00000000
  ---------------------------------------------------
  free energy    TOTEN  =        -0.05827182 eV

  energy without entropy =       -0.00527048  energy(sigma->0) =       -0.03177115


--------------------------------------------------------------------------------------------------------




--------------------------------------- Iteration      1(   6)  ---------------------------------------


    POTLOK:  cpu time      0.3516: real time      0.3586
    SETDIJ:  cpu time      0.0008: real time      0.0008
     EDDAV:  cpu time     12.1161: real time     12.2551
       DOS:  cpu time      0.0007: real time      0.0009
    --------------------------------------------
      LOOP:  cpu time     12.4692: real time     12.6154

 eigenvalue-minimisations  :  2208
 total energy-change (2. order) :-0.2310291E-06  (-0.1338173E-06)
 number of electron       3.0000000 magnetization 
 augmentation part       -0.0945661 magnetization 

 Free energy of the ion-electron system (eV)
  ---------------------------------------------------
  alpha Z        PSCENC =         0.02038373
  Ewald energy   TEWEN  =       -11.82901664
  -Hartree energ DENC   =       -42.58394684
  -exchange      EXHF   =         0.00000000
  -V(xc)+E(xc)   XCENC  =         4.75537666
  PAW double counting   =        43.51339165      -42.65817934
  entropy T*S    EENTRO =        -0.05300134
  eigenvalues    EBANDS =       -22.39228934
  atomic energy  EATOM  =        71.16900941
  Solvation  Ediel_sol  =         0.00000000
  ---------------------------------------------------
  free energy    TOTEN  =        -0.05827205 eV

  energy without entropy =       -0.00527071  energy(sigma->0) =       -0.03177138


--------------------------------------------------------------------------------------------------------




 average (electrostatic) potential at core
  the test charge radii are     0.7672
  (the norm of the test charge is              1.0000)
       1 -39.4298
 
 
 
 E-fermi :  -3.6067     XC(G=0):  -0.2675     alpha+bet : -0.0329

 val. band max:       -9.4098748229   @ k =   0.0000   0.4286   0.0000
 cond. band min:      -3.5726430535   @ k =   0.0000   0.4286   0.4000
 fundamental gap:      5.8372317695
 Fermi energy:        -3.6067416969

 k-point     1 :       0.0000    0.0000    0.0000
  band No.  band energies     occupation 
      1      -9.4099      2.00000
      2      -3.5725      0.33347
      3      -3.5725      0.33334
      4      -3.5724      0.33171
      5      -0.2643      0.00000
      6       0.2944      0.00000
      7       0.3071      0.00000
      8       0.4691      0.00000
      9       0.5355      0.00000
     10       0.7252      0.00000
     11       0.7851      0.00000
     12       0.9564      0.00000
     13       0.9861      0.00000
     14       0.9908      0.00000
     15       1.0261      0.00000
     16       1.2008      0.00000
     17       1.2546      0.00000
     18       1.3010      0.00000
     19       1.3040      0.00000
     20       1.3279      0.00000
     21       1.4740      0.00000
     22       1.4782      0.00000
     23       1.5098      0.00000
     24       1.6934      0.00000

 k-point     2 :       0.2000    0.0000    0.0000
  band No.  band energies     occupation 
      1      -9.4099      2.00000
      2      -3.5725      0.33345
      3      -3.5725      0.33340
      4      -3.5724      0.33171
      5      -0.2450      0.00000
      6       0.2353      0.00000
      7       0.3293      0.00000
      8       0.3672      0.00000
      9       0.7424      0.00000
     10       0.7438      0.00000
     11       0.7492      0.00000
     12       0.8002      0.00000
     13       0.8151      0.00000
     14       1.1636      0.00000
     15       1.2192      0.00000
     16       1.2226      0.00000
     17       1.2304      0.00000
     18       1.3129      0.00000
     19       1.3156      0.00000
     20       1.3414      0.00000
     21       1.3461      0.00000
     22       1.6363      0.00000
     23       1.6459      0.00000
     24       1.6984      0.00000

 k-point     3 :       0.4000    0.0000    0.0000
  band No.  band energies     occupation 
      1      -9.4099      2.00000
      2      -3.5726      0.33355
      3      -3.5725      0.33344
      4      -3.5724      0.33171
      5      -0.2028      0.00000
      6       0.1050      0.00000
      7       0.3853      0.00000
      8       0.4252      0.00000
      9       0.5885      0.00000
     10       0.5923      0.00000
     11       0.7861      0.00000
     12       0.8647      0.00000
     13       1.0360      0.00000
     14       1.0569      0.00000
     15       1.1409      0.00000
     16       1.2593      0.00000
     17       1.3587      0.00000
     18       1.3803      0.00000
     19       1.3934      0.00000
     20       1.5023      0.00000
     21       1.5211      0.00000
     22       1.5297      0.00000
     23       1.5585      0.00000
     24       1.5639      0.00000

 k-point     4 :       0.0000    0.1429    0.0000
  band No.  band energies     occupation 
      1      -9.4099      2.00000
      2      -3.5725      0.33342
      3      -3.5725      0.33328
      4      -3.5725      0.33233
      5      -0.2461      0.00000
      6       0.3099      0.00000
      7       0.3250      0.00000
      8       0.4863      0.00000
      9       0.5087      0.00000
     10       0.5608      0.00000
     11       0.9667      0.00000
     12       0.9740      0.00000
     13       0.9953      0.00000
     14       1.0050      0.00000
     15       1.0443      0.00000
     16       1.0459      0.00000
     17       1.0693      0.00000
     18       1.1612      0.00000
     19       1.2513      0.00000
     20       1.5176      0.00000
     21       1.5653      0.00000
     22       1.6382      0.00000
     23       1.6451      0.00000
     24       1.6817      0.00000

 k-point     5 :       0.2000    0.1429    0.0000
  band No.  band energies     occupation 
      1      -9.4099      2.00000
      2      -3.5725      0.33340
      3      -3.5725      0.33336
      4      -3.5725      0.33233
      5      -0.2268      0.00000
      6       0.2528      0.00000
      7       0.3472      0.00000
      8       0.3843      0.00000
      9       0.5332      0.00000
     10       0.7600      0.00000
     11       0.7671      0.00000
     12       0.8261      0.00000
     13       0.9537      0.00000
     14       1.0187      0.00000
     15       1.0455      0.00000
     16       1.0944      0.00000
     17       1.2670      0.00000
     18       1.3157      0.00000
     19       1.4108      0.00000
     20       1.4567      0.00000
     21       1.5065      0.00000
     22       1.5291      0.00000
     23       1.5563      0.00000
     24       1.6266      0.00000

 k-point     6 :       0.4000    0.1429    0.0000
  band No.  band energies     occupation 
      1      -9.4099      2.00000
      2      -3.5726      0.33351
      3      -3.5725      0.33340
      4      -3.5725      0.33232
      5      -0.1849      0.00000
      6       0.1237      0.00000
      7       0.4027      0.00000
      8       0.4413      0.00000
      9       0.5837      0.00000
     10       0.6064      0.00000
     11       0.6112      0.00000
     12       0.8118      0.00000
     13       1.0716      0.00000
     14       1.0873      0.00000
     15       1.1250      0.00000
     16       1.1665      0.00000
     17       1.2829      0.00000
     18       1.2930      0.00000
     19       1.3610      0.00000
     20       1.5113      0.00000
     21       1.5558      0.00000
     22       1.6286      0.00000
     23       1.6594      0.00000
     24       1.6969      0.00000

 k-point     7 :       0.0000    0.2857    0.0000
  band No.  band energies     occupation 
      1      -9.4099      2.00000
      2      -3.5726      0.33371
      3      -3.5725      0.33331
      4      -3.5725      0.33318
      5      -0.1946      0.00000
      6       0.2777      0.00000
      7       0.3776      0.00000
      8       0.4006      0.00000
      9       0.5361      0.00000
     10       0.6145      0.00000
     11       0.7925      0.00000
     12       0.8097      0.00000
     13       0.9476      0.00000
     14       1.0248      0.00000
     15       1.0368      0.00000
     16       1.0757      0.00000
     17       1.0825      0.00000
     18       1.1059      0.00000
     19       1.3474      0.00000
     20       1.4706      0.00000
     21       1.4739      0.00000
     22       1.4814      0.00000
     23       1.5375      0.00000
     24       1.7109      0.00000

 k-point     8 :       0.2000    0.2857    0.0000
  band No.  band energies     occupation 
      1      -9.4099      2.00000
      2      -3.5726      0.33370
      3      -3.5725      0.33330
      4      -3.5725      0.33326
      5      -0.1756      0.00000
      6       0.2793      0.00000
      7       0.3502      0.00000
      8       0.3995      0.00000
      9       0.4512      0.00000
     10       0.7322      0.00000
     11       0.7989      0.00000
     12       0.8312      0.00000
     13       0.8433      0.00000
     14       0.8663      0.00000
     15       0.8851      0.00000
     16       1.2292      0.00000
     17       1.2366      0.00000
     18       1.2888      0.00000
     19       1.3392      0.00000
     20       1.3686      0.00000
     21       1.4029      0.00000
     22       1.7149      0.00000
     23       1.7360      0.00000
     24       1.7803      0.00000

 k-point     9 :       0.4000    0.2857    0.0000
  band No.  band energies     occupation 
      1      -9.4099      2.00000
      2      -3.5726      0.33369
      3      -3.5725      0.33340
      4      -3.5725      0.33330
      5      -0.1347      0.00000
      6       0.1788      0.00000
      7       0.3701      0.00000
      8       0.4534      0.00000
      9       0.5138      0.00000
     10       0.5877      0.00000
     11       0.6671      0.00000
     12       0.6807      0.00000
     13       0.8766      0.00000
     14       0.9291      0.00000
     15       1.0761      0.00000
     16       1.0869      0.00000
     17       1.1903      0.00000
     18       1.4024      0.00000
     19       1.5391      0.00000
     20       1.6158      0.00000
     21       1.6347      0.00000
     22       1.6697      0.00000
     23       1.7483      0.00000
     24       1.8145      0.00000

 k-point    10 :       0.0000    0.4286    0.0000
  band No.  band energies     occupation 
      1      -9.4099      2.00000
      2      -3.5726      0.33481
      3      -3.5725      0.33322
      4      -3.5725      0.33309
      5      -0.1291      0.00000
      6       0.1487      0.00000
      7       0.4546      0.00000
      8       0.4820      0.00000
      9       0.6058      0.00000
     10       0.6387      0.00000
     11       0.6429      0.00000
     12       0.7027      0.00000
     13       0.8120      0.00000
     14       0.8735      0.00000
     15       1.0924      0.00000
     16       1.1617      0.00000
     17       1.1661      0.00000
     18       1.2036      0.00000
     19       1.3097      0.00000
     20       1.3109      0.00000
     21       1.3380      0.00000
     22       1.3438      0.00000
     23       1.6688      0.00000
     24       1.8069      0.00000

 k-point    11 :       0.2000    0.4286    0.0000
  band No.  band energies     occupation 
      1      -9.4099      2.00000
      2      -3.5726      0.33480
      3      -3.5725      0.33322
      4      -3.5725      0.33317
      5      -0.1111      0.00000
      6       0.1714      0.00000
      7       0.4041      0.00000
      8       0.4753      0.00000
      9       0.5366      0.00000
     10       0.5829      0.00000
     11       0.6665      0.00000
     12       0.6988      0.00000
     13       0.9023      0.00000
     14       0.9066      0.00000
     15       0.9780      0.00000
     16       1.0777      0.00000
     17       1.0883      0.00000
     18       1.1385      0.00000
     19       1.4049      0.00000
     20       1.4693      0.00000
     21       1.6003      0.00000
     22       1.6049      0.00000
     23       1.6934      0.00000
     24       1.8106      0.00000

 k-point    12 :       0.4000    0.4286    0.0000
  band No.  band energies     occupation 
      1      -9.4099      2.00000
      2      -3.5726      0.33480
      3      -3.5725      0.33331
      4      -3.5725      0.33322
      5      -0.0732      0.00000
      6       0.2287      0.00000
      7       0.2723      0.00000
      8       0.4337      0.00000
      9       0.5247      0.00000
     10       0.6038      0.00000
     11       0.7262      0.00000
     12       0.7591      0.00000
     13       0.7596      0.00000
     14       0.7650      0.00000
     15       0.9107      0.00000
     16       0.9237      0.00000
     17       1.2638      0.00000
     18       1.4501      0.00000
     19       1.6198      0.00000
     20       1.6852      0.00000
     21       1.7021      0.00000
     22       1.7947      0.00000
     23       1.8465      0.00000
     24       1.8877      0.00000

 k-point    13 :       0.0000    0.0000    0.2000
  band No.  band energies     occupation 
      1      -9.4099      2.00000
      2      -3.5725      0.33347
      3      -3.5725      0.33333
      4      -3.5724      0.33172
      5      -0.2549      0.00000
      6       0.1564      0.00000
      7       0.4652      0.00000
      8       0.4803      0.00000
      9       0.5729      0.00000
     10       0.7348      0.00000
     11       0.7982      0.00000
     12       0.8260      0.00000
     13       0.8463      0.00000
     14       1.0907      0.00000
     15       1.1270      0.00000
     16       1.1599      0.00000
     17       1.2256      0.00000
     18       1.3253      0.00000
     19       1.3348      0.00000
     20       1.3846      0.00000
     21       1.4930      0.00000
     22       1.4958      0.00000
     23       1.5403      0.00000
     24       1.5456      0.00000

 k-point    14 :       0.2000    0.0000    0.2000
  band No.  band energies     occupation 
      1      -9.4099      2.00000
      2      -3.5725      0.33346
      3      -3.5725      0.33341
      4      -3.5724      0.33172
      5      -0.2359      0.00000
      6       0.1748      0.00000
      7       0.2809      0.00000
      8       0.5274      0.00000
      9       0.6085      0.00000
     10       0.7530      0.00000
     11       0.7863      0.00000
     12       0.8251      0.00000
     13       0.9574      0.00000
     14       1.1031      0.00000
     15       1.1091      0.00000
     16       1.1728      0.00000
     17       1.1902      0.00000
     18       1.2659      0.00000
     19       1.3707      0.00000
     20       1.4290      0.00000
     21       1.4719      0.00000
     22       1.5227      0.00000
     23       1.5690      0.00000
     24       1.5795      0.00000

 k-point    15 :       0.4000    0.0000    0.2000
  band No.  band energies     occupation 
      1      -9.4099      2.00000
      2      -3.5726      0.33355
      3      -3.5725      0.33345
      4      -3.5724      0.33171
      5      -0.1948      0.00000
      6       0.1196      0.00000
      7       0.2586      0.00000
      8       0.4311      0.00000
      9       0.6000      0.00000
     10       0.7841      0.00000
     11       0.7941      0.00000
     12       0.8769      0.00000
     13       1.0489      0.00000
     14       1.0709      0.00000
     15       1.1542      0.00000
     16       1.1737      0.00000
     17       1.2273      0.00000
     18       1.3754      0.00000
     19       1.3757      0.00000
     20       1.4114      0.00000
     21       1.4659      0.00000
     22       1.5228      0.00000
     23       1.5249      0.00000
     24       1.6171      0.00000

 k-point    16 :       0.0000    0.1429    0.2000
  band No.  band energies     occupation 
      1      -9.4099      2.00000
      2      -3.5725      0.33342
      3      -3.5725      0.33328
      4      -3.5725      0.33233
      5      -0.2368      0.00000
      6       0.1748      0.00000
      7       0.4676      0.00000
      8       0.4973      0.00000
      9       0.5385      0.00000
     10       0.5923      0.00000
     11       0.8421      0.00000
     12       0.8442      0.00000
     13       0.8905      0.00000
     14       1.0399      0.00000
     15       1.1432      0.00000
     16       1.1846      0.00000
     17       1.2017      0.00000
     18       1.2328      0.00000
     19       1.2697      0.00000
     20       1.3659      0.00000
     21       1.4151      0.00000
     22       1.5342      0.00000
     23       1.5635      0.00000
     24       1.6960      0.00000

 k-point    17 :       0.2000    0.1429    0.2000
  band No.  band energies     occupation 
      1      -9.4099      2.00000
      2      -3.5725      0.33342
      3      -3.5725      0.33336
      4      -3.5725      0.33233
      5      -0.2178      0.00000
      6       0.1931      0.00000
      7       0.2988      0.00000
      8       0.5237      0.00000
      9       0.5630      0.00000
     10       0.6282      0.00000
     11       0.8084      0.00000
     12       0.8850      0.00000
     13       0.9602      0.00000
     14       0.9995      0.00000
     15       1.0677      0.00000
     16       1.1387      0.00000
     17       1.2263      0.00000
     18       1.3192      0.00000
     19       1.3535      0.00000
     20       1.4321      0.00000
     21       1.4879      0.00000
     22       1.4965      0.00000
     23       1.5516      0.00000
     24       1.6728      0.00000

 k-point    18 :       0.4000    0.1429    0.2000
  band No.  band energies     occupation 
      1      -9.4099      2.00000
      2      -3.5726      0.33350
      3      -3.5725      0.33340
      4      -3.5725      0.33232
      5      -0.1770      0.00000
      6       0.1382      0.00000
      7       0.2768      0.00000
      8       0.4498      0.00000
      9       0.5808      0.00000
     10       0.6287      0.00000
     11       0.7891      0.00000
     12       0.8390      0.00000
     13       0.9589      0.00000
     14       1.1105      0.00000
     15       1.1239      0.00000
     16       1.1505      0.00000
     17       1.3060      0.00000
     18       1.3487      0.00000
     19       1.4067      0.00000
     20       1.4668      0.00000
     21       1.5012      0.00000
     22       1.5239      0.00000
     23       1.5516      0.00000
     24       1.6301      0.00000

 k-point    19 :       0.0000    0.2857    0.2000
  band No.  band energies     occupation 
      1      -9.4099      2.00000
      2      -3.5726      0.33371
      3      -3.5725      0.33331
      4      -3.5725      0.33318
      5      -0.1856      0.00000
      6       0.2246      0.00000
      7       0.3152      0.00000
      8       0.5467      0.00000
      9       0.5505      0.00000
     10       0.6409      0.00000
     11       0.6631      0.00000
     12       0.8949      0.00000
     13       0.9268      0.00000
     14       0.9716      0.00000
     15       0.9724      0.00000
     16       1.0732      0.00000
     17       1.2299      0.00000
     18       1.2837      0.00000
     19       1.3199      0.00000
     20       1.3395      0.00000
     21       1.3726      0.00000
     22       1.4298      0.00000
     23       1.6651      0.00000
     24       1.6863      0.00000

 k-point    20 :       0.2000    0.2857    0.2000
  band No.  band energies     occupation 
      1      -9.4099      2.00000
      2      -3.5726      0.33370
      3      -3.5725      0.33331
      4      -3.5725      0.33325
      5      -0.1669      0.00000
      6       0.2421      0.00000
      7       0.3307      0.00000
      8       0.3651      0.00000
      9       0.5973      0.00000
     10       0.6726      0.00000
     11       0.6957      0.00000
     12       0.7724      0.00000
     13       0.8701      0.00000
     14       1.0135      0.00000
     15       1.0408      0.00000
     16       1.1048      0.00000
     17       1.1988      0.00000
     18       1.2783      0.00000
     19       1.3723      0.00000
     20       1.4390      0.00000
     21       1.4616      0.00000
     22       1.5441      0.00000
     23       1.6247      0.00000
     24       1.7492      0.00000

 k-point    21 :       0.4000    0.2857    0.2000
  band No.  band energies     occupation 
      1      -9.4099      2.00000
      2      -3.5726      0.33369
      3      -3.5725      0.33340
      4      -3.5725      0.33330
      5      -0.1270      0.00000
      6       0.1931      0.00000
      7       0.3275      0.00000
      8       0.3924      0.00000
      9       0.5036      0.00000
     10       0.6158      0.00000
     11       0.6733      0.00000
     12       0.7585      0.00000
     13       0.8636      0.00000
     14       0.9245      0.00000
     15       1.0951      0.00000
     16       1.1975      0.00000
     17       1.2778      0.00000
     18       1.4003      0.00000
     19       1.4538      0.00000
     20       1.5334      0.00000
     21       1.6063      0.00000
     22       1.6342      0.00000
     23       1.6911      0.00000
     24       1.7079      0.00000

 k-point    22 :       0.0000    0.4286    0.2000
  band No.  band energies     occupation 
      1      -9.4099      2.00000
      2      -3.5726      0.33481
      3      -3.5725      0.33323
      4      -3.5725      0.33310
      5      -0.1211      0.00000
      6       0.1622      0.00000
      7       0.3253      0.00000
      8       0.4885      0.00000
      9       0.6152      0.00000
     10       0.6410      0.00000
     11       0.7333      0.00000
     12       0.8083      0.00000
     13       0.8248      0.00000
     14       0.9103      0.00000
     15       0.9841      0.00000
     16       1.0246      0.00000
     17       1.1605      0.00000
     18       1.1682      0.00000
     19       1.3264      0.00000
     20       1.3796      0.00000
     21       1.4810      0.00000
     22       1.5179      0.00000
     23       1.5183      0.00000
     24       1.6608      0.00000

 k-point    23 :       0.2000    0.4286    0.2000
  band No.  band energies     occupation 
      1      -9.4099      2.00000
      2      -3.5726      0.33481
      3      -3.5725      0.33322
      4      -3.5725      0.33317
      5      -0.1033      0.00000
      6       0.1847      0.00000
      7       0.3448      0.00000
      8       0.4351      0.00000
      9       0.5088      0.00000
     10       0.6188      0.00000
     11       0.6901      0.00000
     12       0.7787      0.00000
     13       0.8653      0.00000
     14       0.9305      0.00000
     15       0.9477      0.00000
     16       1.1236      0.00000
     17       1.1404      0.00000
     18       1.2726      0.00000
     19       1.2996      0.00000
     20       1.4459      0.00000
     21       1.5030      0.00000
     22       1.6209      0.00000
     23       1.6872      0.00000
     24       1.7330      0.00000

 k-point    24 :       0.4000    0.4286    0.2000
  band No.  band energies     occupation 
      1      -9.4099      2.00000
      2      -3.5726      0.33480
      3      -3.5725      0.33332
      4      -3.5725      0.33321
      5      -0.0663      0.00000
      6       0.2412      0.00000
      7       0.2858      0.00000
      8       0.4170      0.00000
      9       0.4485      0.00000
     10       0.5853      0.00000
     11       0.6076      0.00000
     12       0.7507      0.00000
     13       0.7701      0.00000
     14       0.9370      0.00000
     15       0.9549      0.00000
     16       1.1135      0.00000
     17       1.2741      0.00000
     18       1.4598      0.00000
     19       1.5221      0.00000
     20       1.6160      0.00000
     21       1.6373      0.00000
     22       1.7026      0.00000
     23       1.7555      0.00000
     24       1.8065      0.00000

 k-point    25 :       0.0000    0.0000    0.4000
  band No.  band energies     occupation 
      1      -9.4099      2.00000
      2      -3.5725      0.33348
      3      -3.5725      0.33332
      4      -3.5724      0.33172
      5      -0.2368      0.00000
      6       0.0688      0.00000
      7       0.5035      0.00000
      8       0.5529      0.00000
      9       0.6951      0.00000
     10       0.7345      0.00000
     11       0.7539      0.00000
     12       0.7881      0.00000
     13       0.8273      0.00000
     14       1.0029      0.00000
     15       1.0079      0.00000
     16       1.0740      0.00000
     17       1.3473      0.00000
     18       1.3689      0.00000
     19       1.4474      0.00000
     20       1.4980      0.00000
     21       1.5167      0.00000
     22       1.5667      0.00000
     23       1.5908      0.00000
     24       1.6370      0.00000

 k-point    26 :       0.2000    0.0000    0.4000
  band No.  band energies     occupation 
      1      -9.4099      2.00000
      2      -3.5725      0.33347
      3      -3.5725      0.33341
      4      -3.5724      0.33172
      5      -0.2186      0.00000
      6       0.0937      0.00000
      7       0.3062      0.00000
      8       0.4976      0.00000
      9       0.7546      0.00000
     10       0.7712      0.00000
     11       0.8212      0.00000
     12       0.8512      0.00000
     13       0.9812      0.00000
     14       1.0315      0.00000
     15       1.0656      0.00000
     16       1.0992      0.00000
     17       1.1873      0.00000
     18       1.2097      0.00000
     19       1.3159      0.00000
     20       1.4277      0.00000
     21       1.4371      0.00000
     22       1.5135      0.00000
     23       1.6604      0.00000
     24       1.6842      0.00000

 k-point    27 :       0.4000    0.0000    0.4000
  band No.  band energies     occupation 
      1      -9.4099      2.00000
      2      -3.5726      0.33355
      3      -3.5725      0.33346
      4      -3.5724      0.33171
      5      -0.1800      0.00000
      6       0.1515      0.00000
      7       0.1770      0.00000
      8       0.3250      0.00000
      9       0.8092      0.00000
     10       0.8248      0.00000
     11       0.9010      0.00000
     12       1.0023      0.00000
     13       1.0723      0.00000
     14       1.0773      0.00000
     15       1.0982      0.00000
     16       1.1059      0.00000
     17       1.1685      0.00000
     18       1.2065      0.00000
     19       1.2593      0.00000
     20       1.2814      0.00000
     21       1.3362      0.00000
     22       1.3944      0.00000
     23       1.5422      0.00000
     24       1.7156      0.00000

 k-point    28 :       0.0000    0.1429    0.4000
  band No.  band energies     occupation 
      1      -9.4099      2.00000
      2      -3.5725      0.33343
      3      -3.5725      0.33328
      4      -3.5725      0.33233
      5      -0.2189      0.00000
      6       0.0878      0.00000
      7       0.5202      0.00000
      8       0.5261      0.00000
      9       0.5911      0.00000
     10       0.7005      0.00000
     11       0.7534      0.00000
     12       0.7898      0.00000
     13       0.8095      0.00000
     14       1.0454      0.00000
     15       1.0638      0.00000
     16       1.1799      0.00000
     17       1.2931      0.00000
     18       1.3090      0.00000
     19       1.3729      0.00000
     20       1.3894      0.00000
     21       1.4776      0.00000
     22       1.4882      0.00000
     23       1.5039      0.00000
     24       1.6680      0.00000

 k-point    29 :       0.2000    0.1429    0.4000
  band No.  band energies     occupation 
      1      -9.4099      2.00000
      2      -3.5725      0.33342
      3      -3.5725      0.33337
      4      -3.5725      0.33232
      5      -0.2007      0.00000
      6       0.1126      0.00000
      7       0.3238      0.00000
      8       0.5161      0.00000
      9       0.5621      0.00000
     10       0.7616      0.00000
     11       0.8121      0.00000
     12       0.8430      0.00000
     13       1.0003      0.00000
     14       1.0257      0.00000
     15       1.0870      0.00000
     16       1.1000      0.00000
     17       1.1798      0.00000
     18       1.2305      0.00000
     19       1.3446      0.00000
     20       1.4637      0.00000
     21       1.4808      0.00000
     22       1.5055      0.00000
     23       1.5775      0.00000
     24       1.6789      0.00000

 k-point    30 :       0.4000    0.1429    0.4000
  band No.  band energies     occupation 
      1      -9.4099      2.00000
      2      -3.5726      0.33350
      3      -3.5725      0.33341
      4      -3.5725      0.33232
      5      -0.1623      0.00000
      6       0.1702      0.00000
      7       0.1955      0.00000
      8       0.3442      0.00000
      9       0.6095      0.00000
     10       0.8221      0.00000
     11       0.8583      0.00000
     12       0.8894      0.00000
     13       1.0127      0.00000
     14       1.0506      0.00000
     15       1.1079      0.00000
     16       1.1378      0.00000
     17       1.1767      0.00000
     18       1.3136      0.00000
     19       1.3948      0.00000
     20       1.4025      0.00000
     21       1.4188      0.00000
     22       1.5262      0.00000
     23       1.5653      0.00000
     24       1.5980      0.00000

 k-point    31 :       0.0000    0.2857    0.4000
  band No.  band energies     occupation 
      1      -9.4099      2.00000
      2      -3.5726      0.33371
      3      -3.5725      0.33332
      4      -3.5725      0.33318
      5      -0.1684      0.00000
      6       0.1442      0.00000
      7       0.3361      0.00000
      8       0.5539      0.00000
      9       0.5684      0.00000
     10       0.6399      0.00000
     11       0.7796      0.00000
     12       0.8095      0.00000
     13       0.8673      0.00000
     14       0.9928      0.00000
     15       1.0532      0.00000
     16       1.1149      0.00000
     17       1.1846      0.00000
     18       1.2239      0.00000
     19       1.2844      0.00000
     20       1.3875      0.00000
     21       1.4705      0.00000
     22       1.5236      0.00000
     23       1.5315      0.00000
     24       1.6623      0.00000

 k-point    32 :       0.2000    0.2857    0.4000
  band No.  band energies     occupation 
      1      -9.4099      2.00000
      2      -3.5726      0.33370
      3      -3.5725      0.33332
      4      -3.5725      0.33326
      5      -0.1505      0.00000
      6       0.1689      0.00000
      7       0.3463      0.00000
      8       0.3928      0.00000
      9       0.5575      0.00000
     10       0.5990      0.00000
     11       0.7975      0.00000
     12       0.8434      0.00000
     13       0.9016      0.00000
     14       0.9855      0.00000
     15       1.0748      0.00000
     16       1.1529      0.00000
     17       1.2456      0.00000
     18       1.2656      0.00000
     19       1.3179      0.00000
     20       1.4146      0.00000
     21       1.4917      0.00000
     22       1.5403      0.00000
     23       1.5818      0.00000
     24       1.6651      0.00000

 k-point    33 :       0.4000    0.2857    0.4000
  band No.  band energies     occupation 
      1      -9.4099      2.00000
      2      -3.5726      0.33369
      3      -3.5725      0.33340
      4      -3.5725      0.33331
      5      -0.1130      0.00000
      6       0.2250      0.00000
      7       0.2504      0.00000
      8       0.4008      0.00000
      9       0.4117      0.00000
     10       0.6442      0.00000
     11       0.6640      0.00000
     12       0.8134      0.00000
     13       0.9101      0.00000
     14       1.0918      0.00000
     15       1.1675      0.00000
     16       1.2215      0.00000
     17       1.3132      0.00000
     18       1.3612      0.00000
     19       1.4306      0.00000
     20       1.4741      0.00000
     21       1.5053      0.00000
     22       1.5611      0.00000
     23       1.6469      0.00000
     24       1.6673      0.00000

 k-point    34 :       0.0000    0.4286    0.4000
  band No.  band energies     occupation 
      1      -9.4099      2.00000
      2      -3.5726      0.33482
      3      -3.5725      0.33324
      4      -3.5725      0.33310
      5      -0.1062      0.00000
      6       0.1941      0.00000
      7       0.2385      0.00000
      8       0.3901      0.00000
      9       0.6336      0.00000
     10       0.7296      0.00000
     11       0.8539      0.00000
     12       0.8566      0.00000
     13       0.8980      0.00000
     14       0.8986      0.00000
     15       0.9599      0.00000
     16       1.0326      0.00000
     17       1.0643      0.00000
     18       1.1153      0.00000
     19       1.1927      0.00000
     20       1.3648      0.00000
     21       1.5362      0.00000
     22       1.6024      0.00000
     23       1.7028      0.00000
     24       1.7430      0.00000

 k-point    35 :       0.2000    0.4286    0.4000
  band No.  band energies     occupation 
      1      -9.4099      2.00000
      2      -3.5726      0.33481
      3      -3.5725      0.33323
      4      -3.5725      0.33318
      5      -0.0890      0.00000
      6       0.2160      0.00000
      7       0.2627      0.00000
      8       0.4151      0.00000
      9       0.4586      0.00000
     10       0.6487      0.00000
     11       0.6701      0.00000
     12       0.8191      0.00000
     13       0.9269      0.00000
     14       0.9709      0.00000
     15       1.0917      0.00000
     16       1.1570      0.00000
     17       1.1741      0.00000
     18       1.2445      0.00000
     19       1.3222      0.00000
     20       1.3648      0.00000
     21       1.4101      0.00000
     22       1.5219      0.00000
     23       1.6159      0.00000
     24       1.7370      0.00000

 k-point    36 :       0.4000    0.4286    0.4000
  band No.  band energies     occupation 
      1      -9.4099      2.00000
      2      -3.5726      0.33479
      3      -3.5725      0.33331
      4      -3.5725      0.33322
      5      -0.0539      0.00000
      6       0.2700      0.00000
      7       0.3157      0.00000
      8       0.3348      0.00000
      9       0.4702      0.00000
     10       0.5063      0.00000
     11       0.5075      0.00000
     12       0.6447      0.00000
     13       0.9885      0.00000
     14       1.1604      0.00000
     15       1.1772      0.00000
     16       1.2402      0.00000
     17       1.3043      0.00000
     18       1.3410      0.00000
     19       1.4351      0.00000
     20       1.4563      0.00000
     21       1.4958      0.00000
     22       1.5668      0.00000
     23       1.6256      0.00000
     24       1.6586      0.00000


--------------------------------------------------------------------------------------------------------


 soft charge-density along one line, spin component           1
         0         1         2         3         4         5         6         7         8         9
 total charge-density along one line
 
 pseudopotential strength for first ion, spin component:           1
  6.996  10.697   0.000  -0.000  -0.000   0.000  -0.000  -0.000
 10.697  16.353   0.000  -0.000  -0.000   0.000  -0.000  -0.000
  0.000   0.000  -2.483  -0.000   0.000  -4.297  -0.000   0.000
 -0.000  -0.000  -0.000  -2.483   0.000  -0.000  -4.297   0.000
 -0.000  -0.000   0.000   0.000  -2.483   0.000   0.000  -4.297
  0.000   0.000  -4.297  -0.000   0.000  -7.240  -0.000   0.000
 -0.000  -0.000  -0.000  -4.297   0.000  -0.000  -7.240   0.000
 -0.000  -0.000   0.000   0.000  -4.297   0.000   0.000  -7.240
 total augmentation occupancy for first ion, spin component:           1
  2.011  -0.003   0.000   0.000   0.000   0.000   0.000   0.000
 -0.003   0.000   0.000   0.000   0.000   0.000   0.000   0.000
  0.000   0.000   0.330   0.000   0.000   0.001   0.000   0.000
  0.000   0.000   0.000   0.330   0.000   0.000   0.001   0.000
  0.000   0.000   0.000   0.000   0.330   0.000   0.000   0.001
  0.000   0.000   0.001   0.000   0.000   0.000   0.000  -0.000
  0.000   0.000   0.000   0.001   0.000   0.000   0.000   0.000
  0.000   0.000   0.000   0.000   0.001  -0.000   0.000   0.000


------------------------ aborting loop because EDIFF is reached ----------------------------------------


    CHARGE:  cpu time      0.7727: real time      0.7788
    FORLOC:  cpu time      0.0148: real time      0.0149
    FORNL :  cpu time      0.2108: real time      0.2122
    STRESS:  cpu time      8.0467: real time      8.0970
    FORCOR:  cpu time      0.2970: real time      0.2990
    FORHAR:  cpu time      0.0802: real time      0.0807
    MIXING:  cpu time      0.0109: real time      0.0110
    OFIELD:  cpu time      0.0000: real time      0.0000

  FORCE on cell =-STRESS in cart. coord.  units (eV):
  Direction    XX          YY          ZZ          XY          YZ          ZX
  --------------------------------------------------------------------------------------
  Alpha Z     0.02038     0.02038     0.02038
  Ewald      -3.85600    -1.56275    -6.41027     0.00000    -0.00000    -0.00000
  Hartree    14.28933    16.49873    11.79585     0.00000    -0.00000     0.00000
  E(xc)      -7.33234    -7.33234    -7.33235    -0.00000    -0.00000    -0.00000
  Local     -32.28574   -36.78849   -27.23808    -0.00000     0.00000    -0.00000
  n-local     6.85108     6.85105     6.85105    -0.00000    -0.00001     0.00000
  augment     0.68455     0.68468     0.68457    -0.00000     0.00000     0.00000
  Kinetic    21.62737    21.62750    21.62750     0.00001     0.00004    -0.00000
  Fock        0.00000     0.00000     0.00000     0.00000     0.00000     0.00000
  -------------------------------------------------------------------------------------
  Total      -0.00136    -0.00124    -0.00135     0.00000     0.00000     0.00000
  in kB      -0.00065    -0.00059    -0.00064     0.00000     0.00000     0.00000
  external pressure =       -0.00 kB  Pullay stress =        0.00 kB


 VOLUME and BASIS-vectors are now :
 -----------------------------------------------------------------------------
  energy-cutoff  :      480.00
  volume of cell :     3375.00
      direct lattice vectors                 reciprocal lattice vectors
    15.000000000  0.000000000  0.000000000     0.066666667  0.000000000  0.000000000
     0.000000000 12.500000000  0.000000000     0.000000000  0.080000000  0.000000000
     0.000000000  0.000000000 18.000000000     0.000000000  0.000000000  0.055555556

  length of vectors
    15.000000000 12.500000000 18.000000000     0.066666667  0.080000000  0.055555556


 FORCES acting on ions
    electron-ion (+dipol)            ewald-force                    non-local-force                 convergence-correction
 -----------------------------------------------------------------------------------------------
   0.407E-05 -.479E-05 0.365E-05   0.332E-17 -.449E-17 -.121E-17   0.529E-22 -.172E-21 0.265E-22   -.188E-06 0.275E-06 -.197E-06
 -----------------------------------------------------------------------------------------------
   0.407E-05 -.479E-05 0.365E-05   0.332E-17 -.449E-17 -.121E-17   0.529E-22 -.172E-21 0.265E-22   -.188E-06 0.275E-06 -.197E-06
 
 
 POSITION                                       TOTAL-FORCE (eV/Angst)
 -----------------------------------------------------------------------------------
      7.81845      6.81250     11.48328        -0.000000      0.000000      0.000000
 -----------------------------------------------------------------------------------
    total drift:                                0.000004     -0.000005      0.000003


--------------------------------------------------------------------------------------------------------



  FREE ENERGIE OF THE ION-ELECTRON SYSTEM (eV)
  ---------------------------------------------------
  free  energy   TOTEN  =        -0.05827205 eV

  energy  without entropy=       -0.00527071  energy(sigma->0) =       -0.03177138
 


--------------------------------------------------------------------------------------------------------


    POTLOK:  cpu time      0.3464: real time      0.3498


--------------------------------------------------------------------------------------------------------


     LOOP+:  cpu time     86.2855: real time     88.0095
    4ORBIT:  cpu time      0.0000: real time      0.0000

 total amount of memory used by VASP MPI-rank0   360885. kBytes
=======================================================================

   base      :      30000. kBytes
   nonl-proj :     187084. kBytes
   fftplans  :      20866. kBytes
   grid      :      76470. kBytes
   one-center:          3. kBytes
   wavefun   :      46462. kBytes
 
  
  
 General timing and accounting informations for this job:
 ========================================================
  
                  Total CPU time used (sec):       92.279
                            User time (sec):       89.041
                          System time (sec):        3.237
                         Elapsed time (sec):       96.718
  
                   Maximum memory used (kb):      849328.
                   Average memory used (kb):          N/A
  
                          Minor page faults:      1455694
                          Major page faults:           15
                 Voluntary context switches:         5825
