  14  14   0   0
  0.1021960E+02  0.5697000E-09  0.4047900E-09  0.6204200E-09  0.5000000E-15
  1.000000000000000E-004
  CAR 
 Kpoints                                 
     18.08484003    -14.21426481  301      1.94296050      1.00000000
    -14.214  0.0000E+00  0.0000E+00
    -14.107  0.0000E+00  0.0000E+00
    -13.999  0.0000E+00  0.0000E+00
    -13.891  0.0000E+00  0.0000E+00
    -13.784  0.0000E+00  0.0000E+00
    -13.676  0.0000E+00  0.0000E+00
    -13.568  0.0000E+00  0.0000E+00
    -13.461  0.0000E+00  0.0000E+00
    -13.353  0.0000E+00  0.0000E+00
    -13.245  0.0000E+00  0.0000E+00
    -13.138  0.0000E+00  0.0000E+00
    -13.030  0.3601E-16  0.3877E-17
    -12.922  0.2600E-07  0.2800E-08
    -12.815  0.3656E-02  0.3936E-03
    -12.707  0.4976E+00  0.5397E-01
    -12.599  0.2349E+01  0.3069E+00
    -12.492  0.3522E+01  0.6862E+00
    -12.384  0.4338E+01  0.1153E+01
    -12.276  0.3507E+01  0.1531E+01
    -12.169  0.2716E+01  0.1823E+01
    -12.061  0.2737E+01  0.2118E+01
    -11.953  0.2450E+01  0.2382E+01
    -11.846  0.2757E+01  0.2678E+01
    -11.738  0.3332E+01  0.3037E+01
    -11.630  0.3495E+01  0.3413E+01
    -11.523  0.3167E+01  0.3754E+01
    -11.415  0.1764E+01  0.3944E+01
    -11.307  0.5043E+00  0.3999E+01
    -11.200  0.1330E-01  0.4000E+01
    -11.092  0.6479E-06  0.4000E+01
    -10.984  0.7110E-14  0.4000E+01
    -10.877  0.0000E+00  0.4000E+01
    -10.769  0.0000E+00  0.4000E+01
    -10.661  0.0000E+00  0.4000E+01
    -10.554  0.0000E+00  0.4000E+01
    -10.446  0.0000E+00  0.4000E+01
    -10.338  0.0000E+00  0.4000E+01
    -10.231  0.0000E+00  0.4000E+01
    -10.123  0.0000E+00  0.4000E+01
    -10.015  0.0000E+00  0.4000E+01
     -9.908  0.0000E+00  0.4000E+01
     -9.800  0.0000E+00  0.4000E+01
     -9.692  0.0000E+00  0.4000E+01
     -9.585  0.0000E+00  0.4000E+01
     -9.477  0.0000E+00  0.4000E+01
     -9.369  0.0000E+00  0.4000E+01
     -9.262  0.0000E+00  0.4000E+01
     -9.154  0.0000E+00  0.4000E+01
     -9.046  0.1545E-08  0.4000E+01
     -8.939  0.8318E-03  0.4000E+01
     -8.831  0.3103E+00  0.4034E+01
     -8.723  0.2156E+01  0.4266E+01
     -8.616  0.5376E+01  0.4845E+01
     -8.508  0.6925E+01  0.5590E+01
     -8.400  0.6276E+01  0.6266E+01
     -8.293  0.5342E+01  0.6841E+01
     -8.185  0.4796E+01  0.7357E+01
     -8.077  0.3753E+01  0.7761E+01
     -7.970  0.1609E+01  0.7935E+01
     -7.862  0.5558E+00  0.7994E+01
     -7.754  0.5193E-01  0.8000E+01
     -7.647  0.2455E-04  0.8000E+01
     -7.539  0.2617E-11  0.8000E+01
     -7.431  0.0000E+00  0.8000E+01
     -7.324  0.0000E+00  0.8000E+01
     -7.216  0.0000E+00  0.8000E+01
     -7.108  0.6542E-09  0.8000E+01
     -7.001  0.4829E-03  0.8000E+01
     -6.893  0.1206E+00  0.8013E+01
     -6.785  0.2580E+00  0.8041E+01
     -6.678  0.4351E+00  0.8088E+01
     -6.570  0.7683E+00  0.8170E+01
     -6.462  0.8605E+00  0.8263E+01
     -6.355  0.1454E+01  0.8420E+01
     -6.247  0.1995E+01  0.8634E+01
     -6.139  0.3102E+01  0.8968E+01
     -6.032  0.3777E+01  0.9375E+01
     -5.924  0.4139E+01  0.9821E+01
     -5.816  0.4099E+01  0.1026E+02
     -5.709  0.3806E+01  0.1067E+02
     -5.601  0.4076E+01  0.1111E+02
     -5.494  0.4280E+01  0.1157E+02
     -5.386  0.4525E+01  0.1206E+02
     -5.278  0.4546E+01  0.1255E+02
     -5.171  0.4472E+01  0.1303E+02
     -5.063  0.3767E+01  0.1344E+02
     -4.955  0.3204E+01  0.1378E+02
     -4.848  0.2869E+01  0.1409E+02
     -4.740  0.2317E+01  0.1434E+02
     -4.632  0.2853E+01  0.1465E+02
     -4.525  0.3342E+01  0.1501E+02
     -4.417  0.3465E+01  0.1538E+02
     -4.309  0.3300E+01  0.1573E+02
     -4.202  0.2956E+01  0.1605E+02
     -4.094  0.2857E+01  0.1636E+02
     -3.986  0.2890E+01  0.1667E+02
     -3.879  0.2793E+01  0.1697E+02
     -3.771  0.3114E+01  0.1731E+02
     -3.663  0.2921E+01  0.1762E+02
     -3.556  0.2691E+01  0.1791E+02
     -3.448  0.3050E+01  0.1824E+02
     -3.340  0.2637E+01  0.1852E+02
     -3.233  0.2809E+01  0.1883E+02
     -3.125  0.2798E+01  0.1913E+02
     -3.017  0.2722E+01  0.1942E+02
     -2.910  0.3067E+01  0.1975E+02
     -2.802  0.2979E+01  0.2007E+02
     -2.694  0.2413E+01  0.2033E+02
     -2.587  0.2595E+01  0.2061E+02
     -2.479  0.3000E+01  0.2093E+02
     -2.371  0.2975E+01  0.2125E+02
     -2.264  0.3299E+01  0.2161E+02
     -2.156  0.3914E+01  0.2203E+02
     -2.048  0.3582E+01  0.2242E+02
     -1.941  0.3139E+01  0.2275E+02
     -1.833  0.4890E+01  0.2328E+02
     -1.725  0.5514E+01  0.2387E+02
     -1.618  0.5555E+01  0.2447E+02
     -1.510  0.6011E+01  0.2512E+02
     -1.402  0.6044E+01  0.2577E+02
     -1.295  0.5640E+01  0.2638E+02
     -1.187  0.4687E+01  0.2688E+02
     -1.079  0.6412E+01  0.2757E+02
     -0.972  0.4223E+01  0.2803E+02
     -0.864  0.2325E+01  0.2828E+02
     -0.756  0.2689E+01  0.2857E+02
     -0.649  0.2941E+01  0.2888E+02
     -0.541  0.4489E+01  0.2937E+02
     -0.433  0.6715E+01  0.3009E+02
     -0.326  0.5590E+01  0.3069E+02
     -0.218  0.6470E+01  0.3139E+02
     -0.110  0.6418E+01  0.3208E+02
     -0.003  0.6667E+01  0.3280E+02
      0.105  0.6819E+01  0.3353E+02
      0.213  0.6180E+01  0.3420E+02
      0.320  0.8908E+01  0.3516E+02
      0.428  0.8065E+01  0.3602E+02
      0.536  0.8537E+01  0.3694E+02
      0.643  0.5252E+01  0.3751E+02
      0.751  0.3030E+01  0.3783E+02
      0.859  0.3147E+01  0.3817E+02
      0.966  0.3570E+01  0.3856E+02
      1.074  0.3569E+01  0.3894E+02
      1.182  0.2764E+01  0.3924E+02
      1.289  0.3306E+01  0.3960E+02
      1.397  0.4347E+01  0.4006E+02
      1.505  0.3772E+01  0.4047E+02
      1.612  0.3644E+01  0.4086E+02
      1.720  0.4535E+01  0.4135E+02
      1.828  0.3449E+01  0.4172E+02
      1.935  0.2407E+01  0.4198E+02
      2.043  0.2702E+01  0.4227E+02
      2.151  0.2083E+01  0.4250E+02
      2.258  0.2587E+01  0.4277E+02
      2.366  0.2705E+01  0.4307E+02
      2.474  0.2036E+01  0.4328E+02
      2.581  0.9861E+00  0.4339E+02
      2.689  0.3900E+00  0.4343E+02
      2.797  0.5567E+00  0.4349E+02
      2.904  0.4055E+00  0.4354E+02
      3.012  0.2908E+00  0.4357E+02
      3.120  0.6864E+00  0.4364E+02
      3.227  0.1031E+01  0.4375E+02
      3.335  0.6219E+00  0.4382E+02
      3.443  0.2535E-01  0.4382E+02
      3.550  0.9427E-01  0.4383E+02
      3.658  0.3700E+00  0.4387E+02
      3.766  0.3602E+00  0.4391E+02
      3.873  0.3227E+00  0.4395E+02
      3.981  0.4551E+00  0.4399E+02
      4.089  0.4881E-01  0.4400E+02
      4.196  0.6595E-04  0.4400E+02
      4.304  0.4249E-01  0.4400E+02
      4.412  0.1902E+00  0.4403E+02
      4.519  0.4105E+00  0.4407E+02
      4.627  0.4934E+00  0.4412E+02
      4.735  0.6484E+00  0.4419E+02
      4.842  0.8931E+00  0.4429E+02
      4.950  0.8461E+00  0.4438E+02
      5.058  0.8375E+00  0.4447E+02
      5.165  0.1239E+01  0.4460E+02
      5.273  0.1132E+01  0.4472E+02
      5.381  0.1650E+01  0.4490E+02
      5.488  0.2226E+01  0.4514E+02
      5.596  0.2472E+01  0.4541E+02
      5.704  0.2679E+01  0.4570E+02
      5.811  0.3305E+01  0.4605E+02
      5.919  0.3328E+01  0.4641E+02
      6.027  0.4366E+01  0.4688E+02
      6.134  0.4743E+01  0.4739E+02
      6.242  0.3971E+01  0.4782E+02
      6.349  0.4656E+01  0.4832E+02
      6.457  0.4071E+01  0.4876E+02
      6.565  0.4162E+01  0.4921E+02
      6.672  0.4476E+01  0.4969E+02
      6.780  0.3138E+01  0.5003E+02
      6.888  0.4186E+01  0.5048E+02
      6.995  0.4794E+01  0.5099E+02
      7.103  0.4535E+01  0.5148E+02
      7.211  0.4493E+01  0.5197E+02
      7.318  0.5740E+01  0.5258E+02
      7.426  0.4722E+01  0.5309E+02
      7.534  0.4487E+01  0.5358E+02
      7.641  0.4036E+01  0.5401E+02
      7.749  0.3439E+01  0.5438E+02
      7.857  0.3076E+01  0.5471E+02
      7.964  0.2804E+01  0.5501E+02
      8.072  0.3268E+01  0.5536E+02
      8.180  0.4102E+01  0.5581E+02
      8.287  0.3994E+01  0.5624E+02
      8.395  0.3621E+01  0.5663E+02
      8.503  0.4282E+01  0.5709E+02
      8.610  0.4099E+01  0.5753E+02
      8.718  0.4671E+01  0.5803E+02
      8.826  0.4963E+01  0.5857E+02
      8.933  0.5285E+01  0.5913E+02
      9.041  0.4404E+01  0.5961E+02
      9.149  0.5411E+01  0.6019E+02
      9.256  0.5069E+01  0.6074E+02
      9.364  0.4834E+01  0.6126E+02
      9.472  0.4714E+01  0.6177E+02
      9.579  0.4334E+01  0.6223E+02
      9.687  0.5206E+01  0.6279E+02
      9.795  0.4737E+01  0.6330E+02
      9.902  0.5239E+01  0.6387E+02
     10.010  0.4056E+01  0.6430E+02
     10.118  0.4050E+01  0.6474E+02
     10.225  0.5483E+01  0.6533E+02
     10.333  0.4319E+01  0.6579E+02
     10.441  0.4327E+01  0.6626E+02
     10.548  0.6131E+01  0.6692E+02
     10.656  0.4712E+01  0.6743E+02
     10.764  0.4399E+01  0.6790E+02
     10.871  0.3383E+01  0.6827E+02
     10.979  0.3672E+01  0.6866E+02
     11.087  0.5333E+01  0.6924E+02
     11.194  0.5439E+01  0.6982E+02
     11.302  0.6712E+01  0.7054E+02
     11.410  0.5287E+01  0.7111E+02
     11.517  0.5175E+01  0.7167E+02
     11.625  0.4381E+01  0.7214E+02
     11.733  0.4632E+01  0.7264E+02
     11.840  0.4986E+01  0.7318E+02
     11.948  0.5100E+01  0.7373E+02
     12.056  0.5679E+01  0.7434E+02
     12.163  0.6640E+01  0.7505E+02
     12.271  0.5309E+01  0.7562E+02
     12.379  0.5505E+01  0.7622E+02
     12.486  0.5042E+01  0.7676E+02
     12.594  0.5384E+01  0.7734E+02
     12.702  0.6190E+01  0.7801E+02
     12.809  0.5804E+01  0.7863E+02
     12.917  0.5565E+01  0.7923E+02
     13.025  0.5978E+01  0.7987E+02
     13.132  0.5709E+01  0.8049E+02
     13.240  0.6346E+01  0.8117E+02
     13.348  0.5777E+01  0.8179E+02
     13.455  0.5767E+01  0.8241E+02
     13.563  0.5868E+01  0.8305E+02
     13.671  0.5203E+01  0.8361E+02
     13.778  0.4909E+01  0.8413E+02
     13.886  0.6616E+01  0.8485E+02
     13.994  0.4975E+01  0.8538E+02
     14.101  0.5494E+01  0.8597E+02
     14.209  0.5077E+01  0.8652E+02
     14.317  0.4344E+01  0.8699E+02
     14.424  0.5181E+01  0.8755E+02
     14.532  0.5109E+01  0.8810E+02
     14.640  0.4927E+01  0.8863E+02
     14.747  0.5085E+01  0.8917E+02
     14.855  0.5089E+01  0.8972E+02
     14.963  0.3996E+01  0.9015E+02
     15.070  0.5427E+01  0.9074E+02
     15.178  0.6322E+01  0.9142E+02
     15.286  0.5330E+01  0.9199E+02
     15.393  0.6203E+01  0.9266E+02
     15.501  0.5749E+01  0.9328E+02
     15.609  0.5645E+01  0.9389E+02
     15.716  0.5577E+01  0.9449E+02
     15.824  0.4042E+01  0.9492E+02
     15.932  0.2333E+01  0.9517E+02
     16.039  0.2680E+01  0.9546E+02
     16.147  0.1475E+01  0.9562E+02
     16.255  0.1072E+01  0.9573E+02
     16.362  0.8682E+00  0.9583E+02
     16.470  0.6950E+00  0.9590E+02
     16.578  0.7113E+00  0.9598E+02
     16.685  0.1877E+00  0.9600E+02
     16.793  0.1792E-02  0.9600E+02
     16.901  0.1858E-07  0.9600E+02
     17.008  0.2619E-16  0.9600E+02
     17.116  0.0000E+00  0.9600E+02
     17.224  0.0000E+00  0.9600E+02
     17.331  0.0000E+00  0.9600E+02
     17.439  0.0000E+00  0.9600E+02
     17.547  0.0000E+00  0.9600E+02
     17.654  0.0000E+00  0.9600E+02
     17.762  0.0000E+00  0.9600E+02
     17.870  0.0000E+00  0.9600E+02
     17.977  0.0000E+00  0.9600E+02
     18.085  0.0000E+00  0.9600E+02
