   14   14    1    1
  0.1021960E+02  0.5697000E-09  0.4047900E-09  0.6204200E-09  0.5000000E-15
  1.000000000000000E-004
  CAR 
 Kpoints                                 
     42    175     48
 
  0.5000000E-01  0.3571429E-01  0.0000000E+00  0.3174603E-02
      1        -12.746124   1.000000
      2        -11.589003   1.000000
      3         -8.663793   1.000000
      4         -8.428102   1.000000
      5         -6.060983   1.000000
      6         -5.120036   1.000000
      7         -4.652044   1.000000
      8         -4.255163   1.000000
      9         -4.004087   1.000000
     10         -3.528327   1.000000
     11         -2.574720   1.000000
     12         -2.308309   1.000000
     13         -1.812302   1.000000
     14         -1.061135   1.000000
     15         -0.011225   1.000000
     16          0.015484   1.000000
     17          0.196619   1.000000
     18          0.218951   1.000000
     19          0.610970   1.000000
     20          2.087565   0.000022
     21          2.146346   0.000000
     22          2.262301   0.000000
     23          5.496042   0.000000
     24          5.821936   0.000000
     25          5.906983   0.000000
     26          6.030315   0.000000
     27          6.880981   0.000000
     28          7.597069   0.000000
     29          7.934104   0.000000
     30          8.562712   0.000000
     31          8.796399   0.000000
     32          8.948266   0.000000
     33          9.041105   0.000000
     34         10.136564   0.000000
     35         11.209430   0.000000
     36         11.438631   0.000000
     37         11.795076   0.000000
     38         11.827392   0.000000
     39         11.980837   0.000000
     40         12.440767   0.000000
     41         12.903410   0.000000
     42         13.546161   0.000000
     43         13.573847   0.000000
     44         15.433420   0.000000
     45         15.635218   0.000000
     46         16.139099   0.000000
     47         16.413538   0.000000
     48         16.463287   0.000000
 
  0.1500000E+00  0.3571429E-01  0.0000000E+00  0.3174603E-02
      1        -12.701893   1.000000
      2        -11.663278   1.000000
      3         -8.644211   1.000000
      4         -8.416210   1.000000
      5         -5.994312   1.000000
      6         -5.463780   1.000000
      7         -4.773371   1.000000
      8         -3.979140   1.000000
      9         -3.772354   1.000000
     10         -3.188332   1.000000
     11         -2.646128   1.000000
     12         -2.289426   1.000000
     13         -1.888921   1.000000
     14         -1.366407   1.000000
     15          0.024241   1.000000
     16          0.026248   1.000000
     17          0.143438   1.000000
     18          0.239798   1.000000
     19          0.506934   1.000000
     20          2.001217   0.049703
     21          2.069368   0.000175
     22          2.143395   0.000000
     23          5.587924   0.000000
     24          5.827120   0.000000
     25          5.936459   0.000000
     26          6.378772   0.000000
     27          6.787451   0.000000
     28          7.226208   0.000000
     29          8.141293   0.000000
     30          8.703204   0.000000
     31          9.056808   0.000000
     32          9.134943   0.000000
     33          9.208268   0.000000
     34         10.249321   0.000000
     35         11.046166   0.000000
     36         11.236324   0.000000
     37         11.290359   0.000000
     38         11.736962   0.000000
     39         12.205398   0.000000
     40         12.531472   0.000000
     41         13.176621   0.000000
     42         13.208667   0.000000
     43         14.122311   0.000000
     44         14.912745   0.000000
     45         15.823681   0.000000
     46         15.910454   0.000000
     47         16.301904   0.000000
     48         16.616699   0.000000
 
  0.2500000E+00  0.3571429E-01  0.0000000E+00  0.3174603E-02
      1        -12.614725   1.000000
      2        -11.797853   1.000000
      3         -8.599297   1.000000
      4         -8.400198   1.000000
      5         -5.971563   1.000000
      6         -5.788229   1.000000
      7         -4.725294   1.000000
      8         -3.851444   1.000000
      9         -3.254025   1.000000
     10         -2.813190   1.000000
     11         -2.690838   1.000000
     12         -2.248664   1.000000
     13         -1.999029   1.000000
     14         -1.871403   1.000000
     15         -0.187326   1.000000
     16          0.064183   1.000000
     17          0.189513   1.000000
     18          0.213198   1.000000
     19          0.482746   1.000000
     20          1.849438   0.995918
     21          1.919707   0.744636
     22          1.932775   0.613360
     23          5.717368   0.000000
     24          5.779919   0.000000
     25          6.248679   0.000000
     26          6.660231   0.000000
     27          6.830959   0.000000
     28          6.984082   0.000000
     29          8.289336   0.000000
     30          8.854357   0.000000
     31          9.018113   0.000000
     32          9.581420   0.000000
     33          9.663363   0.000000
     34         10.380874   0.000000
     35         10.531905   0.000000
     36         10.681355   0.000000
     37         11.421914   0.000000
     38         11.878923   0.000000
     39         12.440606   0.000000
     40         12.643721   0.000000
     41         12.847334   0.000000
     42         12.976497   0.000000
     43         14.738456   0.000000
     44         15.001601   0.000000
     45         15.295830   0.000000
     46         16.065413   0.000000
     47         16.075093   0.000000
     48         16.379375   0.000000
 
  0.3500000E+00  0.3571429E-01  0.0000000E+00  0.3174603E-02
      1        -12.489174   1.000000
      2        -11.969816   1.000000
      3         -8.536334   1.000000
      4         -8.397296   1.000000
      5         -6.049523   1.000000
      6         -6.021165   1.000000
      7         -4.398868   1.000000
      8         -3.684051   1.000000
      9         -3.004437   1.000000
     10         -2.866866   1.000000
     11         -2.407365   1.000000
     12         -2.229973   1.000000
     13         -2.131492   1.000000
     14         -2.099347   1.000000
     15         -0.490687   1.000000
     16         -0.211910   1.000000
     17          0.228277   1.000000
     18          0.301994   1.000000
     19          0.658843   1.000000
     20          1.584002   1.000000
     21          1.728054   1.000000
     22          1.784193   0.999996
     23          5.759910   0.000000
     24          5.810101   0.000000
     25          6.549290   0.000000
     26          6.712990   0.000000
     27          6.775454   0.000000
     28          7.495693   0.000000
     29          8.409062   0.000000
     30          8.743337   0.000000
     31          8.837727   0.000000
     32          9.632351   0.000000
     33         10.065236   0.000000
     34         10.149395   0.000000
     35         10.455515   0.000000
     36         11.168254   0.000000
     37         11.458190   0.000000
     38         12.017560   0.000000
     39         12.236934   0.000000
     40         12.327431   0.000000
     41         12.557872   0.000000
     42         13.320774   0.000000
     43         14.773910   0.000000
     44         15.052237   0.000000
     45         15.345318   0.000000
     46         15.456293   0.000000
     47         15.696696   0.000000
     48         16.477424   0.000000
 
  0.4500000E+00  0.3571429E-01  0.0000000E+00  0.3174603E-02
      1        -12.332471   1.000000
      2        -12.154397   1.000000
      3         -8.469734   1.000000
      4         -8.418623   1.000000
      5         -6.137341   1.000000
      6         -6.134874   1.000000
      7         -3.877387   1.000000
      8         -3.477201   1.000000
      9         -3.269536   1.000000
     10         -3.241218   1.000000
     11         -2.334433   1.000000
     12         -2.210571   1.000000
     13         -1.943729   1.000000
     14         -1.881900   1.000000
     15         -0.711062   1.000000
     16         -0.571473   1.000000
     17          0.308852   1.000000
     18          0.340276   1.000000
     19          0.924113   1.000000
     20          1.243608   1.000000
     21          1.645549   1.000000
     22          1.671647   1.000000
     23          5.787477   0.000000
     24          5.824611   0.000000
     25          6.525819   0.000000
     26          6.585339   0.000000
     27          7.447992   0.000000
     28          8.157903   0.000000
     29          8.178113   0.000000
     30          8.513906   0.000000
     31          8.640237   0.000000
     32          8.878877   0.000000
     33         10.544217   0.000000
     34         10.546363   0.000000
     35         10.812258   0.000000
     36         11.273319   0.000000
     37         11.451789   0.000000
     38         11.633197   0.000000
     39         11.959536   0.000000
     40         12.517164   0.000000
     41         12.766442   0.000000
     42         13.310823   0.000000
     43         14.642126   0.000000
     44         14.811699   0.000000
     45         14.930770   0.000000
     46         14.994674   0.000000
     47         16.252956   0.000000
     48         16.580682   0.000000
 
  0.5000000E-01  0.1071429E+00  0.0000000E+00  0.3174603E-02
      1        -12.721874   1.000000
      2        -11.568312   1.000000
      3         -8.644442   1.000000
      4         -8.405233   1.000000
      5         -6.034876   1.000000
      6         -5.086575   1.000000
      7         -4.630651   1.000000
      8         -4.560352   1.000000
      9         -4.163053   1.000000
     10         -3.506892   1.000000
     11         -3.280529   1.000000
     12         -1.764364   1.000000
     13         -1.050786   1.000000
     14         -1.013908   1.000000
     15         -0.259204   1.000000
     16         -0.231291   1.000000
     17          0.203181   1.000000
     18          0.285228   1.000000
     19          0.688813   1.000000
     20          1.816538   0.999825
     21          1.893939   0.917207
     22          2.314721   0.000000
     23          5.644482   0.000000
     24          5.745874   0.000000
     25          5.807567   0.000000
     26          6.072746   0.000000
     27          7.166249   0.000000
     28          7.883514   0.000000
     29          8.093816   0.000000
     30          8.246051   0.000000
     31          8.801258   0.000000
     32          9.092758   0.000000
     33          9.143993   0.000000
     34         10.608026   0.000000
     35         11.365831   0.000000
     36         11.429058   0.000000
     37         11.718046   0.000000
     38         11.929829   0.000000
     39         12.092365   0.000000
     40         12.725305   0.000000
     41         12.906709   0.000000
     42         13.269237   0.000000
     43         13.271600   0.000000
     44         15.378600   0.000000
     45         15.432632   0.000000
     46         15.939386   0.000000
     47         15.946621   0.000000
     48         16.319989   0.000000
 
  0.1500000E+00  0.1071429E+00  0.0000000E+00  0.3174603E-02
      1        -12.677595   1.000000
      2        -11.642775   1.000000
      3         -8.624639   1.000000
      4         -8.393360   1.000000
      5         -5.966986   1.000000
      6         -5.433943   1.000000
      7         -4.755028   1.000000
      8         -4.480560   1.000000
      9         -3.736045   1.000000
     10         -3.362043   1.000000
     11         -3.149851   1.000000
     12         -1.746485   1.000000
     13         -1.361474   1.000000
     14         -1.129800   1.000000
     15         -0.223448   1.000000
     16         -0.151226   1.000000
     17          0.173662   1.000000
     18          0.255970   1.000000
     19          0.581174   1.000000
     20          1.735651   1.000000
     21          1.819475   0.999761
     22          2.184520   0.000000
     23          5.720667   0.000000
     24          5.847593   0.000000
     25          6.002474   0.000000
     26          6.179448   0.000000
     27          7.076483   0.000000
     28          7.552305   0.000000
     29          8.243432   0.000000
     30          8.410692   0.000000
     31          9.131352   0.000000
     32          9.166534   0.000000
     33          9.415302   0.000000
     34         10.542875   0.000000
     35         10.961656   0.000000
     36         11.171867   0.000000
     37         11.489160   0.000000
     38         11.913323   0.000000
     39         12.319320   0.000000
     40         12.788963   0.000000
     41         12.933967   0.000000
     42         13.202609   0.000000
     43         13.825990   0.000000
     44         14.994324   0.000000
     45         15.462244   0.000000
     46         15.830402   0.000000
     47         15.860429   0.000000
     48         16.500579   0.000000
 
  0.2500000E+00  0.1071429E+00  0.0000000E+00  0.3174603E-02
      1        -12.590809   1.000000
      2        -11.776746   1.000000
      3         -8.581450   1.000000
      4         -8.378420   1.000000
      5         -5.941391   1.000000
      6         -5.758456   1.000000
      7         -4.709353   1.000000
      8         -4.368677   1.000000
      9         -3.483145   1.000000
     10         -3.206256   1.000000
     11         -2.680668   1.000000
     12         -1.863999   1.000000
     13         -1.703103   1.000000
     14         -1.289109   1.000000
     15         -0.188178   1.000000
     16         -0.175965   1.000000
     17          0.097690   1.000000
     18          0.244901   1.000000
     19          0.500981   1.000000
     20          1.601928   1.000000
     21          1.683668   1.000000
     22          1.936763   0.569578
     23          5.922212   0.000000
     24          5.981610   0.000000
     25          6.075848   0.000000
     26          6.632441   0.000000
     27          6.951206   0.000000
     28          7.324447   0.000000
     29          8.459991   0.000000
     30          8.541881   0.000000
     31          9.115764   0.000000
     32          9.619318   0.000000
     33          9.891819   0.000000
     34         10.211086   0.000000
     35         10.431309   0.000000
     36         10.849608   0.000000
     37         11.567644   0.000000
     38         12.151146   0.000000
     39         12.378289   0.000000
     40         12.603426   0.000000
     41         13.012045   0.000000
     42         13.072623   0.000000
     43         14.408138   0.000000
     44         15.149952   0.000000
     45         15.242586   0.000000
     46         15.703869   0.000000
     47         15.786535   0.000000
     48         16.498469   0.000000
 
  0.3500000E+00  0.1071429E+00  0.0000000E+00  0.3174603E-02
      1        -12.465559   1.000000
      2        -11.947248   1.000000
      3         -8.517042   1.000000
      4         -8.375789   1.000000
      5         -6.017295   1.000000
      6         -5.991059   1.000000
      7         -4.382273   1.000000
      8         -4.220076   1.000000
      9         -3.653938   1.000000
     10         -2.818460   1.000000
     11         -2.328226   1.000000
     12         -2.194092   1.000000
     13         -1.638640   1.000000
     14         -1.447685   1.000000
     15         -0.452047   1.000000
     16         -0.272095   1.000000
     17          0.128488   1.000000
     18          0.166178   1.000000
     19          0.666355   1.000000
     20          1.463069   1.000000
     21          1.540037   1.000000
     22          1.617441   1.000000
     23          5.934627   0.000000
     24          6.067059   0.000000
     25          6.591074   0.000000
     26          6.859504   0.000000
     27          6.933662   0.000000
     28          7.439130   0.000000
     29          8.474743   0.000000
     30          8.647702   0.000000
     31          8.965438   0.000000
     32          9.463127   0.000000
     33         10.110253   0.000000
     34         10.127743   0.000000
     35         10.475111   0.000000
     36         11.242862   0.000000
     37         11.429185   0.000000
     38         11.899921   0.000000
     39         12.329672   0.000000
     40         12.609033   0.000000
     41         12.761544   0.000000
     42         13.523613   0.000000
     43         14.847815   0.000000
     44         14.871186   0.000000
     45         15.243406   0.000000
     46         15.363551   0.000000
     47         15.757134   0.000000
     48         16.488365   0.000000
 
  0.4500000E+00  0.1071429E+00  0.0000000E+00  0.3174603E-02
      1        -12.308890   1.000000
      2        -12.131589   1.000000
      3         -8.449765   1.000000
      4         -8.399029   1.000000
      5         -6.105129   1.000000
      6         -6.101050   1.000000
      7         -4.041676   1.000000
      8         -3.871500   1.000000
      9         -3.838560   1.000000
     10         -3.259409   1.000000
     11         -2.074064   1.000000
     12         -1.884448   1.000000
     13         -1.570179   1.000000
     14         -1.561614   1.000000
     15         -0.672457   1.000000
     16         -0.568009   1.000000
     17          0.167898   1.000000
     18          0.201053   1.000000
     19          0.933786   1.000000
     20          1.252007   1.000000
     21          1.404316   1.000000
     22          1.425676   1.000000
     23          5.985515   0.000000
     24          6.053578   0.000000
     25          6.846914   0.000000
     26          6.895982   0.000000
     27          7.262710   0.000000
     28          7.974599   0.000000
     29          8.026875   0.000000
     30          8.705830   0.000000
     31          8.731961   0.000000
     32          8.840381   0.000000
     33         10.373614   0.000000
     34         10.597909   0.000000
     35         10.846615   0.000000
     36         10.963968   0.000000
     37         11.596250   0.000000
     38         11.695412   0.000000
     39         12.040184   0.000000
     40         12.689811   0.000000
     41         13.091542   0.000000
     42         13.555311   0.000000
     43         14.617490   0.000000
     44         14.811846   0.000000
     45         14.912666   0.000000
     46         15.120913   0.000000
     47         16.265404   0.000000
     48         16.558942   0.000000
 
  0.5000000E-01  0.1785714E+00  0.0000000E+00  0.3174603E-02
      1        -12.677137   1.000000
      2        -11.527730   1.000000
      3         -8.608432   1.000000
      4         -8.361936   1.000000
      5         -5.985620   1.000000
      6         -5.123860   1.000000
      7         -4.996961   1.000000
      8         -4.588388   1.000000
      9         -4.144585   1.000000
     10         -3.906517   1.000000
     11         -3.451847   1.000000
     12         -1.163918   1.000000
     13         -1.037692   1.000000
     14         -0.600065   1.000000
     15         -0.504786   1.000000
     16         -0.147916   1.000000
     17          0.227277   1.000000
     18          0.337678   1.000000
     19          0.767104   1.000000
     20          1.424011   1.000000
     21          1.488105   1.000000
     22          2.355576   0.000000
     23          5.345025   0.000000
     24          5.508060   0.000000
     25          6.162332   0.000000
     26          6.271996   0.000000
     27          7.596062   0.000000
     28          7.637453   0.000000
     29          8.367808   0.000000
     30          8.747486   0.000000
     31          8.930424   0.000000
     32          9.241004   0.000000
     33          9.371366   0.000000
     34         10.978098   0.000000
     35         11.388431   0.000000
     36         11.665677   0.000000
     37         11.735641   0.000000
     38         12.135469   0.000000
     39         12.312202   0.000000
     40         12.815495   0.000000
     41         12.837714   0.000000
     42         13.051952   0.000000
     43         13.276806   0.000000
     44         14.717881   0.000000
     45         15.208942   0.000000
     46         15.400300   0.000000
     47         15.499496   0.000000
     48         16.045206   0.000000
 
  0.1500000E+00  0.1785714E+00  0.0000000E+00  0.3174603E-02
      1        -12.633169   1.000000
      2        -11.602051   1.000000
      3         -8.589363   1.000000
      4         -8.351244   1.000000
      5         -5.913485   1.000000
      6         -5.384539   1.000000
      7         -5.029586   1.000000
      8         -4.717066   1.000000
      9         -3.971796   1.000000
     10         -3.694261   1.000000
     11         -3.112153   1.000000
     12         -1.350369   1.000000
     13         -1.138419   1.000000
     14         -0.711011   1.000000
     15         -0.466957   1.000000
     16         -0.065070   1.000000
     17          0.205475   1.000000
     18          0.281698   1.000000
     19          0.648419   1.000000
     20          1.346308   1.000000
     21          1.418785   1.000000
     22          2.219264   0.000000
     23          5.424563   0.000000
     24          5.858737   0.000000
     25          6.207732   0.000000
     26          6.282518   0.000000
     27          7.515146   0.000000
     28          7.795894   0.000000
     29          8.096366   0.000000
     30          8.854735   0.000000
     31          9.260924   0.000000
     32          9.320596   0.000000
     33          9.658500   0.000000
     34         10.610806   0.000000
     35         10.863876   0.000000
     36         11.320307   0.000000
     37         11.759613   0.000000
     38         12.248430   0.000000
     39         12.495786   0.000000
     40         12.554105   0.000000
     41         13.221450   0.000000
     42         13.319566   0.000000
     43         13.528927   0.000000
     44         14.739103   0.000000
     45         14.863203   0.000000
     46         15.327774   0.000000
     47         15.566047   0.000000
     48         16.074947   0.000000
 
  0.2500000E+00  0.1785714E+00  0.0000000E+00  0.3174603E-02
      1        -12.547035   1.000000
      2        -11.735411   1.000000
      3         -8.545880   1.000000
      4         -8.338251   1.000000
      5         -5.883058   1.000000
      6         -5.703822   1.000000
      7         -4.937722   1.000000
      8         -4.678622   1.000000
      9         -4.093384   1.000000
     10         -3.157496   1.000000
     11         -2.637366   1.000000
     12         -1.846517   1.000000
     13         -1.098796   1.000000
     14         -0.852546   1.000000
     15         -0.413405   1.000000
     16         -0.058221   1.000000
     17          0.049123   1.000000
     18          0.293998   1.000000
     19          0.530090   1.000000
     20          1.214718   1.000000
     21          1.294670   1.000000
     22          1.958825   0.326819
     23          5.747376   0.000000
     24          6.157934   0.000000
     25          6.337464   0.000000
     26          6.418000   0.000000
     27          7.409218   0.000000
     28          7.903580   0.000000
     29          8.039819   0.000000
     30          8.994848   0.000000
     31          9.269973   0.000000
     32          9.738644   0.000000
     33          9.937604   0.000000
     34         10.169874   0.000000
     35         10.317473   0.000000
     36         11.082324   0.000000
     37         11.642150   0.000000
     38         12.160280   0.000000
     39         12.558575   0.000000
     40         12.852592   0.000000
     41         13.106549   0.000000
     42         13.495182   0.000000
     43         14.063329   0.000000
     44         14.656225   0.000000
     45         14.925262   0.000000
     46         15.357103   0.000000
     47         15.594680   0.000000
     48         16.273411   0.000000
 
  0.3500000E+00  0.1785714E+00  0.0000000E+00  0.3174603E-02
      1        -12.422472   1.000000
      2        -11.906159   1.000000
      3         -8.483274   1.000000
      4         -8.338507   1.000000
      5         -5.957586   1.000000
      6         -5.934970   1.000000
      7         -4.799904   1.000000
      8         -4.358640   1.000000
      9         -4.257063   1.000000
     10         -2.788882   1.000000
     11         -2.293609   1.000000
     12         -2.154459   1.000000
     13         -1.044342   1.000000
     14         -0.991012   1.000000
     15         -0.419664   1.000000
     16         -0.344379   1.000000
     17          0.093079   1.000000
     18          0.097748   1.000000
     19          0.680096   1.000000
     20          1.084752   1.000000
     21          1.163140   1.000000
     22          1.624656   1.000000
     23          6.167778   0.000000
     24          6.287354   0.000000
     25          6.455932   0.000000
     26          6.875890   0.000000
     27          7.351084   0.000000
     28          7.829522   0.000000
     29          8.119955   0.000000
     30          9.094625   0.000000
     31          9.159837   0.000000
     32          9.234317   0.000000
     33          9.943887   0.000000
     34         10.199749   0.000000
     35         10.727385   0.000000
     36         11.135987   0.000000
     37         11.341860   0.000000
     38         12.004735   0.000000
     39         12.387058   0.000000
     40         13.064988   0.000000
     41         13.081372   0.000000
     42         13.847560   0.000000
     43         14.449569   0.000000
     44         14.491879   0.000000
     45         15.090982   0.000000
     46         15.217668   0.000000
     47         15.695472   0.000000
     48         16.454935   0.000000
 
  0.4500000E+00  0.1785714E+00  0.0000000E+00  0.3174603E-02
      1        -12.267010   1.000000
      2        -12.089697   1.000000
      3         -8.414490   1.000000
      4         -8.362954   1.000000
      5         -6.047367   1.000000
      6         -6.042042   1.000000
      7         -4.633793   1.000000
      8         -4.443456   1.000000
      9         -3.841541   1.000000
     10         -3.239760   1.000000
     11         -2.009345   1.000000
     12         -1.846672   1.000000
     13         -1.065588   1.000000
     14         -1.005997   1.000000
     15         -0.599257   1.000000
     16         -0.595414   1.000000
     17          0.046654   1.000000
     18          0.086347   1.000000
     19          0.943874   1.000000
     20          1.018818   1.000000
     21          1.054988   1.000000
     22          1.271606   1.000000
     23          6.252960   0.000000
     24          6.373527   0.000000
     25          6.943686   0.000000
     26          7.283444   0.000000
     27          7.331102   0.000000
     28          7.686084   0.000000
     29          7.990226   0.000000
     30          8.515229   0.000000
     31          9.150502   0.000000
     32          9.169348   0.000000
     33         10.059029   0.000000
     34         10.530482   0.000000
     35         10.730611   0.000000
     36         11.006836   0.000000
     37         11.768735   0.000000
     38         11.778096   0.000000
     39         12.159528   0.000000
     40         12.946514   0.000000
     41         13.493733   0.000000
     42         13.843615   0.000000
     43         14.292388   0.000000
     44         14.451047   0.000000
     45         15.083030   0.000000
     46         15.216373   0.000000
     47         16.091490   0.000000
     48         16.408597   0.000000
 
  0.5000000E-01  0.2500000E+00  0.0000000E+00  0.3174603E-02
      1        -12.618916   1.000000
      2        -11.474606   1.000000
      3         -8.563223   1.000000
      4         -8.307042   1.000000
      5         -5.921794   1.000000
      6         -5.607280   1.000000
      7         -4.924673   1.000000
      8         -4.531246   1.000000
      9         -4.430944   1.000000
     10         -4.104414   1.000000
     11         -3.388003   1.000000
     12         -1.177436   1.000000
     13         -1.020835   1.000000
     14         -0.955605   1.000000
     15         -0.158244   1.000000
     16          0.259948   1.000000
     17          0.379733   1.000000
     18          0.630167   1.000000
     19          0.831716   1.000000
     20          1.037496   1.000000
     21          1.052822   1.000000
     22          2.385436   0.000000
     23          4.990548   0.000000
     24          5.211024   0.000000
     25          6.437600   0.000000
     26          6.620678   0.000000
     27          7.270408   0.000000
     28          8.026447   0.000000
     29          8.705874   0.000000
     30          9.117516   0.000000
     31          9.477801   0.000000
     32          9.661320   0.000000
     33          9.667153   0.000000
     34         10.846869   0.000000
     35         11.367257   0.000000
     36         12.019492   0.000000
     37         12.060173   0.000000
     38         12.352204   0.000000
     39         12.490623   0.000000
     40         12.505356   0.000000
     41         12.626861   0.000000
     42         13.040710   0.000000
     43         13.829775   0.000000
     44         13.934789   0.000000
     45         14.439806   0.000000
     46         15.179143   0.000000
     47         15.471495   0.000000
     48         15.927747   0.000000
 
  0.1500000E+00  0.2500000E+00  0.0000000E+00  0.3174603E-02
      1        -12.575475   1.000000
      2        -11.549078   1.000000
      3         -8.544340   1.000000
      4         -8.297450   1.000000
      5         -5.845081   1.000000
      6         -5.571708   1.000000
      7         -5.266211   1.000000
      8         -4.666949   1.000000