       N       E                     dE             d eps       ncg     rms          rms(c)
DAV:   1    -0.694698627487E+01   -0.69470E+01   -0.11293E+04 16824   0.398E+02
DAV:   2    -0.939221589352E+02   -0.86975E+02   -0.82679E+02 24600   0.101E+02
DAV:   3    -0.961796592689E+02   -0.22575E+01   -0.22533E+01 22656   0.155E+01
DAV:   4    -0.961929027824E+02   -0.13244E-01   -0.13242E-01 23544   0.124E+00
DAV:   5    -0.961930661259E+02   -0.16334E-03   -0.16334E-03 21720   0.137E-01    0.141E+01
DAV:   6    -0.909779394154E+02    0.52151E+01   -0.37573E+00 24456   0.631E+00    0.791E+00
DAV:   7    -0.893720524103E+02    0.16059E+01   -0.31627E+00 25176   0.570E+00    0.188E+00
DAV:   8    -0.893841846844E+02   -0.12132E-01   -0.22975E-01 18888   0.160E+00    0.760E-01
DAV:   9    -0.893974431913E+02   -0.13259E-01   -0.16390E-02 23232   0.415E-01    0.198E-01
DAV:  10    -0.894010675603E+02   -0.36244E-02   -0.19563E-03 19176   0.149E-01    0.604E-02
DAV:  11    -0.894021494459E+02   -0.10819E-02   -0.60184E-04 21864   0.765E-02    0.332E-02
DAV:  12    -0.894022539173E+02   -0.10447E-03   -0.76359E-05 21432   0.279E-02    0.444E-03
DAV:  13    -0.894022572207E+02   -0.33034E-05   -0.31607E-06 23208   0.625E-03    0.221E-03
DAV:  14    -0.894022576863E+02   -0.46558E-06   -0.22635E-07 19608   0.158E-03
   1 F= -.89402258E+02 E0= -.89400668E+02  d E =-.317986E-02
