  14  14   0   0
  0.1021318E+02  0.5700971E-09  0.4044058E-09  0.6201871E-09  0.5000000E-15
  1.000000000000000E-004
  CAR 
 Dielectric                              
     50.94082872    -15.72830656 4000      1.92829749      1.00000000
    -15.728  0.0000E+00  0.0000E+00
    -15.712  0.0000E+00  0.0000E+00
    -15.695  0.0000E+00  0.0000E+00
    -15.678  0.0000E+00  0.0000E+00
    -15.662  0.0000E+00  0.0000E+00
    -15.645  0.0000E+00  0.0000E+00
    -15.628  0.0000E+00  0.0000E+00
    -15.612  0.0000E+00  0.0000E+00
    -15.595  0.0000E+00  0.0000E+00
    -15.578  0.0000E+00  0.0000E+00
    -15.562  0.0000E+00  0.0000E+00
    -15.545  0.0000E+00  0.0000E+00
    -15.528  0.0000E+00  0.0000E+00
    -15.512  0.0000E+00  0.0000E+00
    -15.495  0.0000E+00  0.0000E+00
    -15.478  0.0000E+00  0.0000E+00
    -15.462  0.0000E+00  0.0000E+00
    -15.445  0.0000E+00  0.0000E+00
    -15.428  0.0000E+00  0.0000E+00
    -15.412  0.0000E+00  0.0000E+00
    -15.395  0.0000E+00  0.0000E+00
    -15.378  0.0000E+00  0.0000E+00
    -15.362  0.0000E+00  0.0000E+00
    -15.345  0.0000E+00  0.0000E+00
    -15.328  0.0000E+00  0.0000E+00
    -15.312  0.0000E+00  0.0000E+00
    -15.295  0.0000E+00  0.0000E+00
    -15.278  0.0000E+00  0.0000E+00
    -15.262  0.0000E+00  0.0000E+00
    -15.245  0.0000E+00  0.0000E+00
    -15.228  0.0000E+00  0.0000E+00
    -15.211  0.0000E+00  0.0000E+00
    -15.195  0.0000E+00  0.0000E+00
    -15.178  0.0000E+00  0.0000E+00
    -15.161  0.0000E+00  0.0000E+00
    -15.145  0.0000E+00  0.0000E+00
    -15.128  0.0000E+00  0.0000E+00
    -15.111  0.0000E+00  0.0000E+00
    -15.095  0.0000E+00  0.0000E+00
    -15.078  0.0000E+00  0.0000E+00
    -15.061  0.0000E+00  0.0000E+00
    -15.045  0.0000E+00  0.0000E+00
    -15.028  0.0000E+00  0.0000E+00
    -15.011  0.0000E+00  0.0000E+00
    -14.995  0.0000E+00  0.0000E+00
    -14.978  0.0000E+00  0.0000E+00
    -14.961  0.0000E+00  0.0000E+00
    -14.945  0.0000E+00  0.0000E+00
    -14.928  0.0000E+00  0.0000E+00
    -14.911  0.0000E+00  0.0000E+00
    -14.895  0.0000E+00  0.0000E+00
    -14.878  0.0000E+00  0.0000E+00
    -14.861  0.0000E+00  0.0000E+00
    -14.845  0.0000E+00  0.0000E+00
    -14.828  0.0000E+00  0.0000E+00
    -14.811  0.0000E+00  0.0000E+00
    -14.795  0.0000E+00  0.0000E+00
    -14.778  0.0000E+00  0.0000E+00
    -14.761  0.0000E+00  0.0000E+00
    -14.745  0.0000E+00  0.0000E+00
    -14.728  0.0000E+00  0.0000E+00
    -14.711  0.0000E+00  0.0000E+00
    -14.695  0.0000E+00  0.0000E+00
    -14.678  0.0000E+00  0.0000E+00
    -14.661  0.0000E+00  0.0000E+00
    -14.645  0.0000E+00  0.0000E+00
    -14.628  0.0000E+00  0.0000E+00
    -14.611  0.0000E+00  0.0000E+00
    -14.595  0.0000E+00  0.0000E+00
    -14.578  0.0000E+00  0.0000E+00
    -14.561  0.0000E+00  0.0000E+00
    -14.545  0.0000E+00  0.0000E+00
    -14.528  0.0000E+00  0.0000E+00
    -14.511  0.0000E+00  0.0000E+00
    -14.495  0.0000E+00  0.0000E+00
    -14.478  0.0000E+00  0.0000E+00
    -14.461  0.0000E+00  0.0000E+00
    -14.445  0.0000E+00  0.0000E+00
    -14.428  0.0000E+00  0.0000E+00
    -14.411  0.0000E+00  0.0000E+00
    -14.395  0.0000E+00  0.0000E+00
    -14.378  0.0000E+00  0.0000E+00
    -14.361  0.0000E+00  0.0000E+00
    -14.345  0.0000E+00  0.0000E+00
    -14.328  0.0000E+00  0.0000E+00
    -14.311  0.0000E+00  0.0000E+00
    -14.295  0.0000E+00  0.0000E+00
    -14.278  0.0000E+00  0.0000E+00
    -14.261  0.0000E+00  0.0000E+00
    -14.245  0.0000E+00  0.0000E+00
    -14.228  0.0000E+00  0.0000E+00
    -14.211  0.0000E+00  0.0000E+00
    -14.195  0.0000E+00  0.0000E+00
    -14.178  0.0000E+00  0.0000E+00
    -14.161  0.0000E+00  0.0000E+00
    -14.145  0.0000E+00  0.0000E+00
    -14.128  0.0000E+00  0.0000E+00
    -14.111  0.0000E+00  0.0000E+00
    -14.095  0.0000E+00  0.0000E+00
    -14.078  0.0000E+00  0.0000E+00
    -14.061  0.0000E+00  0.0000E+00
    -14.044  0.0000E+00  0.0000E+00
    -14.028  0.0000E+00  0.0000E+00
    -14.011  0.0000E+00  0.0000E+00
    -13.994  0.0000E+00  0.0000E+00
    -13.978  0.0000E+00  0.0000E+00
    -13.961  0.0000E+00  0.0000E+00
    -13.944  0.0000E+00  0.0000E+00
    -13.928  0.0000E+00  0.0000E+00
    -13.911  0.0000E+00  0.0000E+00
    -13.894  0.0000E+00  0.0000E+00
    -13.878  0.0000E+00  0.0000E+00
    -13.861  0.0000E+00  0.0000E+00
    -13.844  0.0000E+00  0.0000E+00
    -13.828  0.0000E+00  0.0000E+00
    -13.811  0.0000E+00  0.0000E+00
    -13.794  0.0000E+00  0.0000E+00
    -13.778  0.0000E+00  0.0000E+00
    -13.761  0.0000E+00  0.0000E+00
    -13.744  0.0000E+00  0.0000E+00
    -13.728  0.0000E+00  0.0000E+00
    -13.711  0.0000E+00  0.0000E+00
    -13.694  0.0000E+00  0.0000E+00
    -13.678  0.0000E+00  0.0000E+00
    -13.661  0.0000E+00  0.0000E+00
    -13.644  0.0000E+00  0.0000E+00
    -13.628  0.0000E+00  0.0000E+00
    -13.611  0.0000E+00  0.0000E+00
    -13.594  0.0000E+00  0.0000E+00
    -13.578  0.0000E+00  0.0000E+00
    -13.561  0.0000E+00  0.0000E+00
    -13.544  0.0000E+00  0.0000E+00
    -13.528  0.0000E+00  0.0000E+00
    -13.511  0.0000E+00  0.0000E+00
    -13.494  0.0000E+00  0.0000E+00
    -13.478  0.0000E+00  0.0000E+00
    -13.461  0.0000E+00  0.0000E+00
    -13.444  0.0000E+00  0.0000E+00
    -13.428  0.0000E+00  0.0000E+00
    -13.411  0.0000E+00  0.0000E+00
    -13.394  0.0000E+00  0.0000E+00
    -13.378  0.0000E+00  0.0000E+00
    -13.361  0.0000E+00  0.0000E+00
    -13.344  0.0000E+00  0.0000E+00
    -13.328  0.0000E+00  0.0000E+00
    -13.311  0.0000E+00  0.0000E+00
    -13.294  0.0000E+00  0.0000E+00
    -13.278  0.0000E+00  0.0000E+00
    -13.261  0.0000E+00  0.0000E+00
    -13.244  0.0000E+00  0.0000E+00
    -13.228  0.0000E+00  0.0000E+00
    -13.211  0.0000E+00  0.0000E+00
    -13.194  0.0000E+00  0.0000E+00
    -13.178  0.0000E+00  0.0000E+00
    -13.161  0.0000E+00  0.0000E+00
    -13.144  0.0000E+00  0.0000E+00
    -13.128  0.0000E+00  0.0000E+00
    -13.111  0.0000E+00  0.0000E+00
    -13.094  0.0000E+00  0.0000E+00
    -13.078  0.0000E+00  0.0000E+00
    -13.061  0.0000E+00  0.0000E+00
    -13.044  0.0000E+00  0.0000E+00
    -13.028  0.0000E+00  0.0000E+00
    -13.011  0.0000E+00  0.0000E+00
    -12.994  0.0000E+00  0.0000E+00
    -12.978  0.0000E+00  0.0000E+00
    -12.961  0.0000E+00  0.0000E+00
    -12.944  0.0000E+00  0.0000E+00
    -12.928  0.0000E+00  0.0000E+00
    -12.911  0.0000E+00  0.0000E+00
    -12.894  0.0000E+00  0.0000E+00
    -12.877  0.0000E+00  0.0000E+00
    -12.861  0.0000E+00  0.0000E+00
    -12.844  0.0000E+00  0.0000E+00
    -12.827  0.0000E+00  0.0000E+00
    -12.811  0.0000E+00  0.0000E+00
    -12.794  0.0000E+00  0.0000E+00
    -12.777  0.0000E+00  0.0000E+00
    -12.761  0.0000E+00  0.0000E+00
    -12.744  0.1446E-11  0.2410E-13
    -12.727  0.7921E-06  0.1321E-07
    -12.711  0.3027E-02  0.5047E-04
    -12.694  0.1641E+00  0.2786E-02
    -12.677  0.6567E+00  0.1373E-01
    -12.661  0.1070E+01  0.3158E-01
    -12.644  0.1318E+01  0.5355E-01
    -12.627  0.1758E+01  0.8287E-01
    -12.611  0.1969E+01  0.1157E+00
    -12.594  0.2404E+01  0.1558E+00
    -12.577  0.3007E+01  0.2059E+00
    -12.561  0.3059E+01  0.2569E+00
    -12.544  0.3017E+01  0.3072E+00
    -12.527  0.3063E+01  0.3583E+00
    -12.511  0.3280E+01  0.4130E+00
    -12.494  0.3553E+01  0.4722E+00
    -12.477  0.3474E+01  0.5301E+00
    -12.461  0.3286E+01  0.5849E+00
    -12.444  0.3828E+01  0.6487E+00
    -12.427  0.4293E+01  0.7203E+00
    -12.411  0.4605E+01  0.7970E+00
    -12.394  0.4415E+01  0.8706E+00
    -12.377  0.4483E+01  0.9454E+00
    -12.361  0.4453E+01  0.1020E+01
    -12.344  0.4388E+01  0.1093E+01
    -12.327  0.4464E+01  0.1167E+01
    -12.311  0.4115E+01  0.1236E+01
    -12.294  0.3704E+01  0.1298E+01
    -12.277  0.3385E+01  0.1354E+01
    -12.261  0.2978E+01  0.1404E+01
    -12.244  0.3100E+01  0.1455E+01
    -12.227  0.3179E+01  0.1508E+01
    -12.211  0.3027E+01  0.1559E+01
    -12.194  0.3284E+01  0.1614E+01
    -12.177  0.2874E+01  0.1661E+01
    -12.161  0.2487E+01  0.1703E+01
    -12.144  0.2089E+01  0.1738E+01
    -12.127  0.2649E+01  0.1782E+01
    -12.111  0.3477E+01  0.1840E+01
    -12.094  0.2843E+01  0.1887E+01
    -12.077  0.2580E+01  0.1930E+01
    -12.061  0.2343E+01  0.1969E+01
    -12.044  0.1954E+01  0.2002E+01
    -12.027  0.2250E+01  0.2039E+01
    -12.011  0.3110E+01  0.2091E+01
    -11.994  0.2815E+01  0.2138E+01
    -11.977  0.2892E+01  0.2186E+01
    -11.961  0.2234E+01  0.2224E+01
    -11.944  0.2235E+01  0.2261E+01
    -11.927  0.2032E+01  0.2295E+01
    -11.911  0.2524E+01  0.2337E+01
    -11.894  0.2760E+01  0.2383E+01
    -11.877  0.3037E+01  0.2433E+01
    -11.861  0.2941E+01  0.2483E+01
    -11.844  0.2493E+01  0.2524E+01
    -11.827  0.1851E+01  0.2555E+01
    -11.811  0.2305E+01  0.2593E+01
    -11.794  0.2899E+01  0.2642E+01
    -11.777  0.3265E+01  0.2696E+01
    -11.761  0.3731E+01  0.2758E+01
    -11.744  0.2468E+01  0.2799E+01
    -11.727  0.2636E+01  0.2843E+01
    -11.710  0.2868E+01  0.2891E+01
    -11.694  0.3750E+01  0.2954E+01
    -11.677  0.4145E+01  0.3023E+01
    -11.660  0.3907E+01  0.3088E+01
    -11.644  0.3502E+01  0.3146E+01
    -11.627  0.3128E+01  0.3199E+01
    -11.610  0.3555E+01  0.3258E+01
    -11.594  0.3638E+01  0.3318E+01
    -11.577  0.3450E+01  0.3376E+01
    -11.560  0.3456E+01  0.3434E+01
    -11.544  0.3910E+01  0.3499E+01
    -11.527  0.3208E+01  0.3552E+01
    -11.510  0.3297E+01  0.3607E+01
    -11.494  0.2787E+01  0.3654E+01
    -11.477  0.3097E+01  0.3705E+01
    -11.460  0.2669E+01  0.3750E+01
    -11.444  0.2860E+01  0.3797E+01
    -11.427  0.2087E+01  0.3832E+01
    -11.410  0.1876E+01  0.3864E+01
    -11.394  0.1614E+01  0.3890E+01
    -11.377  0.1509E+01  0.3916E+01
    -11.360  0.1415E+01  0.3939E+01
    -11.344  0.8684E+00  0.3954E+01
    -11.327  0.9995E+00  0.3970E+01
    -11.310  0.7582E+00  0.3983E+01
    -11.294  0.5799E+00  0.3993E+01
    -11.277  0.3511E+00  0.3998E+01
    -11.260  0.8990E-01  0.4000E+01
    -11.244  0.1180E-02  0.4000E+01
    -11.227  0.1779E-06  0.4000E+01
    -11.210  0.1411E-12  0.4000E+01
    -11.194  0.0000E+00  0.4000E+01
    -11.177  0.0000E+00  0.4000E+01
    -11.160  0.0000E+00  0.4000E+01
    -11.144  0.0000E+00  0.4000E+01
    -11.127  0.0000E+00  0.4000E+01
    -11.110  0.0000E+00  0.4000E+01
    -11.094  0.0000E+00  0.4000E+01
    -11.077  0.0000E+00  0.4000E+01
    -11.060  0.0000E+00  0.4000E+01
    -11.044  0.0000E+00  0.4000E+01
    -11.027  0.0000E+00  0.4000E+01
    -11.010  0.0000E+00  0.4000E+01
    -10.994  0.0000E+00  0.4000E+01
    -10.977  0.0000E+00  0.4000E+01
    -10.960  0.0000E+00  0.4000E+01
    -10.944  0.0000E+00  0.4000E+01
    -10.927  0.0000E+00  0.4000E+01
    -10.910  0.0000E+00  0.4000E+01
    -10.894  0.0000E+00  0.4000E+01
    -10.877  0.0000E+00  0.4000E+01
    -10.860  0.0000E+00  0.4000E+01
    -10.844  0.0000E+00  0.4000E+01
    -10.827  0.0000E+00  0.4000E+01
    -10.810  0.0000E+00  0.4000E+01
    -10.794  0.0000E+00  0.4000E+01
    -10.777  0.0000E+00  0.4000E+01
    -10.760  0.0000E+00  0.4000E+01
    -10.744  0.0000E+00  0.4000E+01
    -10.727  0.0000E+00  0.4000E+01
    -10.710  0.0000E+00  0.4000E+01
    -10.694  0.0000E+00  0.4000E+01
    -10.677  0.0000E+00  0.4000E+01
    -10.660  0.0000E+00  0.4000E+01
    -10.644  0.0000E+00  0.4000E+01
    -10.627  0.0000E+00  0.4000E+01
    -10.610  0.0000E+00  0.4000E+01
    -10.593  0.0000E+00  0.4000E+01
    -10.577  0.0000E+00  0.4000E+01
    -10.560  0.0000E+00  0.4000E+01
    -10.543  0.0000E+00  0.4000E+01
    -10.527  0.0000E+00  0.4000E+01
    -10.510  0.0000E+00  0.4000E+01
    -10.493  0.0000E+00  0.4000E+01
    -10.477  0.0000E+00  0.4000E+01
    -10.460  0.0000E+00  0.4000E+01
    -10.443  0.0000E+00  0.4000E+01
    -10.427  0.0000E+00  0.4000E+01
    -10.410  0.0000E+00  0.4000E+01
    -10.393  0.0000E+00  0.4000E+01
    -10.377  0.0000E+00  0.4000E+01
    -10.360  0.0000E+00  0.4000E+01
    -10.343  0.0000E+00  0.4000E+01
    -10.327  0.0000E+00  0.4000E+01
    -10.310  0.0000E+00  0.4000E+01
    -10.293  0.0000E+00  0.4000E+01
    -10.277  0.0000E+00  0.4000E+01
    -10.260  0.0000E+00  0.4000E+01
    -10.243  0.0000E+00  0.4000E+01
    -10.227  0.0000E+00  0.4000E+01
    -10.210  0.0000E+00  0.4000E+01
    -10.193  0.0000E+00  0.4000E+01
    -10.177  0.0000E+00  0.4000E+01
    -10.160  0.0000E+00  0.4000E+01
    -10.143  0.0000E+00  0.4000E+01
    -10.127  0.0000E+00  0.4000E+01
    -10.110  0.0000E+00  0.4000E+01
    -10.093  0.0000E+00  0.4000E+01
    -10.077  0.0000E+00  0.4000E+01
    -10.060  0.0000E+00  0.4000E+01
    -10.043  0.0000E+00  0.4000E+01
    -10.027  0.0000E+00  0.4000E+01
    -10.010  0.0000E+00  0.4000E+01
     -9.993  0.0000E+00  0.4000E+01
     -9.977  0.0000E+00  0.4000E+01
     -9.960  0.0000E+00  0.4000E+01
     -9.943  0.0000E+00  0.4000E+01
     -9.927  0.0000E+00  0.4000E+01
     -9.910  0.0000E+00  0.4000E+01
     -9.893  0.0000E+00  0.4000E+01
     -9.877  0.0000E+00  0.4000E+01
     -9.860  0.0000E+00  0.4000E+01
     -9.843  0.0000E+00  0.4000E+01
     -9.827  0.0000E+00  0.4000E+01
     -9.810  0.0000E+00  0.4000E+01
     -9.793  0.0000E+00  0.4000E+01
     -9.777  0.0000E+00  0.4000E+01
     -9.760  0.0000E+00  0.4000E+01
     -9.743  0.0000E+00  0.4000E+01
     -9.727  0.0000E+00  0.4000E+01
     -9.710  0.0000E+00  0.4000E+01
     -9.693  0.0000E+00  0.4000E+01
     -9.677  0.0000E+00  0.4000E+01
     -9.660  0.0000E+00  0.4000E+01
     -9.643  0.0000E+00  0.4000E+01
     -9.627  0.0000E+00  0.4000E+01
     -9.610  0.0000E+00  0.4000E+01
     -9.593  0.0000E+00  0.4000E+01
     -9.577  0.0000E+00  0.4000E+01
     -9.560  0.0000E+00  0.4000E+01
     -9.543  0.0000E+00  0.4000E+01
     -9.527  0.0000E+00  0.4000E+01
     -9.510  0.0000E+00  0.4000E+01
     -9.493  0.0000E+00  0.4000E+01
     -9.477  0.0000E+00  0.4000E+01
     -9.460  0.0000E+00  0.4000E+01
     -9.443  0.0000E+00  0.4000E+01
     -9.426  0.0000E+00  0.4000E+01
     -9.410  0.0000E+00  0.4000E+01
     -9.393  0.0000E+00  0.4000E+01
     -9.376  0.0000E+00  0.4000E+01
     -9.360  0.0000E+00  0.4000E+01
     -9.343  0.0000E+00  0.4000E+01
     -9.326  0.0000E+00  0.4000E+01
     -9.310  0.0000E+00  0.4000E+01
     -9.293  0.0000E+00  0.4000E+01
     -9.276  0.0000E+00  0.4000E+01
     -9.260  0.0000E+00  0.4000E+01
     -9.243  0.0000E+00  0.4000E+01
     -9.226  0.0000E+00  0.4000E+01
     -9.210  0.0000E+00  0.4000E+01
     -9.193  0.0000E+00  0.4000E+01
     -9.176  0.0000E+00  0.4000E+01
     -9.160  0.0000E+00  0.4000E+01
     -9.143  0.0000E+00  0.4000E+01
     -9.126  0.0000E+00  0.4000E+01
     -9.110  0.0000E+00  0.4000E+01
     -9.093  0.0000E+00  0.4000E+01
     -9.076  0.0000E+00  0.4000E+01
     -9.060  0.0000E+00  0.4000E+01
     -9.043  0.0000E+00  0.4000E+01
     -9.026  0.0000E+00  0.4000E+01
     -9.010  0.0000E+00  0.4000E+01
     -8.993  0.0000E+00  0.4000E+01
     -8.976  0.0000E+00  0.4000E+01
     -8.960  0.0000E+00  0.4000E+01
     -8.943  0.0000E+00  0.4000E+01
     -8.926  0.0000E+00  0.4000E+01
     -8.910  0.0000E+00  0.4000E+01
     -8.893  0.0000E+00  0.4000E+01
     -8.876  0.1254E-11  0.4000E+01
     -8.860  0.8280E-06  0.4000E+01
     -8.843  0.3232E-02  0.4000E+01
     -8.826  0.1539E+00  0.4003E+01
     -8.810  0.7346E+00  0.4015E+01
     -8.793  0.1139E+01  0.4034E+01
     -8.776  0.1459E+01  0.4058E+01
     -8.760  0.1881E+01  0.4090E+01
     -8.743  0.2175E+01  0.4126E+01
     -8.726  0.2351E+01  0.4165E+01
     -8.710  0.2914E+01  0.4214E+01
     -8.693  0.3101E+01  0.4265E+01
     -8.676  0.3810E+01  0.4329E+01
     -8.660  0.4437E+01  0.4403E+01
     -8.643  0.6531E+01  0.4512E+01
     -8.626  0.6375E+01  0.4618E+01
     -8.610  0.6696E+01  0.4730E+01
     -8.593  0.6634E+01  0.4840E+01
     -8.576  0.6752E+01  0.4953E+01
     -8.560  0.6640E+01  0.5063E+01
     -8.543  0.7399E+01  0.5187E+01
     -8.526  0.6481E+01  0.5295E+01
     -8.510  0.6527E+01  0.5404E+01
     -8.493  0.6768E+01  0.5516E+01
     -8.476  0.6653E+01  0.5627E+01
     -8.460  0.6955E+01  0.5743E+01
     -8.443  0.7271E+01  0.5865E+01
     -8.426  0.5651E+01  0.5959E+01
     -8.410  0.4285E+01  0.6030E+01
     -8.393  0.3810E+01  0.6094E+01
     -8.376  0.3358E+01  0.6150E+01
     -8.360  0.3802E+01  0.6213E+01
     -8.343  0.4258E+01  0.6284E+01
     -8.326  0.5275E+01  0.6372E+01
     -8.310  0.5705E+01  0.6467E+01
     -8.293  0.4749E+01  0.6546E+01
     -8.276  0.5058E+01  0.6631E+01
     -8.259  0.4595E+01  0.6707E+01
     -8.243  0.4786E+01  0.6787E+01
     -8.226  0.4751E+01  0.6866E+01
     -8.209  0.5160E+01  0.6952E+01
     -8.193  0.4545E+01  0.7028E+01
     -8.176  0.4529E+01  0.7103E+01
     -8.159  0.4445E+01  0.7178E+01
     -8.143  0.4038E+01  0.7245E+01
     -8.126  0.4674E+01  0.7323E+01
     -8.109  0.4750E+01  0.7402E+01
     -8.093  0.5352E+01  0.7491E+01
     -8.076  0.4034E+01  0.7559E+01
     -8.059  0.3663E+01  0.7620E+01
     -8.043  0.3085E+01  0.7671E+01
     -8.026  0.2604E+01  0.7714E+01
     -8.009  0.2563E+01  0.7757E+01
     -7.993  0.2750E+01  0.7803E+01
     -7.976  0.1834E+01  0.7834E+01
     -7.959  0.1464E+01  0.7858E+01
     -7.943  0.1516E+01  0.7883E+01
     -7.926  0.1229E+01  0.7904E+01
     -7.909  0.1058E+01  0.7921E+01
     -7.893  0.1230E+01  0.7942E+01
     -7.876  0.7810E+00  0.7955E+01
     -7.859  0.5926E+00  0.7965E+01
     -7.843  0.5994E+00  0.7975E+01
     -7.826  0.5805E+00  0.7984E+01
     -7.809  0.4687E+00  0.7992E+01
     -7.793  0.2046E+00  0.7996E+01
     -7.776  0.2281E+00  0.7999E+01
     -7.759  0.3195E-01  0.8000E+01
     -7.743  0.8138E-04  0.8000E+01
     -7.726  0.1254E-08  0.8000E+01
     -7.709  0.7721E-16  0.8000E+01
     -7.693  0.0000E+00  0.8000E+01
     -7.676  0.0000E+00  0.8000E+01
     -7.659  0.0000E+00  0.8000E+01
     -7.643  0.0000E+00  0.8000E+01
     -7.626  0.0000E+00  0.8000E+01
     -7.609  0.0000E+00  0.8000E+01
     -7.593  0.0000E+00  0.8000E+01
     -7.576  0.0000E+00  0.8000E+01
     -7.559  0.0000E+00  0.8000E+01
     -7.543  0.0000E+00  0.8000E+01
     -7.526  0.0000E+00  0.8000E+01
     -7.509  0.0000E+00  0.8000E+01
     -7.493  0.0000E+00  0.8000E+01
     -7.476  0.0000E+00  0.8000E+01
     -7.459  0.0000E+00  0.8000E+01
     -7.443  0.0000E+00  0.8000E+01
     -7.426  0.0000E+00  0.8000E+01
     -7.409  0.0000E+00  0.8000E+01
     -7.393  0.0000E+00  0.8000E+01
     -7.376  0.0000E+00  0.8000E+01
     -7.359  0.0000E+00  0.8000E+01
     -7.343  0.0000E+00  0.8000E+01
     -7.326  0.0000E+00  0.8000E+01
     -7.309  0.0000E+00  0.8000E+01
     -7.293  0.0000E+00  0.8000E+01
     -7.276  0.0000E+00  0.8000E+01
     -7.259  0.0000E+00  0.8000E+01
     -7.243  0.0000E+00  0.8000E+01
     -7.226  0.0000E+00  0.8000E+01
     -7.209  0.0000E+00  0.8000E+01
     -7.193  0.0000E+00  0.8000E+01
     -7.176  0.0000E+00  0.8000E+01
     -7.159  0.0000E+00  0.8000E+01
     -7.143  0.0000E+00  0.8000E+01
     -7.126  0.0000E+00  0.8000E+01
     -7.109  0.0000E+00  0.8000E+01
     -7.092  0.0000E+00  0.8000E+01
     -7.076  0.0000E+00  0.8000E+01
     -7.059  0.0000E+00  0.8000E+01
     -7.042  0.0000E+00  0.8000E+01
     -7.026  0.0000E+00  0.8000E+01
     -7.009  0.4826E-17  0.8000E+01
     -6.992  0.1032E-09  0.8000E+01
     -6.976  0.1418E-04  0.8000E+01
     -6.959  0.1295E-01  0.8000E+01
     -6.942  0.1784E+00  0.8003E+01
     -6.926  0.1890E+00  0.8006E+01
     -6.909  0.9572E-01  0.8008E+01
     -6.892  0.1248E+00  0.8010E+01
     -6.876  0.1257E+00  0.8012E+01
     -6.859  0.3416E+00  0.8018E+01
     -6.842  0.1934E+00  0.8021E+01
     -6.826  0.4626E+00  0.8029E+01
     -6.809  0.2629E+00  0.8033E+01
     -6.792  0.2845E+00  0.8038E+01
     -6.776  0.4262E+00  0.8045E+01
     -6.759  0.3797E+00  0.8051E+01
     -6.742  0.4605E+00  0.8059E+01
     -6.726  0.4836E+00  0.8067E+01
     -6.709  0.4548E+00  0.8075E+01
     -6.692  0.4328E+00  0.8082E+01
     -6.676  0.4072E+00  0.8089E+01
     -6.659  0.7683E+00  0.8101E+01
     -6.642  0.2909E+00  0.8106E+01
     -6.626  0.9288E+00  0.8122E+01
     -6.609  0.6859E+00  0.8133E+01
     -6.592  0.7156E+00  0.8145E+01
     -6.576  0.7901E+00  0.8158E+01
     -6.559  0.9156E+00  0.8174E+01
     -6.542  0.1023E+01  0.8191E+01
     -6.526  0.1068E+01  0.8208E+01
     -6.509  0.8310E+00  0.8222E+01
     -6.492  0.7328E+00  0.8234E+01
     -6.476  0.6744E+00  0.8246E+01
     -6.459  0.9805E+00  0.8262E+01
     -6.442  0.8129E+00  0.8276E+01
     -6.426  0.1074E+01  0.8294E+01
     -6.409  0.8193E+00  0.8307E+01
     -6.392  0.1066E+01  0.8325E+01
     -6.376  0.1859E+01  0.8356E+01
     -6.359  0.2202E+01  0.8393E+01
     -6.342  0.2059E+01  0.8427E+01
     -6.326  0.2176E+01  0.8463E+01
     -6.309  0.1835E+01  0.8494E+01
     -6.292  0.2012E+01  0.8527E+01
     -6.276  0.1730E+01  0.8556E+01
     -6.259  0.2167E+01  0.8592E+01
     -6.242  0.2217E+01  0.8629E+01
     -6.226  0.2571E+01  0.8672E+01
     -6.209  0.2749E+01  0.8718E+01
     -6.192  0.2804E+01  0.8765E+01
     -6.176  0.3505E+01  0.8823E+01
     -6.159  0.3456E+01  0.8881E+01
     -6.142  0.3743E+01  0.8943E+01
     -6.126  0.2950E+01  0.8992E+01
     -6.109  0.3626E+01  0.9053E+01
     -6.092  0.4222E+01  0.9123E+01
     -6.076  0.4206E+01  0.9193E+01
     -6.059  0.4659E+01  0.9271E+01
     -6.042  0.4345E+01  0.9343E+01
     -6.026  0.4153E+01  0.9413E+01
     -6.009  0.4117E+01  0.9481E+01
     -5.992  0.3404E+01  0.9538E+01
     -5.976  0.3750E+01  0.9601E+01
     -5.959  0.4062E+01  0.9668E+01
     -5.942  0.3446E+01  0.9726E+01
     -5.925  0.4222E+01  0.9796E+01
     -5.909  0.4364E+01  0.9869E+01
     -5.892  0.4052E+01  0.9936E+01
     -5.875  0.4422E+01  0.1001E+02
     -5.859  0.3588E+01  0.1007E+02
     -5.842  0.3674E+01  0.1013E+02
     -5.825  0.4244E+01  0.1020E+02
     -5.809  0.4226E+01  0.1027E+02
     -5.792  0.4332E+01  0.1034E+02
     -5.775  0.4129E+01  0.1041E+02
     -5.759  0.4504E+01  0.1049E+02
     -5.742  0.4589E+01  0.1057E+02
     -5.725  0.3697E+01  0.1063E+02
     -5.709  0.4266E+01  0.1070E+02
     -5.692  0.4361E+01  0.1077E+02
     -5.675  0.3431E+01  0.1083E+02
     -5.659  0.4042E+01  0.1090E+02
     -5.642  0.3169E+01  0.1095E+02
     -5.625  0.3552E+01  0.1101E+02
     -5.609  0.4069E+01  0.1108E+02
     -5.592  0.4567E+01  0.1115E+02
     -5.575  0.4527E+01  0.1123E+02
     -5.559  0.4770E+01  0.1131E+02
     -5.542  0.3843E+01  0.1137E+02
     -5.525  0.3760E+01  0.1143E+02
     -5.509  0.3961E+01  0.1150E+02
     -5.492  0.4436E+01  0.1157E+02
     -5.475  0.3964E+01  0.1164E+02
     -5.459  0.3952E+01  0.1170E+02
     -5.442  0.5134E+01  0.1179E+02
     -5.425  0.5072E+01  0.1188E+02
     -5.409  0.5131E+01  0.1196E+02
     -5.392  0.4729E+01  0.1204E+02
     -5.375  0.4330E+01  0.1211E+02
     -5.359  0.5017E+01  0.1220E+02
     -5.342  0.4596E+01  0.1227E+02
     -5.325  0.4471E+01  0.1235E+02
     -5.309  0.5087E+01  0.1243E+02
     -5.292  0.4464E+01  0.1251E+02
     -5.275  0.4853E+01  0.1259E+02
     -5.259  0.4841E+01  0.1267E+02
     -5.242  0.4582E+01  0.1274E+02
     -5.225  0.4953E+01  0.1283E+02
     -5.209  0.4229E+01  0.1290E+02
     -5.192  0.3912E+01  0.1296E+02
     -5.175  0.3742E+01  0.1302E+02
     -5.159  0.3973E+01  0.1309E+02
     -5.142  0.3752E+01  0.1315E+02
     -5.125  0.3475E+01  0.1321E+02
     -5.109  0.3742E+01  0.1327E+02
     -5.092  0.4500E+01  0.1335E+02
     -5.075  0.3924E+01  0.1341E+02
     -5.059  0.3947E+01  0.1348E+02
     -5.042  0.3410E+01  0.1354E+02
     -5.025  0.3327E+01  0.1359E+02
     -5.009  0.3527E+01  0.1365E+02
     -4.992  0.2773E+01  0.1370E+02
     -4.975  0.2705E+01  0.1374E+02
     -4.959  0.3260E+01  0.1380E+02
     -4.942  0.2736E+01  0.1384E+02
     -4.925  0.2594E+01  0.1389E+02
     -4.909  0.2223E+01  0.1392E+02
     -4.892  0.1813E+01  0.1395E+02
     -4.875  0.1998E+01  0.1399E+02
     -4.859  0.1817E+01  0.1402E+02
     -4.842  0.2321E+01  0.1405E+02
     -4.825  0.2742E+01  0.1410E+02
     -4.809  0.3166E+01  0.1415E+02
     -4.792  0.2984E+01  0.1420E+02
     -4.775  0.2463E+01  0.1424E+02
     -4.758  0.2239E+01  0.1428E+02
     -4.742  0.3672E+01  0.1434E+02
     -4.725  0.3716E+01  0.1440E+02
     -4.708  0.3670E+01  0.1447E+02
     -4.692  0.3213E+01  0.1452E+02
     -4.675  0.2390E+01  0.1456E+02
     -4.658  0.2306E+01  0.1460E+02
     -4.642  0.3015E+01  0.1465E+02
     -4.625  0.4097E+01  0.1472E+02
     -4.608  0.4057E+01  0.1478E+02
     -4.592  0.3690E+01  0.1485E+02
     -4.575  0.3338E+01  0.1490E+02
     -4.558  0.3593E+01  0.1496E+02
     -4.542  0.3426E+01  0.1502E+02
     -4.525  0.4059E+01  0.1509E+02
     -4.508  0.4271E+01  0.1516E+02
     -4.492  0.4144E+01  0.1523E+02
     -4.475  0.3657E+01  0.1529E+02
     -4.458  0.3322E+01  0.1534E+02
     -4.442  0.3205E+01  0.1540E+02
     -4.425  0.2333E+01  0.1543E+02
     -4.408  0.2874E+01  0.1548E+02
     -4.392  0.2919E+01  0.1553E+02
     -4.375  0.2542E+01  0.1557E+02
     -4.358  0.2780E+01  0.1562E+02
     -4.342  0.2595E+01  0.1566E+02
     -4.325  0.3127E+01  0.1572E+02
     -4.308  0.3814E+01  0.1578E+02
     -4.292  0.3661E+01  0.1584E+02
     -4.275  0.2706E+01  0.1589E+02
     -4.258  0.2907E+01  0.1593E+02
     -4.242  0.2260E+01  0.1597E+02
     -4.225  0.2158E+01  0.1601E+02
     -4.208  0.2316E+01  0.1605E+02
     -4.192  0.2814E+01  0.1609E+02
     -4.175  0.3434E+01  0.1615E+02
     -4.158  0.3457E+01  0.1621E+02
     -4.142  0.3408E+01  0.1626E+02
     -4.125  0.3232E+01  0.1632E+02
     -4.108  0.3226E+01  0.1637E+02
     -4.092  0.2613E+01  0.1642E+02
     -4.075  0.3111E+01  0.1647E+02
     -4.058  0.3065E+01  0.1652E+02
     -4.042  0.3125E+01  0.1657E+02
     -4.025  0.2934E+01  0.1662E+02
     -4.008  0.2467E+01  0.1666E+02
     -3.992  0.2292E+01  0.1670E+02
     -3.975  0.2613E+01  0.1674E+02
     -3.958  0.2647E+01  0.1679E+02
     -3.942  0.2506E+01  0.1683E+02
     -3.925  0.3780E+01  0.1689E+02
     -3.908  0.3247E+01  0.1695E+02
     -3.892  0.3107E+01  0.1700E+02
     -3.875  0.2575E+01  0.1704E+02
     -3.858  0.2747E+01  0.1709E+02
     -3.842  0.3202E+01  0.1714E+02
     -3.825  0.3089E+01  0.1719E+02
     -3.808  0.3404E+01  0.1725E+02
     -3.792  0.3596E+01  0.1731E+02
     -3.775  0.3423E+01  0.1736E+02
     -3.758  0.2752E+01  0.1741E+02
     -3.742  0.3042E+01  0.1746E+02
     -3.725  0.3384E+01  0.1752E+02
     -3.708  0.3160E+01  0.1757E+02
     -3.692  0.2530E+01  0.1761E+02
     -3.675  0.2959E+01  0.1766E+02
     -3.658  0.2381E+01  0.1770E+02
     -3.642  0.3096E+01  0.1775E+02
     -3.625  0.2283E+01  0.1779E+02
     -3.608  0.2935E+01  0.1784E+02
     -3.591  0.2934E+01  0.1789E+02
     -3.575  0.2229E+01  0.1793E+02
     -3.558  0.2989E+01  0.1798E+02
     -3.541  0.2797E+01  0.1802E+02
     -3.525  0.1890E+01  0.1805E+02
     -3.508  0.2370E+01  0.1809E+02
     -3.491  0.2614E+01  0.1814E+02
     -3.475  0.2622E+01  0.1818E+02
     -3.458  0.3263E+01  0.1824E+02
     -3.441  0.3039E+01  0.1829E+02
     -3.425  0.3053E+01  0.1834E+02
     -3.408  0.3161E+01  0.1839E+02
     -3.391  0.3144E+01  0.1844E+02
     -3.375  0.3172E+01  0.1850E+02
     -3.358  0.2471E+01  0.1854E+02
     -3.341  0.2379E+01  0.1858E+02
     -3.325  0.2199E+01  0.1861E+02
     -3.308  0.2570E+01  0.1866E+02
     -3.291  0.2466E+01  0.1870E+02
     -3.275  0.2816E+01  0.1874E+02
     -3.258  0.2630E+01  0.1879E+02
     -3.241  0.2280E+01  0.1883E+02
     -3.225  0.2787E+01  0.1887E+02
     -3.208  0.2230E+01  0.1891E+02
     -3.191  0.2073E+01  0.1894E+02
     -3.175  0.3067E+01  0.1899E+02
     -3.158  0.3090E+01  0.1905E+02
     -3.141  0.2857E+01  0.1909E+02
     -3.125  0.2085E+01  0.1913E+02
     -3.108  0.2888E+01  0.1918E+02
     -3.091  0.3070E+01  0.1923E+02
     -3.075  0.3318E+01  0.1928E+02
     -3.058  0.3798E+01  0.1935E+02
     -3.041  0.3066E+01  0.1940E+02
     -3.025  0.3884E+01  0.1946E+02
     -3.008  0.3014E+01  0.1951E+02
     -2.991  0.2487E+01  0.1955E+02
     -2.975  0.2434E+01  0.1959E+02
     -2.958  0.2850E+01  0.1964E+02
     -2.941  0.3249E+01  0.1970E+02
     -2.925  0.3102E+01  0.1975E+02
     -2.908  0.3292E+01  0.1980E+02
     -2.891  0.3309E+01  0.1986E+02
     -2.875  0.2738E+01  0.1990E+02
     -2.858  0.2879E+01  0.1995E+02
     -2.841  0.2354E+01  0.1999E+02
     -2.825  0.2837E+01  0.2004E+02
     -2.808  0.1987E+01  0.2007E+02
     -2.791  0.1773E+01  0.2010E+02
     -2.775  0.1856E+01  0.2013E+02
     -2.758  0.1763E+01  0.2016E+02
     -2.741  0.2726E+01  0.2021E+02
     -2.725  0.2414E+01  0.2025E+02
     -2.708  0.2379E+01  0.2029E+02
     -2.691  0.2486E+01  0.2033E+02
     -2.675  0.2167E+01  0.2036E+02
     -2.658  0.2465E+01  0.2041E+02
     -2.641  0.2546E+01  0.2045E+02
     -2.625  0.2543E+01  0.2049E+02
     -2.608  0.2439E+01  0.2053E+02
     -2.591  0.2238E+01  0.2057E+02
     -2.575  0.2468E+01  0.2061E+02
     -2.558  0.2684E+01  0.2065E+02
     -2.541  0.2789E+01  0.2070E+02
     -2.525  0.3020E+01  0.2075E+02
     -2.508  0.3178E+01  0.2080E+02
     -2.491  0.3375E+01  0.2086E+02
     -2.475  0.3229E+01  0.2091E+02
     -2.458  0.3254E+01  0.2097E+02
     -2.441  0.3266E+01  0.2102E+02
     -2.424  0.3445E+01  0.2108E+02
     -2.408  0.3421E+01  0.2114E+02
     -2.391  0.2889E+01  0.2119E+02
     -2.374  0.3129E+01  0.2124E+02
     -2.358  0.3696E+01  0.2130E+02
     -2.341  0.3921E+01  0.2136E+02
     -2.324  0.3861E+01  0.2143E+02
     -2.308  0.3740E+01  0.2149E+02
     -2.291  0.3731E+01  0.2155E+02
     -2.274  0.3324E+01  0.2161E+02
     -2.258  0.3210E+01  0.2166E+02
     -2.241  0.3529E+01  0.2172E+02
     -2.224  0.3626E+01  0.2178E+02
     -2.208  0.3844E+01  0.2185E+02
     -2.191  0.5179E+01  0.2193E+02
     -2.174  0.4428E+01  0.2201E+02
     -2.158  0.3722E+01  0.2207E+02
     -2.141  0.2194E+01  0.2210E+02
     -2.124  0.2398E+01  0.2214E+02
     -2.108  0.2948E+01  0.2219E+02
     -2.091  0.2702E+01  0.2224E+02
     -2.074  0.4087E+01  0.2231E+02
     -2.058  0.3291E+01  0.2236E+02
     -2.041  0.2904E+01  0.2241E+02
     -2.024  0.3880E+01  0.2247E+02
     -2.008  0.4402E+01  0.2255E+02
     -1.991  0.4061E+01  0.2262E+02
     -1.974  0.3755E+01  0.2268E+02