   14   14    1    1
  0.1021318E+02  0.5700971E-09  0.4044058E-09  0.6201871E-09  0.5000000E-15
  1.000000000000000E-004
  CAR 
 Dielectric                              
     42    768    144
 
  0.3125000E-01  0.0000000E+00  0.0000000E+00  0.3623188E-03
      1        -12.697891   1.000000
      2        -11.521747   1.000000
      3         -8.660477   1.000000
      4         -8.367652   1.000000
      5         -6.051940   1.000000
      6         -5.125206   1.000000
      7         -4.694317   1.000000
      8         -4.344361   1.000000
      9         -3.930361   1.000000
     10         -3.510517   1.000000
     11         -2.396283   1.000000
     12         -2.214843   1.000000
     13         -2.109506   1.000000
     14         -1.086426   1.000000
     15         -0.015308   1.000000
     16          0.005320   1.000000
     17          0.044550   1.000000
     18          0.088323   1.000000
     19          0.665745   1.000000
     20          2.116759   0.000000
     21          2.150170   0.000000
     22          2.232281   0.000000
     23          5.510999   0.000000
     24          5.727707   0.000000
     25          5.730474   0.000000
     26          5.990658   0.000000
     27          6.721266   0.000000
     28          7.599222   0.000000
     29          7.812105   0.000000
     30          8.629963   0.000000
     31          8.862567   0.000000
     32          8.870833   0.000000
     33          9.052029   0.000000
     34         10.031625   0.000000
     35         11.194470   0.000000
     36         11.384373   0.000000
     37         11.511561   0.000000
     38         11.740772   0.000000
     39         11.967953   0.000000
     40         12.301102   0.000000
     41         12.939020   0.000000
     42         13.386446   0.000000
     43         13.510453   0.000000
     44         15.491114   0.000000
     45         15.536149   0.000000
     46         15.990052   0.000000
     47         16.317593   0.000000
     48         16.440283   0.000000
     49         16.686212   0.000000
     50         16.690003   0.000000
     51         16.961766   0.000000
     52         17.528110   0.000000
     53         17.854082   0.000000
     54         18.076565   0.000000
     55         18.270762   0.000000
     56         18.459707   0.000000
     57         18.710692   0.000000
     58         18.872161   0.000000
     59         19.609623   0.000000
     60         19.963458   0.000000
     61         19.966177   0.000000
     62         20.191912   0.000000
     63         20.517186   0.000000
     64         20.630760   0.000000
     65         21.184518   0.000000
     66         21.777806   0.000000
     67         22.355404   0.000000
     68         22.665628   0.000000
     69         22.922769   0.000000
     70         23.123678   0.000000
     71         23.456524   0.000000
     72         23.625373   0.000000
     73         23.782229   0.000000
     74         24.381239   0.000000
     75         25.396027   0.000000
     76         25.447286   0.000000
     77         25.514533   0.000000
     78         25.571938   0.000000
     79         25.685547   0.000000
     80         26.206114   0.000000
     81         26.242475   0.000000
     82         26.813201   0.000000
     83         27.148592   0.000000
     84         28.523163   0.000000
     85         29.280671   0.000000
     86         29.306768   0.000000
     87         29.474233   0.000000
     88         29.710949   0.000000
     89         30.231223   0.000000
     90         30.713240   0.000000
     91         30.807703   0.000000
     92         32.234687   0.000000
     93         32.296822   0.000000
     94         32.455280   0.000000
     95         32.584684   0.000000
     96         33.268286   0.000000
     97         33.597735   0.000000
     98         34.244609   0.000000
     99         34.392241   0.000000
    100         34.458607   0.000000
    101         34.565108   0.000000
    102         34.601553   0.000000
    103         35.788798   0.000000
    104         35.815602   0.000000
    105         35.817817   0.000000
    106         35.910489   0.000000
    107         36.191878   0.000000
    108         36.599131   0.000000
    109         38.058477   0.000000
    110         38.138355   0.000000
    111         38.244807   0.000000
    112         38.245102   0.000000
    113         38.552984   0.000000
    114         38.669006   0.000000
    115         38.829614   0.000000
    116         39.097237   0.000000
    117         39.478220   0.000000
    118         39.649638   0.000000
    119         39.716562   0.000000
    120         40.153649   0.000000
    121         40.231331   0.000000
    122         40.550521   0.000000
    123         40.830706   0.000000
    124         41.083382   0.000000
    125         41.279955   0.000000
    126         41.574792   0.000000
    127         41.820370   0.000000
    128         42.140784   0.000000
    129         42.420912   0.000000
    130         42.961913   0.000000
    131         43.216689   0.000000
    132         43.632963   0.000000
    133         44.018359   0.000000
    134         44.230260   0.000000
    135         44.314682   0.000000
    136         44.488341   0.000000
    137         44.740005   0.000000
    138         45.040680   0.000000
    139         45.066892   0.000000
    140         45.193433   0.000000
    141         45.236747   0.000000
    142         45.327697   0.000000
    143         46.269874   0.000000
    144         46.374788   0.000000
 
  0.9375000E-01  0.0000000E+00  0.0000000E+00  0.3623188E-03
      1        -12.680498   1.000000
      2        -11.552455   1.000000
      3         -8.650270   1.000000
      4         -8.362674   1.000000
      5         -6.018721   1.000000
      6         -5.307175   1.000000
      7         -4.763589   1.000000
      8         -4.121022   1.000000
      9         -3.906073   1.000000
     10         -3.361833   1.000000
     11         -2.389075   1.000000
     12         -2.219776   1.000000
     13         -2.167711   1.000000
     14         -1.212592   1.000000
     15         -0.044349   1.000000
     16          0.017892   1.000000
     17          0.062084   1.000000
     18          0.107897   1.000000
     19          0.624326   1.000000
     20          2.084375   0.000000
     21          2.109796   0.000000
     22          2.183689   0.000000
     23          5.544808   0.000000
     24          5.710749   0.000000
     25          5.759171   0.000000
     26          6.132960   0.000000
     27          6.687941   0.000000
     28          7.367115   0.000000
     29          7.977674   0.000000
     30          8.686874   0.000000
     31          8.964436   0.000000
     32          9.005232   0.000000
     33          9.062681   0.000000
     34         10.066358   0.000000
     35         11.218719   0.000000
     36         11.224178   0.000000
     37         11.474558   0.000000
     38         11.494353   0.000000
     39         12.058474   0.000000
     40         12.336308   0.000000
     41         13.067961   0.000000
     42         13.358096   0.000000
     43         13.664704   0.000000
     44         15.128311   0.000000
     45         15.630074   0.000000
     46         16.125476   0.000000
     47         16.202343   0.000000
     48         16.368138   0.000000
     49         16.642318   0.000000
     50         16.764842   0.000000
     51         17.034263   0.000000
     52         17.372509   0.000000
     53         17.872860   0.000000
     54         18.203026   0.000000
     55         18.256935   0.000000
     56         18.612041   0.000000
     57         18.756809   0.000000
     58         18.805084   0.000000
     59         19.495613   0.000000
     60         19.770047   0.000000
     61         19.983585   0.000000
     62         20.271977   0.000000
     63         20.304806   0.000000
     64         20.757029   0.000000
     65         21.050431   0.000000
     66         21.858003   0.000000
     67         22.159340   0.000000
     68         22.210273   0.000000
     69         23.050352   0.000000
     70         23.220601   0.000000
     71         23.480018   0.000000
     72         23.616865   0.000000
     73         24.158182   0.000000
     74         24.530728   0.000000
     75         25.123380   0.000000
     76         25.353885   0.000000
     77         25.556545   0.000000
     78         25.614719   0.000000
     79         26.115977   0.000000
     80         26.239499   0.000000
     81         26.461977   0.000000
     82         26.629802   0.000000
     83         27.141234   0.000000
     84         28.964458   0.000000
     85         29.233314   0.000000
     86         29.293496   0.000000
     87         29.340988   0.000000
     88         29.634588   0.000000
     89         30.407825   0.000000
     90         30.684180   0.000000
     91         30.850979   0.000000
     92         31.936014   0.000000
     93         32.273104   0.000000
     94         32.511698   0.000000
     95         32.537103   0.000000
     96         33.329461   0.000000
     97         33.522858   0.000000
     98         34.203519   0.000000
     99         34.445288   0.000000
    100         34.463571   0.000000
    101         34.518062   0.000000
    102         34.655846   0.000000
    103         35.609734   0.000000
    104         35.943674   0.000000
    105         36.025942   0.000000
    106         36.131104   0.000000
    107         36.220138   0.000000
    108         37.141380   0.000000
    109         37.432122   0.000000
    110         37.753741   0.000000
    111         38.004138   0.000000
    112         38.336714   0.000000
    113         38.357053   0.000000
    114         38.538648   0.000000
    115         38.647278   0.000000
    116         39.324060   0.000000
    117         39.341260   0.000000
    118         39.433049   0.000000
    119         39.899245   0.000000
    120         40.553364   0.000000
    121         40.608045   0.000000
    122         40.781730   0.000000
    123         40.786156   0.000000
    124         41.170362   0.000000
    125         41.303519   0.000000
    126         41.343868   0.000000
    127         41.557891   0.000000
    128         42.138774   0.000000
    129         42.541290   0.000000
    130         42.809658   0.000000
    131         42.877978   0.000000
    132         42.962073   0.000000
    133         43.749460   0.000000
    134         44.480949   0.000000
    135         44.628962   0.000000
    136         44.661830   0.000000
    137         44.701679   0.000000
    138         44.736008   0.000000
    139         44.955440   0.000000
    140         45.318052   0.000000
    141         45.346889   0.000000
    142         45.366828   0.000000
    143         45.650384   0.000000
    144         46.041509   0.000000
 
  0.1562500E+00  0.0000000E+00  0.0000000E+00  0.3623188E-03
      1        -12.645990   1.000000
      2        -11.611234   1.000000
      3         -8.629639   1.000000
      4         -8.354115   1.000000
      5         -5.973915   1.000000
      6         -5.530616   1.000000
      7         -4.831114   1.000000
      8         -3.857821   1.000000
      9         -3.816475   1.000000
     10         -3.118906   1.000000
     11         -2.374362   1.000000
     12         -2.275511   1.000000
     13         -2.229540   1.000000
     14         -1.445046   1.000000
     15         -0.140742   1.000000
     16          0.077400   1.000000
     17          0.096131   1.000000
     18          0.138554   1.000000
     19          0.545923   1.000000
     20          2.023455   0.000000
     21          2.034646   0.000000
     22          2.086663   0.000000
     23          5.602255   0.000000
     24          5.679005   0.000000
     25          5.864683   0.000000
     26          6.366432   0.000000
     27          6.628964   0.000000
     28          7.146648   0.000000
     29          8.100363   0.000000
     30          8.787937   0.000000
     31          9.046880   0.000000
     32          9.174129   0.000000
     33          9.228580   0.000000
     34         10.152178   0.000000
     35         10.916144   0.000000
     36         11.097003   0.000000
     37         11.284532   0.000000
     38         11.521956   0.000000
     39         12.215328   0.000000
     40         12.415443   0.000000
     41         13.092224   0.000000
     42         13.192650   0.000000
     43         14.072173   0.000000
     44         14.811277   0.000000
     45         15.765807   0.000000
     46         15.786861   0.000000
     47         16.279919   0.000000
     48         16.460136   0.000000
     49         16.570723   0.000000
     50         16.668599   0.000000
     51         17.132757   0.000000
     52         17.166210   0.000000
     53         17.903991   0.000000
     54         18.226319   0.000000
     55         18.341243   0.000000
     56         18.682428   0.000000
     57         18.831962   0.000000
     58         18.882673   0.000000
     59         19.372612   0.000000
     60         19.489768   0.000000
     61         19.982894   0.000000
     62         20.020956   0.000000
     63         20.454149   0.000000
     64         20.890176   0.000000
     65         20.917608   0.000000
     66         21.679148   0.000000
     67         21.700463   0.000000
     68         21.941096   0.000000
     69         23.193520   0.000000
     70         23.419486   0.000000
     71         23.605086   0.000000
     72         23.695966   0.000000
     73         24.493357   0.000000
     74         24.692971   0.000000
     75         24.702946   0.000000
     76         25.362544   0.000000
     77         25.601942   0.000000
     78         25.962976   0.000000
     79         26.026812   0.000000
     80         26.325635   0.000000
     81         26.582104   0.000000
     82         26.771995   0.000000
     83         27.610851   0.000000
     84         29.062246   0.000000
     85         29.175455   0.000000
     86         29.324740   0.000000
     87         29.434436   0.000000
     88         29.581789   0.000000
     89         30.409335   0.000000
     90         30.771990   0.000000
     91         30.997781   0.000000
     92         31.560020   0.000000
     93         32.207679   0.000000
     94         32.488617   0.000000
     95         32.555303   0.000000
     96         33.406053   0.000000
     97         33.456854   0.000000
     98         34.134776   0.000000
     99         34.343834   0.000000
    100         34.482086   0.000000
    101         34.577333   0.000000
    102         34.788829   0.000000
    103         35.474497   0.000000
    104         36.183860   0.000000
    105         36.224042   0.000000
    106         36.442777   0.000000
    107         36.535608   0.000000
    108         36.600706   0.000000
    109         37.290961   0.000000
    110         37.709117   0.000000
    111         37.721732   0.000000
    112         37.982712   0.000000
    113         38.263386   0.000000
    114         38.420983   0.000000
    115         38.587034   0.000000
    116         39.215853   0.000000
    117         39.319495   0.000000
    118         39.539348   0.000000
    119         40.158985   0.000000
    120         40.401104   0.000000
    121         40.583889   0.000000
    122         40.834349   0.000000
    123         41.162780   0.000000
    124         41.174003   0.000000
    125         41.306162   0.000000
    126         41.317154   0.000000
    127         41.335336   0.000000
    128         42.098704   0.000000
    129         42.126754   0.000000
    130         42.775862   0.000000
    131         42.793069   0.000000
    132         42.987718   0.000000
    133         43.397096   0.000000
    134         43.684651   0.000000
    135         44.206643   0.000000
    136         44.479283   0.000000
    137         44.605428   0.000000
    138         44.815884   0.000000
    139         45.246612   0.000000
    140         45.330723   0.000000
    141         45.520896   0.000000
    142         45.681537   0.000000
    143         45.811305   0.000000
    144         45.995449   0.000000
 
  0.2187500E+00  0.0000000E+00  0.0000000E+00  0.3623188E-03
      1        -12.594925   1.000000
      2        -11.693365   1.000000
      3         -8.598695   1.000000
      4         -8.344734   1.000000
      5         -5.955308   1.000000
      6         -5.740666   1.000000
      7         -4.822019   1.000000
      8         -3.786141   1.000000
      9         -3.490303   1.000000
     10         -2.828430   1.000000
     11         -2.419749   1.000000
     12         -2.351540   1.000000
     13         -2.243742   1.000000
     14         -1.752650   1.000000
     15         -0.277953   1.000000
     16          0.141450   1.000000
     17          0.144503   1.000000
     18          0.152695   1.000000
     19          0.467631   1.000000
     20          1.935416   0.157033
     21          1.941106   0.035040
     22          1.943774   0.014310
     23          5.647580   0.000000
     24          5.667060   0.000000
     25          6.057859   0.000000
     26          6.557752   0.000000
     27          6.661969   0.000000
     28          6.956188   0.000000
     29          8.196882   0.000000
     30          8.899098   0.000000
     31          9.000619   0.000000
     32          9.448043   0.000000
     33          9.492546   0.000000
     34         10.323097   0.000000
     35         10.515800   0.000000
     36         10.719052   0.000000
     37         11.368627   0.000000
     38         11.636676   0.000000
     39         12.334595   0.000000
     40         12.615219   0.000000
     41         12.755538   0.000000
     42         13.115954   0.000000
     43         14.523278   0.000000
     44         14.717659   0.000000
     45         15.388929   0.000000
     46         15.975851   0.000000
     47         16.122464   0.000000
     48         16.391982   0.000000
     49         16.581339   0.000000
     50         16.583588   0.000000
     51         16.855784   0.000000
     52         17.330244   0.000000
     53         17.940727   0.000000
     54         18.171851   0.000000
     55         18.492043   0.000000
     56         18.532458   0.000000
     57         18.909588   0.000000
     58         19.037930   0.000000
     59         19.258160   0.000000
     60         19.328698   0.000000
     61         19.751366   0.000000
     62         19.969482   0.000000
     63         20.728356   0.000000
     64         20.852041   0.000000
     65         20.996823   0.000000
     66         21.141002   0.000000
     67         21.164359   0.000000
     68         22.006512   0.000000
     69         23.401159   0.000000
     70         23.520784   0.000000
     71         23.586001   0.000000
     72         23.931350   0.000000
     73         24.517752   0.000000
     74         24.644664   0.000000
     75         24.717947   0.000000
     76         25.370499   0.000000
     77         25.663954   0.000000
     78         25.760148   0.000000
     79         26.383358   0.000000
     80         26.405237   0.000000
     81         26.661602   0.000000
     82         27.437489   0.000000
     83         27.994446   0.000000
     84         28.906312   0.000000
     85         29.202211   0.000000
     86         29.532074   0.000000
     87         29.610288   0.000000
     88         29.668942   0.000000
     89         30.013117   0.000000
     90         31.045383   0.000000
     91         31.047900   0.000000
     92         31.226171   0.000000
     93         32.305371   0.000000
     94         32.463010   0.000000
     95         32.609756   0.000000
     96         33.260985   0.000000
     97         33.657715   0.000000
     98         34.020278   0.000000
     99         34.274594   0.000000
    100         34.365204   0.000000
    101         34.715177   0.000000
    102         34.920119   0.000000
    103         35.494432   0.000000
    104         35.605963   0.000000
    105         36.501654   0.000000
    106         36.613568   0.000000
    107         36.688210   0.000000
    108         36.778572   0.000000
    109         37.078610   0.000000
    110         37.459355   0.000000
    111         37.500309   0.000000
    112         37.902761   0.000000
    113         38.074329   0.000000
    114         38.364451   0.000000
    115         38.777261   0.000000
    116         39.072863   0.000000
    117         39.348413   0.000000
    118         39.496722   0.000000
    119         40.051361   0.000000
    120         40.318269   0.000000
    121         40.419161   0.000000
    122         40.640116   0.000000
    123         40.949546   0.000000
    124         41.112442   0.000000
    125         41.267691   0.000000
    126         41.310399   0.000000
    127         41.737974   0.000000
    128         42.031547   0.000000
    129         42.085056   0.000000
    130         42.675170   0.000000
    131         42.789394   0.000000
    132         42.829944   0.000000
    133         43.159531   0.000000
    134         43.262782   0.000000
    135         43.705201   0.000000
    136         44.253467   0.000000
    137         44.606955   0.000000
    138         44.869731   0.000000
    139         45.199798   0.000000
    140         45.284744   0.000000
    141         45.604797   0.000000
    142         45.609939   0.000000
    143         45.803839   0.000000
    144         46.484207   0.000000
 
  0.2812500E+00  0.0000000E+00  0.0000000E+00  0.3623188E-03
      1        -12.528185   1.000000
      2        -11.792971   1.000000
      3         -8.558580   1.000000
      4         -8.338433   1.000000
      5         -5.986859   1.000000
      6         -5.918433   1.000000
      7         -4.696902   1.000000
      8         -3.691920   1.000000
      9         -3.176073   1.000000
     10         -2.586986   1.000000
     11         -2.521899   1.000000
     12         -2.325232   1.000000
     13         -2.260335   1.000000
     14         -2.091231   1.000000
     15         -0.446293   1.000000
     16          0.030447   1.000000
     17          0.203421   1.000000
     18          0.232371   1.000000
     19          0.480525   1.000000
     20          1.762198   1.000000
     21          1.826490   1.000000
     22          1.846949   1.000000
     23          5.628388   0.000000
     24          5.721657   0.000000
     25          6.334629   0.000000
     26          6.491052   0.000000
     27          6.800479   0.000000
     28          7.003633   0.000000
     29          8.276947   0.000000
     30          8.907188   0.000000
     31          8.940396   0.000000
     32          9.764585   0.000000
     33          9.774624   0.000000
     34         10.059031   0.000000
     35         10.440609   0.000000
     36         10.609574   0.000000
     37         11.446529   0.000000
     38         11.838930   0.000000
     39         12.378451   0.000000
     40         12.394214   0.000000
     41         12.799514   0.000000
     42         12.925481   0.000000
     43         14.833630   0.000000
     44         14.982617   0.000000
     45         15.019411   0.000000
     46         15.813254   0.000000
     47         15.877082   0.000000
     48         16.175608   0.000000
     49         16.676071   0.000000
     50         16.719091   0.000000
     51         16.741882   0.000000
     52         17.469628   0.000000
     53         17.979475   0.000000
     54         18.099675   0.000000
     55         18.402778   0.000000
     56         18.643498   0.000000
     57         18.708994   0.000000
     58         18.965975   0.000000
     59         19.089117   0.000000
     60         19.424376   0.000000
     61         19.707775   0.000000
     62         19.965462   0.000000
     63         20.589195   0.000000
     64         20.691011   0.000000
     65         20.815490   0.000000
     66         21.058958   0.000000
     67         21.115409   0.000000
     68         22.084756   0.000000
     69         23.316756   0.000000
     70         23.520971   0.000000
     71         23.793016   0.000000
     72         23.957862   0.000000
     73         24.434364   0.000000
     74         24.760262   0.000000
     75         24.877548   0.000000
     76         25.060957   0.000000
     77         25.744101   0.000000
     78         26.090267   0.000000
     79         26.436305   0.000000
     80         26.673744   0.000000
     81         26.742928   0.000000
     82         27.909586   0.000000
     83         28.225789   0.000000
     84         28.961626   0.000000
     85         29.411280   0.000000
     86         29.496008   0.000000
     87         29.718639   0.000000
     88         29.821147   0.000000
     89         30.103308   0.000000
     90         30.919680   0.000000
     91         30.933277   0.000000
     92         30.983629   0.000000
     93         32.434459   0.000000
     94         32.695748   0.000000
     95         32.794878   0.000000
     96         33.069384   0.000000
     97         33.832313   0.000000
     98         33.945117   0.000000
     99         33.952905   0.000000
    100         34.500855   0.000000
    101         34.702985   0.000000
    102         34.989650   0.000000
    103         35.093726   0.000000
    104         35.591797   0.000000
    105         36.282799   0.000000
    106         36.790110   0.000000
    107         36.892922   0.000000
    108         36.956464   0.000000
    109         37.021084   0.000000
    110         37.305415   0.000000
    111         37.519796   0.000000
    112         37.529639   0.000000
    113         37.607770   0.000000
    114         38.623525   0.000000
    115         38.858569   0.000000
    116         39.058694   0.000000
    117         39.524491   0.000000
    118         39.525670   0.000000
    119         39.948004   0.000000
    120         39.952819   0.000000
    121         40.155469   0.000000
    122         40.228118   0.000000
    123         40.530612   0.000000
    124         41.008125   0.000000
    125         41.397277   0.000000
    126         41.533804   0.000000
    127         41.677549   0.000000
    128         41.981227   0.000000
    129         42.193574   0.000000
    130         42.338130   0.000000
    131         42.605277   0.000000
    132         42.887217   0.000000
    133         43.128694   0.000000
    134         43.439105   0.000000
    135         43.625035   0.000000
    136         43.842671   0.000000
    137         44.555134   0.000000
    138         44.942416   0.000000
    139         45.123416   0.000000
    140         45.169456   0.000000
    141         45.274650   0.000000
    142         45.898026   0.000000
    143         46.090060   0.000000
    144         46.233844   0.000000
 
  0.3437500E+00  0.0000000E+00  0.0000000E+00  0.3623188E-03
      1        -12.447014   1.000000
      2        -11.903813   1.000000
      3         -8.511893   1.000000
      4         -8.339689   1.000000
      5         -6.053934   1.000000
      6         -6.052947   1.000000
      7         -4.466499   1.000000
      8         -3.576459   1.000000
      9         -2.948853   1.000000
     10         -2.765685   1.000000
     11         -2.459129   1.000000
     12         -2.309312   1.000000
     13         -2.214748   1.000000
     14         -2.196881   1.000000
     15         -0.627438   1.000000
     16         -0.181192   1.000000
     17          0.266786   1.000000
     18          0.304736   1.000000
     19          0.583178   1.000000
     20          1.554018   1.000000
     21          1.724540   1.000000
     22          1.752617   1.000000
     23          5.628364   0.000000
     24          5.751132   0.000000
     25          6.445984   0.000000
     26          6.676772   0.000000
     27          6.683809   0.000000
     28          7.380660   0.000000
     29          8.345983   0.000000
     30          8.789901   0.000000
     31          8.791748   0.000000
     32          9.584655   0.000000
     33         10.069968   0.000000
     34         10.081003   0.000000
     35         10.378721   0.000000
     36         11.013955   0.000000
     37         11.469291   0.000000
     38         11.981743   0.000000
     39         12.107381   0.000000
     40         12.380773   0.000000
     41         12.446652   0.000000
     42         13.233170   0.000000
     43         14.699029   0.000000
     44         14.957056   0.000000
     45         15.290904   0.000000
     46         15.430604   0.000000
     47         15.446522   0.000000
     48         16.361983   0.000000
     49         16.776946   0.000000
     50         16.857850   0.000000
     51         16.858364   0.000000
     52         17.464937   0.000000
     53         18.019161   0.000000
     54         18.101655   0.000000
     55         18.310650   0.000000
     56         18.327688   0.000000
     57         18.759677   0.000000
     58         18.835346   0.000000
     59         18.985023   0.000000
     60         19.270021   0.000000
     61         19.946435   0.000000
     62         19.991772   0.000000
     63         20.101494   0.000000
     64         20.274557   0.000000
     65         20.860726   0.000000
     66         21.076989   0.000000
     67         21.519192   0.000000
     68         22.202918   0.000000
     69         23.175515   0.000000
     70         23.357521   0.000000
     71         23.603875   0.000000
     72         24.137381   0.000000
     73         24.432131   0.000000
     74         24.972860   0.000000
     75         25.004344   0.000000