 running   24 mpi-ranks, with    1 threads/rank, on    1 nodes
 distrk:  each k-point on   24 cores,    1 groups
 distr:  one band on    1 cores,   24 groups
 vasp.6.4.3 19Mar24 (build May 31 2024 16:31:43) complex                        
  
 POSCAR found type information on POSCAR B 
 POSCAR found :  1 types and      14 ions
 Reading from existing POTCAR
 scaLAPACK will be used
 Reading from existing POTCAR
 LDA part: xc-table for (Slater+PW92), standard interpolation
 -----------------------------------------------------------------------------
|                                                                             |
|           W    W    AA    RRRRR   N    N  II  N    N   GGGG   !!!           |
|           W    W   A  A   R    R  NN   N  II  NN   N  G    G  !!!           |
|           W    W  A    A  R    R  N N  N  II  N N  N  G       !!!           |
|           W WW W  AAAAAA  RRRRR   N  N N  II  N  N N  G  GGG   !            |
|           WW  WW  A    A  R   R   N   NN  II  N   NN  G    G                |
|           W    W  A    A  R    R  N    N  II  N    N   GGGG   !!!           |
|                                                                             |
|     The number of bands has been changed from the values supplied in        |
|     the INCAR file. This is a result of running the parallel version.       |
|     The orbitals not found in the WAVECAR file will be initialized with     |
|     random numbers, which is usually adequate. For correlated               |
|     calculations, however, you should redo the groundstate calculation.     |
|     I found NBANDS = 128. Now, NBANDS = 144.                                |
|                                                                             |
 -----------------------------------------------------------------------------

 found WAVECAR, reading the header
  number of bands has changed, file:    48 present:   144
  trying to continue reading WAVECAR, but it might fail
 POSCAR, INCAR and KPOINTS ok, starting setup
 FFT: planning ... GRIDC
 FFT: planning ... GRID_SOFT
 FFT: planning ... GRID
 reading WAVECAR
 random initialization beyond band           48
 the WAVECAR file was read successfully
 entering main loop
       N       E                     dE             d eps       ncg     rms          rms(c)
DAV:   1    -0.971870385159E+02   -0.97187E+02   -0.39886E+00221184   0.397E+00    0.119E+01
DAV:   2    -0.923842336238E+02    0.48028E+01   -0.27147E+00266880   0.389E+00    0.692E+00
DAV:   3    -0.906007628548E+02    0.17835E+01   -0.12363E+00272496   0.253E+00    0.154E+00
DAV:   4    -0.906112636500E+02   -0.10501E-01   -0.19751E-01255240   0.684E-01    0.908E-01
DAV:   5    -0.906271365830E+02   -0.15873E-01   -0.93559E-03267456   0.175E-01    0.205E-01
DAV:   6    -0.906313867150E+02   -0.42501E-02   -0.15891E-03262128   0.716E-02    0.915E-02
DAV:   7    -0.906328764596E+02   -0.14897E-02   -0.43934E-04259080   0.386E-02    0.352E-02
DAV:   8    -0.906329254602E+02   -0.49001E-04   -0.34678E-05267648   0.129E-02    0.682E-03
DAV:   9    -0.906329344986E+02   -0.90385E-05   -0.40923E-06258912   0.372E-03    0.278E-03
DAV:  10    -0.906329347717E+02   -0.27312E-06   -0.16175E-07267240   0.813E-04
   1 F= -.90632935E+02 E0= -.90632852E+02  d E =-.166527E-03
 writing wavefunctions
 optical routines
 imaginary and real dielectric function
 recalculating local potential from charge density
 direction            1
 direction            2
 direction            3
