       N       E                     dE             d eps       ncg     rms          rms(c)
DAV:   1     0.152064258399E+03    0.15206E+03   -0.26869E+04120960   0.131E+03
DAV:   2    -0.881356480689E+02   -0.24020E+03   -0.22209E+03160416   0.210E+02
DAV:   3    -0.975899695174E+02   -0.94543E+01   -0.93642E+01180888   0.367E+01
DAV:   4    -0.976493132186E+02   -0.59344E-01   -0.59340E-01133728   0.333E+00
DAV:   5    -0.976499116782E+02   -0.59846E-03   -0.59844E-03181104   0.318E-01    0.123E+01
DAV:   6    -0.922354008646E+02    0.54145E+01   -0.39473E+00175008   0.658E+00    0.679E+00
DAV:   7    -0.905843959709E+02    0.16510E+01   -0.32093E+00180480   0.586E+00    0.172E+00
DAV:   8    -0.905954890214E+02   -0.11093E-01   -0.22985E-01132648   0.166E+00    0.751E-01
DAV:   9    -0.906101611687E+02   -0.14672E-01   -0.17583E-02170328   0.460E-01    0.206E-01
DAV:  10    -0.906145382845E+02   -0.43771E-02   -0.26252E-03133728   0.182E-01    0.665E-02
DAV:  11    -0.906157207657E+02   -0.11825E-02   -0.69215E-04159216   0.938E-02    0.337E-02
DAV:  12    -0.906158207245E+02   -0.99959E-04   -0.69591E-05150432   0.341E-02    0.655E-03
DAV:  13    -0.906158305082E+02   -0.97837E-05   -0.76807E-06166416   0.117E-02    0.205E-03
DAV:  14    -0.906158316018E+02   -0.10936E-05   -0.67500E-07152904   0.389E-03    0.713E-04
DAV:  15    -0.906158317985E+02   -0.19675E-06   -0.13075E-07145488   0.174E-03
   1 F= -.90615832E+02 E0= -.90614005E+02  d E =-.365334E-02
