 running   24 mpi-ranks, with    1 threads/rank, on    1 nodes
 distrk:  each k-point on   24 cores,    1 groups
 distr:  one band on    1 cores,   24 groups
 vasp.6.4.3 19Mar24 (build May 31 2024 16:31:43) complex                        
  
 POSCAR found type information on POSCAR B 
 POSCAR found :  1 types and      14 ions
 Reading from existing POTCAR
 scaLAPACK will be used
 Reading from existing POTCAR
 LDA part: xc-table for (Slater+PW92), standard interpolation
 POSCAR, INCAR and KPOINTS ok, starting setup
 FFT: planning ... GRIDC
 FFT: planning ... GRID_SOFT
 FFT: planning ... GRID
 WAVECAR not read
 entering main loop
       N       E                     dE             d eps       ncg     rms          rms(c)
DAV:   1     0.152064258399E+03    0.15206E+03   -0.26869E+04120960   0.131E+03
DAV:   2    -0.881356480689E+02   -0.24020E+03   -0.22209E+03160416   0.210E+02
DAV:   3    -0.975899695174E+02   -0.94543E+01   -0.93642E+01180888   0.367E+01
DAV:   4    -0.976493132186E+02   -0.59344E-01   -0.59340E-01133728   0.333E+00
