   1   1   0   0
  0.3375000E+04  0.1500000E-08  0.1250000E-08  0.1800000E-08  0.5000000E-15
  1.000000000000000E-004
  CAR 
 Convergence                             
      2.42494679     -9.97346362  301     -3.60676275      1.00000000
     -9.973  0.0000E+00  0.0000E+00
     -9.932  0.0000E+00  0.0000E+00
     -9.891  0.0000E+00  0.0000E+00
     -9.849  0.0000E+00  0.0000E+00
     -9.808  0.0000E+00  0.0000E+00
     -9.767  0.0000E+00  0.0000E+00
     -9.725  0.0000E+00  0.0000E+00
     -9.684  0.2095E-12  0.8660E-14
     -9.643  0.1074E-08  0.4441E-10
     -9.602  0.1444E-05  0.5973E-07
     -9.560  0.5142E-03  0.2131E-04
     -9.519  0.4928E-01  0.2058E-02
     -9.478  0.1300E+01  0.5577E-01
     -9.436  0.9707E+01  0.4569E+00
     -9.395  0.2111E+02  0.1329E+01
     -9.354  0.1355E+02  0.1889E+01
     -9.312  0.2546E+01  0.1994E+01
     -9.271  0.1366E+00  0.2000E+01
     -9.230  0.2031E-02  0.2000E+01
     -9.188  0.8176E-05  0.2000E+01
     -9.147  0.8750E-08  0.2000E+01
     -9.106  0.2461E-11  0.2000E+01
     -9.064  0.0000E+00  0.2000E+01
     -9.023  0.0000E+00  0.2000E+01
     -8.982  0.0000E+00  0.2000E+01
     -8.940  0.0000E+00  0.2000E+01
     -8.899  0.0000E+00  0.2000E+01
     -8.858  0.0000E+00  0.2000E+01
     -8.816  0.0000E+00  0.2000E+01
     -8.775  0.0000E+00  0.2000E+01
     -8.734  0.0000E+00  0.2000E+01
     -8.692  0.0000E+00  0.2000E+01
     -8.651  0.0000E+00  0.2000E+01
     -8.610  0.0000E+00  0.2000E+01
     -8.568  0.0000E+00  0.2000E+01
     -8.527  0.0000E+00  0.2000E+01
     -8.486  0.0000E+00  0.2000E+01
     -8.444  0.0000E+00  0.2000E+01
     -8.403  0.0000E+00  0.2000E+01
     -8.362  0.0000E+00  0.2000E+01
     -8.320  0.0000E+00  0.2000E+01
     -8.279  0.0000E+00  0.2000E+01
     -8.238  0.0000E+00  0.2000E+01
     -8.196  0.0000E+00  0.2000E+01
     -8.155  0.0000E+00  0.2000E+01
     -8.114  0.0000E+00  0.2000E+01
     -8.072  0.0000E+00  0.2000E+01
     -8.031  0.0000E+00  0.2000E+01
     -7.990  0.0000E+00  0.2000E+01
     -7.948  0.0000E+00  0.2000E+01
     -7.907  0.0000E+00  0.2000E+01
     -7.866  0.0000E+00  0.2000E+01
     -7.824  0.0000E+00  0.2000E+01
     -7.783  0.0000E+00  0.2000E+01
     -7.742  0.0000E+00  0.2000E+01
     -7.700  0.0000E+00  0.2000E+01
     -7.659  0.0000E+00  0.2000E+01
     -7.618  0.0000E+00  0.2000E+01
     -7.576  0.0000E+00  0.2000E+01
     -7.535  0.0000E+00  0.2000E+01
     -7.494  0.0000E+00  0.2000E+01
     -7.452  0.0000E+00  0.2000E+01
     -7.411  0.0000E+00  0.2000E+01
     -7.370  0.0000E+00  0.2000E+01
     -7.328  0.0000E+00  0.2000E+01
     -7.287  0.0000E+00  0.2000E+01
     -7.246  0.0000E+00  0.2000E+01
     -7.204  0.0000E+00  0.2000E+01
     -7.163  0.0000E+00  0.2000E+01
     -7.122  0.0000E+00  0.2000E+01
     -7.081  0.0000E+00  0.2000E+01
     -7.039  0.0000E+00  0.2000E+01
     -6.998  0.0000E+00  0.2000E+01
     -6.957  0.0000E+00  0.2000E+01
     -6.915  0.0000E+00  0.2000E+01
     -6.874  0.0000E+00  0.2000E+01
     -6.833  0.0000E+00  0.2000E+01
     -6.791  0.0000E+00  0.2000E+01
     -6.750  0.0000E+00  0.2000E+01
     -6.709  0.0000E+00  0.2000E+01
     -6.667  0.0000E+00  0.2000E+01
     -6.626  0.0000E+00  0.2000E+01
     -6.585  0.0000E+00  0.2000E+01
     -6.543  0.0000E+00  0.2000E+01
     -6.502  0.0000E+00  0.2000E+01
     -6.461  0.0000E+00  0.2000E+01
     -6.419  0.0000E+00  0.2000E+01
     -6.378  0.0000E+00  0.2000E+01
     -6.337  0.0000E+00  0.2000E+01
     -6.295  0.0000E+00  0.2000E+01
     -6.254  0.0000E+00  0.2000E+01
     -6.213  0.0000E+00  0.2000E+01
     -6.171  0.0000E+00  0.2000E+01
     -6.130  0.0000E+00  0.2000E+01
     -6.089  0.0000E+00  0.2000E+01
     -6.047  0.0000E+00  0.2000E+01
     -6.006  0.0000E+00  0.2000E+01
     -5.965  0.0000E+00  0.2000E+01
     -5.923  0.0000E+00  0.2000E+01
     -5.882  0.0000E+00  0.2000E+01
     -5.841  0.0000E+00  0.2000E+01
     -5.799  0.0000E+00  0.2000E+01
     -5.758  0.0000E+00  0.2000E+01
     -5.717  0.0000E+00  0.2000E+01
     -5.675  0.0000E+00  0.2000E+01
     -5.634  0.0000E+00  0.2000E+01
     -5.593  0.0000E+00  0.2000E+01
     -5.551  0.0000E+00  0.2000E+01
     -5.510  0.0000E+00  0.2000E+01
     -5.469  0.0000E+00  0.2000E+01
     -5.427  0.0000E+00  0.2000E+01
     -5.386  0.0000E+00  0.2000E+01
     -5.345  0.0000E+00  0.2000E+01
     -5.303  0.0000E+00  0.2000E+01
     -5.262  0.0000E+00  0.2000E+01
     -5.221  0.0000E+00  0.2000E+01
     -5.179  0.0000E+00  0.2000E+01
     -5.138  0.0000E+00  0.2000E+01
     -5.097  0.0000E+00  0.2000E+01
     -5.055  0.0000E+00  0.2000E+01
     -5.014  0.0000E+00  0.2000E+01
     -4.973  0.0000E+00  0.2000E+01
     -4.931  0.0000E+00  0.2000E+01
     -4.890  0.0000E+00  0.2000E+01
     -4.849  0.0000E+00  0.2000E+01
     -4.807  0.0000E+00  0.2000E+01
     -4.766  0.0000E+00  0.2000E+01
     -4.725  0.0000E+00  0.2000E+01
     -4.683  0.0000E+00  0.2000E+01
     -4.642  0.0000E+00  0.2000E+01
     -4.601  0.0000E+00  0.2000E+01
     -4.559  0.0000E+00  0.2000E+01
     -4.518  0.0000E+00  0.2000E+01
     -4.477  0.0000E+00  0.2000E+01
     -4.436  0.0000E+00  0.2000E+01
     -4.394  0.0000E+00  0.2000E+01
     -4.353  0.0000E+00  0.2000E+01
     -4.312  0.0000E+00  0.2000E+01
     -4.270  0.0000E+00  0.2000E+01
     -4.229  0.0000E+00  0.2000E+01
     -4.188  0.0000E+00  0.2000E+01
     -4.146  0.0000E+00  0.2000E+01
     -4.105  0.0000E+00  0.2000E+01
     -4.064  0.0000E+00  0.2000E+01
     -4.022  0.0000E+00  0.2000E+01
     -3.981  0.0000E+00  0.2000E+01
     -3.940  0.0000E+00  0.2000E+01
     -3.898  0.0000E+00  0.2000E+01
     -3.857  0.6447E-13  0.2000E+01
     -3.816  0.4536E-09  0.2000E+01
     -3.774  0.8445E-06  0.2000E+01
     -3.733  0.4154E-03  0.2000E+01
     -3.692  0.5474E-01  0.2002E+01
     -3.650  0.1973E+01  0.2084E+01
     -3.609  0.2000E+02  0.2910E+01
     -3.568  0.5863E+02  0.5333E+01
     -3.526  0.5068E+02  0.7428E+01
     -3.485  0.1288E+02  0.7960E+01
     -3.444  0.9408E+00  0.7999E+01
     -3.402  0.1919E-01  0.8000E+01
     -3.361  0.1064E-03  0.8000E+01
     -3.320  0.1576E-06  0.8000E+01
     -3.278  0.6148E-10  0.8000E+01
     -3.237  0.0000E+00  0.8000E+01
     -3.196  0.0000E+00  0.8000E+01
     -3.154  0.0000E+00  0.8000E+01
     -3.113  0.0000E+00  0.8000E+01
     -3.072  0.0000E+00  0.8000E+01
     -3.030  0.0000E+00  0.8000E+01
     -2.989  0.0000E+00  0.8000E+01
     -2.948  0.0000E+00  0.8000E+01
     -2.906  0.0000E+00  0.8000E+01
     -2.865  0.0000E+00  0.8000E+01
     -2.824  0.0000E+00  0.8000E+01
     -2.782  0.0000E+00  0.8000E+01
     -2.741  0.0000E+00  0.8000E+01
     -2.700  0.0000E+00  0.8000E+01
     -2.658  0.0000E+00  0.8000E+01
     -2.617  0.0000E+00  0.8000E+01
     -2.576  0.0000E+00  0.8000E+01
     -2.534  0.0000E+00  0.8000E+01
     -2.493  0.0000E+00  0.8000E+01
     -2.452  0.0000E+00  0.8000E+01
     -2.410  0.0000E+00  0.8000E+01
     -2.369  0.0000E+00  0.8000E+01
     -2.328  0.0000E+00  0.8000E+01
     -2.286  0.0000E+00  0.8000E+01
     -2.245  0.0000E+00  0.8000E+01
     -2.204  0.0000E+00  0.8000E+01
     -2.162  0.0000E+00  0.8000E+01
     -2.121  0.0000E+00  0.8000E+01
     -2.080  0.0000E+00  0.8000E+01
     -2.038  0.0000E+00  0.8000E+01
     -1.997  0.0000E+00  0.8000E+01
     -1.956  0.0000E+00  0.8000E+01
     -1.914  0.0000E+00  0.8000E+01
     -1.873  0.0000E+00  0.8000E+01
     -1.832  0.0000E+00  0.8000E+01
     -1.791  0.0000E+00  0.8000E+01
     -1.749  0.0000E+00  0.8000E+01
     -1.708  0.0000E+00  0.8000E+01
     -1.667  0.0000E+00  0.8000E+01
     -1.625  0.0000E+00  0.8000E+01
     -1.584  0.0000E+00  0.8000E+01
     -1.543  0.0000E+00  0.8000E+01
     -1.501  0.0000E+00  0.8000E+01
     -1.460  0.0000E+00  0.8000E+01
     -1.419  0.0000E+00  0.8000E+01
     -1.377  0.0000E+00  0.8000E+01
     -1.336  0.0000E+00  0.8000E+01
     -1.295  0.0000E+00  0.8000E+01
     -1.253  0.0000E+00  0.8000E+01
     -1.212  0.0000E+00  0.8000E+01
     -1.171  0.0000E+00  0.8000E+01
     -1.129  0.0000E+00  0.8000E+01
     -1.088  0.0000E+00  0.8000E+01
     -1.047  0.0000E+00  0.8000E+01
     -1.005  0.0000E+00  0.8000E+01
     -0.964  0.0000E+00  0.8000E+01
     -0.923  0.0000E+00  0.8000E+01
     -0.881  0.0000E+00  0.8000E+01
     -0.840  0.0000E+00  0.8000E+01
     -0.799  0.0000E+00  0.8000E+01
     -0.757  0.0000E+00  0.8000E+01
     -0.716  0.0000E+00  0.8000E+01
     -0.675  0.0000E+00  0.8000E+01
     -0.633  0.0000E+00  0.8000E+01
     -0.592  0.0000E+00  0.8000E+01
     -0.551  0.7462E-16  0.8000E+01
     -0.509  0.5177E-12  0.8000E+01
     -0.468  0.1429E-08  0.8000E+01
     -0.427  0.1069E-05  0.8000E+01
     -0.385  0.2244E-03  0.8000E+01
     -0.344  0.1398E-01  0.8001E+01
     -0.303  0.2812E+00  0.8012E+01
     -0.261  0.2052E+01  0.8097E+01
     -0.220  0.6350E+01  0.8359E+01
     -0.179  0.1021E+02  0.8781E+01
     -0.137  0.1075E+02  0.9226E+01
     -0.096  0.9205E+01  0.9606E+01
     -0.055  0.6311E+01  0.9867E+01
     -0.013  0.2664E+01  0.9977E+01
      0.028  0.7178E+00  0.1001E+02
      0.069  0.1348E+01  0.1006E+02
      0.111  0.4356E+01  0.1024E+02
      0.152  0.8919E+01  0.1061E+02
      0.193  0.1287E+02  0.1114E+02
      0.235  0.1500E+02  0.1176E+02
      0.276  0.1617E+02  0.1243E+02
      0.317  0.1610E+02  0.1310E+02
      0.359  0.1572E+02  0.1375E+02
      0.400  0.1586E+02  0.1440E+02
      0.441  0.1741E+02  0.1512E+02
      0.483  0.1870E+02  0.1589E+02
      0.524  0.1909E+02  0.1668E+02
      0.565  0.1837E+02  0.1744E+02
      0.607  0.1805E+02  0.1819E+02
      0.648  0.1969E+02  0.1900E+02
      0.689  0.2255E+02  0.1993E+02
      0.730  0.2343E+02  0.2090E+02
      0.772  0.2179E+02  0.2180E+02
      0.813  0.2051E+02  0.2265E+02
      0.854  0.2116E+02  0.2352E+02
      0.896  0.2366E+02  0.2450E+02
      0.937  0.2656E+02  0.2560E+02
      0.978  0.2776E+02  0.2675E+02
      1.020  0.2511E+02  0.2779E+02
      1.061  0.2287E+02  0.2873E+02
      1.102  0.2351E+02  0.2970E+02
      1.144  0.2665E+02  0.3080E+02
      1.185  0.2915E+02  0.3201E+02
      1.226  0.2944E+02  0.3323E+02
      1.268  0.2912E+02  0.3443E+02
      1.309  0.2816E+02  0.3559E+02
      1.350  0.2646E+02  0.3669E+02
      1.392  0.2459E+02  0.3770E+02
      1.433  0.2734E+02  0.3883E+02
      1.474  0.3338E+02  0.4021E+02
      1.516  0.3392E+02  0.4161E+02
      1.557  0.2981E+02  0.4285E+02
      1.598  0.2948E+02  0.4406E+02
      1.640  0.2992E+02  0.4530E+02
      1.681  0.2438E+02  0.4631E+02
      1.722  0.1642E+02  0.4699E+02
      1.764  0.1125E+02  0.4745E+02
      1.805  0.7009E+01  0.4774E+02
      1.846  0.3957E+01  0.4791E+02
      1.888  0.1804E+01  0.4798E+02
      1.929  0.4442E+00  0.4800E+02
      1.970  0.4443E-01  0.4800E+02
      2.012  0.1489E-02  0.4800E+02
      2.053  0.1478E-04  0.4800E+02
      2.094  0.4067E-07  0.4800E+02
      2.136  0.3002E-10  0.4800E+02
      2.177  0.5820E-14  0.4800E+02
      2.218  0.0000E+00  0.4800E+02
      2.260  0.0000E+00  0.4800E+02
      2.301  0.0000E+00  0.4800E+02
      2.342  0.0000E+00  0.4800E+02
      2.384  0.0000E+00  0.4800E+02
      2.425  0.0000E+00  0.4800E+02
