 running   24 mpi-ranks, with    1 threads/rank, on    1 nodes
 distrk:  each k-point on   24 cores,    1 groups
 distr:  one band on    1 cores,   24 groups
 vasp.6.4.3 19Mar24 (build May 31 2024 16:31:43) complex                        
  
 POSCAR found type information on POSCAR B 
 POSCAR found :  1 types and       1 ions
 Reading from existing POTCAR
 scaLAPACK will be used
 Reading from existing POTCAR
 LDA part: xc-table for (Slater+PW92), standard interpolation
 POSCAR, INCAR and KPOINTS ok, starting setup
 FFT: planning ... GRIDC
 FFT: planning ... GRID_SOFT
 FFT: planning ... GRID
 WAVECAR not read
 entering main loop
       N       E                     dE             d eps       ncg     rms          rms(c)
DAV:   1     0.739164334723E+01    0.73916E+01   -0.33776E+02  1728   0.343E+01
DAV:   2     0.712582765832E-01   -0.73204E+01   -0.72963E+01  3456   0.539E+00
DAV:   3    -0.556596997521E-01   -0.12692E+00   -0.10788E+00  1728   0.124E+00
DAV:   4    -0.582418919386E-01   -0.25822E-02   -0.25158E-02  1968   0.148E-01
DAV:   5    -0.582718084135E-01   -0.29916E-04   -0.29907E-04  2640   0.177E-02    0.740E-03
DAV:   6    -0.582721440430E-01   -0.33563E-06   -0.23503E-06  2328   0.179E-03
   1 F= -.58272144E-01 E0= -.31771474E-01  d E =-.530013E-01
