  14  14   0   0
  0.1021960E+02  0.5697000E-09  0.4047900E-09  0.6204200E-09  0.5000000E-15
  1.000000000000000E-004
  CAR 
 Kpoints                                 
     17.99310119    -14.19247715  301      1.90168252      1.00000000
    -14.192  0.0000E+00  0.0000E+00
    -14.085  0.0000E+00  0.0000E+00
    -13.978  0.0000E+00  0.0000E+00
    -13.871  0.0000E+00  0.0000E+00
    -13.763  0.0000E+00  0.0000E+00
    -13.656  0.0000E+00  0.0000E+00
    -13.549  0.0000E+00  0.0000E+00
    -13.441  0.0000E+00  0.0000E+00
    -13.334  0.0000E+00  0.0000E+00
    -13.227  0.0000E+00  0.0000E+00
    -13.120  0.0000E+00  0.0000E+00
    -13.012  0.4271E-16  0.4582E-17
    -12.905  0.2888E-07  0.3099E-08
    -12.798  0.3778E-02  0.4053E-03
    -12.690  0.5054E+00  0.5463E-01
    -12.583  0.2375E+01  0.3094E+00
    -12.476  0.3542E+01  0.6894E+00
    -12.369  0.4350E+01  0.1156E+01
    -12.261  0.3534E+01  0.1535E+01
    -12.154  0.2731E+01  0.1828E+01
    -12.047  0.2743E+01  0.2123E+01
    -11.939  0.2485E+01  0.2389E+01
    -11.832  0.2769E+01  0.2686E+01
    -11.725  0.3373E+01  0.3048E+01
    -11.618  0.3528E+01  0.3426E+01
    -11.510  0.3140E+01  0.3763E+01
    -11.403  0.1723E+01  0.3948E+01
    -11.296  0.4728E+00  0.3999E+01
    -11.188  0.1083E-01  0.4000E+01
    -11.081  0.4191E-06  0.4000E+01
    -10.974  0.3732E-14  0.4000E+01
    -10.867  0.0000E+00  0.4000E+01
    -10.759  0.0000E+00  0.4000E+01
    -10.652  0.0000E+00  0.4000E+01
    -10.545  0.0000E+00  0.4000E+01
    -10.437  0.0000E+00  0.4000E+01
    -10.330  0.0000E+00  0.4000E+01
    -10.223  0.0000E+00  0.4000E+01
    -10.116  0.0000E+00  0.4000E+01
    -10.008  0.0000E+00  0.4000E+01
     -9.901  0.0000E+00  0.4000E+01
     -9.794  0.0000E+00  0.4000E+01
     -9.686  0.0000E+00  0.4000E+01
     -9.579  0.0000E+00  0.4000E+01
     -9.472  0.0000E+00  0.4000E+01
     -9.365  0.0000E+00  0.4000E+01
     -9.257  0.0000E+00  0.4000E+01
     -9.150  0.0000E+00  0.4000E+01
     -9.043  0.8086E-09  0.4000E+01
     -8.935  0.5804E-03  0.4000E+01
     -8.828  0.2698E+00  0.4029E+01
     -8.721  0.2073E+01  0.4251E+01
     -8.614  0.5291E+01  0.4819E+01
     -8.506  0.6976E+01  0.5567E+01
     -8.399  0.6306E+01  0.6244E+01
     -8.292  0.5314E+01  0.6814E+01
     -8.185  0.4828E+01  0.7332E+01
     -8.077  0.3882E+01  0.7749E+01
     -7.970  0.1686E+01  0.7929E+01
     -7.863  0.5990E+00  0.7994E+01
     -7.755  0.5866E-01  0.8000E+01
     -7.648  0.3396E-04  0.8000E+01
     -7.541  0.4892E-11  0.8000E+01
     -7.434  0.0000E+00  0.8000E+01
     -7.326  0.0000E+00  0.8000E+01
     -7.219  0.0000E+00  0.8000E+01
     -7.112  0.4675E-09  0.8000E+01
     -7.004  0.3914E-03  0.8000E+01
     -6.897  0.1123E+00  0.8012E+01
     -6.790  0.2568E+00  0.8040E+01
     -6.683  0.4231E+00  0.8085E+01
     -6.575  0.7633E+00  0.8167E+01
     -6.468  0.8497E+00  0.8258E+01
     -6.361  0.1449E+01  0.8414E+01
     -6.253  0.1962E+01  0.8624E+01
     -6.146  0.3037E+01  0.8950E+01
     -6.039  0.3779E+01  0.9355E+01
     -5.932  0.4109E+01  0.9796E+01
     -5.824  0.4072E+01  0.1023E+02
     -5.717  0.3856E+01  0.1065E+02
     -5.610  0.4074E+01  0.1108E+02
     -5.502  0.4228E+01  0.1154E+02
     -5.395  0.4537E+01  0.1202E+02
     -5.288  0.4577E+01  0.1252E+02
     -5.181  0.4484E+01  0.1300E+02
     -5.073  0.3857E+01  0.1341E+02
     -4.966  0.3223E+01  0.1376E+02
     -4.859  0.2960E+01  0.1407E+02
     -4.751  0.2312E+01  0.1432E+02
     -4.644  0.2886E+01  0.1463E+02
     -4.537  0.3352E+01  0.1499E+02
     -4.430  0.3437E+01  0.1536E+02
     -4.322  0.3354E+01  0.1572E+02
     -4.215  0.2950E+01  0.1604E+02
     -4.108  0.2889E+01  0.1635E+02
     -4.000  0.2931E+01  0.1666E+02
     -3.893  0.2864E+01  0.1697E+02
     -3.786  0.3081E+01  0.1730E+02
     -3.679  0.2915E+01  0.1761E+02
     -3.571  0.2690E+01  0.1790E+02
     -3.464  0.3067E+01  0.1823E+02
     -3.357  0.2657E+01  0.1851E+02
     -3.249  0.2808E+01  0.1881E+02
     -3.142  0.2786E+01  0.1911E+02
     -3.035  0.2700E+01  0.1940E+02
     -2.928  0.3070E+01  0.1973E+02
     -2.820  0.2976E+01  0.2005E+02
     -2.713  0.2440E+01  0.2031E+02
     -2.606  0.2615E+01  0.2059E+02
     -2.498  0.2986E+01  0.2091E+02
     -2.391  0.3014E+01  0.2124E+02
     -2.284  0.3250E+01  0.2159E+02
     -2.177  0.3964E+01  0.2201E+02
     -2.069  0.3640E+01  0.2240E+02
     -1.962  0.3201E+01  0.2275E+02
     -1.855  0.4990E+01  0.2328E+02
     -1.747  0.5586E+01  0.2388E+02
     -1.640  0.5623E+01  0.2448E+02
     -1.533  0.6149E+01  0.2514E+02
     -1.426  0.6123E+01  0.2580E+02
     -1.318  0.5588E+01  0.2640E+02
     -1.211  0.4697E+01  0.2690E+02
     -1.104  0.6480E+01  0.2760E+02
     -0.996  0.4105E+01  0.2804E+02
     -0.889  0.2276E+01  0.2828E+02
     -0.782  0.2694E+01  0.2857E+02
     -0.675  0.2853E+01  0.2888E+02
     -0.567  0.4422E+01  0.2935E+02
     -0.460  0.6796E+01  0.3008E+02
     -0.353  0.5658E+01  0.3069E+02
     -0.245  0.6637E+01  0.3140E+02
     -0.138  0.6356E+01  0.3208E+02
     -0.031  0.6704E+01  0.3280E+02
      0.076  0.6805E+01  0.3353E+02
      0.184  0.6222E+01  0.3420E+02
      0.291  0.8784E+01  0.3514E+02
      0.398  0.8016E+01  0.3600E+02
      0.506  0.8627E+01  0.3693E+02
      0.613  0.5453E+01  0.3751E+02
      0.720  0.3016E+01  0.3784E+02
      0.827  0.3213E+01  0.3818E+02
      0.935  0.3592E+01  0.3857E+02
      1.042  0.3576E+01  0.3895E+02
      1.149  0.2795E+01  0.3925E+02
      1.257  0.3310E+01  0.3961E+02
      1.364  0.4429E+01  0.4008E+02
      1.471  0.3839E+01  0.4049E+02
      1.578  0.3647E+01  0.4088E+02
      1.686  0.4537E+01  0.4137E+02
      1.793  0.3392E+01  0.4173E+02
      1.900  0.2447E+01  0.4200E+02
      2.008  0.2661E+01  0.4228E+02
      2.115  0.2092E+01  0.4251E+02
      2.222  0.2635E+01  0.4279E+02
      2.329  0.2612E+01  0.4307E+02
      2.437  0.2055E+01  0.4329E+02
      2.544  0.9370E+00  0.4339E+02
      2.651  0.3771E+00  0.4343E+02
      2.759  0.5766E+00  0.4349E+02
      2.866  0.4134E+00  0.4354E+02
      2.973  0.3140E+00  0.4357E+02
      3.080  0.7145E+00  0.4365E+02
      3.188  0.1015E+01  0.4376E+02
      3.295  0.5949E+00  0.4382E+02
      3.402  0.2094E-01  0.4382E+02
      3.510  0.1113E+00  0.4383E+02
      3.617  0.3789E+00  0.4387E+02
      3.724  0.3541E+00  0.4391E+02
      3.831  0.3522E+00  0.4395E+02
      3.939  0.4202E+00  0.4400E+02
      4.046  0.4015E-01  0.4400E+02
      4.153  0.2347E-04  0.4400E+02
      4.261  0.2650E-01  0.4400E+02
      4.368  0.1700E+00  0.4402E+02
      4.475  0.3954E+00  0.4406E+02
      4.582  0.4575E+00  0.4411E+02
      4.690  0.6233E+00  0.4418E+02
      4.797  0.8823E+00  0.4427E+02
      4.904  0.8405E+00  0.4436E+02
      5.012  0.8580E+00  0.4446E+02
      5.119  0.1264E+01  0.4459E+02
      5.226  0.1158E+01  0.4472E+02
      5.333  0.1617E+01  0.4489E+02
      5.441  0.2178E+01  0.4512E+02
      5.548  0.2476E+01  0.4539E+02
      5.655  0.2780E+01  0.4569E+02
      5.763  0.3316E+01  0.4604E+02
      5.870  0.3250E+01  0.4639E+02
      5.977  0.4270E+01  0.4685E+02
      6.084  0.4778E+01  0.4736E+02
      6.192  0.4037E+01  0.4780E+02
      6.299  0.4620E+01  0.4829E+02
      6.406  0.4182E+01  0.4874E+02
      6.514  0.4008E+01  0.4917E+02
      6.621  0.4514E+01  0.4965E+02
      6.728  0.3241E+01  0.5000E+02
      6.835  0.4002E+01  0.5043E+02
      6.943  0.4603E+01  0.5093E+02
      7.050  0.4602E+01  0.5142E+02
      7.157  0.4334E+01  0.5188E+02
      7.265  0.5601E+01  0.5248E+02
      7.372  0.4904E+01  0.5301E+02
      7.479  0.4473E+01  0.5349E+02
      7.586  0.4181E+01  0.5394E+02
      7.694  0.3577E+01  0.5432E+02
      7.801  0.3119E+01  0.5466E+02
      7.908  0.3012E+01  0.5498E+02
      8.016  0.2977E+01  0.5530E+02
      8.123  0.4200E+01  0.5575E+02
      8.230  0.3913E+01  0.5617E+02
      8.337  0.3688E+01  0.5657E+02
      8.445  0.4038E+01  0.5700E+02
      8.552  0.4173E+01  0.5745E+02
      8.659  0.4509E+01  0.5793E+02
      8.767  0.4276E+01  0.5839E+02
      8.874  0.5339E+01  0.5896E+02
      8.981  0.4813E+01  0.5948E+02
      9.088  0.5334E+01  0.6005E+02
      9.196  0.5172E+01  0.6061E+02
      9.303  0.4944E+01  0.6114E+02
      9.410  0.4693E+01  0.6164E+02
      9.518  0.4372E+01  0.6211E+02
      9.625  0.5148E+01  0.6266E+02
      9.732  0.4991E+01  0.6320E+02
      9.839  0.5272E+01  0.6376E+02
      9.947  0.4400E+01  0.6423E+02
     10.054  0.3707E+01  0.6463E+02
     10.161  0.5275E+01  0.6520E+02
     10.269  0.4641E+01  0.6570E+02
     10.376  0.4147E+01  0.6614E+02
     10.483  0.5482E+01  0.6673E+02
     10.590  0.5667E+01  0.6734E+02
     10.698  0.4099E+01  0.6778E+02
     10.805  0.3834E+01  0.6819E+02
     10.912  0.3258E+01  0.6854E+02
     11.020  0.4815E+01  0.6905E+02
     11.127  0.5412E+01  0.6963E+02
     11.234  0.6321E+01  0.7031E+02
     11.341  0.5903E+01  0.7095E+02
     11.449  0.5224E+01  0.7151E+02
     11.556  0.4324E+01  0.7197E+02
     11.663  0.4469E+01  0.7245E+02
     11.771  0.4971E+01  0.7298E+02
     11.878  0.4839E+01  0.7350E+02
     11.985  0.6012E+01  0.7415E+02
     12.092  0.6043E+01  0.7480E+02
     12.200  0.5904E+01  0.7543E+02
     12.307  0.5633E+01  0.7603E+02
     12.414  0.4948E+01  0.7656E+02
     12.522  0.5653E+01  0.7717E+02
     12.629  0.6019E+01  0.7782E+02
     12.736  0.5994E+01  0.7846E+02
     12.843  0.5806E+01  0.7908E+02
     12.951  0.5861E+01  0.7971E+02
     13.058  0.5614E+01  0.8031E+02
     13.165  0.6317E+01  0.8099E+02
     13.273  0.6193E+01  0.8166E+02
     13.380  0.5475E+01  0.8224E+02
     13.487  0.6114E+01  0.8290E+02
     13.594  0.5294E+01  0.8347E+02
     13.702  0.4832E+01  0.8399E+02
     13.809  0.6227E+01  0.8465E+02
     13.916  0.5473E+01  0.8524E+02
     14.024  0.5327E+01  0.8581E+02
     14.131  0.5449E+01  0.8640E+02
     14.238  0.4603E+01  0.8689E+02
     14.345  0.4948E+01  0.8742E+02
     14.453  0.5038E+01  0.8796E+02
     14.560  0.4955E+01  0.8849E+02
     14.667  0.5232E+01  0.8906E+02
     14.775  0.5139E+01  0.8961E+02
     14.882  0.4080E+01  0.9004E+02
     14.989  0.5107E+01  0.9059E+02
     15.096  0.6210E+01  0.9126E+02
     15.204  0.5567E+01  0.9186E+02
     15.311  0.5751E+01  0.9247E+02
     15.418  0.6016E+01  0.9312E+02
     15.526  0.5685E+01  0.9373E+02
     15.633  0.5928E+01  0.9436E+02
     15.740  0.4549E+01  0.9485E+02
     15.847  0.2439E+01  0.9511E+02
     15.955  0.2709E+01  0.9540E+02
     16.062  0.1838E+01  0.9560E+02
     16.169  0.1121E+01  0.9572E+02
     16.277  0.8980E+00  0.9582E+02
     16.384  0.7021E+00  0.9589E+02
     16.491  0.8057E+00  0.9598E+02
     16.598  0.1866E+00  0.9600E+02
     16.706  0.1699E-02  0.9600E+02
     16.813  0.2031E-07  0.9600E+02
     16.920  0.3942E-16  0.9600E+02
     17.028  0.0000E+00  0.9600E+02
     17.135  0.0000E+00  0.9600E+02
     17.242  0.0000E+00  0.9600E+02
     17.349  0.0000E+00  0.9600E+02
     17.457  0.0000E+00  0.9600E+02
     17.564  0.0000E+00  0.9600E+02
     17.671  0.0000E+00  0.9600E+02
     17.779  0.0000E+00  0.9600E+02
     17.886  0.0000E+00  0.9600E+02
     17.993  0.0000E+00  0.9600E+02
