   14   14    1    1
  0.1021960E+02  0.5697000E-09  0.4047900E-09  0.6204200E-09  0.5000000E-15
  1.000000000000000E-004
  CAR 
 Kpoints                                 
     42    175     48
 
  0.5000000E-01  0.3571429E-01  0.0000000E+00  0.3174603E-02
      1        -12.729496   1.000000
      2        -11.583998   1.000000
      3         -8.658634   1.000000
      4         -8.422712   1.000000
      5         -6.062180   1.000000
      6         -5.125900   1.000000
      7         -4.662615   1.000000
      8         -4.264050   1.000000
      9         -4.026180   1.000000
     10         -3.538610   1.000000
     11         -2.592406   1.000000
     12         -2.325091   1.000000
     13         -1.831251   1.000000
     14         -1.088001   1.000000
     15         -0.056183   1.000000
     16         -0.026635   1.000000
     17          0.164989   1.000000
     18          0.184274   1.000000
     19          0.577136   1.000000
     20          2.036797   0.000066
     21          2.100035   0.000000
     22          2.230981   0.000000
     23          5.466991   0.000000
     24          5.758325   0.000000
     25          5.848615   0.000000
     26          5.969691   0.000000
     27          6.822357   0.000000
     28          7.554436   0.000000
     29          7.884673   0.000000
     30          8.536615   0.000000
     31          8.799548   0.000000
     32          8.946630   0.000000
     33          9.046376   0.000000
     34         10.125060   0.000000
     35         11.186153   0.000000
     36         11.354300   0.000000
     37         11.681750   0.000000
     38         11.789361   0.000000
     39         11.945862   0.000000
     40         12.411561   0.000000
     41         12.875332   0.000000
     42         13.472788   0.000000
     43         13.498048   0.000000
     44         15.394098   0.000000
     45         15.577921   0.000000
     46         16.071643   0.000000
     47         16.347238   0.000000
     48         16.372716   0.000000
 
  0.1500000E+00  0.3571429E-01  0.0000000E+00  0.3174603E-02
      1        -12.685509   1.000000
      2        -11.657586   1.000000
      3         -8.637318   1.000000
      4         -8.411074   1.000000
      5         -5.993585   1.000000
      6         -5.466766   1.000000
      7         -4.785273   1.000000
      8         -4.002003   1.000000
      9         -3.781814   1.000000
     10         -3.199552   1.000000
     11         -2.662355   1.000000
     12         -2.304518   1.000000
     13         -1.909310   1.000000
     14         -1.395640   1.000000
     15         -0.015604   1.000000
     16         -0.009562   1.000000
     17          0.105157   1.000000
     18          0.207646   1.000000
     19          0.481158   1.000000
     20          1.950108   0.085395
     21          2.022268   0.000324
     22          2.109915   0.000000
     23          5.556906   0.000000
     24          5.769154   0.000000
     25          5.874977   0.000000
     26          6.315730   0.000000
     27          6.739380   0.000000
     28          7.191434   0.000000
     29          8.094369   0.000000
     30          8.674580   0.000000
     31          9.055413   0.000000
     32          9.130524   0.000000
     33          9.202330   0.000000
     34         10.237571   0.000000
     35         10.960818   0.000000
     36         11.145871   0.000000
     37         11.260456   0.000000
     38         11.703149   0.000000
     39         12.165848   0.000000
     40         12.500316   0.000000
     41         13.135898   0.000000
     42         13.138513   0.000000
     43         14.032075   0.000000
     44         14.878733   0.000000
     45         15.760329   0.000000
     46         15.840681   0.000000
     47         16.239924   0.000000
     48         16.530120   0.000000
 
  0.2500000E+00  0.3571429E-01  0.0000000E+00  0.3174603E-02
      1        -12.599422   1.000000
      2        -11.790253   1.000000
      3         -8.593254   1.000000
      4         -8.395939   1.000000
      5         -5.971630   1.000000
      6         -5.794247   1.000000
      7         -4.738585   1.000000
      8         -3.875442   1.000000
      9         -3.268016   1.000000
     10         -2.829074   1.000000
     11         -2.706100   1.000000
     12         -2.264327   1.000000
     13         -2.019595   1.000000
     14         -1.901466   1.000000
     15         -0.212610   1.000000
     16          0.027285   1.000000
     17          0.156228   1.000000
     18          0.171889   1.000000
     19          0.448821   1.000000
     20          1.801100   0.997779
     21          1.881068   0.720078
     22          1.889725   0.632403
     23          5.680441   0.000000
     24          5.727594   0.000000
     25          6.184668   0.000000
     26          6.614405   0.000000
     27          6.774479   0.000000
     28          6.940039   0.000000
     29          8.243897   0.000000
     30          8.824855   0.000000
     31          9.000879   0.000000
     32          9.575457   0.000000
     33          9.649275   0.000000
     34         10.297426   0.000000
     35         10.493293   0.000000
     36         10.631409   0.000000
     37         11.383568   0.000000
     38         11.844686   0.000000
     39         12.403089   0.000000
     40         12.579390   0.000000
     41         12.800934   0.000000
     42         12.928584   0.000000
     43         14.653999   0.000000
     44         14.933431   0.000000
     45         15.237023   0.000000
     46         15.997991   0.000000
     47         16.017543   0.000000
     48         16.311018   0.000000
 
  0.3500000E+00  0.3571429E-01  0.0000000E+00  0.3174603E-02
      1        -12.475567   1.000000
      2        -11.960350   1.000000
      3         -8.531050   1.000000
      4         -8.392400   1.000000
      5         -6.052151   1.000000
      6         -6.027845   1.000000
      7         -4.409861   1.000000
      8         -3.707227   1.000000
      9         -3.022861   1.000000
     10         -2.884009   1.000000
     11         -2.437025   1.000000
     12         -2.242690   1.000000
     13         -2.145062   1.000000
     14         -2.118504   1.000000
     15         -0.512438   1.000000
     16         -0.234114   1.000000
     17          0.185351   1.000000
     18          0.262584   1.000000
     19          0.623230   1.000000
     20          1.543571   1.000000
     21          1.677362   1.000000
     22          1.739208   0.999998
     23          5.712168   0.000000
     24          5.766556   0.000000
     25          6.511265   0.000000
     26          6.679086   0.000000
     27          6.709922   0.000000
     28          7.428494   0.000000
     29          8.367542   0.000000
     30          8.698557   0.000000
     31          8.811870   0.000000
     32          9.552140   0.000000
     33         10.056905   0.000000
     34         10.123060   0.000000
     35         10.404116   0.000000
     36         11.150417   0.000000
     37         11.413754   0.000000
     38         11.957784   0.000000
     39         12.209741   0.000000
     40         12.282923   0.000000
     41         12.529645   0.000000
     42         13.269384   0.000000
     43         14.723701   0.000000
     44         14.990350   0.000000
     45         15.283774   0.000000
     46         15.390816   0.000000
     47         15.594365   0.000000
     48         16.393615   0.000000
 
  0.4500000E+00  0.3571429E-01  0.0000000E+00  0.3174603E-02
      1        -12.320145   1.000000
      2        -12.143542   1.000000
      3         -8.465327   1.000000
      4         -8.414612   1.000000
      5         -6.142629   1.000000
      6         -6.138350   1.000000
      7         -3.892733   1.000000
      8         -3.498443   1.000000
      9         -3.292195   1.000000
     10         -3.261032   1.000000
     11         -2.352626   1.000000
     12         -2.227556   1.000000
     13         -1.955593   1.000000
     14         -1.896890   1.000000
     15         -0.733710   1.000000
     16         -0.594969   1.000000
     17          0.270213   1.000000
     18          0.304068   1.000000
     19          0.886046   1.000000
     20          1.204259   1.000000
     21          1.597489   1.000000
     22          1.623872   1.000000
     23          5.739606   0.000000
     24          5.777839   0.000000
     25          6.488001   0.000000
     26          6.550451   0.000000
     27          7.382136   0.000000
     28          8.091217   0.000000
     29          8.109604   0.000000
     30          8.483299   0.000000
     31          8.620192   0.000000
     32          8.807519   0.000000
     33         10.506791   0.000000
     34         10.521123   0.000000
     35         10.766966   0.000000
     36         11.227257   0.000000
     37         11.411135   0.000000
     38         11.605229   0.000000
     39         11.938802   0.000000
     40         12.489919   0.000000
     41         12.724098   0.000000
     42         13.264630   0.000000
     43         14.600637   0.000000
     44         14.749187   0.000000
     45         14.880117   0.000000
     46         14.940826   0.000000
     47         16.126228   0.000000
     48         16.466499   0.000000
 
  0.5000000E-01  0.1071429E+00  0.0000000E+00  0.3174603E-02
      1        -12.705468   1.000000
      2        -11.562186   1.000000
      3         -8.639720   1.000000
      4         -8.399727   1.000000
      5         -6.035396   1.000000
      6         -5.092486   1.000000
      7         -4.640636   1.000000
      8         -4.567257   1.000000
      9         -4.169523   1.000000
     10         -3.515154   1.000000
     11         -3.287658   1.000000
     12         -1.790796   1.000000
     13         -1.084117   1.000000
     14         -1.031752   1.000000
     15         -0.290933   1.000000
     16         -0.263828   1.000000
     17          0.178103   1.000000
     18          0.255461   1.000000
     19          0.655443   1.000000
     20          1.767662   0.999925
     21          1.848273   0.934561
     22          2.281863   0.000000
     23          5.585500   0.000000
     24          5.716950   0.000000
     25          5.751957   0.000000
     26          6.017925   0.000000
     27          7.109219   0.000000
     28          7.839845   0.000000
     29          8.076490   0.000000
     30          8.194807   0.000000
     31          8.804187   0.000000
     32          9.094885   0.000000
     33          9.146434   0.000000
     34         10.580082   0.000000
     35         11.282817   0.000000
     36         11.402212   0.000000
     37         11.615398   0.000000
     38         11.891004   0.000000
     39         12.057182   0.000000
     40         12.691763   0.000000
     41         12.875754   0.000000
     42         13.204444   0.000000
     43         13.211770   0.000000
     44         15.337713   0.000000
     45         15.394239   0.000000
     46         15.873901   0.000000
     47         15.879795   0.000000
     48         16.236414   0.000000
 
  0.1500000E+00  0.1071429E+00  0.0000000E+00  0.3174603E-02
      1        -12.661657   1.000000
      2        -11.635788   1.000000
      3         -8.618398   1.000000
      4         -8.388453   1.000000
      5         -5.964990   1.000000
      6         -5.437301   1.000000
      7         -4.765274   1.000000
      8         -4.485537   1.000000
      9         -3.743680   1.000000
     10         -3.367275   1.000000
     11         -3.161691   1.000000
     12         -1.768750   1.000000
     13         -1.390627   1.000000
     14         -1.148470   1.000000
     15         -0.252331   1.000000
     16         -0.185620   1.000000
     17          0.146238   1.000000
     18          0.229520   1.000000
     19          0.552411   1.000000
     20          1.686088   1.000000
     21          1.772223   0.999875
     22          2.151160   0.000000
     23          5.663951   0.000000
     24          5.816639   0.000000
     25          5.948082   0.000000
     26          6.122843   0.000000
     27          7.026669   0.000000
     28          7.514238   0.000000
     29          8.224082   0.000000
     30          8.364887   0.000000
     31          9.127039   0.000000
     32          9.160830   0.000000
     33          9.413769   0.000000
     34         10.506964   0.000000
     35         10.888702   0.000000
     36         11.095544   0.000000
     37         11.458255   0.000000
     38         11.876246   0.000000
     39         12.279094   0.000000
     40         12.748018   0.000000
     41         12.879182   0.000000
     42         13.163351   0.000000
     43         13.746001   0.000000
     44         14.965285   0.000000
     45         15.410551   0.000000
     46         15.764065   0.000000
     47         15.807810   0.000000
     48         16.419943   0.000000
 
  0.2500000E+00  0.1071429E+00  0.0000000E+00  0.3174603E-02
      1        -12.575627   1.000000
      2        -11.768125   1.000000
      3         -8.574300   1.000000
      4         -8.373620   1.000000
      5         -5.940391   1.000000
      6         -5.763428   1.000000
      7         -4.721904   1.000000
      8         -4.377500   1.000000
      9         -3.488929   1.000000
     10         -3.215167   1.000000
     11         -2.692839   1.000000
     12         -1.896570   1.000000
     13         -1.723882   1.000000
     14         -1.309964   1.000000
     15         -0.215296   1.000000
     16         -0.203853   1.000000
     17          0.065783   1.000000
     18          0.219802   1.000000
     19          0.475777   1.000000
     20          1.551221   1.000000
     21          1.641717   1.000000
     22          1.904064   0.473149
     23          5.869083   0.000000
     24          5.946435   0.000000
     25          6.024783   0.000000
     26          6.573356   0.000000
     27          6.908094   0.000000
     28          7.287990   0.000000
     29          8.433298   0.000000
     30          8.497728   0.000000
     31          9.100808   0.000000
     32          9.613952   0.000000
     33          9.875970   0.000000
     34         10.139032   0.000000
     35         10.366378   0.000000
     36         10.825431   0.000000
     37         11.527532   0.000000
     38         12.111810   0.000000
     39         12.320589   0.000000
     40         12.565272   0.000000
     41         12.968994   0.000000
     42         13.031141   0.000000
     43         14.322620   0.000000
     44         15.101658   0.000000
     45         15.176582   0.000000
     46         15.658316   0.000000
     47         15.723717   0.000000
     48         16.440649   0.000000
 
  0.3500000E+00  0.1071429E+00  0.0000000E+00  0.3174603E-02
      1        -12.451781   1.000000
      2        -11.937996   1.000000
      3         -8.511892   1.000000
      4         -8.371027   1.000000
      5         -6.020231   1.000000
      6         -5.996802   1.000000
      7         -4.395644   1.000000
      8         -4.230665   1.000000
      9         -3.659734   1.000000
     10         -2.835217   1.000000
     11         -2.354069   1.000000
     12         -2.208345   1.000000
     13         -1.659855   1.000000
     14         -1.472596   1.000000
     15         -0.474302   1.000000
     16         -0.296734   1.000000
     17          0.098222   1.000000
     18          0.128027   1.000000
     19          0.634624   1.000000
     20          1.410971   1.000000
     21          1.494699   1.000000
     22          1.579603   1.000000
     23          5.887033   0.000000
     24          6.021461   0.000000
     25          6.530832   0.000000
     26          6.816850   0.000000
     27          6.888034   0.000000
     28          7.384372   0.000000
     29          8.428997   0.000000
     30          8.604677   0.000000
     31          8.941657   0.000000
     32          9.387636   0.000000
     33         10.081105   0.000000
     34         10.099613   0.000000
     35         10.445844   0.000000
     36         11.228053   0.000000
     37         11.373159   0.000000
     38         11.850419   0.000000
     39         12.300225   0.000000
     40         12.552202   0.000000
     41         12.729933   0.000000
     42         13.471812   0.000000
     43         14.781693   0.000000
     44         14.786258   0.000000
     45         15.171894   0.000000
     46         15.320810   0.000000
     47         15.671950   0.000000
     48         16.407521   0.000000
 
  0.4500000E+00  0.1071429E+00  0.0000000E+00  0.3174603E-02
      1        -12.296677   1.000000
      2        -12.120660   1.000000
      3         -8.445489   1.000000
      4         -8.394157   1.000000
      5         -6.110191   1.000000
      6         -6.105774   1.000000
      7         -4.052245   1.000000
      8         -3.886408   1.000000
      9         -3.848050   1.000000
     10         -3.279986   1.000000
     11         -2.095063   1.000000
     12         -1.901166   1.000000
     13         -1.590432   1.000000
     14         -1.585417   1.000000
     15         -0.695417   1.000000
     16         -0.590703   1.000000
     17          0.131933   1.000000
     18          0.161998   1.000000
     19          0.894676   1.000000
     20          1.210839   1.000000
     21          1.357885   1.000000
     22          1.381917   1.000000
     23          5.937905   0.000000
     24          6.003283   0.000000
     25          6.804438   0.000000
     26          6.853601   0.000000
     27          7.198486   0.000000
     28          7.912215   0.000000
     29          7.957825   0.000000
     30          8.639897   0.000000
     31          8.695648   0.000000
     32          8.809448   0.000000
     33         10.326076   0.000000
     34         10.571761   0.000000
     35         10.811579   0.000000
     36         10.917912   0.000000
     37         11.558016   0.000000
     38         11.664680   0.000000
     39         12.016988   0.000000
     40         12.659871   0.000000
     41         13.034470   0.000000
     42         13.497692   0.000000
     43         14.561370   0.000000
     44         14.745511   0.000000
     45         14.844549   0.000000
     46         15.061241   0.000000
     47         16.151261   0.000000
     48         16.443518   0.000000
 
  0.5000000E-01  0.1785714E+00  0.0000000E+00  0.3174603E-02
      1        -12.660856   1.000000
      2        -11.521653   1.000000
      3         -8.605541   1.000000
      4         -8.356995   1.000000
      5         -5.985824   1.000000
      6         -5.126223   1.000000
      7         -5.002636   1.000000
      8         -4.599392   1.000000
      9         -4.153950   1.000000
     10         -3.910586   1.000000
     11         -3.461321   1.000000
     12         -1.196577   1.000000
     13         -1.075054   1.000000
     14         -0.635443   1.000000
     15         -0.531467   1.000000
     16         -0.170816   1.000000
     17          0.200385   1.000000
     18          0.309265   1.000000
     19          0.735076   1.000000
     20          1.381897   1.000000
     21          1.446553   1.000000
     22          2.319416   0.000000
     23          5.298562   0.000000
     24          5.463974   0.000000
     25          6.132409   0.000000
     26          6.209164   0.000000
     27          7.545085   0.000000
     28          7.624241   0.000000
     29          8.322673   0.000000
     30          8.728202   0.000000
     31          8.887311   0.000000
     32          9.237642   0.000000
     33          9.368227   0.000000
     34         10.894995   0.000000
     35         11.330741   0.000000
     36         11.585953   0.000000
     37         11.704745   0.000000
     38         12.092080   0.000000
     39         12.275540   0.000000
     40         12.757451   0.000000
     41         12.773251   0.000000
     42         13.016154   0.000000
     43         13.232051   0.000000
     44         14.684842   0.000000
     45         15.172426   0.000000
     46         15.353017   0.000000
     47         15.439914   0.000000
     48         15.976524   0.000000
 
  0.1500000E+00  0.1785714E+00  0.0000000E+00  0.3174603E-02
      1        -12.617207   1.000000
      2        -11.595231   1.000000
      3         -8.583275   1.000000
      4         -8.346182   1.000000
      5         -5.911958   1.000000
      6         -5.388721   1.000000
      7         -5.028835   1.000000
      8         -4.727643   1.000000
      9         -3.976323   1.000000
     10         -3.701692   1.000000
     11         -3.121466   1.000000
     12         -1.381438   1.000000
     13         -1.170444   1.000000
     14         -0.743947   1.000000
     15         -0.492957   1.000000
     16         -0.088230   1.000000
     17          0.180486   1.000000
     18          0.254817   1.000000
     19          0.621595   1.000000
     20          1.304132   1.000000
     21          1.378303   1.000000
     22          2.184545   0.000000
     23          5.378733   0.000000
     24          5.812355   0.000000
     25          6.154836   0.000000
     26          6.247928   0.000000
     27          7.465091   0.000000
     28          7.781884   0.000000
     29          8.054851   0.000000
     30          8.821688   0.000000
     31          9.251587   0.000000
     32          9.290828   0.000000
     33          9.653658   0.000000
     34         10.533468   0.000000
     35         10.794532   0.000000
     36         11.281609   0.000000
     37         11.725105   0.000000
     38         12.204776   0.000000
     39         12.443756   0.000000
     40         12.509466   0.000000
     41         13.174006   0.000000
     42         13.280716   0.000000
     43         13.453098   0.000000
     44         14.697387   0.000000
     45         14.834812   0.000000
     46         15.290486   0.000000
     47         15.505685   0.000000
     48         16.003786   0.000000
 
  0.2500000E+00  0.1785714E+00  0.0000000E+00  0.3174603E-02
      1        -12.531634   1.000000
      2        -11.727530   1.000000
      3         -8.539151   1.000000
      4         -8.333066   1.000000
      5         -5.881975   1.000000
      6         -5.708699   1.000000
      7         -4.937269   1.000000
      8         -4.691054   1.000000
      9         -4.099459   1.000000
     10         -3.165608   1.000000
     11         -2.648681   1.000000
     12         -1.878857   1.000000
     13         -1.129903   1.000000
     14         -0.882750   1.000000
     15         -0.439056   1.000000
     16         -0.080868   1.000000
     17          0.025034   1.000000
     18          0.268381   1.000000
     19          0.505598   1.000000
     20          1.172593   1.000000
     21          1.260203   1.000000
     22          1.928187   0.226730
     23          5.700412   0.000000
     24          6.110503   0.000000
     25          6.289094   0.000000
     26          6.379508   0.000000
     27          7.365186   0.000000
     28          7.866640   0.000000
     29          8.018590   0.000000
     30          8.951262   0.000000
     31          9.248752   0.000000
     32          9.721949   0.000000
     33          9.868073   0.000000
     34         10.141571   0.000000
     35         10.262657   0.000000
     36         11.063901   0.000000
     37         11.595778   0.000000
     38         12.115166   0.000000
     39         12.517582   0.000000
     40         12.810922   0.000000
     41         13.055356   0.000000
     42         13.454384   0.000000
     43         13.975407   0.000000
     44         14.609139   0.000000
     45         14.884951   0.000000
     46         15.313946   0.000000
     47         15.528140   0.000000
     48         16.215512   0.000000
 
  0.3500000E+00  0.1785714E+00  0.0000000E+00  0.3174603E-02
      1        -12.408270   1.000000
      2        -11.896590   1.000000
      3         -8.476502   1.000000
      4         -8.331968   1.000000
      5         -5.959463   1.000000
      6         -5.938852   1.000000
      7         -4.801653   1.000000
      8         -4.369095   1.000000
      9         -4.263446   1.000000
     10         -2.797717   1.000000
     11         -2.312282   1.000000
     12         -2.167235   1.000000
     13         -1.073127   1.000000
     14         -1.019877   1.000000
     15         -0.443671   1.000000
     16         -0.364566   1.000000
     17          0.067768   1.000000
     18          0.073158   1.000000
     19          0.652755   1.000000
     20          1.042409   1.000000
     21          1.126975   1.000000
     22          1.593102   1.000000
     23          6.120541   0.000000
     24          6.236537   0.000000
     25          6.411578   0.000000
     26          6.814893   0.000000
     27          7.308094   0.000000
     28          7.790011   0.000000
     29          8.080975   0.000000
     30          9.051724   0.000000
     31          9.114972   0.000000
     32          9.185672   0.000000
     33          9.896354   0.000000
     34         10.189141   0.000000
     35         10.705695   0.000000
     36         11.087277   0.000000
     37         11.326923   0.000000
     38         11.960128   0.000000
     39         12.363544   0.000000
     40         12.995422   0.000000
     41         13.044776   0.000000
     42         13.802919   0.000000
     43         14.396827   0.000000
     44         14.411469   0.000000
     45         15.042772   0.000000
     46         15.142909   0.000000
     47         15.633085   0.000000
     48         16.391821   0.000000
 
  0.4500000E+00  0.1785714E+00  0.0000000E+00  0.3174603E-02
      1        -12.253751   1.000000
      2        -12.078257   1.000000
      3         -8.409039   1.000000
      4         -8.356586   1.000000
      5         -6.050420   1.000000
      6         -6.045442   1.000000
      7         -4.634045   1.000000
      8         -4.449251   1.000000
      9         -3.854954   1.000000
     10         -3.257869   1.000000
     11         -2.027264   1.000000
     12         -1.861992   1.000000
     13         -1.092207   1.000000
     14         -1.031906   1.000000
     15         -0.620416   1.000000
     16         -0.616655   1.000000
     17          0.019375   1.000000
     18          0.062903   1.000000
     19          0.910379   1.000000
     20          0.980314   1.000000
     21          1.021754   1.000000
     22          1.238209   1.000000
     23          6.211650   0.000000
     24          6.329860   0.000000
     25          6.890549   0.000000
     26          7.226092   0.000000
     27          7.285186   0.000000
     28          7.635388   0.000000
     29          7.940387   0.000000
     30          8.453698   0.000000
     31          9.106568   0.000000
     32          9.138121   0.000000
     33         10.018151   0.000000
     34         10.491077   0.000000
     35         10.712337   0.000000
     36         10.984371   0.000000
     37         11.736421   0.000000
     38         11.754460   0.000000
     39         12.137876   0.000000
     40         12.918106   0.000000
     41         13.428025   0.000000
     42         13.776669   0.000000
     43         14.242750   0.000000
     44         14.395486   0.000000
     45         15.007789   0.000000
     46         15.147941   0.000000
     47         16.011819   0.000000
     48         16.317504   0.000000
 
  0.5000000E-01  0.2500000E+00  0.0000000E+00  0.3174603E-02
      1        -12.603306   1.000000
      2        -11.469551   1.000000
      3         -8.561783   1.000000
      4         -8.301764   1.000000
      5         -5.921220   1.000000
      6         -5.609424   1.000000
      7         -4.932125   1.000000
      8         -4.543374   1.000000
      9         -4.431776   1.000000
     10         -4.115630   1.000000
     11         -3.399784   1.000000
     12         -1.208777   1.000000
     13         -1.060256   1.000000
     14         -0.990548   1.000000
     15         -0.185207   1.000000
     16          0.229243   1.000000
     17          0.352587   1.000000
     18          0.602769   1.000000
     19          0.799387   1.000000
     20          0.994596   1.000000
     21          1.010813   1.000000
     22          2.354641   0.000000
     23          4.954717   0.000000
     24          5.171006   0.000000
     25          6.370748   0.000000
     26          6.595260   0.000000
     27          7.264850   0.000000
     28          7.975863   0.000000
     29          8.701355   0.000000
     30          9.065710   0.000000
     31          9.463548   0.000000
     32          9.587411   0.000000
     33          9.651625   0.000000
     34         10.759968   0.000000
     35         11.284699   0.000000
     36         11.974280   0.000000
     37         12.023221   0.000000
     38         12.301581   0.000000
     39         12.434944   0.000000
     40         12.455596   0.000000
     41         12.574300   0.000000
     42         12.999477   0.000000
     43         13.800385   0.000000
     44         13.888835   0.000000
     45         14.424711   0.000000
     46         15.113230   0.000000
     47         15.412844   0.000000
     48         15.872730   0.000000
 
  0.1500000E+00  0.2500000E+00  0.0000000E+00  0.3174603E-02
      1        -12.559769   1.000000
      2        -11.542815   1.000000
      3         -8.539044   1.000000
      4         -8.292038   1.000000
      5         -5.843041   1.000000
      6         -5.573984   1.000000
      7         -5.270085   1.000000
      8         -4.677802   1.000000