       N       E                     dE             d eps       ncg     rms          rms(c)
DAV:   1     0.516555802738E+01    0.51656E+01   -0.12764E+04 16800   0.467E+02
DAV:   2    -0.944251093464E+02   -0.99591E+02   -0.94477E+02 24216   0.111E+02
DAV:   3    -0.971751650165E+02   -0.27501E+01   -0.27420E+01 23352   0.174E+01
DAV:   4    -0.971910336336E+02   -0.15869E-01   -0.15867E-01 22800   0.139E+00
DAV:   5    -0.971912273612E+02   -0.19373E-03   -0.19372E-03 22800   0.154E-01    0.130E+01
DAV:   6    -0.918364931049E+02    0.53547E+01   -0.38900E+00 24072   0.644E+00    0.724E+00
DAV:   7    -0.901947419476E+02    0.16418E+01   -0.32051E+00 25200   0.577E+00    0.178E+00
DAV:   8    -0.902069508027E+02   -0.12209E-01   -0.23069E-01 18456   0.160E+00    0.741E-01
DAV:   9    -0.902210672675E+02   -0.14116E-01   -0.16794E-02 23424   0.424E-01    0.201E-01
DAV:  10    -0.902248344407E+02   -0.37672E-02   -0.19567E-03 19512   0.151E-01    0.616E-02
DAV:  11    -0.902258937507E+02   -0.10593E-02   -0.59918E-04 21792   0.794E-02    0.333E-02
DAV:  12    -0.902259990911E+02   -0.10534E-03   -0.81308E-05 21048   0.312E-02    0.441E-03
DAV:  13    -0.902260031485E+02   -0.40575E-05   -0.35965E-06 23568   0.715E-03    0.199E-03
DAV:  14    -0.902260036937E+02   -0.54521E-06   -0.23459E-07 20256   0.176E-03
   1 F= -.90226004E+02 E0= -.90224382E+02  d E =-.324364E-02
