<?xml version="1.0" encoding="ISO-8859-1"?>
<modeling>
 <generator>
  <i name="program" type="string">vasp </i>
  <i name="version" type="string">6.4.3  </i>
  <i name="subversion" type="string">19Mar24 (build May 31 2024 16:31:43) complex                          parallel </i>
  <i name="platform" type="string">LinuxIFC </i>
  <i name="date" type="string">2024 10 30 </i>
  <i name="time" type="string">18:10:05 </i>
 </generator>
 <incar>
  <i type="string" name="SYSTEM">Kpoints</i>
  <i type="int" name="ISTART">     0</i>
  <i type="string" name="PREC">Accurate</i>
  <i type="string" name="ALGO">Normal</i>
  <i type="int" name="ISPIN">     1</i>
  <i type="int" name="ICHARG">     2</i>
  <i type="int" name="NELM">   100</i>
  <i type="int" name="IBRION">    -1</i>
  <i name="EDIFF">      0.00000100</i>
  <i name="EDIFFG">     -0.00100000</i>
  <i type="int" name="NSW">     0</i>
  <i type="int" name="ISIF">     2</i>
  <i name="ENCUT">    275.00000000</i>
  <i name="POTIM">      0.50000000</i>
  <i type="int" name="ISMEAR">     0</i>
  <i name="SIGMA">      0.05000000</i>
  <i type="logical" name="LWAVE"> F  </i>
  <i type="logical" name="LCHARG"> F  </i>
  <i type="string" name="GGA">PE</i>
 </incar>
 <primitive_cell>
  <structure name="primitive_cell" >
   <crystal>
    <varray name="basis" >
     <v>       5.69700000       0.00000000       0.00000000 </v>
     <v>       0.00000000       4.04790000       0.00000000 </v>
     <v>       0.00000000       0.00000000       6.20420000 </v>
    </varray>
    <i name="volume">    143.07435078 </i>
    <varray name="rec_basis" >
     <v>       0.17553098       0.00000000       0.00000000 </v>
     <v>       0.00000000       0.24704168       0.00000000 </v>
     <v>       0.00000000       0.00000000       0.16118114 </v>
    </varray>
   </crystal>
   <varray name="positions" >
    <v>       0.52123000       0.50000000       0.63796000 </v>
    <v>       0.47877000       0.50000000       0.36204000 </v>
    <v>       0.97877000       0.50000000       0.63796000 </v>
    <v>       0.02123000       0.50000000       0.36204000 </v>
    <v>       0.60090000       0.50000000       0.89991000 </v>
    <v>       0.39910000       0.50000000       0.10009000 </v>
    <v>       0.89910000       0.50000000       0.89991000 </v>
    <v>       0.10090000       0.50000000       0.10009000 </v>
    <v>       0.75000000       0.79171000       0.72973000 </v>
    <v>       0.25000000       0.20829000       0.27027000 </v>
    <v>       0.75000000       0.20829000       0.72973000 </v>
    <v>       0.25000000       0.79171000       0.27027000 </v>
    <v>       0.25000000       0.50000000       0.52367000 </v>
    <v>       0.75000000       0.50000000       0.47633000 </v>
   </varray>
  </structure>
  <varray name="primitive_index" >
   <v type="int" >        1 </v>
   <v type="int" >        2 </v>
   <v type="int" >        3 </v>
   <v type="int" >        4 </v>
   <v type="int" >        5 </v>
   <v type="int" >        6 </v>
   <v type="int" >        7 </v>
   <v type="int" >        8 </v>
   <v type="int" >        9 </v>
   <v type="int" >       10 </v>
   <v type="int" >       11 </v>
   <v type="int" >       12 </v>
   <v type="int" >       13 </v>
   <v type="int" >       14 </v>
  </varray>
 </primitive_cell>
 <kpoints>
  <generation param="Monkhorst-Pack">
   <v type="int" name="divisions">      10       14        9 </v>
   <v name="usershift">      0.00000000       0.00000000       0.00000000 </v>
   <v name="genvec1">      0.10000000       0.00000000       0.00000000 </v>
   <v name="genvec2">      0.00000000       0.07142857       0.00000000 </v>
   <v name="genvec3">      0.00000000       0.00000000       0.11111111 </v>
   <v name="shift">      0.50000000       0.50000000       0.00000000 </v>
  </generation>
  <varray name="kpointlist" >
   <v>       0.05000000       0.03571429       0.00000000 </v>
   <v>       0.15000000       0.03571429       0.00000000 </v>
   <v>       0.25000000       0.03571429       0.00000000 </v>
   <v>       0.35000000       0.03571429       0.00000000 </v>
   <v>       0.45000000       0.03571429       0.00000000 </v>
   <v>       0.05000000       0.10714286       0.00000000 </v>
   <v>       0.15000000       0.10714286       0.00000000 </v>
   <v>       0.25000000       0.10714286       0.00000000 </v>
   <v>       0.35000000       0.10714286       0.00000000 </v>
   <v>       0.45000000       0.10714286       0.00000000 </v>
   <v>       0.05000000       0.17857143       0.00000000 </v>
   <v>       0.15000000       0.17857143       0.00000000 </v>
   <v>       0.25000000       0.17857143       0.00000000 </v>
   <v>       0.35000000       0.17857143       0.00000000 </v>
   <v>       0.45000000       0.17857143       0.00000000 </v>
   <v>       0.05000000       0.25000000       0.00000000 </v>
   <v>       0.15000000       0.25000000       0.00000000 </v>
   <v>       0.25000000       0.25000000       0.00000000 </v>
   <v>       0.35000000       0.25000000       0.00000000 </v>
   <v>       0.45000000       0.25000000       0.00000000 </v>
   <v>       0.05000000       0.32142857       0.00000000 </v>
   <v>       0.15000000       0.32142857       0.00000000 </v>
   <v>       0.25000000       0.32142857       0.00000000 </v>
   <v>       0.35000000       0.32142857       0.00000000 </v>
   <v>       0.45000000       0.32142857       0.00000000 </v>
   <v>       0.05000000       0.39285714       0.00000000 </v>
   <v>       0.15000000       0.39285714       0.00000000 </v>
   <v>       0.25000000       0.39285714       0.00000000 </v>
   <v>       0.35000000       0.39285714       0.00000000 </v>
   <v>       0.45000000       0.39285714       0.00000000 </v>
   <v>       0.05000000       0.46428571       0.00000000 </v>
   <v>       0.15000000       0.46428571       0.00000000 </v>
   <v>       0.25000000       0.46428571       0.00000000 </v>
   <v>       0.35000000       0.46428571       0.00000000 </v>
   <v>       0.45000000       0.46428571       0.00000000 </v>
   <v>       0.05000000       0.03571429       0.11111111 </v>
   <v>       0.15000000       0.03571429       0.11111111 </v>
   <v>       0.25000000       0.03571429       0.11111111 </v>
   <v>       0.35000000       0.03571429       0.11111111 </v>
   <v>       0.45000000       0.03571429       0.11111111 </v>
   <v>       0.05000000       0.10714286       0.11111111 </v>
   <v>       0.15000000       0.10714286       0.11111111 </v>
   <v>       0.25000000       0.10714286       0.11111111 </v>
   <v>       0.35000000       0.10714286       0.11111111 </v>
   <v>       0.45000000       0.10714286       0.11111111 </v>
   <v>       0.05000000       0.17857143       0.11111111 </v>
   <v>       0.15000000       0.17857143       0.11111111 </v>
   <v>       0.25000000       0.17857143       0.11111111 </v>
   <v>       0.35000000       0.17857143       0.11111111 </v>
   <v>       0.45000000       0.17857143       0.11111111 </v>
   <v>       0.05000000       0.25000000       0.11111111 </v>
   <v>       0.15000000       0.25000000       0.11111111 </v>
   <v>       0.25000000       0.25000000       0.11111111 </v>
   <v>       0.35000000       0.25000000       0.11111111 </v>
   <v>       0.45000000       0.25000000       0.11111111 </v>
   <v>       0.05000000       0.32142857       0.11111111 </v>
   <v>       0.15000000       0.32142857       0.11111111 </v>
   <v>       0.25000000       0.32142857       0.11111111 </v>
   <v>       0.35000000       0.32142857       0.11111111 </v>
   <v>       0.45000000       0.32142857       0.11111111 </v>
   <v>       0.05000000       0.39285714       0.11111111 </v>
   <v>       0.15000000       0.39285714       0.11111111 </v>
   <v>       0.25000000       0.39285714       0.11111111 </v>
   <v>       0.35000000       0.39285714       0.11111111 </v>
   <v>       0.45000000       0.39285714       0.11111111 </v>
   <v>       0.05000000       0.46428571       0.11111111 </v>
   <v>       0.15000000       0.46428571       0.11111111 </v>
   <v>       0.25000000       0.46428571       0.11111111 </v>
   <v>       0.35000000       0.46428571       0.11111111 </v>
   <v>       0.45000000       0.46428571       0.11111111 </v>
   <v>       0.05000000       0.03571429       0.22222222 </v>
   <v>       0.15000000       0.03571429       0.22222222 </v>
   <v>       0.25000000       0.03571429       0.22222222 </v>
   <v>       0.35000000       0.03571429       0.22222222 </v>
   <v>       0.45000000       0.03571429       0.22222222 </v>
   <v>       0.05000000       0.10714286       0.22222222 </v>
   <v>       0.15000000       0.10714286       0.22222222 </v>
   <v>       0.25000000       0.10714286       0.22222222 </v>
   <v>       0.35000000       0.10714286       0.22222222 </v>
   <v>       0.45000000       0.10714286       0.22222222 </v>
   <v>       0.05000000       0.17857143       0.22222222 </v>
   <v>       0.15000000       0.17857143       0.22222222 </v>
   <v>       0.25000000       0.17857143       0.22222222 </v>
   <v>       0.35000000       0.17857143       0.22222222 </v>
   <v>       0.45000000       0.17857143       0.22222222 </v>
   <v>       0.05000000       0.25000000       0.22222222 </v>
   <v>       0.15000000       0.25000000       0.22222222 </v>
   <v>       0.25000000       0.25000000       0.22222222 </v>
   <v>       0.35000000       0.25000000       0.22222222 </v>
   <v>       0.45000000       0.25000000       0.22222222 </v>
   <v>       0.05000000       0.32142857       0.22222222 </v>
   <v>       0.15000000       0.32142857       0.22222222 </v>
   <v>       0.25000000       0.32142857       0.22222222 </v>
   <v>       0.35000000       0.32142857       0.22222222 </v>
   <v>       0.45000000       0.32142857       0.22222222 </v>
   <v>       0.05000000       0.39285714       0.22222222 </v>
   <v>       0.15000000       0.39285714       0.22222222 </v>
   <v>       0.25000000       0.39285714       0.22222222 </v>
   <v>       0.35000000       0.39285714       0.22222222 </v>
   <v>       0.45000000       0.39285714       0.22222222 </v>
   <v>       0.05000000       0.46428571       0.22222222 </v>
   <v>       0.15000000       0.46428571       0.22222222 </v>
   <v>       0.25000000       0.46428571       0.22222222 </v>
   <v>       0.35000000       0.46428571       0.22222222 </v>
   <v>       0.45000000       0.46428571       0.22222222 </v>
   <v>       0.05000000       0.03571429       0.33333333 </v>
   <v>       0.15000000       0.03571429       0.33333333 </v>
   <v>       0.25000000       0.03571429       0.33333333 </v>
   <v>       0.35000000       0.03571429       0.33333333 </v>
   <v>       0.45000000       0.03571429       0.33333333 </v>
   <v>       0.05000000       0.10714286       0.33333333 </v>
   <v>       0.15000000       0.10714286       0.33333333 </v>
   <v>       0.25000000       0.10714286       0.33333333 </v>
   <v>       0.35000000       0.10714286       0.33333333 </v>
   <v>       0.45000000       0.10714286       0.33333333 </v>
   <v>       0.05000000       0.17857143       0.33333333 </v>
   <v>       0.15000000       0.17857143       0.33333333 </v>
   <v>       0.25000000       0.17857143       0.33333333 </v>
   <v>       0.35000000       0.17857143       0.33333333 </v>
   <v>       0.45000000       0.17857143       0.33333333 </v>
   <v>       0.05000000       0.25000000       0.33333333 </v>
   <v>       0.15000000       0.25000000       0.33333333 </v>
   <v>       0.25000000       0.25000000       0.33333333 </v>
   <v>       0.35000000       0.25000000       0.33333333 </v>
   <v>       0.45000000       0.25000000       0.33333333 </v>
   <v>       0.05000000       0.32142857       0.33333333 </v>
   <v>       0.15000000       0.32142857       0.33333333 </v>
   <v>       0.25000000       0.32142857       0.33333333 </v>
   <v>       0.35000000       0.32142857       0.33333333 </v>
   <v>       0.45000000       0.32142857       0.33333333 </v>
   <v>       0.05000000       0.39285714       0.33333333 </v>
   <v>       0.15000000       0.39285714       0.33333333 </v>
   <v>       0.25000000       0.39285714       0.33333333 </v>
   <v>       0.35000000       0.39285714       0.33333333 </v>
   <v>       0.45000000       0.39285714       0.33333333 </v>
   <v>       0.05000000       0.46428571       0.33333333 </v>
   <v>       0.15000000       0.46428571       0.33333333 </v>
   <v>       0.25000000       0.46428571       0.33333333 </v>
   <v>       0.35000000       0.46428571       0.33333333 </v>
   <v>       0.45000000       0.46428571       0.33333333 </v>
   <v>       0.05000000       0.03571429       0.44444444 </v>
   <v>       0.15000000       0.03571429       0.44444444 </v>
   <v>       0.25000000       0.03571429       0.44444444 </v>
   <v>       0.35000000       0.03571429       0.44444444 </v>
   <v>       0.45000000       0.03571429       0.44444444 </v>
   <v>       0.05000000       0.10714286       0.44444444 </v>
   <v>       0.15000000       0.10714286       0.44444444 </v>
   <v>       0.25000000       0.10714286       0.44444444 </v>
   <v>       0.35000000       0.10714286       0.44444444 </v>
   <v>       0.45000000       0.10714286       0.44444444 </v>
   <v>       0.05000000       0.17857143       0.44444444 </v>
   <v>       0.15000000       0.17857143       0.44444444 </v>
   <v>       0.25000000       0.17857143       0.44444444 </v>
   <v>       0.35000000       0.17857143       0.44444444 </v>
   <v>       0.45000000       0.17857143       0.44444444 </v>
   <v>       0.05000000       0.25000000       0.44444444 </v>
   <v>       0.15000000       0.25000000       0.44444444 </v>
   <v>       0.25000000       0.25000000       0.44444444 </v>
   <v>       0.35000000       0.25000000       0.44444444 </v>
   <v>       0.45000000       0.25000000       0.44444444 </v>
   <v>       0.05000000       0.32142857       0.44444444 </v>
   <v>       0.15000000       0.32142857       0.44444444 </v>
   <v>       0.25000000       0.32142857       0.44444444 </v>
   <v>       0.35000000       0.32142857       0.44444444 </v>
   <v>       0.45000000       0.32142857       0.44444444 </v>
   <v>       0.05000000       0.39285714       0.44444444 </v>
   <v>       0.15000000       0.39285714       0.44444444 </v>
   <v>       0.25000000       0.39285714       0.44444444 </v>
   <v>       0.35000000       0.39285714       0.44444444 </v>
   <v>       0.45000000       0.39285714       0.44444444 </v>
   <v>       0.05000000       0.46428571       0.44444444 </v>
   <v>       0.15000000       0.46428571       0.44444444 </v>
   <v>       0.25000000       0.46428571       0.44444444 </v>
   <v>       0.35000000       0.46428571       0.44444444 </v>
   <v>       0.45000000       0.46428571       0.44444444 </v>
  </varray>
  <varray name="weights" >
   <v>       0.00317460 </v>
   <v>       0.00317460 </v>
   <v>       0.00317460 </v>
   <v>       0.00317460 </v>
   <v>       0.00317460 </v>
   <v>       0.00317460 </v>
   <v>       0.00317460 </v>
   <v>       0.00317460 </v>
   <v>       0.00317460 </v>
   <v>       0.00317460 </v>
   <v>       0.00317460 </v>
   <v>       0.00317460 </v>
   <v>       0.00317460 </v>
   <v>       0.00317460 </v>
   <v>       0.00317460 </v>
   <v>       0.00317460 </v>
   <v>       0.00317460 </v>
   <v>       0.00317460 </v>
   <v>       0.00317460 </v>
   <v>       0.00317460 </v>
   <v>       0.00317460 </v>
   <v>       0.00317460 </v>
   <v>       0.00317460 </v>
   <v>       0.00317460 </v>
   <v>       0.00317460 </v>
   <v>       0.00317460 </v>
   <v>       0.00317460 </v>
   <v>       0.00317460 </v>
   <v>       0.00317460 </v>
   <v>       0.00317460 </v>
   <v>       0.00317460 </v>
   <v>       0.00317460 </v>
   <v>       0.00317460 </v>
   <v>       0.00317460 </v>
   <v>       0.00317460 </v>
   <v>       0.00634921 </v>
   <v>       0.00634921 </v>
   <v>       0.00634921 </v>
   <v>       0.00634921 </v>
   <v>       0.00634921 </v>
   <v>       0.00634921 </v>
   <v>       0.00634921 </v>
   <v>       0.00634921 </v>
   <v>       0.00634921 </v>
   <v>       0.00634921 </v>
   <v>       0.00634921 </v>
   <v>       0.00634921 </v>
   <v>       0.00634921 </v>
   <v>       0.00634921 </v>
   <v>       0.00634921 </v>
   <v>       0.00634921 </v>
   <v>       0.00634921 </v>
   <v>       0.00634921 </v>
   <v>       0.00634921 </v>
   <v>       0.00634921 </v>
   <v>       0.00634921 </v>
   <v>       0.00634921 </v>
   <v>       0.00634921 </v>
   <v>       0.00634921 </v>
   <v>       0.00634921 </v>
   <v>       0.00634921 </v>
   <v>       0.00634921 </v>
   <v>       0.00634921 </v>
   <v>       0.00634921 </v>
   <v>       0.00634921 </v>
   <v>       0.00634921 </v>
   <v>       0.00634921 </v>
   <v>       0.00634921 </v>
   <v>       0.00634921 </v>
   <v>       0.00634921 </v>
   <v>       0.00634921 </v>
   <v>       0.00634921 </v>
   <v>       0.00634921 </v>
   <v>       0.00634921 </v>
   <v>       0.00634921 </v>
   <v>       0.00634921 </v>
   <v>       0.00634921 </v>
   <v>       0.00634921 </v>
   <v>       0.00634921 </v>
   <v>       0.00634921 </v>
   <v>       0.00634921 </v>
   <v>       0.00634921 </v>
   <v>       0.00634921 </v>
   <v>       0.00634921 </v>
   <v>       0.00634921 </v>
   <v>       0.00634921 </v>
   <v>       0.00634921 </v>
   <v>       0.00634921 </v>
   <v>       0.00634921 </v>
   <v>       0.00634921 </v>
   <v>       0.00634921 </v>
   <v>       0.00634921 </v>
   <v>       0.00634921 </v>
   <v>       0.00634921 </v>
   <v>       0.00634921 </v>
   <v>       0.00634921 </v>
   <v>       0.00634921 </v>
   <v>       0.00634921 </v>
   <v>       0.00634921 </v>
   <v>       0.00634921 </v>
   <v>       0.00634921 </v>
   <v>       0.00634921 </v>
   <v>       0.00634921 </v>
   <v>       0.00634921 </v>
   <v>       0.00634921 </v>
   <v>       0.00634921 </v>
   <v>       0.00634921 </v>
   <v>       0.00634921 </v>
   <v>       0.00634921 </v>
   <v>       0.00634921 </v>
   <v>       0.00634921 </v>
   <v>       0.00634921 </v>
   <v>       0.00634921 </v>
   <v>       0.00634921 </v>
   <v>       0.00634921 </v>
   <v>       0.00634921 </v>
   <v>       0.00634921 </v>
   <v>       0.00634921 </v>
   <v>       0.00634921 </v>
   <v>       0.00634921 </v>
   <v>       0.00634921 </v>
   <v>       0.00634921 </v>
   <v>       0.00634921 </v>
   <v>       0.00634921 </v>
   <v>       0.00634921 </v>
   <v>       0.00634921 </v>
   <v>       0.00634921 </v>
   <v>       0.00634921 </v>
   <v>       0.00634921 </v>
   <v>       0.00634921 </v>
   <v>       0.00634921 </v>
   <v>       0.00634921 </v>
   <v>       0.00634921 </v>
   <v>       0.00634921 </v>
   <v>       0.00634921 </v>
   <v>       0.00634921 </v>
   <v>       0.00634921 </v>
   <v>       0.00634921 </v>
   <v>       0.00634921 </v>
   <v>       0.00634921 </v>
   <v>       0.00634921 </v>
   <v>       0.00634921 </v>
   <v>       0.00634921 </v>
   <v>       0.00634921 </v>
   <v>       0.00634921 </v>
   <v>       0.00634921 </v>
   <v>       0.00634921 </v>
   <v>       0.00634921 </v>
   <v>       0.00634921 </v>
   <v>       0.00634921 </v>
   <v>       0.00634921 </v>
   <v>       0.00634921 </v>
   <v>       0.00634921 </v>
   <v>       0.00634921 </v>
   <v>       0.00634921 </v>
   <v>       0.00634921 </v>
   <v>       0.00634921 </v>
   <v>       0.00634921 </v>
   <v>       0.00634921 </v>
   <v>       0.00634921 </v>
   <v>       0.00634921 </v>
   <v>       0.00634921 </v>
   <v>       0.00634921 </v>
   <v>       0.00634921 </v>
   <v>       0.00634921 </v>
   <v>       0.00634921 </v>
   <v>       0.00634921 </v>
   <v>       0.00634921 </v>
   <v>       0.00634921 </v>
   <v>       0.00634921 </v>
   <v>       0.00634921 </v>
   <v>       0.00634921 </v>
   <v>       0.00634921 </v>
   <v>       0.00634921 </v>
   <v>       0.00634921 </v>
  </varray>
 </kpoints>
 <parameters>
  <separator name="general" >
   <i type="string" name="SYSTEM">Kpoints</i>
   <i type="logical" name="LCOMPAT"> F  </i>
  </separator>
  <separator name="electronic" >
   <i type="string" name="PREC">accura</i>
   <i name="ENMAX">    275.00000000</i>
   <i name="ENAUG">    535.51400000</i>
   <i name="EDIFF">      0.00000100</i>
   <i type="int" name="IALGO">    38</i>
   <i type="int" name="IWAVPR">    10</i>
   <i type="int" name="NBANDS">    48</i>
   <i type="int" name="NBANDSLOW">    -1</i>
   <i type="int" name="NBANDSHIGH">    -1</i>
   <i name="NELECT">     42.00000000</i>
   <i type="int" name="TURBO">     0</i>
   <i type="int" name="IRESTART">     0</i>
   <i type="int" name="NREBOOT">     0</i>
   <i type="int" name="NMIN">     0</i>
   <i name="EREF">      0.00000000</i>
   <separator name="electronic smearing" >
    <i type="int" name="ISMEAR">     0</i>
    <i name="SIGMA">      0.05000000</i>
    <i name="KSPACING">      0.50000000</i>
    <i type="logical" name="KGAMMA"> T  </i>
    <i type="logical" name="KBLOWUP"> T  </i>
   </separator>
   <separator name="electronic projectors" >
    <i type="logical" name="LREAL"> F  </i>
    <v name="ROPT">      0.00000000</v>
    <i type="int" name="LMAXPAW">  -100</i>
    <i type="int" name="LMAXMIX">     2</i>
    <i type="logical" name="NLSPLINE"> F  </i>
   </separator>
   <separator name="electronic startup" >
    <i type="int" name="ISTART">     0</i>
    <i type="int" name="ICHARG">     2</i>
    <i type="int" name="INIWAV">     1</i>
   </separator>
   <separator name="electronic spin" >
    <i type="int" name="ISPIN">     1</i>
    <i type="logical" name="LNONCOLLINEAR"> F  </i>
    <v name="MAGMOM">      1.00000000      1.00000000      1.00000000      1.00000000      1.00000000      1.00000000      1.00000000      1.00000000      1.00000000      1.00000000      1.00000000      1.00000000      1.00000000      1.00000000</v>
    <i name="NUPDOWN">     -1.00000000</i>
    <i type="logical" name="LSORBIT"> F  </i>
    <v name="SAXIS">      0.00000000      0.00000000      1.00000000</v>
    <i type="logical" name="LSPIRAL"> F  </i>
    <v name="QSPIRAL">      0.00000000      0.00000000      0.00000000</v>
    <i type="logical" name="LZEROZ"> F  </i>
   </separator>
   <separator name="electronic exchange-correlation" >
    <i type="logical" name="LASPH"> F  </i>
   </separator>
   <separator name="electronic convergence" >
    <i type="int" name="NELM">   100</i>
    <i type="int" name="NELMDL">    -5</i>
    <i type="int" name="NELMIN">     2</i>
    <i name="ENINI">    275.00000000</i>
    <separator name="electronic convergence detail" >
     <i type="logical" name="LDIAG"> T  </i>
     <i type="logical" name="LSUBROT"> F  </i>
     <i name="WEIMIN">      0.00000000</i>
     <i name="EBREAK">      0.00000001</i>
     <i name="DEPER">      0.30000000</i>
     <i type="int" name="NRMM">     4</i>
     <i name="TIME">      0.40000000</i>
    </separator>
   </separator>
   <separator name="electronic mixer" >
    <i name="AMIX">      0.40000000</i>
    <i name="BMIX">      1.00000000</i>
    <i name="AMIN">      0.10000000</i>
    <i name="AMIX_MAG">      1.60000000</i>
    <i name="BMIX_MAG">      1.00000000</i>
    <separator name="electronic mixer details" >
     <i type="int" name="IMIX">     4</i>
     <i type="logical" name="MIXFIRST"> F  </i>
     <i type="int" name="MAXMIX">   -45</i>
     <i name="WC">    100.00000000</i>
     <i type="int" name="INIMIX">     1</i>
     <i type="int" name="MIXPRE">     1</i>
     <i type="int" name="MREMOVE">     5</i>
    </separator>
   </separator>
   <separator name="electronic dipolcorrection" >
    <i type="logical" name="LDIPOL"> F  </i>
    <i type="logical" name="LMONO"> F  </i>
    <i type="int" name="IDIPOL">     0</i>
    <i name="EPSILON">      1.00000000</i>
    <v name="DIPOL">   -100.00000000   -100.00000000   -100.00000000</v>
    <i name="EFIELD">      0.00000000</i>
    <i type="logical" name="LVACPOTAV"> F  </i>
   </separator>
  </separator>
  <separator name="grids" >
   <i type="int" name="NGX">    32</i>
   <i type="int" name="NGY">    24</i>
   <i type="int" name="NGZ">    36</i>
   <i type="int" name="NGXF">    64</i>
   <i type="int" name="NGYF">    48</i>
   <i type="int" name="NGZF">    72</i>
   <i type="logical" name="ADDGRID"> F  </i>
  </separator>
  <separator name="ionic" >
   <i type="int" name="NSW">     0</i>
   <i type="int" name="IBRION">    -1</i>
   <i type="int" name="MDALGO">     0</i>
   <i type="int" name="ISIF">     2</i>
   <i name="PSTRESS">      0.00000000</i>
   <i name="EDIFFG">     -0.00100000</i>
   <i type="int" name="NFREE">     0</i>
   <i name="POTIM">      0.50000000</i>
   <i name="SMASS">     -3.00000000</i>
   <i name="SCALEE">      1.00000000</i>
  </separator>
  <separator name="ionic md" >
   <i name="TEBEG">      0.00010000</i>
   <i name="TEEND">      0.00010000</i>
   <i type="int" name="NBLOCK">     1</i>
   <i type="int" name="KBLOCK">     1</i>
   <i type="int" name="NPACO">   256</i>
   <i name="APACO">     10.00000000</i>
  </separator>
  <separator name="symmetry" >
   <i type="int" name="ISYM">     2</i>
   <i name="SYMPREC">      0.00001000</i>
  </separator>
  <separator name="dos" >
   <i type="int" name="LORBIT">     0</i>
   <v name="RWIGS">     -1.00000000</v>
   <i type="int" name="NEDOS">   301</i>
   <i name="EMIN">     10.00000000</i>
   <i name="EMAX">    -10.00000000</i>
   <i name="EFERMI">      0.00000000</i>
  </separator>
  <separator name="writing" >
   <i type="int" name="NWRITE">     2</i>
   <i type="logical" name="LWAVE"> F  </i>
   <i type="logical" name="LDOWNSAMPLE"> F  </i>
   <i type="logical" name="LCHARG"> F  </i>
   <i type="logical" name="LPARD"> F  </i>
   <i type="logical" name="LVTOT"> F  </i>
   <i type="logical" name="LVHAR"> F  </i>
   <i type="logical" name="LELF"> F  </i>
   <i type="logical" name="LOPTICS"> F  </i>
   <v name="STM">      0.00000000      0.00000000      0.00000000      0.00000000      0.00000000      0.00000000      0.00000000</v>
  </separator>
  <separator name="performance" >
   <i type="int" name="NPAR">    24</i>
   <i type="int" name="NSIM">     4</i>
   <i type="int" name="NBLK">    -1</i>
   <i type="logical" name="LPLANE"> T  </i>
   <i type="logical" name="LSCALAPACK"> T  </i>
   <i type="logical" name="LSCAAWARE"> F  </i>
   <i type="logical" name="LSCALU"> F  </i>
   <i type="logical" name="LASYNC"> F  </i>
   <i type="logical" name="LORBITALREAL"> F  </i>
  </separator>
  <separator name="miscellaneous" >
   <i type="int" name="IDIOT">     3</i>
   <i type="int" name="PHON_NSTRUCT">    -1</i>
   <i type="logical" name="LMUSIC"> F  </i>
   <v name="POMASS">     10.81100000</v>
   <v name="DARWINR">      0.00000000</v>
   <v name="DARWINV">      1.00000000</v>
   <i type="logical" name="LCORR"> T  </i>
  </separator>
  <i type="logical" name="GGA_COMPAT"> T  </i>
  <i type="logical" name="LBERRY"> F  </i>
  <i type="int" name="ICORELEVEL">     0</i>
  <i type="logical" name="LDAU"> F  </i>
  <i type="int" name="I_CONSTRAINED_M">     0</i>
  <separator name="electronic exchange-correlation" >
   <i type="string" name="GGA    ">PE</i>
   <i type="string" name="XC_C">1</i>
   <i type="int" name="VOSKOWN">     0</i>
   <i type="logical" name="LHFCALC"> F  </i>
   <i type="string" name="PRECFOCK"></i>
   <i type="logical" name="LSYMGRAD"> F  </i>
   <i type="logical" name="LHFONE"> F  </i>
   <i type="logical" name="LRHFCALC"> F  </i>
   <i type="logical" name="LTHOMAS"> F  </i>
   <i type="logical" name="LMODELHF"> F  </i>
   <i type="logical" name="LFOCKACE"> F  </i>
   <i name="ENCUT4O">     -1.00000000</i>
   <i type="int" name="EXXOEP">     0</i>
   <i type="int" name="FOURORBIT">     0</i>
   <i name="AEXX">      0.00000000</i>
   <i name="HFALPHA">      0.00000000</i>
   <i name="MCALPHA">      0.00000000</i>
   <i name="ALDAX">      1.00000000</i>
   <i name="AGGAX">      1.00000000</i>
   <i name="AMGGAX">      1.00000000</i>
   <i name="ALDAC">      1.00000000</i>
   <i name="AGGAC">      1.00000000</i>
   <i name="AMGGAC">      1.00000000</i>
   <i type="int" name="NKREDX">     1</i>
   <i type="int" name="NKREDY">     1</i>
   <i type="int" name="NKREDZ">     1</i>
   <i type="logical" name="SHIFTRED"> F  </i>
   <i type="logical" name="ODDONLY"> F  </i>
   <i type="logical" name="EVENONLY"> F  </i>
   <i type="int" name="LMAXFOCK">     0</i>
   <i type="int" name="NMAXFOCKAE">     0</i>
   <i type="logical" name="LFOCKAEDFT"> F  </i>
   <i name="HFSCREEN">      0.00000000</i>
   <i name="HFSCREENC">      0.00000000</i>
   <i type="int" name="NBANDSGWLOW">     0</i>
  </separator>
  <separator name="vdW DFT" >
   <i type="logical" name="LUSE_VDW"> F  </i>
   <i type="int" name="IVDW_NL">    -1</i>
   <i type="logical" name="LSPIN_VDW"> F  </i>
   <i name="ZAB_VDW">     -0.84910000</i>
   <i name="GAMMA_VDW">      1.39626340</i>
   <i name="ALPHA_VDW">      0.00000000</i>
   <i name="PARAM1">      0.12340000</i>
   <i name="PARAM2">      1.00000000</i>
   <i name="BPARAM">      6.30000000</i>
   <i name="CPARAM">      0.00930000</i>
  </separator>
  <separator name="model GW" >
   <i type="int" name="MODEL_GW">     0</i>
   <i name="MODEL_EPS0">      6.13175789</i>
   <i name="MODEL_ALPHA">      1.00000000</i>
  </separator>
  <separator name="linear response parameters" >
   <i type="logical" name="LEPSILON"> F  </i>
   <i type="logical" name="LRPA"> F  </i>
   <i type="logical" name="LNABLA"> F  </i>
   <i type="logical" name="LVEL"> F  </i>
   <i name="CSHIFT">      0.10000000</i>
   <i name="OMEGAMAX">     -1.00000000</i>
   <i name="DEG_THRESHOLD">      0.00200000</i>
   <i name="RTIME">     -0.10000000</i>
   <i name="WPLASMAI">      0.00000000</i>
   <v name="DFIELD">      0.00000000      0.00000000      0.00000000</v>
   <v name="WPLASMA">      0.00000000      0.00000000      0.00000000      0.00000000      0.00000000      0.00000000      0.00000000      0.00000000      0.00000000</v>
  </separator>
  <separator name="orbital magnetization" >
   <i type="logical" name="NUCIND"> F  </i>
   <v name="MAGPOS">      0.00000000      0.00000000      0.00000000</v>
   <i type="logical" name="LNICSALL"> T  </i>
   <i type="logical" name="ORBITALMAG"> F  </i>
   <i type="logical" name="LMAGBLOCH"> F  </i>
   <i type="logical" name="LCHIMAG"> F  </i>
   <i type="logical" name="LGAUGE"> T  </i>
   <i type="int" name="MAGATOM">     0</i>
   <v name="MAGDIPOL">      0.00000000      0.00000000      0.00000000</v>
   <v name="AVECCONST">      0.00000000      0.00000000      0.00000000</v>
  </separator>
  <separator name="response functions" >
   <i type="logical" name="LALL_IN_ONE"> F  </i>
   <i type="int" name="IALL_IN_ONE">    -1</i>
   <i type="int" name="NBANDS_WAVE">    -1</i>
   <i type="logical" name="LFINITE_TEMPERATURE"> F  </i>
   <i type="logical" name="LADDER"> F  </i>
   <i type="logical" name="LRPAFORCE"> F  </i>
   <i type="logical" name="LFXC"> F  </i>
   <i type="logical" name="LHARTREE"> T  </i>
   <i type="int" name="IBSE">     0</i>
   <v type="int" name="KPOINT">    -1     0     0     0</v>
   <i type="logical" name="LTCTC"> F  </i>
   <i type="logical" name="LTCTE"> F  </i>
   <i type="logical" name="LTETE"> F  </i>
   <i type="logical" name="LTRIPLET"> F  </i>
   <i type="logical" name="LFXCEPS"> F  </i>
   <i type="logical" name="LFXHEG"> F  </i>
   <i type="int" name="NATURALO">     2</i>
   <i type="logical" name="LHOLEGF"> F  </i>
   <i type="logical" name="L2ORDER"> F  </i>
   <i type="logical" name="LDMP1"> F  </i>
   <i type="logical" name="LMP2LT"> F  </i>
   <i type="logical" name="LSMP2LT"> F  </i>
   <i type="logical" name="LGWLF"> F  </i>
   <i name="ENCUTGW">     -1.60000002</i>
   <i name="ENCUTGWSOFT">     -1.60000002</i>
   <i name="ENCUTLF">     -1.00000000</i>
   <i type="logical" name="ESF_SPLINES"> F  </i>
   <i name="ESF_CONV">      0.01000000</i>
   <i type="int" name="ESF_NINTER">    15</i>
   <i type="int" name="LMAXMP2">    -1</i>
   <i name="SCISSOR">      0.00000000</i>
   <i type="int" name="NOMEGA">     0</i>
   <i type="int" name="NOMEGAR">     0</i>
   <i type="int" name="NBANDSGW">    -1</i>
   <i type="int" name="NBANDSO">    -1</i>
   <i type="int" name="NBANDSV">    -1</i>
   <i type="int" name="NELMGW">     1</i>
   <i type="int" name="NELMHF">     1</i>
   <i type="int" name="DIM">     3</i>
   <i type="int" name="IESPILON">     4</i>
   <i type="int" name="ANTIRES">     0</i>
   <i name="OMEGAMAX">    -30.00000000</i>
   <i name="OMEGAMIN">    -30.00000000</i>
   <i name="OMEGATL">   -200.00000000</i>
   <i type="int" name="OMEGAGRID">     0</i>
   <i name="CSHIFT">     -0.10000000</i>
   <i type="logical" name="LSELFENERGY"> F  </i>
   <i type="logical" name="LSPECTRAL"> F  </i>
   <i type="logical" name="LSPECTRALGW"> F  </i>
   <i type="logical" name="LSINGLES"> F  </i>
   <i type="logical" name="LFERMIGW"> F  </i>
   <i type="logical" name="ODDONLYGW"> F  </i>
   <i type="logical" name="EVENONLYGW"> F  </i>
   <i type="int" name="NKREDLFX">     1</i>
   <i type="int" name="NKREDLFY">     1</i>
   <i type="int" name="NKREDLFZ">     1</i>
   <i type="int" name="MAXMEM">  2800</i>
   <i type="int" name="TELESCOPE">     0</i>
   <i type="int" name="NTAUPAR">    -1</i>
   <i type="int" name="NOMEGAPAR">    -1</i>
   <i name="DAMP_NEWTON">      0.80000001</i>
   <i name="LAMBDA">      1.00000000</i>
  </separator>
  <separator name="External order field" >
   <i name="OFIELD_KAPPA">      0.00000000</i>
   <v name="OFIELD_K">      0.00000000      0.00000000      0.00000000</v>
   <i name="OFIELD_Q6_NEAR">      0.00000000</i>
   <i name="OFIELD_Q6_FAR">      0.00000000</i>
   <i name="OFIELD_A">      0.00000000</i>
  </separator>
  <separator name="optional k-points parameters" >
   <i type="int" name="KPOINTS_OPT_MODE">     1</i>
   <i type="logical" name="LKPOINTS_OPT"> F  </i>
  </separator>
 </parameters>
 <atominfo>
  <atoms>      14 </atoms>
  <types>       1 </types>
  <array name="atoms" >
   <dimension dim="1">ion</dimension>
   <field type="string">element</field>
   <field type="int">atomtype</field>
   <set>
    <rc><c>B </c><c>   1</c></rc>
    <rc><c>B </c><c>   1</c></rc>
    <rc><c>B </c><c>   1</c></rc>
    <rc><c>B </c><c>   1</c></rc>
    <rc><c>B </c><c>   1</c></rc>
    <rc><c>B </c><c>   1</c></rc>
    <rc><c>B </c><c>   1</c></rc>
    <rc><c>B </c><c>   1</c></rc>
    <rc><c>B </c><c>   1</c></rc>
    <rc><c>B </c><c>   1</c></rc>
    <rc><c>B </c><c>   1</c></rc>
    <rc><c>B </c><c>   1</c></rc>
    <rc><c>B </c><c>   1</c></rc>
    <rc><c>B </c><c>   1</c></rc>
   </set>
  </array>
  <array name="atomtypes" >
   <dimension dim="1">type</dimension>
   <field type="int">atomspertype</field>
   <field type="string">element</field>
   <field>mass</field>
   <field>valence</field>
   <field type="string">pseudopotential</field>
   <set>
    <rc><c>  14</c><c>B </c><c>     10.81100000</c><c>      3.00000000</c><c>  PAW_PBE B 06Sep2000                   </c></rc>
   </set>
  </array>
 </atominfo>
 <structure name="initialpos" >
  <crystal>
   <varray name="basis" >
    <v>       5.69700000       0.00000000       0.00000000 </v>
    <v>       0.00000000       4.04790000       0.00000000 </v>
    <v>       0.00000000       0.00000000       6.20420000 </v>
   </varray>
   <i name="volume">    143.07435078 </i>
   <varray name="rec_basis" >
    <v>       0.17553098       0.00000000       0.00000000 </v>
    <v>       0.00000000       0.24704168       0.00000000 </v>
    <v>       0.00000000       0.00000000       0.16118114 </v>
   </varray>
  </crystal>
  <varray name="positions" >
   <v>       0.52123000       0.50000000       0.63796000 </v>
   <v>       0.47877000       0.50000000       0.36204000 </v>
   <v>       0.97877000       0.50000000       0.63796000 </v>
   <v>       0.02123000       0.50000000       0.36204000 </v>
   <v>       0.60090000       0.50000000       0.89991000 </v>
   <v>       0.39910000       0.50000000       0.10009000 </v>
   <v>       0.89910000       0.50000000       0.89991000 </v>
   <v>       0.10090000       0.50000000       0.10009000 </v>
   <v>       0.75000000       0.79171000       0.72973000 </v>
   <v>       0.25000000       0.20829000       0.27027000 </v>
   <v>       0.75000000       0.20829000       0.72973000 </v>
   <v>       0.25000000       0.79171000       0.27027000 </v>
   <v>       0.25000000       0.50000000       0.52367000 </v>
   <v>       0.75000000       0.50000000       0.47633000 </v>
  </varray>
 </structure>
 <calculation>
  <scstep>
   <time name="dav">    2.32    2.33</time>
   <time name="total">    2.33    2.35</time>
   <energy>
    <i name="alphaZ">     94.24357992 </i>
    <i name="ewald">   -795.76658092 </i>
    <i name="hartreedc">   -271.33601302 </i>
    <i name="XCdc">     97.50108169 </i>
    <i name="pawpsdc">    608.99811708 </i>
    <i name="pawaedc">   -597.02363782 </i>
    <i name="eentropy">     -0.00228669 </i>
    <i name="bandstr">   -127.54785566 </i>
    <i name="atom">    996.09915345 </i>
    <i name="e_fr_energy">      5.16555803 </i>
    <i name="e_wo_entrp">      5.16784472 </i>
    <i name="e_0_energy">      5.16670137 </i>
   </energy>
  </scstep>
  <scstep>
   <time name="dav">    3.41    3.43</time>
   <time name="total">    3.42    3.43</time>
   <energy>
    <i name="e_fr_energy">    -94.42510935 </i>
    <i name="e_wo_entrp">    -94.42184481 </i>
    <i name="e_0_energy">    -94.42347708 </i>
   </energy>
  </scstep>
  <scstep>
   <time name="dav">    3.26    3.28</time>
   <time name="total">    3.26    3.28</time>
   <energy>
    <i name="e_fr_energy">    -97.17516502 </i>
    <i name="e_wo_entrp">    -97.17153185 </i>
    <i name="e_0_energy">    -97.17334843 </i>
   </energy>
  </scstep>
  <scstep>
   <time name="dav">    3.18    3.20</time>
   <time name="total">    3.18    3.20</time>
   <energy>
    <i name="e_fr_energy">    -97.19103363 </i>
    <i name="e_wo_entrp">    -97.18740166 </i>
    <i name="e_0_energy">    -97.18921765 </i>
   </energy>
  </scstep>
  <scstep>
   <time name="dav">    3.20    3.31</time>
   <time name="total">    3.24    3.36</time>
   <energy>
    <i name="e_fr_energy">    -97.19122736 </i>
    <i name="e_wo_entrp">    -97.18759538 </i>
    <i name="e_0_energy">    -97.18941137 </i>
   </energy>
  </scstep>
  <scstep>
   <time name="dav">    3.40    3.43</time>
   <time name="total">    3.44    3.47</time>
   <energy>
    <i name="e_fr_energy">    -91.83649310 </i>
    <i name="e_wo_entrp">    -91.83308570 </i>
    <i name="e_0_energy">    -91.83478940 </i>
   </energy>
  </scstep>
  <scstep>
   <time name="dav">    3.60    3.62</time>
   <time name="total">    3.64    3.66</time>
   <energy>
    <i name="e_fr_energy">    -90.19474195 </i>
    <i name="e_wo_entrp">    -90.19159971 </i>
    <i name="e_0_energy">    -90.19317083 </i>
   </energy>
  </scstep>
  <scstep>
   <time name="dav">    2.51    2.52</time>
   <time name="total">    2.54    2.56</time>
   <energy>
    <i name="e_fr_energy">    -90.20695080 </i>
    <i name="e_wo_entrp">    -90.20374400 </i>
    <i name="e_0_energy">    -90.20534740 </i>
   </energy>
  </scstep>
  <scstep>
   <time name="dav">    3.30    3.32</time>
   <time name="total">    3.34    3.35</time>
   <energy>
    <i name="e_fr_energy">    -90.22106727 </i>
    <i name="e_wo_entrp">    -90.21776910 </i>
    <i name="e_0_energy">    -90.21941818 </i>
   </energy>
  </scstep>
  <scstep>
   <time name="dav">    2.68    2.70</time>
   <time name="total">    2.72    2.73</time>
   <energy>
    <i name="e_fr_energy">    -90.22483444 </i>
    <i name="e_wo_entrp">    -90.22158669 </i>
    <i name="e_0_energy">    -90.22321056 </i>
   </energy>
  </scstep>
  <scstep>
   <time name="dav">    3.02    3.04</time>
   <time name="total">    3.06    3.08</time>
   <energy>
    <i name="e_fr_energy">    -90.22589375 </i>
    <i name="e_wo_entrp">    -90.22265711 </i>
    <i name="e_0_energy">    -90.22427543 </i>
   </energy>
  </scstep>
  <scstep>
   <time name="dav">    2.91    2.92</time>
   <time name="total">    2.94    2.96</time>
   <energy>
    <i name="e_fr_energy">    -90.22599909 </i>
    <i name="e_wo_entrp">    -90.22275588 </i>
    <i name="e_0_energy">    -90.22437749 </i>
   </energy>
  </scstep>
  <scstep>
   <time name="dav">    3.31    3.33</time>
   <time name="total">    3.35    3.36</time>
   <energy>
    <i name="e_fr_energy">    -90.22600315 </i>
    <i name="e_wo_entrp">    -90.22275964 </i>
    <i name="e_0_energy">    -90.22438139 </i>
   </energy>
  </scstep>
  <scstep>
   <time name="dav">    2.88    2.90</time>
   <time name="total">    2.89    2.91</time>
   <energy>
    <i name="alphaZ">     94.24357992 </i>
    <i name="ewald">   -795.76658092 </i>
    <i name="hartreedc">   -348.88831433 </i>
    <i name="XCdc">    101.70586034 </i>
    <i name="pawpsdc">   4268.90873533 </i>
    <i name="pawaedc">  -4258.02853906 </i>
    <i name="eentropy">     -0.00324364 </i>
    <i name="bandstr">   -148.49665478 </i>
    <i name="atom">    996.09915345 </i>
    <i name="e_fr_energy">    -90.22600369 </i>
    <i name="e_wo_entrp">    -90.22276005 </i>
    <i name="e_0_energy">    -90.22438187 </i>
   </energy>
  </scstep>
  <structure>
   <crystal>
    <varray name="basis" >
     <v>       5.69700000       0.00000000       0.00000000 </v>
     <v>       0.00000000       4.04790000       0.00000000 </v>
     <v>       0.00000000       0.00000000       6.20420000 </v>
    </varray>
    <i name="volume">    143.07435078 </i>
    <varray name="rec_basis" >
     <v>       0.17553098       0.00000000       0.00000000 </v>
     <v>       0.00000000       0.24704168       0.00000000 </v>
     <v>       0.00000000       0.00000000       0.16118114 </v>
    </varray>
   </crystal>
   <varray name="positions" >
    <v>       0.52123000       0.50000000       0.63796000 </v>
    <v>       0.47877000       0.50000000       0.36204000 </v>
    <v>       0.97877000       0.50000000       0.63796000 </v>
    <v>       0.02123000       0.50000000       0.36204000 </v>
    <v>       0.60090000       0.50000000       0.89991000 </v>
    <v>       0.39910000       0.50000000       0.10009000 </v>
    <v>       0.89910000       0.50000000       0.89991000 </v>
    <v>       0.10090000       0.50000000       0.10009000 </v>
    <v>       0.75000000       0.79171000       0.72973000 </v>
    <v>       0.25000000       0.20829000       0.27027000 </v>
    <v>       0.75000000       0.20829000       0.72973000 </v>
    <v>       0.25000000       0.79171000       0.27027000 </v>
    <v>       0.25000000       0.50000000       0.52367000 </v>
    <v>       0.75000000       0.50000000       0.47633000 </v>
   </varray>
  </structure>
  <varray name="forces" >
   <v>       0.00450078       0.00000000       0.04818557 </v>
   <v>      -0.00450078       0.00000000      -0.04818557 </v>
   <v>      -0.00450078       0.00000000       0.04818557 </v>
   <v>       0.00450078       0.00000000      -0.04818557 </v>
   <v>      -0.80636105       0.00000000       0.24853715 </v>
   <v>       0.80636105       0.00000000      -0.24853715 </v>
   <v>       0.80636105       0.00000000       0.24853715 </v>
   <v>      -0.80636105       0.00000000      -0.24853715 </v>
   <v>       0.00000000       0.03646178      -0.05336525 </v>
   <v>       0.00000000      -0.03646178       0.05336525 </v>
   <v>      -0.00000000      -0.03646178      -0.05336525 </v>
   <v>      -0.00000000       0.03646178       0.05336525 </v>
   <v>       0.00000000       0.00000000       0.09190176 </v>
   <v>      -0.00000000       0.00000000      -0.09190176 </v>
  </varray>
  <varray name="stress" >
   <v>     -19.57327348       0.00000000       0.00000000 </v>
   <v>       0.00000000     -36.77781234       0.00000000 </v>
   <v>       0.00000000       0.00000000     -40.72621560 </v>
  </varray>
  <energy>
   <i name="e_fr_energy">    -90.22600369 </i>
   <i name="e_wo_entrp">    -90.22276005 </i>
   <i name="e_0_energy">    -90.22438187 </i>
  </energy>
  <time name="totalsc">   44.89   45.25</time>
  <eigenvalues>
   <array>
    <dimension dim="1">band</dimension>
    <dimension dim="2">kpoint</dimension>
    <dimension dim="3">spin</dimension>
    <field>eigene</field>
    <field>occ</field>
    <set>
     <set comment="spin 1">
      <set comment="kpoint 1">
       <r>  -12.7295    1.0000 </r>
       <r>  -11.5840    1.0000 </r>
       <r>   -8.6586    1.0000 </r>
       <r>   -8.4227    1.0000 </r>
       <r>   -6.0622    1.0000 </r>
       <r>   -5.1259    1.0000 </r>
       <r>   -4.6626    1.0000 </r>
       <r>   -4.2640    1.0000 </r>
       <r>   -4.0262    1.0000 </r>
       <r>   -3.5386    1.0000 </r>
       <r>   -2.5924    1.0000 </r>
       <r>   -2.3251    1.0000 </r>
       <r>   -1.8313    1.0000 </r>
       <r>   -1.0880    1.0000 </r>
       <r>   -0.0562    1.0000 </r>
       <r>   -0.0266    1.0000 </r>
       <r>    0.1650    1.0000 </r>
       <r>    0.1843    1.0000 </r>
       <r>    0.5771    1.0000 </r>
       <r>    2.0368    0.0001 </r>
       <r>    2.1000    0.0000 </r>
       <r>    2.2310    0.0000 </r>
       <r>    5.4670    0.0000 </r>
       <r>    5.7583    0.0000 </r>
       <r>    5.8486    0.0000 </r>
       <r>    5.9697    0.0000 </r>
       <r>    6.8224    0.0000 </r>
       <r>    7.5544    0.0000 </r>
       <r>    7.8847    0.0000 </r>
       <r>    8.5366    0.0000 </r>
       <r>    8.7995    0.0000 </r>
       <r>    8.9466    0.0000 </r>
       <r>    9.0464    0.0000 </r>
       <r>   10.1251    0.0000 </r>
       <r>   11.1862    0.0000 </r>
       <r>   11.3543    0.0000 </r>
       <r>   11.6818    0.0000 </r>
       <r>   11.7894    0.0000 </r>
       <r>   11.9459    0.0000 </r>
       <r>   12.4116    0.0000 </r>
       <r>   12.8753    0.0000 </r>
       <r>   13.4728    0.0000 </r>
       <r>   13.4980    0.0000 </r>
       <r>   15.3941    0.0000 </r>
       <r>   15.5779    0.0000 </r>
       <r>   16.0716    0.0000 </r>
       <r>   16.3472    0.0000 </r>
       <r>   16.3727    0.0000 </r>
      </set>
      <set comment="kpoint 2">
       <r>  -12.6855    1.0000 </r>
       <r>  -11.6576    1.0000 </r>
       <r>   -8.6373    1.0000 </r>
       <r>   -8.4111    1.0000 </r>
       <r>   -5.9936    1.0000 </r>
       <r>   -5.4668    1.0000 </r>
       <r>   -4.7853    1.0000 </r>
       <r>   -4.0020    1.0000 </r>
       <r>   -3.7818    1.0000 </r>
       <r>   -3.1996    1.0000 </r>
       <r>   -2.6624    1.0000 </r>
       <r>   -2.3045    1.0000 </r>
       <r>   -1.9093    1.0000 </r>
       <r>   -1.3956    1.0000 </r>
       <r>   -0.0156    1.0000 </r>
       <r>   -0.0096    1.0000 </r>
       <r>    0.1052    1.0000 </r>
       <r>    0.2076    1.0000 </r>
       <r>    0.4812    1.0000 </r>
       <r>    1.9501    0.0854 </r>
       <r>    2.0223    0.0003 </r>
       <r>    2.1099    0.0000 </r>
       <r>    5.5569    0.0000 </r>
       <r>    5.7692    0.0000 </r>
       <r>    5.8750    0.0000 </r>
       <r>    6.3157    0.0000 </r>
       <r>    6.7394    0.0000 </r>
       <r>    7.1914    0.0000 </r>
       <r>    8.0944    0.0000 </r>
       <r>    8.6746    0.0000 </r>
       <r>    9.0554    0.0000 </r>
       <r>    9.1305    0.0000 </r>
       <r>    9.2023    0.0000 </r>
       <r>   10.2376    0.0000 </r>
       <r>   10.9608    0.0000 </r>
       <r>   11.1459    0.0000 </r>
       <r>   11.2605    0.0000 </r>
       <r>   11.7031    0.0000 </r>
       <r>   12.1658    0.0000 </r>
       <r>   12.5003    0.0000 </r>
       <r>   13.1359    0.0000 </r>
       <r>   13.1385    0.0000 </r>
       <r>   14.0321    0.0000 </r>
       <r>   14.8787    0.0000 </r>
       <r>   15.7603    0.0000 </r>
       <r>   15.8407    0.0000 </r>
       <r>   16.2399    0.0000 </r>
       <r>   16.5301    0.0000 </r>
      </set>
      <set comment="kpoint 3">
       <r>  -12.5994    1.0000 </r>
       <r>  -11.7903    1.0000 </r>
       <r>   -8.5933    1.0000 </r>
       <r>   -8.3959    1.0000 </r>
       <r>   -5.9716    1.0000 </r>
       <r>   -5.7942    1.0000 </r>
       <r>   -4.7386    1.0000 </r>
       <r>   -3.8754    1.0000 </r>
       <r>   -3.2680    1.0000 </r>
       <r>   -2.8291    1.0000 </r>
       <r>   -2.7061    1.0000 </r>
       <r>   -2.2643    1.0000 </r>
       <r>   -2.0196    1.0000 </r>
       <r>   -1.9015    1.0000 </r>
       <r>   -0.2126    1.0000 </r>
       <r>    0.0273    1.0000 </r>
       <r>    0.1562    1.0000 </r>
       <r>    0.1719    1.0000 </r>
       <r>    0.4488    1.0000 </r>
       <r>    1.8011    0.9978 </r>
       <r>    1.8811    0.7201 </r>
       <r>    1.8897    0.6324 </r>
       <r>    5.6804    0.0000 </r>
       <r>    5.7276    0.0000 </r>
       <r>    6.1847    0.0000 </r>
       <r>    6.6144    0.0000 </r>
       <r>    6.7745    0.0000 </r>
       <r>    6.9400    0.0000 </r>
       <r>    8.2439    0.0000 </r>
       <r>    8.8249    0.0000 </r>
       <r>    9.0009    0.0000 </r>
       <r>    9.5755    0.0000 </r>
       <r>    9.6493    0.0000 </r>
       <r>   10.2974    0.0000 </r>
       <r>   10.4933    0.0000 </r>
       <r>   10.6314    0.0000 </r>
       <r>   11.3836    0.0000 </r>
       <r>   11.8447    0.0000 </r>
       <r>   12.4031    0.0000 </r>
       <r>   12.5794    0.0000 </r>
       <r>   12.8009    0.0000 </r>
       <r>   12.9286    0.0000 </r>
       <r>   14.6540    0.0000 </r>
       <r>   14.9334    0.0000 </r>
       <r>   15.2370    0.0000 </r>
       <r>   15.9980    0.0000 </r>
       <r>   16.0175    0.0000 </r>
       <r>   16.3110    0.0000 </r>
      </set>
      <set comment="kpoint 4">
       <r>  -12.4756    1.0000 </r>
       <r>  -11.9603    1.0000 </r>
       <r>   -8.5311    1.0000 </r>
       <r>   -8.3924    1.0000 </r>
       <r>   -6.0522    1.0000 </r>
       <r>   -6.0278    1.0000 </r>
       <r>   -4.4099    1.0000 </r>
       <r>   -3.7072    1.0000 </r>
       <r>   -3.0229    1.0000 </r>
       <r>   -2.8840    1.0000 </r>
       <r>   -2.4370    1.0000 </r>
       <r>   -2.2427    1.0000 </r>
       <r>   -2.1451    1.0000 </r>
       <r>   -2.1185    1.0000 </r>
       <r>   -0.5124    1.0000 </r>
       <r>   -0.2341    1.0000 </r>
       <r>    0.1854    1.0000 </r>
       <r>    0.2626    1.0000 </r>
       <r>    0.6232    1.0000 </r>
       <r>    1.5436    1.0000 </r>
       <r>    1.6774    1.0000 </r>
       <r>    1.7392    1.0000 </r>
       <r>    5.7122    0.0000 </r>
       <r>    5.7666    0.0000 </r>
       <r>    6.5113    0.0000 </r>
       <r>    6.6791    0.0000 </r>
       <r>    6.7099    0.0000 </r>
       <r>    7.4285    0.0000 </r>
       <r>    8.3675    0.0000 </r>
       <r>    8.6986    0.0000 </r>
       <r>    8.8119    0.0000 </r>
       <r>    9.5521    0.0000 </r>
       <r>   10.0569    0.0000 </r>
       <r>   10.1231    0.0000 </r>
       <r>   10.4041    0.0000 </r>
       <r>   11.1504    0.0000 </r>
       <r>   11.4138    0.0000 </r>
       <r>   11.9578    0.0000 </r>
       <r>   12.2097    0.0000 </r>
       <r>   12.2829    0.0000 </r>
       <r>   12.5296    0.0000 </r>
       <r>   13.2694    0.0000 </r>
       <r>   14.7237    0.0000 </r>
       <r>   14.9904    0.0000 </r>
       <r>   15.2838    0.0000 </r>
       <r>   15.3908    0.0000 </r>
       <r>   15.5944    0.0000 </r>
       <r>   16.3936    0.0000 </r>
      </set>
      <set comment="kpoint 5">
       <r>  -12.3201    1.0000 </r>
       <r>  -12.1435    1.0000 </r>
       <r>   -8.4653    1.0000 </r>
       <r>   -8.4146    1.0000 </r>
       <r>   -6.1426    1.0000 </r>
       <r>   -6.1383    1.0000 </r>
       <r>   -3.8927    1.0000 </r>
       <r>   -3.4984    1.0000 </r>
       <r>   -3.2922    1.0000 </r>
       <r>   -3.2610    1.0000 </r>
       <r>   -2.3526    1.0000 </r>
       <r>   -2.2276    1.0000 </r>
       <r>   -1.9556    1.0000 </r>
       <r>   -1.8969    1.0000 </r>
       <r>   -0.7337    1.0000 </r>
       <r>   -0.5950    1.0000 </r>
       <r>    0.2702    1.0000 </r>
       <r>    0.3041    1.0000 </r>
       <r>    0.8860    1.0000 </r>
       <r>    1.2043    1.0000 </r>
       <r>    1.5975    1.0000 </r>
       <r>    1.6239    1.0000 </r>
       <r>    5.7396    0.0000 </r>
       <r>    5.7778    0.0000 </r>
       <r>    6.4880    0.0000 </r>
       <r>    6.5505    0.0000 </r>
       <r>    7.3821    0.0000 </r>
       <r>    8.0912    0.0000 </r>
       <r>    8.1096    0.0000 </r>
       <r>    8.4833    0.0000 </r>
       <r>    8.6202    0.0000 </r>
       <r>    8.8075    0.0000 </r>
       <r>   10.5068    0.0000 </r>
       <r>   10.5211    0.0000 </r>
       <r>   10.7670    0.0000 </r>
       <r>   11.2273    0.0000 </r>
       <r>   11.4111    0.0000 </r>
       <r>   11.6052    0.0000 </r>
       <r>   11.9388    0.0000 </r>
       <r>   12.4899    0.0000 </r>
       <r>   12.7241    0.0000 </r>
       <r>   13.2646    0.0000 </r>
       <r>   14.6006    0.0000 </r>
       <r>   14.7492    0.0000 </r>
       <r>   14.8801    0.0000 </r>
       <r>   14.9408    0.0000 </r>
       <r>   16.1262    0.0000 </r>
       <r>   16.4665    0.0000 </r>
      </set>
      <set comment="kpoint 6">
       <r>  -12.7055    1.0000 </r>
       <r>  -11.5622    1.0000 </r>
       <r>   -8.6397    1.0000 </r>
       <r>   -8.3997    1.0000 </r>
       <r>   -6.0354    1.0000 </r>
       <r>   -5.0925    1.0000 </r>
       <r>   -4.6406    1.0000 </r>
       <r>   -4.5673    1.0000 </r>
       <r>   -4.1695    1.0000 </r>
       <r>   -3.5152    1.0000 </r>
       <r>   -3.2877    1.0000 </r>
       <r>   -1.7908    1.0000 </r>
       <r>   -1.0841    1.0000 </r>
       <r>   -1.0318    1.0000 </r>
       <r>   -0.2909    1.0000 </r>
       <r>   -0.2638    1.0000 </r>
       <r>    0.1781    1.0000 </r>
       <r>    0.2555    1.0000 </r>
       <r>    0.6554    1.0000 </r>
       <r>    1.7677    0.9999 </r>
       <r>    1.8483    0.9346 </r>
       <r>    2.2819    0.0000 </r>
       <r>    5.5855    0.0000 </r>
       <r>    5.7169    0.0000 </r>
       <r>    5.7520    0.0000 </r>
       <r>    6.0179    0.0000 </r>
       <r>    7.1092    0.0000 </r>
       <r>    7.8398    0.0000 </r>
       <r>    8.0765    0.0000 </r>
       <r>    8.1948    0.0000 </r>
       <r>    8.8042    0.0000 </r>
       <r>    9.0949    0.0000 </r>
       <r>    9.1464    0.0000 </r>
       <r>   10.5801    0.0000 </r>
       <r>   11.2828    0.0000 </r>
       <r>   11.4022    0.0000 </r>
       <r>   11.6154    0.0000 </r>
       <r>   11.8910    0.0000 </r>
       <r>   12.0572    0.0000 </r>
       <r>   12.6918    0.0000 </r>
       <r>   12.8758    0.0000 </r>
       <r>   13.2044    0.0000 </r>
       <r>   13.2118    0.0000 </r>
       <r>   15.3377    0.0000 </r>
       <r>   15.3942    0.0000 </r>
       <r>   15.8739    0.0000 </r>
       <r>   15.8798    0.0000 </r>
       <r>   16.2364    0.0000 </r>
      </set>
      <set comment="kpoint 7">
       <r>  -12.6617    1.0000 </r>
       <r>  -11.6358    1.0000 </r>
       <r>   -8.6184    1.0000 </r>
       <r>   -8.3885    1.0000 </r>
       <r>   -5.9650    1.0000 </r>
       <r>   -5.4373    1.0000 </r>
       <r>   -4.7653    1.0000 </r>
       <r>   -4.4855    1.0000 </r>
       <r>   -3.7437    1.0000 </r>
       <r>   -3.3673    1.0000 </r>
       <r>   -3.1617    1.0000 </r>
       <r>   -1.7688    1.0000 </r>
       <r>   -1.3906    1.0000 </r>
       <r>   -1.1485    1.0000 </r>
       <r>   -0.2523    1.0000 </r>
       <r>   -0.1856    1.0000 </r>
       <r>    0.1462    1.0000 </r>
       <r>    0.2295    1.0000 </r>
       <r>    0.5524    1.0000 </r>
       <r>    1.6861    1.0000 </r>
       <r>    1.7722    0.9999 </r>
       <r>    2.1512    0.0000 </r>
       <r>    5.6640    0.0000 </r>
       <r>    5.8166    0.0000 </r>
       <r>    5.9481    0.0000 </r>
       <r>    6.1228    0.0000 </r>
       <r>    7.0267    0.0000 </r>
       <r>    7.5142    0.0000 </r>
       <r>    8.2241    0.0000 </r>
       <r>    8.3649    0.0000 </r>
       <r>    9.1270    0.0000 </r>
       <r>    9.1608    0.0000 </r>
       <r>    9.4138    0.0000 </r>
       <r>   10.5070    0.0000 </r>
       <r>   10.8887    0.0000 </r>
       <r>   11.0955    0.0000 </r>
       <r>   11.4583    0.0000 </r>
       <r>   11.8762    0.0000 </r>
       <r>   12.2791    0.0000 </r>
       <r>   12.7480    0.0000 </r>
       <r>   12.8792    0.0000 </r>
       <r>   13.1634    0.0000 </r>
       <r>   13.7460    0.0000 </r>
       <r>   14.9653    0.0000 </r>
       <r>   15.4106    0.0000 </r>
       <r>   15.7641    0.0000 </r>
       <r>   15.8078    0.0000 </r>
       <r>   16.4199    0.0000 </r>
      </set>
      <set comment="kpoint 8">
       <r>  -12.5756    1.0000 </r>
       <r>  -11.7681    1.0000 </r>
       <r>   -8.5743    1.0000 </r>
       <r>   -8.3736    1.0000 </r>
       <r>   -5.9404    1.0000 </r>
       <r>   -5.7634    1.0000 </r>
       <r>   -4.7219    1.0000 </r>
       <r>   -4.3775    1.0000 </r>
       <r>   -3.4889    1.0000 </r>
       <r>   -3.2152    1.0000 </r>
       <r>   -2.6928    1.0000 </r>
       <r>   -1.8966    1.0000 </r>
       <r>   -1.7239    1.0000 </r>
       <r>   -1.3100    1.0000 </r>
       <r>   -0.2153    1.0000 </r>
       <r>   -0.2039    1.0000 </r>
       <r>    0.0658    1.0000 </r>
       <r>    0.2198    1.0000 </r>
       <r>    0.4758    1.0000 </r>
       <r>    1.5512    1.0000 </r>
       <r>    1.6417    1.0000 </r>
       <r>    1.9041    0.4731 </r>
       <r>    5.8691    0.0000 </r>
       <r>    5.9464    0.0000 </r>
       <r>    6.0248    0.0000 </r>
       <r>    6.5734    0.0000 </r>
       <r>    6.9081    0.0000 </r>
       <r>    7.2880    0.0000 </r>
       <r>    8.4333    0.0000 </r>
       <r>    8.4977    0.0000 </r>
       <r>    9.1008    0.0000 </r>
       <r>    9.6140    0.0000 </r>
       <r>    9.8760    0.0000 </r>
       <r>   10.1390    0.0000 </r>
       <r>   10.3664    0.0000 </r>
       <r>   10.8254    0.0000 </r>
       <r>   11.5275    0.0000 </r>
       <r>   12.1118    0.0000 </r>
       <r>   12.3206    0.0000 </r>
       <r>   12.5653    0.0000 </r>
       <r>   12.9690    0.0000 </r>
       <r>   13.0311    0.0000 </r>
       <r>   14.3226    0.0000 </r>
       <r>   15.1017    0.0000 </r>
       <r>   15.1766    0.0000 </r>
       <r>   15.6583    0.0000 </r>
       <r>   15.7237    0.0000 </r>
       <r>   16.4406    0.0000 </r>
      </set>
      <set comment="kpoint 9">
       <r>  -12.4518    1.0000 </r>
       <r>  -11.9380    1.0000 </r>
       <r>   -8.5119    1.0000 </r>
       <r>   -8.3710    1.0000 </r>
       <r>   -6.0202    1.0000 </r>
       <r>   -5.9968    1.0000 </r>
       <r>   -4.3956    1.0000 </r>
       <r>   -4.2307    1.0000 </r>
       <r>   -3.6597    1.0000 </r>
       <r>   -2.8352    1.0000 </r>
       <r>   -2.3541    1.0000 </r>
       <r>   -2.2083    1.0000 </r>
       <r>   -1.6599    1.0000 </r>
       <r>   -1.4726    1.0000 </r>
       <r>   -0.4743    1.0000 </r>
       <r>   -0.2967    1.0000 </r>
       <r>    0.0982    1.0000 </r>
       <r>    0.1280    1.0000 </r>
       <r>    0.6346    1.0000 </r>
       <r>    1.4110    1.0000 </r>
       <r>    1.4947    1.0000 </r>
       <r>    1.5796    1.0000 </r>
       <r>    5.8870    0.0000 </r>
       <r>    6.0215    0.0000 </r>
       <r>    6.5308    0.0000 </r>
       <r>    6.8169    0.0000 </r>
       <r>    6.8880    0.0000 </r>
       <r>    7.3844    0.0000 </r>
       <r>    8.4290    0.0000 </r>
       <r>    8.6047    0.0000 </r>
       <r>    8.9417    0.0000 </r>
       <r>    9.3876    0.0000 </r>
       <r>   10.0811    0.0000 </r>
       <r>   10.0996    0.0000 </r>
       <r>   10.4458    0.0000 </r>
       <r>   11.2281    0.0000 </r>
       <r>   11.3732    0.0000 </r>
       <r>   11.8504    0.0000 </r>
       <r>   12.3002    0.0000 </r>
       <r>   12.5522    0.0000 </r>
       <r>   12.7299    0.0000 </r>
       <r>   13.4718    0.0000 </r>
       <r>   14.7817    0.0000 </r>
       <r>   14.7863    0.0000 </r>
       <r>   15.1719    0.0000 </r>
       <r>   15.3208    0.0000 </r>
       <r>   15.6720    0.0000 </r>
       <r>   16.4075    0.0000 </r>
      </set>
      <set comment="kpoint 10">
       <r>  -12.2967    1.0000 </r>
       <r>  -12.1207    1.0000 </r>
       <r>   -8.4455    1.0000 </r>
       <r>   -8.3942    1.0000 </r>
       <r>   -6.1102    1.0000 </r>
       <r>   -6.1058    1.0000 </r>
       <r>   -4.0522    1.0000 </r>
       <r>   -3.8864    1.0000 </r>
       <r>   -3.8481    1.0000 </r>
       <r>   -3.2800    1.0000 </r>
       <r>   -2.0951    1.0000 </r>
       <r>   -1.9012    1.0000 </r>
       <r>   -1.5904    1.0000 </r>
       <r>   -1.5854    1.0000 </r>
       <r>   -0.6954    1.0000 </r>
       <r>   -0.5907    1.0000 </r>
       <r>    0.1319    1.0000 </r>
       <r>    0.1620    1.0000 </r>
       <r>    0.8947    1.0000 </r>
       <r>    1.2108    1.0000 </r>
       <r>    1.3579    1.0000 </r>
       <r>    1.3819    1.0000 </r>
       <r>    5.9379    0.0000 </r>
       <r>    6.0033    0.0000 </r>
       <r>    6.8044    0.0000 </r>
       <r>    6.8536    0.0000 </r>
       <r>    7.1985    0.0000 </r>
       <r>    7.9122    0.0000 </r>
       <r>    7.9578    0.0000 </r>
       <r>    8.6399    0.0000 </r>
       <r>    8.6956    0.0000 </r>
       <r>    8.8094    0.0000 </r>
       <r>   10.3261    0.0000 </r>
       <r>   10.5718    0.0000 </r>
       <r>   10.8116    0.0000 </r>
       <r>   10.9179    0.0000 </r>
       <r>   11.5580    0.0000 </r>
       <r>   11.6647    0.0000 </r>
       <r>   12.0170    0.0000 </r>
       <r>   12.6599    0.0000 </r>
       <r>   13.0345    0.0000 </r>
       <r>   13.4977    0.0000 </r>
       <r>   14.5614    0.0000 </r>
       <r>   14.7455    0.0000 </r>
       <r>   14.8445    0.0000 </r>
       <r>   15.0612    0.0000 </r>
       <r>   16.1513    0.0000 </r>
       <r>   16.4435    0.0000 </r>
      </set>
      <set comment="kpoint 11">
       <r>  -12.6609    1.0000 </r>
       <r>  -11.5217    1.0000 </r>
       <r>   -8.6055    1.0000 </r>
       <r>   -8.3570    1.0000 </r>
       <r>   -5.9858    1.0000 </r>
       <r>   -5.1262    1.0000 </r>
       <r>   -5.0026    1.0000 </r>
       <r>   -4.5994    1.0000 </r>
       <r>   -4.1540    1.0000 </r>
       <r>   -3.9106    1.0000 </r>
       <r>   -3.4613    1.0000 </r>
       <r>   -1.1966    1.0000 </r>
       <r>   -1.0751    1.0000 </r>
       <r>   -0.6354    1.0000 </r>
       <r>   -0.5315    1.0000 </r>
       <r>   -0.1708    1.0000 </r>
       <r>    0.2004    1.0000 </r>
       <r>    0.3093    1.0000 </r>
       <r>    0.7351    1.0000 </r>
       <r>    1.3819    1.0000 </r>
       <r>    1.4466    1.0000 </r>
       <r>    2.3194    0.0000 </r>
       <r>    5.2986    0.0000 </r>
       <r>    5.4640    0.0000 </r>
       <r>    6.1324    0.0000 </r>
       <r>    6.2092    0.0000 </r>
       <r>    7.5451    0.0000 </r>
       <r>    7.6242    0.0000 </r>
       <r>    8.3227    0.0000 </r>
       <r>    8.7282    0.0000 </r>
       <r>    8.8873    0.0000 </r>
       <r>    9.2376    0.0000 </r>
       <r>    9.3682    0.0000 </r>
       <r>   10.8950    0.0000 </r>
       <r>   11.3307    0.0000 </r>
       <r>   11.5860    0.0000 </r>
       <r>   11.7047    0.0000 </r>
       <r>   12.0921    0.0000 </r>
       <r>   12.2755    0.0000 </r>
       <r>   12.7575    0.0000 </r>
       <r>   12.7733    0.0000 </r>
       <r>   13.0162    0.0000 </r>
       <r>   13.2321    0.0000 </r>
       <r>   14.6848    0.0000 </r>
       <r>   15.1724    0.0000 </r>
       <r>   15.3530    0.0000 </r>
       <r>   15.4399    0.0000 </r>
       <r>   15.9765    0.0000 </r>
      </set>
      <set comment="kpoint 12">
       <r>  -12.6172    1.0000 </r>
       <r>  -11.5952    1.0000 </r>
       <r>   -8.5833    1.0000 </r>
       <r>   -8.3462    1.0000 </r>
       <r>   -5.9120    1.0000 </r>
       <r>   -5.3887    1.0000 </r>
       <r>   -5.0288    1.0000 </r>
       <r>   -4.7276    1.0000 </r>
       <r>   -3.9763    1.0000 </r>
       <r>   -3.7017    1.0000 </r>
       <r>   -3.1215    1.0000 </r>
       <r>   -1.3814    1.0000 </r>
       <r>   -1.1704    1.0000 </r>
       <r>   -0.7439    1.0000 </r>
       <r>   -0.4930    1.0000 </r>
       <r>   -0.0882    1.0000 </r>
       <r>    0.1805    1.0000 </r>
       <r>    0.2548    1.0000 </r>
       <r>    0.6216    1.0000 </r>
       <r>    1.3041    1.0000 </r>
       <r>    1.3783    1.0000 </r>
       <r>    2.1845    0.0000 </r>
       <r>    5.3787    0.0000 </r>
       <r>    5.8124    0.0000 </r>
       <r>    6.1548    0.0000 </r>
       <r>    6.2479    0.0000 </r>
       <r>    7.4651    0.0000 </r>
       <r>    7.7819    0.0000 </r>
       <r>    8.0549    0.0000 </r>
       <r>    8.8217    0.0000 </r>
       <r>    9.2516    0.0000 </r>
       <r>    9.2908    0.0000 </r>
       <r>    9.6537    0.0000 </r>
       <r>   10.5335    0.0000 </r>
       <r>   10.7945    0.0000 </r>
       <r>   11.2816    0.0000 </r>
       <r>   11.7251    0.0000 </r>
       <r>   12.2048    0.0000 </r>
       <r>   12.4438    0.0000 </r>
       <r>   12.5095    0.0000 </r>
       <r>   13.1740    0.0000 </r>
       <r>   13.2807    0.0000 </r>
       <r>   13.4531    0.0000 </r>
       <r>   14.6974    0.0000 </r>
       <r>   14.8348    0.0000 </r>
       <r>   15.2905    0.0000 </r>
       <r>   15.5057    0.0000 </r>
       <r>   16.0038    0.0000 </r>
      </set>
      <set comment="kpoint 13">
       <r>  -12.5316    1.0000 </r>
       <r>  -11.7275    1.0000 </r>
       <r>   -8.5392    1.0000 </r>
       <r>   -8.3331    1.0000 </r>
       <r>   -5.8820    1.0000 </r>
       <r>   -5.7087    1.0000 </r>
       <r>   -4.9373    1.0000 </r>
       <r>   -4.6911    1.0000 </r>
       <r>   -4.0995    1.0000 </r>
       <r>   -3.1656    1.0000 </r>
       <r>   -2.6487    1.0000 </r>
       <r>   -1.8789    1.0000 </r>
       <r>   -1.1299    1.0000 </r>
       <r>   -0.8828    1.0000 </r>
       <r>   -0.4391    1.0000 </r>
       <r>   -0.0809    1.0000 </r>
       <r>    0.0250    1.0000 </r>
       <r>    0.2684    1.0000 </r>
       <r>    0.5056    1.0000 </r>
       <r>    1.1726    1.0000 </r>
       <r>    1.2602    1.0000 </r>
       <r>    1.9282    0.2267 </r>
       <r>    5.7004    0.0000 </r>
       <r>    6.1105    0.0000 </r>
       <r>    6.2891    0.0000 </r>
       <r>    6.3795    0.0000 </r>
       <r>    7.3652    0.0000 </r>
       <r>    7.8666    0.0000 </r>
       <r>    8.0186    0.0000 </r>
       <r>    8.9513    0.0000 </r>
       <r>    9.2488    0.0000 </r>
       <r>    9.7219    0.0000 </r>
       <r>    9.8681    0.0000 </r>
       <r>   10.1416    0.0000 </r>
       <r>   10.2627    0.0000 </r>
       <r>   11.0639    0.0000 </r>
       <r>   11.5958    0.0000 </r>
       <r>   12.1152    0.0000 </r>
       <r>   12.5176    0.0000 </r>
       <r>   12.8109    0.0000 </r>
       <r>   13.0554    0.0000 </r>
       <r>   13.4544    0.0000 </r>
       <r>   13.9754    0.0000 </r>
       <r>   14.6091    0.0000 </r>
       <r>   14.8850    0.0000 </r>
       <r>   15.3139    0.0000 </r>
       <r>   15.5281    0.0000 </r>
       <r>   16.2155    0.0000 </r>
      </set>
      <set comment="kpoint 14">
       <r>  -12.4083    1.0000 </r>
       <r>  -11.8966    1.0000 </r>
       <r>   -8.4765    1.0000 </r>
       <r>   -8.3320    1.0000 </r>
       <r>   -5.9595    1.0000 </r>
       <r>   -5.9389    1.0000 </r>
       <r>   -4.8017    1.0000 </r>
       <r>   -4.3691    1.0000 </r>
       <r>   -4.2634    1.0000 </r>
       <r>   -2.7977    1.0000 </r>
       <r>   -2.3123    1.0000 </r>
       <r>   -2.1672    1.0000 </r>
       <r>   -1.0731    1.0000 </r>
       <r>   -1.0199    1.0000 </r>
       <r>   -0.4437    1.0000 </r>
       <r>   -0.3646    1.0000 </r>
       <r>    0.0678    1.0000 </r>
       <r>    0.0732    1.0000 </r>
       <r>    0.6528    1.0000 </r>
       <r>    1.0424    1.0000 </r>
       <r>    1.1270    1.0000 </r>
       <r>    1.5931    1.0000 </r>
       <r>    6.1205    0.0000 </r>
       <r>    6.2365    0.0000 </r>
       <r>    6.4116    0.0000 </r>
       <r>    6.8149    0.0000 </r>
       <r>    7.3081    0.0000 </r>
       <r>    7.7900    0.0000 </r>
       <r>    8.0810    0.0000 </r>
       <r>    9.0517    0.0000 </r>
       <r>    9.1150    0.0000 </r>
       <r>    9.1857    0.0000 </r>
       <r>    9.8964    0.0000 </r>
       <r>   10.1891    0.0000 </r>
       <r>   10.7057    0.0000 </r>
       <r>   11.0873    0.0000 </r>
       <r>   11.3269    0.0000 </r>
       <r>   11.9601    0.0000 </r>
       <r>   12.3635    0.0000 </r>
       <r>   12.9954    0.0000 </r>
       <r>   13.0448    0.0000 </r>
       <r>   13.8029    0.0000 </r>
       <r>   14.3968    0.0000 </r>
       <r>   14.4115    0.0000 </r>
       <r>   15.0428    0.0000 </r>
       <r>   15.1429    0.0000 </r>
       <r>   15.6331    0.0000 </r>
       <r>   16.3918    0.0000 </r>
      </set>
      <set comment="kpoint 15">
       <r>  -12.2538    1.0000 </r>
       <r>  -12.0783    1.0000 </r>
       <r>   -8.4090    1.0000 </r>
       <r>   -8.3566    1.0000 </r>
       <r>   -6.0504    1.0000 </r>
       <r>   -6.0454    1.0000 </r>
       <r>   -4.6340    1.0000 </r>
       <r>   -4.4493    1.0000 </r>
       <r>   -3.8550    1.0000 </r>
       <r>   -3.2579    1.0000 </r>
       <r>   -2.0273    1.0000 </r>
       <r>   -1.8620    1.0000 </r>
       <r>   -1.0922    1.0000 </r>
       <r>   -1.0319    1.0000 </r>
       <r>   -0.6204    1.0000 </r>
       <r>   -0.6167    1.0000 </r>
       <r>    0.0194    1.0000 </r>
       <r>    0.0629    1.0000 </r>
       <r>    0.9104    1.0000 </r>
       <r>    0.9803    1.0000 </r>
       <r>    1.0218    1.0000 </r>
       <r>    1.2382    1.0000 </r>
       <r>    6.2116    0.0000 </r>
       <r>    6.3299    0.0000 </r>
       <r>    6.8905    0.0000 </r>
       <r>    7.2261    0.0000 </r>
       <r>    7.2852    0.0000 </r>
       <r>    7.6354    0.0000 </r>
       <r>    7.9404    0.0000 </r>
       <r>    8.4537    0.0000 </r>
       <r>    9.1066    0.0000 </r>
       <r>    9.1381    0.0000 </r>
       <r>   10.0182    0.0000 </r>
       <r>   10.4911    0.0000 </r>
       <r>   10.7123    0.0000 </r>
       <r>   10.9844    0.0000 </r>
       <r>   11.7364    0.0000 </r>
       <r>   11.7545    0.0000 </r>
       <r>   12.1379    0.0000 </r>
       <r>   12.9181    0.0000 </r>
       <r>   13.4280    0.0000 </r>
       <r>   13.7767    0.0000 </r>
       <r>   14.2427    0.0000 </r>
       <r>   14.3955    0.0000 </r>
       <r>   15.0078    0.0000 </r>
       <r>   15.1479    0.0000 </r>
       <r>   16.0118    0.0000 </r>
       <r>   16.3175    0.0000 </r>
      </set>
      <set comment="kpoint 16">
       <r>  -12.6033    1.0000 </r>
       <r>  -11.4696    1.0000 </r>
       <r>   -8.5618    1.0000 </r>
       <r>   -8.3018    1.0000 </r>
       <r>   -5.9212    1.0000 </r>
       <r>   -5.6094    1.0000 </r>
       <r>   -4.9321    1.0000 </r>
       <r>   -4.5434    1.0000 </r>
       <r>   -4.4318    1.0000 </r>
       <r>   -4.1156    1.0000 </r>
       <r>   -3.3998    1.0000 </r>
       <r>   -1.2088    1.0000 </r>
       <r>   -1.0603    1.0000 </r>
       <r>   -0.9905    1.0000 </r>
       <r>   -0.1852    1.0000 </r>
       <r>    0.2292    1.0000 </r>
       <r>    0.3526    1.0000 </r>
       <r>    0.6028    1.0000 </r>
       <r>    0.7994    1.0000 </r>
       <r>    0.9946    1.0000 </r>
       <r>    1.0108    1.0000 </r>
       <r>    2.3546    0.0000 </r>
       <r>    4.9547    0.0000 </r>
       <r>    5.1710    0.0000 </r>
       <r>    6.3707    0.0000 </r>
       <r>    6.5953    0.0000 </r>
       <r>    7.2648    0.0000 </r>
       <r>    7.9759    0.0000 </r>
       <r>    8.7014    0.0000 </r>
       <r>    9.0657    0.0000 </r>
       <r>    9.4635    0.0000 </r>
       <r>    9.5874    0.0000 </r>
       <r>    9.6516    0.0000 </r>
       <r>   10.7600    0.0000 </r>
       <r>   11.2847    0.0000 </r>
       <r>   11.9743    0.0000 </r>
       <r>   12.0232    0.0000 </r>
       <r>   12.3016    0.0000 </r>
       <r>   12.4349    0.0000 </r>
       <r>   12.4556    0.0000 </r>
       <r>   12.5743    0.0000 </r>
       <r>   12.9995    0.0000 </r>
       <r>   13.8004    0.0000 </r>
       <r>   13.8888    0.0000 </r>
       <r>   14.4247    0.0000 </r>
       <r>   15.1132    0.0000 </r>
       <r>   15.4128    0.0000 </r>
       <r>   15.8727    0.0000 </r>
      </set>
      <set comment="kpoint 17">
       <r>  -12.5598    1.0000 </r>
       <r>  -11.5428    1.0000 </r>
       <r>   -8.5390    1.0000 </r>
       <r>   -8.2920    1.0000 </r>
       <r>   -5.8430    1.0000 </r>
       <r>   -5.5740    1.0000 </r>
       <r>   -5.2701    1.0000 </r>
       <r>   -4.6778    1.0000 </r>
       <r>   -4.4969    1.0000 </r>
       <r>   -3.6489    1.0000 </r>
       <r>   -3.0602    1.0000 </r>
       <r>   -1.3745    1.0000 </r>
       <r>   -1.1510    1.0000 </r>
       <r>   -1.0049    1.0000 </r>
       <r>   -0.1870    1.0000 </r>
       <r>    0.2128    1.0000 </r>
       <r>    0.2872    1.0000 </r>
       <r>    0.5820    1.0000 </r>
       <r>    0.6770    1.0000 </r>
       <r>    0.9301    1.0000 </r>
       <r>    0.9700    1.0000 </r>
       <r>    2.2172    0.0000 </r>
       <r>    5.0502    0.0000 </r>
       <r>    5.5035    0.0000 </r>
       <r>    6.3163    0.0000 </r>
       <r>    6.7277    0.0000 </r>
       <r>    7.4019    0.0000 </r>
       <r>    7.9330    0.0000 </r>
       <r>    8.6387    0.0000 </r>
       <r>    9.1783    0.0000 </r>
       <r>    9.4295    0.0000 </r>
       <r>    9.7994    0.0000 </r>
       <r>    9.8975    0.0000 </r>
       <r>   10.3495    0.0000 </r>
       <r>   10.7201    0.0000 </r>
       <r>   11.7096    0.0000 </r>
       <r>   11.8940    0.0000 </r>
       <r>   12.2548    0.0000 </r>
       <r>   12.4875    0.0000 </r>
       <r>   12.6504    0.0000 </r>
       <r>   12.9730    0.0000 </r>
       <r>   13.4051    0.0000 </r>
       <r>   13.7992    0.0000 </r>
       <r>   13.9325    0.0000 </r>
       <r>   14.2639    0.0000 </r>
       <r>   15.0848    0.0000 </r>
       <r>   15.4432    0.0000 </r>
       <r>   15.7437    0.0000 </r>
      </set>
      <set comment="kpoint 18">
       <r>  -12.4747    1.0000 </r>
       <r>  -11.6749    1.0000 </r>
       <r>   -8.4941    1.0000 </r>
       <r>   -8.2806    1.0000 </r>
       <r>   -5.8060    1.0000 </r>
       <r>   -5.6570    1.0000 </r>
       <r>   -5.4204    1.0000 </r>
       <r>   -4.6514    1.0000 </r>
       <r>   -4.6189    1.0000 </r>
       <r>   -3.1076    1.0000 </r>
       <r>   -2.5900    1.0000 </r>
       <r>   -1.8589    1.0000 </r>
       <r>   -1.0908    1.0000 </r>
       <r>   -1.0248    1.0000 </r>
       <r>   -0.2039    1.0000 </r>
       <r>   -0.0408    1.0000 </r>
       <r>    0.3266    1.0000 </r>
       <r>    0.5171    1.0000 </r>
       <r>    0.5326    1.0000 </r>
       <r>    0.8415    1.0000 </r>
       <r>    0.9033    1.0000 </r>
       <r>    1.9565    0.0604 </r>
       <r>    5.3766    0.0000 </r>
       <r>    5.9788    0.0000 </r>
       <r>    6.2886    0.0000 </r>
       <r>    6.8426    0.0000 </r>
       <r>    7.5743    0.0000 </r>
       <r>    7.9539    0.0000 </r>
       <r>    8.5670    0.0000 </r>
       <r>    9.3715    0.0000 </r>
       <r>    9.3982    0.0000 </r>
       <r>    9.6084    0.0000 </r>
       <r>   10.0511    0.0000 </r>
       <r>   10.1205    0.0000 </r>
       <r>   10.5616    0.0000 </r>
       <r>   11.3886    0.0000 </r>
       <r>   11.4053    0.0000 </r>
       <r>   12.2471    0.0000 </r>
       <r>   12.7507    0.0000 </r>
       <r>   12.9661    0.0000 </r>
       <r>   13.1927    0.0000 </r>
       <r>   13.5367    0.0000 </r>
       <r>   13.7742    0.0000 </r>
       <r>   14.0250    0.0000 </r>
       <r>   14.3997    0.0000 </r>
       <r>   15.1777    0.0000 </r>
       <r>   15.3728    0.0000 </r>
       <r>   16.0048    0.0000 </r>
      </set>
      <set comment="kpoint 19">
       <r>  -12.3519    1.0000 </r>
       <r>  -11.8429    1.0000 </r>
       <r>   -8.4308    1.0000 </r>
       <r>   -8.2819    1.0000 </r>
       <r>   -5.8804    1.0000 </r>
       <r>   -5.8663    1.0000 </r>
       <r>   -5.3081    1.0000 </r>
       <r>   -4.7831    1.0000 </r>
       <r>   -4.3336    1.0000 </r>
       <r>   -2.7543    1.0000 </r>
       <r>   -2.2698    1.0000 </r>
       <r>   -2.1129    1.0000 </r>
       <r>   -1.0335    1.0000 </r>
       <r>   -1.0066    1.0000 </r>
       <r>   -0.3653    1.0000 </r>
       <r>   -0.3191    1.0000 </r>
       <r>    0.1617    1.0000 </r>
       <r>    0.3868    1.0000 </r>
       <r>    0.6729    1.0000 </r>
       <r>    0.7853    1.0000 </r>
       <r>    0.8368    1.0000 </r>
       <r>    1.6168    1.0000 </r>
       <r>    5.9042    0.0000 </r>
       <r>    6.3176    0.0000 </r>
       <r>    6.5584    0.0000 </r>
       <r>    6.7929    0.0000 </r>
       <r>    7.5781    0.0000 </r>
       <r>    8.0133    0.0000 </r>
       <r>    8.5221    0.0000 </r>
       <r>    8.9297    0.0000 </r>
       <r>    9.2786    0.0000 </r>
       <r>    9.5890    0.0000 </r>
       <r>    9.9102    0.0000 </r>
       <r>   10.3506    0.0000 </r>
       <r>   10.7993    0.0000 </r>
       <r>   11.0970    0.0000 </r>
       <r>   11.4437    0.0000 </r>
       <r>   12.1745    0.0000 </r>
       <r>   12.4286    0.0000 </r>
       <r>   13.1718    0.0000 </r>
       <r>   13.2886    0.0000 </r>
       <r>   13.6704    0.0000 </r>
       <r>   13.9117    0.0000 </r>
       <r>   14.1633    0.0000 </r>
       <r>   14.7697    0.0000 </r>
       <r>   15.0074    0.0000 </r>
       <r>   15.4490    0.0000 </r>
       <r>   16.3463    0.0000 </r>
      </set>
      <set comment="kpoint 20">
       <r>  -12.1985    1.0000 </r>
       <r>  -12.0238    1.0000 </r>
       <r>   -8.3629    1.0000 </r>
       <r>   -8.3087    1.0000 </r>
       <r>   -5.9736    1.0000 </r>
       <r>   -5.9664    1.0000 </r>
       <r>   -5.1469    1.0000 </r>
       <r>   -4.9654    1.0000 </r>
       <r>   -3.8241    1.0000 </r>
       <r>   -3.2282    1.0000 </r>
       <r>   -1.9719    1.0000 </r>
       <r>   -1.8174    1.0000 </r>
       <r>   -0.9708    1.0000 </r>
       <r>   -0.9119    1.0000 </r>
       <r>   -0.6637    1.0000 </r>
       <r>   -0.6191    1.0000 </r>
       <r>    0.1368    1.0000 </r>
       <r>    0.2380    1.0000 </r>
       <r>    0.7697    1.0000 </r>
       <r>    0.7869    1.0000 </r>
       <r>    0.9359    1.0000 </r>
       <r>    1.2598    1.0000 </r>
       <r>    6.4507    0.0000 </r>
       <r>    6.5655    0.0000 </r>
       <r>    6.6295    0.0000 </r>
       <r>    7.1477    0.0000 </r>
       <r>    7.2170    0.0000 </r>
       <r>    7.7041    0.0000 </r>
       <r>    8.5120    0.0000 </r>
       <r>    8.5794    0.0000 </r>
       <r>    9.4705    0.0000 </r>
       <r>    9.6445    0.0000 </r>
       <r>    9.8494    0.0000 </r>
       <r>   10.1464    0.0000 </r>
       <r>   10.8622    0.0000 </r>
       <r>   11.2381    0.0000 </r>
       <r>   11.8735    0.0000 </r>
       <r>   11.9482    0.0000 </r>
       <r>   12.2594    0.0000 </r>
       <r>   13.1543    0.0000 </r>
       <r>   13.4502    0.0000 </r>
       <r>   13.6318    0.0000 </r>
       <r>   13.8530    0.0000 </r>
       <r>   13.9581    0.0000 </r>
       <r>   15.1140    0.0000 </r>
       <r>   15.1309    0.0000 </r>
       <r>   15.6849    0.0000 </r>
       <r>   15.9870    0.0000 </r>
      </set>
      <set comment="kpoint 21">
       <r>  -12.5429    1.0000 </r>
[...]
       <r>   -2.3109    1.0000 </r>
       <r>   -2.1331    1.0000 </r>
       <r>   -1.9700    1.0000 </r>
       <r>   -1.4830    1.0000 </r>
       <r>   -0.7303    1.0000 </r>
       <r>   -0.1901    1.0000 </r>
       <r>    0.1800    1.0000 </r>
       <r>    0.3996    1.0000 </r>
       <r>    0.5248    1.0000 </r>
       <r>    1.6023    1.0000 </r>
       <r>    1.6383    1.0000 </r>
       <r>    1.8931    0.5954 </r>
       <r>    5.5267    0.0000 </r>
       <r>    6.1593    0.0000 </r>
       <r>    6.6780    0.0000 </r>
       <r>    7.2316    0.0000 </r>
       <r>    7.7911    0.0000 </r>
       <r>    8.2392    0.0000 </r>
       <r>    9.0026    0.0000 </r>
       <r>    9.1613    0.0000 </r>
       <r>    9.7343    0.0000 </r>
       <r>    9.9686    0.0000 </r>
       <r>   10.6024    0.0000 </r>
       <r>   11.0403    0.0000 </r>
       <r>   11.2099    0.0000 </r>
       <r>   11.4750    0.0000 </r>
       <r>   11.5743    0.0000 </r>
       <r>   11.9635    0.0000 </r>
       <r>   12.8490    0.0000 </r>
       <r>   13.1478    0.0000 </r>
       <r>   13.3792    0.0000 </r>
       <r>   13.7643    0.0000 </r>
       <r>   13.8798    0.0000 </r>
       <r>   14.1720    0.0000 </r>
       <r>   14.4929    0.0000 </r>
       <r>   14.9759    0.0000 </r>
       <r>   15.1043    0.0000 </r>
       <r>   15.4025    0.0000 </r>
      </set>
      <set comment="kpoint 175">
       <r>  -12.0210    1.0000 </r>
       <r>  -11.8813    1.0000 </r>
       <r>   -8.5480    1.0000 </r>
       <r>   -8.4356    1.0000 </r>
       <r>   -5.9280    1.0000 </r>
       <r>   -5.8224    1.0000 </r>
       <r>   -4.8885    1.0000 </r>
       <r>   -4.5639    1.0000 </r>
       <r>   -4.4089    1.0000 </r>
       <r>   -3.9709    1.0000 </r>
       <r>   -2.1848    1.0000 </r>
       <r>   -2.1232    1.0000 </r>
       <r>   -2.0524    1.0000 </r>
       <r>   -1.7672    1.0000 </r>
       <r>   -0.2101    1.0000 </r>
       <r>    0.0059    1.0000 </r>
       <r>    0.4023    1.0000 </r>
       <r>    0.4912    1.0000 </r>
       <r>    0.5626    1.0000 </r>
       <r>    0.8878    1.0000 </r>
       <r>    1.6529    1.0000 </r>
       <r>    1.7521    1.0000 </r>
       <r>    5.8738    0.0000 </r>
       <r>    6.0583    0.0000 </r>
       <r>    6.8811    0.0000 </r>
       <r>    7.4170    0.0000 </r>
       <r>    7.4866    0.0000 </r>
       <r>    7.5852    0.0000 </r>
       <r>    9.4102    0.0000 </r>
       <r>    9.5955    0.0000 </r>
       <r>    9.8036    0.0000 </r>
       <r>    9.9831    0.0000 </r>
       <r>   10.4775    0.0000 </r>
       <r>   10.8249    0.0000 </r>
       <r>   11.2459    0.0000 </r>
       <r>   11.5133    0.0000 </r>
       <r>   11.5183    0.0000 </r>
       <r>   11.6205    0.0000 </r>
       <r>   13.0947    0.0000 </r>
       <r>   13.2016    0.0000 </r>
       <r>   13.7230    0.0000 </r>
       <r>   14.0712    0.0000 </r>
       <r>   14.2048    0.0000 </r>
       <r>   14.2998    0.0000 </r>
       <r>   14.6076    0.0000 </r>
       <r>   14.7463    0.0000 </r>
       <r>   14.8946    0.0000 </r>
       <r>   15.0663    0.0000 </r>
      </set>
     </set>
    </set>
   </array>
  </eigenvalues>
  <separator name="orbital magnetization" >
   <v name="MAGDIPOLOUT">      0.00000000      0.00000000      0.00000000</v>
  </separator>
  <dos>
   <i name="efermi">      1.90168252 </i>
   <total>
    <array>
     <dimension dim="1">gridpoints</dimension>
     <dimension dim="2">spin</dimension>
     <field>energy</field>
     <field>total</field>
     <field>integrated</field>
     <set>
      <set comment="spin 1">
       <r>   -14.1925     0.0000     0.0000 </r>
       <r>   -14.0852     0.0000     0.0000 </r>
       <r>   -13.9779     0.0000     0.0000 </r>
       <r>   -13.8706     0.0000     0.0000 </r>
       <r>   -13.7633     0.0000     0.0000 </r>
       <r>   -13.6561     0.0000     0.0000 </r>
       <r>   -13.5488     0.0000     0.0000 </r>
       <r>   -13.4415     0.0000     0.0000 </r>
       <r>   -13.3342     0.0000     0.0000 </r>
       <r>   -13.2269     0.0000     0.0000 </r>
       <r>   -13.1196     0.0000     0.0000 </r>
       <r>   -13.0123     0.0000     0.0000 </r>
       <r>   -12.9051     0.0000     0.0000 </r>
       <r>   -12.7978     0.0038     0.0004 </r>
       <r>   -12.6905     0.5054     0.0546 </r>
       <r>   -12.5832     2.3748     0.3094 </r>
       <r>   -12.4759     3.5419     0.6894 </r>
       <r>   -12.3686     4.3501     1.1561 </r>
       <r>   -12.2613     3.5336     1.5352 </r>
       <r>   -12.1541     2.7311     1.8282 </r>
       <r>   -12.0468     2.7432     2.1225 </r>
       <r>   -11.9395     2.4846     2.3891 </r>
       <r>   -11.8322     2.7687     2.6861 </r>
       <r>   -11.7249     3.3727     3.0480 </r>
       <r>   -11.6176     3.5278     3.4264 </r>
       <r>   -11.5103     3.1399     3.7633 </r>
       <r>   -11.4031     1.7226     3.9481 </r>
       <r>   -11.2958     0.4728     3.9988 </r>
       <r>   -11.1885     0.0108     4.0000 </r>
       <r>   -11.0812     0.0000     4.0000 </r>
       <r>   -10.9739     0.0000     4.0000 </r>
       <r>   -10.8666     0.0000     4.0000 </r>
       <r>   -10.7593     0.0000     4.0000 </r>
       <r>   -10.6521     0.0000     4.0000 </r>
       <r>   -10.5448     0.0000     4.0000 </r>
       <r>   -10.4375     0.0000     4.0000 </r>
       <r>   -10.3302     0.0000     4.0000 </r>
       <r>   -10.2229     0.0000     4.0000 </r>
       <r>   -10.1156     0.0000     4.0000 </r>
       <r>   -10.0084     0.0000     4.0000 </r>
       <r>    -9.9011     0.0000     4.0000 </r>
       <r>    -9.7938     0.0000     4.0000 </r>
       <r>    -9.6865     0.0000     4.0000 </r>
       <r>    -9.5792     0.0000     4.0000 </r>
       <r>    -9.4719     0.0000     4.0000 </r>
       <r>    -9.3646     0.0000     4.0000 </r>
       <r>    -9.2574     0.0000     4.0000 </r>
       <r>    -9.1501     0.0000     4.0000 </r>
       <r>    -9.0428     0.0000     4.0000 </r>
       <r>    -8.9355     0.0006     4.0001 </r>
       <r>    -8.8282     0.2698     4.0290 </r>
       <r>    -8.7209     2.0734     4.2515 </r>
       <r>    -8.6136     5.2906     4.8191 </r>
       <r>    -8.5064     6.9758     5.5675 </r>
       <r>    -8.3991     6.3056     6.2440 </r>
       <r>    -8.2918     5.3140     6.8141 </r>
       <r>    -8.1845     4.8279     7.3320 </r>
       <r>    -8.0772     3.8822     7.7485 </r>
       <r>    -7.9699     1.6862     7.9294 </r>
       <r>    -7.8626     0.5990     7.9937 </r>
       <r>    -7.7554     0.0587     8.0000 </r>
       <r>    -7.6481     0.0000     8.0000 </r>
       <r>    -7.5408     0.0000     8.0000 </r>
       <r>    -7.4335     0.0000     8.0000 </r>
       <r>    -7.3262     0.0000     8.0000 </r>
       <r>    -7.2189     0.0000     8.0000 </r>
       <r>    -7.1116     0.0000     8.0000 </r>
       <r>    -7.0044     0.0004     8.0000 </r>
       <r>    -6.8971     0.1123     8.0121 </r>
       <r>    -6.7898     0.2568     8.0396 </r>
       <r>    -6.6825     0.4231     8.0850 </r>
       <r>    -6.5752     0.7633     8.1669 </r>
       <r>    -6.4679     0.8497     8.2581 </r>
       <r>    -6.3607     1.4486     8.4135 </r>
       <r>    -6.2534     1.9621     8.6240 </r>
       <r>    -6.1461     3.0367     8.9498 </r>
       <r>    -6.0388     3.7793     9.3553 </r>
       <r>    -5.9315     4.1094     9.7961 </r>
       <r>    -5.8242     4.0717    10.2330 </r>
       <r>    -5.7169     3.8561    10.6467 </r>
       <r>    -5.6097     4.0744    11.0838 </r>
       <r>    -5.5024     4.2283    11.5374 </r>
       <r>    -5.3951     4.5369    12.0242 </r>
       <r>    -5.2878     4.5769    12.5152 </r>
       <r>    -5.1805     4.4842    12.9963 </r>
       <r>    -5.0732     3.8570    13.4101 </r>
       <r>    -4.9659     3.2231    13.7559 </r>
       <r>    -4.8587     2.9600    14.0735 </r>
       <r>    -4.7514     2.3122    14.3215 </r>
       <r>    -4.6441     2.8857    14.6311 </r>
       <r>    -4.5368     3.3523    14.9908 </r>
       <r>    -4.4295     3.4374    15.3596 </r>
       <r>    -4.3222     3.3537    15.7194 </r>
       <r>    -4.2149     2.9498    16.0358 </r>
       <r>    -4.1077     2.8891    16.3458 </r>
       <r>    -4.0004     2.9312    16.6603 </r>
       <r>    -3.8931     2.8640    16.9675 </r>
       <r>    -3.7858     3.0809    17.2981 </r>
       <r>    -3.6785     2.9149    17.6108 </r>
       <r>    -3.5712     2.6895    17.8993 </r>
       <r>    -3.4640     3.0668    18.2284 </r>
       <r>    -3.3567     2.6568    18.5134 </r>
       <r>    -3.2494     2.8078    18.8147 </r>
       <r>    -3.1421     2.7864    19.1136 </r>
       <r>    -3.0348     2.7000    19.4033 </r>
       <r>    -2.9275     3.0705    19.7327 </r>
       <r>    -2.8202     2.9756    20.0519 </r>
       <r>    -2.7130     2.4398    20.3137 </r>
       <r>    -2.6057     2.6155    20.5943 </r>
       <r>    -2.4984     2.9857    20.9146 </r>
       <r>    -2.3911     3.0140    21.2379 </r>
       <r>    -2.2838     3.2496    21.5866 </r>
       <r>    -2.1765     3.9638    22.0118 </r>
       <r>    -2.0692     3.6404    22.4024 </r>
       <r>    -1.9620     3.2006    22.7458 </r>
       <r>    -1.8547     4.9898    23.2811 </r>
       <r>    -1.7474     5.5855    23.8804 </r>
       <r>    -1.6401     5.6230    24.4836 </r>
       <r>    -1.5328     6.1495    25.1434 </r>
       <r>    -1.4255     6.1230    25.8003 </r>
       <r>    -1.3182     5.5876    26.3997 </r>
       <r>    -1.2110     4.6971    26.9037 </r>
       <r>    -1.1037     6.4795    27.5988 </r>
       <r>    -0.9964     4.1054    28.0393 </r>
       <r>    -0.8891     2.2757    28.2834 </r>
       <r>    -0.7818     2.6940    28.5725 </r>
       <r>    -0.6745     2.8531    28.8786 </r>
       <r>    -0.5672     4.4223    29.3530 </r>
       <r>    -0.4600     6.7958    30.0821 </r>
       <r>    -0.3527     5.6578    30.6891 </r>
       <r>    -0.2454     6.6370    31.4011 </r>
       <r>    -0.1381     6.3556    32.0830 </r>
       <r>    -0.0308     6.7035    32.8022 </r>
       <r>     0.0765     6.8050    33.5323 </r>
       <r>     0.1837     6.2223    34.1998 </r>
       <r>     0.2910     8.7839    35.1422 </r>
       <r>     0.3983     8.0156    36.0022 </r>
       <r>     0.5056     8.6269    36.9277 </r>
       <r>     0.6129     5.4527    37.5127 </r>
       <r>     0.7202     3.0163    37.8363 </r>
       <r>     0.8275     3.2133    38.1811 </r>
       <r>     0.9347     3.5919    38.5664 </r>
       <r>     1.0420     3.5757    38.9500 </r>
       <r>     1.1493     2.7953    39.2499 </r>
       <r>     1.2566     3.3098    39.6050 </r>
       <r>     1.3639     4.4287    40.0802 </r>
       <r>     1.4712     3.8390    40.4920 </r>
       <r>     1.5785     3.6473    40.8833 </r>
       <r>     1.6857     4.5368    41.3701 </r>
       <r>     1.7930     3.3916    41.7339 </r>
       <r>     1.9003     2.4468    41.9964 </r>
       <r>     2.0076     2.6608    42.2819 </r>
       <r>     2.1149     2.0920    42.5064 </r>
       <r>     2.2222     2.6347    42.7890 </r>
       <r>     2.3295     2.6124    43.0693 </r>
       <r>     2.4367     2.0548    43.2897 </r>
       <r>     2.5440     0.9370    43.3903 </r>
       <r>     2.6513     0.3771    43.4307 </r>
       <r>     2.7586     0.5766    43.4926 </r>
       <r>     2.8659     0.4134    43.5369 </r>
       <r>     2.9732     0.3140    43.5706 </r>
       <r>     3.0804     0.7145    43.6473 </r>
       <r>     3.1877     1.0152    43.7562 </r>
       <r>     3.2950     0.5949    43.8200 </r>
       <r>     3.4023     0.0209    43.8223 </r>
       <r>     3.5096     0.1113    43.8342 </r>
       <r>     3.6169     0.3789    43.8748 </r>
       <r>     3.7242     0.3541    43.9128 </r>
       <r>     3.8314     0.3522    43.9506 </r>
       <r>     3.9387     0.4202    43.9957 </r>
       <r>     4.0460     0.0402    44.0000 </r>
       <r>     4.1533     0.0000    44.0000 </r>
       <r>     4.2606     0.0265    44.0028 </r>
       <r>     4.3679     0.1700    44.0211 </r>
       <r>     4.4752     0.3954    44.0635 </r>
       <r>     4.5824     0.4575    44.1126 </r>
       <r>     4.6897     0.6233    44.1795 </r>
       <r>     4.7970     0.8823    44.2741 </r>
       <r>     4.9043     0.8405    44.3643 </r>
       <r>     5.0116     0.8580    44.4564 </r>
       <r>     5.1189     1.2636    44.5919 </r>
       <r>     5.2262     1.1582    44.7162 </r>
       <r>     5.3334     1.6173    44.8897 </r>
       <r>     5.4407     2.1784    45.1234 </r>
       <r>     5.5480     2.4760    45.3890 </r>
       <r>     5.6553     2.7798    45.6873 </r>
       <r>     5.7626     3.3159    46.0430 </r>
       <r>     5.8699     3.2503    46.3917 </r>
       <r>     5.9772     4.2695    46.8498 </r>
       <r>     6.0844     4.7782    47.3624 </r>
       <r>     6.1917     4.0370    47.7955 </r>
       <r>     6.2990     4.6195    48.2911 </r>
       <r>     6.4063     4.1824    48.7398 </r>
       <r>     6.5136     4.0079    49.1698 </r>
       <r>     6.6209     4.5143    49.6541 </r>
       <r>     6.7281     3.2411    50.0019 </r>
       <r>     6.8354     4.0023    50.4313 </r>
       <r>     6.9427     4.6029    50.9251 </r>
       <r>     7.0500     4.6018    51.4188 </r>
       <r>     7.1573     4.3340    51.8838 </r>
       <r>     7.2646     5.6007    52.4846 </r>
       <r>     7.3719     4.9040    53.0108 </r>
       <r>     7.4791     4.4735    53.4907 </r>
       <r>     7.5864     4.1812    53.9393 </r>
       <r>     7.6937     3.5772    54.3231 </r>
       <r>     7.8010     3.1192    54.6577 </r>
       <r>     7.9083     3.0117    54.9808 </r>
       <r>     8.0156     2.9768    55.3002 </r>
       <r>     8.1229     4.2005    55.7508 </r>
       <r>     8.2301     3.9128    56.1706 </r>
       <r>     8.3374     3.6879    56.5663 </r>
       <r>     8.4447     4.0384    56.9996 </r>
       <r>     8.5520     4.1730    57.4472 </r>
       <r>     8.6593     4.5089    57.9310 </r>
       <r>     8.7666     4.2757    58.3897 </r>
       <r>     8.8739     5.3389    58.9625 </r>
       <r>     8.9811     4.8127    59.4788 </r>
       <r>     9.0884     5.3344    60.0511 </r>
       <r>     9.1957     5.1720    60.6060 </r>
       <r>     9.3030     4.9444    61.1365 </r>
       <r>     9.4103     4.6932    61.6400 </r>
       <r>     9.5176     4.3719    62.1090 </r>
       <r>     9.6249     5.1478    62.6613 </r>
       <r>     9.7321     4.9907    63.1967 </r>
       <r>     9.8394     5.2720    63.7623 </r>
       <r>     9.9467     4.4003    64.2344 </r>
       <r>    10.0540     3.7074    64.6322 </r>
       <r>    10.1613     5.2748    65.1981 </r>
       <r>    10.2686     4.6414    65.6960 </r>
       <r>    10.3758     4.1473    66.1410 </r>
       <r>    10.4831     5.4818    66.7291 </r>
       <r>    10.5904     5.6674    67.3371 </r>
       <r>    10.6977     4.0987    67.7769 </r>
       <r>    10.8050     3.8337    68.1882 </r>
       <r>    10.9123     3.2577    68.5377 </r>
       <r>    11.0196     4.8151    69.0542 </r>
       <r>    11.1268     5.4122    69.6349 </r>
       <r>    11.2341     6.3210    70.3130 </r>
       <r>    11.3414     5.9028    70.9463 </r>
       <r>    11.4487     5.2236    71.5067 </r>
       <r>    11.5560     4.3240    71.9706 </r>
       <r>    11.6633     4.4690    72.4501 </r>
       <r>    11.7706     4.9712    72.9834 </r>
       <r>    11.8778     4.8387    73.5026 </r>
       <r>    11.9851     6.0116    74.1475 </r>
       <r>    12.0924     6.0430    74.7958 </r>
       <r>    12.1997     5.9044    75.4293 </r>
       <r>    12.3070     5.6333    76.0337 </r>
       <r>    12.4143     4.9480    76.5645 </r>
       <r>    12.5216     5.6529    77.1710 </r>
       <r>    12.6288     6.0192    77.8168 </r>
       <r>    12.7361     5.9938    78.4598 </r>
       <r>    12.8434     5.8058    79.0827 </r>
       <r>    12.9507     5.8607    79.7114 </r>
       <r>    13.0580     5.6142    80.3138 </r>
       <r>    13.1653     6.3172    80.9915 </r>
       <r>    13.2725     6.1926    81.6559 </r>
       <r>    13.3798     5.4752    82.2433 </r>
       <r>    13.4871     6.1145    82.8993 </r>
       <r>    13.5944     5.2939    83.4673 </r>
       <r>    13.7017     4.8317    83.9856 </r>
       <r>    13.8090     6.2267    84.6537 </r>
       <r>    13.9163     5.4734    85.2409 </r>
       <r>    14.0235     5.3273    85.8124 </r>
       <r>    14.1308     5.4492    86.3970 </r>
       <r>    14.2381     4.6031    86.8909 </r>
       <r>    14.3454     4.9479    87.4217 </r>
       <r>    14.4527     5.0380    87.9622 </r>
       <r>    14.5600     4.9548    88.4938 </r>
       <r>    14.6673     5.2317    89.0551 </r>
       <r>    14.7745     5.1393    89.6065 </r>
       <r>    14.8818     4.0803    90.0442 </r>
       <r>    14.9891     5.1070    90.5921 </r>
       <r>    15.0964     6.2105    91.2584 </r>
       <r>    15.2037     5.5668    91.8556 </r>
       <r>    15.3110     5.7509    92.4726 </r>
       <r>    15.4183     6.0159    93.1181 </r>
       <r>    15.5255     5.6852    93.7280 </r>
       <r>    15.6328     5.9280    94.3640 </r>
       <r>    15.7401     4.5487    94.8520 </r>
       <r>    15.8474     2.4390    95.1137 </r>
       <r>    15.9547     2.7085    95.4042 </r>
       <r>    16.0620     1.8381    95.6014 </r>
       <r>    16.1693     1.1208    95.7217 </r>
       <r>    16.2765     0.8980    95.8180 </r>
       <r>    16.3838     0.7021    95.8934 </r>
       <r>    16.4911     0.8057    95.9798 </r>
       <r>    16.5984     0.1866    95.9998 </r>
       <r>    16.7057     0.0017    96.0000 </r>
       <r>    16.8130     0.0000    96.0000 </r>
       <r>    16.9202     0.0000    96.0000 </r>
       <r>    17.0275     0.0000    96.0000 </r>
       <r>    17.1348     0.0000    96.0000 </r>
       <r>    17.2421     0.0000    96.0000 </r>
       <r>    17.3494     0.0000    96.0000 </r>
       <r>    17.4567     0.0000    96.0000 </r>
       <r>    17.5640     0.0000    96.0000 </r>
       <r>    17.6712     0.0000    96.0000 </r>
       <r>    17.7785     0.0000    96.0000 </r>
       <r>    17.8858     0.0000    96.0000 </r>
       <r>    17.9931     0.0000    96.0000 </r>
      </set>
     </set>
    </array>
   </total>
  </dos>
 </calculation>
 <structure name="finalpos" >
  <crystal>
   <varray name="basis" >
    <v>       5.69700000       0.00000000       0.00000000 </v>
    <v>       0.00000000       4.04790000       0.00000000 </v>
    <v>       0.00000000       0.00000000       6.20420000 </v>
   </varray>
   <i name="volume">    143.07435078 </i>
   <varray name="rec_basis" >
    <v>       0.17553098       0.00000000       0.00000000 </v>
    <v>       0.00000000       0.24704168       0.00000000 </v>
    <v>       0.00000000       0.00000000       0.16118114 </v>
   </varray>
  </crystal>
  <varray name="positions" >
   <v>       0.52123000       0.50000000       0.63796000 </v>
   <v>       0.47877000       0.50000000       0.36204000 </v>
   <v>       0.97877000       0.50000000       0.63796000 </v>
   <v>       0.02123000       0.50000000       0.36204000 </v>
   <v>       0.60090000       0.50000000       0.89991000 </v>
   <v>       0.39910000       0.50000000       0.10009000 </v>
   <v>       0.89910000       0.50000000       0.89991000 </v>
   <v>       0.10090000       0.50000000       0.10009000 </v>
   <v>       0.75000000       0.79171000       0.72973000 </v>
   <v>       0.25000000       0.20829000       0.27027000 </v>
   <v>       0.75000000       0.20829000       0.72973000 </v>
   <v>       0.25000000       0.79171000       0.27027000 </v>
   <v>       0.25000000       0.50000000       0.52367000 </v>
   <v>       0.75000000       0.50000000       0.47633000 </v>
  </varray>
 </structure>
</modeling>
