  14  14   0   0
  0.1021960E+02  0.5697000E-09  0.4047900E-09  0.6204200E-09  0.5000000E-15
  1.000000000000000E-004
  CAR 
 Kpoints                                 
     18.20733888    -14.25101125  301      1.97052709      1.00000000
    -14.251  0.0000E+00  0.0000E+00
    -14.143  0.0000E+00  0.0000E+00
    -14.035  0.0000E+00  0.0000E+00
    -13.926  0.0000E+00  0.0000E+00
    -13.818  0.0000E+00  0.0000E+00
    -13.710  0.0000E+00  0.0000E+00
    -13.602  0.0000E+00  0.0000E+00
    -13.494  0.0000E+00  0.0000E+00
    -13.385  0.0000E+00  0.0000E+00
    -13.277  0.0000E+00  0.0000E+00
    -13.169  0.0000E+00  0.0000E+00
    -13.061  0.1955E-16  0.2115E-17
    -12.953  0.2269E-07  0.2455E-08
    -12.844  0.3532E-02  0.3822E-03
    -12.736  0.4927E+00  0.5369E-01
    -12.628  0.2330E+01  0.3058E+00
    -12.520  0.3474E+01  0.6817E+00
    -12.412  0.4308E+01  0.1148E+01
    -12.304  0.3504E+01  0.1527E+01
    -12.195  0.2710E+01  0.1820E+01
    -12.087  0.2703E+01  0.2113E+01
    -11.979  0.2434E+01  0.2376E+01
    -11.871  0.2759E+01  0.2675E+01
    -11.763  0.3288E+01  0.3030E+01
    -11.654  0.3492E+01  0.3408E+01
    -11.546  0.3128E+01  0.3747E+01
    -11.438  0.1768E+01  0.3938E+01
    -11.330  0.5545E+00  0.3998E+01
    -11.222  0.2071E-01  0.4000E+01
    -11.113  0.2187E-05  0.4000E+01
    -11.005  0.5255E-13  0.4000E+01
    -10.897  0.0000E+00  0.4000E+01
    -10.789  0.0000E+00  0.4000E+01
    -10.681  0.0000E+00  0.4000E+01
    -10.572  0.0000E+00  0.4000E+01
    -10.464  0.0000E+00  0.4000E+01
    -10.356  0.0000E+00  0.4000E+01
    -10.248  0.0000E+00  0.4000E+01
    -10.140  0.0000E+00  0.4000E+01
    -10.031  0.0000E+00  0.4000E+01
     -9.923  0.0000E+00  0.4000E+01
     -9.815  0.0000E+00  0.4000E+01
     -9.707  0.0000E+00  0.4000E+01
     -9.599  0.0000E+00  0.4000E+01
     -9.490  0.0000E+00  0.4000E+01
     -9.382  0.0000E+00  0.4000E+01
     -9.274  0.0000E+00  0.4000E+01
     -9.166  0.0000E+00  0.4000E+01
     -9.058  0.1620E-08  0.4000E+01
     -8.949  0.8989E-03  0.4000E+01
     -8.841  0.3255E+00  0.4035E+01
     -8.733  0.2167E+01  0.4270E+01
     -8.625  0.5380E+01  0.4852E+01
     -8.517  0.6996E+01  0.5609E+01
     -8.409  0.6326E+01  0.6293E+01
     -8.300  0.5297E+01  0.6866E+01
     -8.192  0.4767E+01  0.7382E+01
     -8.084  0.3601E+01  0.7772E+01
     -7.976  0.1547E+01  0.7939E+01
     -7.868  0.5209E+00  0.7995E+01
     -7.759  0.4214E-01  0.8000E+01
     -7.651  0.1191E-04  0.8000E+01
     -7.543  0.6510E-12  0.8000E+01
     -7.435  0.0000E+00  0.8000E+01
     -7.327  0.0000E+00  0.8000E+01
     -7.218  0.0000E+00  0.8000E+01
     -7.110  0.3050E-08  0.8000E+01
     -7.002  0.1102E-02  0.8000E+01
     -6.894  0.1503E+00  0.8016E+01
     -6.786  0.2559E+00  0.8044E+01
     -6.677  0.4716E+00  0.8095E+01
     -6.569  0.7889E+00  0.8180E+01
     -6.461  0.8715E+00  0.8275E+01
     -6.353  0.1447E+01  0.8431E+01
     -6.245  0.2002E+01  0.8648E+01
     -6.136  0.3166E+01  0.8990E+01
     -6.028  0.3705E+01  0.9391E+01
     -5.920  0.4154E+01  0.9841E+01
     -5.812  0.3988E+01  0.1027E+02
     -5.704  0.3802E+01  0.1068E+02
     -5.595  0.4025E+01  0.1112E+02
     -5.487  0.4197E+01  0.1157E+02
     -5.379  0.4554E+01  0.1207E+02
     -5.271  0.4513E+01  0.1255E+02
     -5.163  0.4404E+01  0.1303E+02
     -5.054  0.3717E+01  0.1343E+02
     -4.946  0.3119E+01  0.1377E+02
     -4.838  0.2888E+01  0.1408E+02
     -4.730  0.2324E+01  0.1433E+02
     -4.622  0.2875E+01  0.1465E+02
     -4.514  0.3308E+01  0.1500E+02
     -4.405  0.3311E+01  0.1536E+02
     -4.297  0.3255E+01  0.1571E+02
     -4.189  0.3071E+01  0.1605E+02
     -4.081  0.2842E+01  0.1635E+02
     -3.973  0.2858E+01  0.1666E+02
     -3.864  0.2765E+01  0.1696E+02
     -3.756  0.3001E+01  0.1729E+02
     -3.648  0.3070E+01  0.1762E+02
     -3.540  0.2683E+01  0.1791E+02
     -3.432  0.3023E+01  0.1824E+02
     -3.323  0.2561E+01  0.1851E+02
     -3.215  0.2814E+01  0.1882E+02
     -3.107  0.2733E+01  0.1911E+02
     -2.999  0.2850E+01  0.1942E+02
     -2.891  0.3088E+01  0.1976E+02
     -2.782  0.2901E+01  0.2007E+02
     -2.674  0.2416E+01  0.2033E+02
     -2.566  0.2530E+01  0.2060E+02
     -2.458  0.2955E+01  0.2092E+02
     -2.350  0.2976E+01  0.2125E+02
     -2.241  0.3350E+01  0.2161E+02
     -2.133  0.3870E+01  0.2203E+02
     -2.025  0.3536E+01  0.2241E+02
     -1.917  0.3065E+01  0.2274E+02
     -1.809  0.4616E+01  0.2324E+02
     -1.700  0.5594E+01  0.2385E+02
     -1.592  0.5433E+01  0.2443E+02
     -1.484  0.5941E+01  0.2508E+02
     -1.376  0.5979E+01  0.2572E+02
     -1.268  0.5619E+01  0.2633E+02
     -1.159  0.4787E+01  0.2685E+02
     -1.051  0.6307E+01  0.2753E+02
     -0.943  0.4448E+01  0.2801E+02
     -0.835  0.2328E+01  0.2827E+02
     -0.727  0.2707E+01  0.2856E+02
     -0.619  0.3160E+01  0.2890E+02
     -0.510  0.4454E+01  0.2938E+02
     -0.402  0.6625E+01  0.3010E+02
     -0.294  0.5544E+01  0.3070E+02
     -0.186  0.6428E+01  0.3139E+02
     -0.078  0.6341E+01  0.3208E+02
      0.031  0.6600E+01  0.3279E+02
      0.139  0.6634E+01  0.3351E+02
      0.247  0.6453E+01  0.3421E+02
      0.355  0.8621E+01  0.3514E+02
      0.463  0.8295E+01  0.3604E+02
      0.572  0.8197E+01  0.3693E+02
      0.680  0.5210E+01  0.3749E+02
      0.788  0.3066E+01  0.3782E+02
      0.896  0.3204E+01  0.3817E+02
      1.004  0.3449E+01  0.3854E+02
      1.113  0.3617E+01  0.3893E+02
      1.221  0.2718E+01  0.3923E+02
      1.329  0.3391E+01  0.3959E+02
      1.437  0.4687E+01  0.4010E+02
      1.545  0.3711E+01  0.4050E+02
      1.654  0.3462E+01  0.4088E+02
      1.762  0.4472E+01  0.4136E+02
      1.870  0.3594E+01  0.4175E+02
      1.978  0.2477E+01  0.4202E+02
      2.086  0.2565E+01  0.4230E+02
      2.195  0.2044E+01  0.4252E+02
      2.303  0.2637E+01  0.4280E+02
      2.411  0.2422E+01  0.4306E+02
      2.519  0.1904E+01  0.4327E+02
      2.627  0.1030E+01  0.4338E+02
      2.736  0.3857E+00  0.4342E+02
      2.844  0.5832E+00  0.4349E+02
      2.952  0.3950E+00  0.4353E+02
      3.060  0.3562E+00  0.4357E+02
      3.168  0.6467E+00  0.4364E+02
      3.276  0.1031E+01  0.4375E+02
      3.385  0.6256E+00  0.4382E+02
      3.493  0.4341E-01  0.4382E+02
      3.601  0.7803E-01  0.4383E+02
      3.709  0.3986E+00  0.4387E+02
      3.817  0.3517E+00  0.4391E+02
      3.926  0.3441E+00  0.4395E+02
      4.034  0.4229E+00  0.4399E+02
      4.142  0.4770E-01  0.4400E+02
      4.250  0.1326E-03  0.4400E+02
      4.358  0.4657E-01  0.4401E+02
      4.467  0.1918E+00  0.4403E+02
      4.575  0.3974E+00  0.4407E+02
      4.683  0.4707E+00  0.4412E+02
      4.791  0.6304E+00  0.4419E+02
      4.899  0.8825E+00  0.4428E+02
      5.008  0.8196E+00  0.4437E+02
      5.116  0.8618E+00  0.4447E+02
      5.224  0.1256E+01  0.4460E+02
      5.332  0.1134E+01  0.4472E+02
      5.440  0.1707E+01  0.4491E+02
      5.549  0.2239E+01  0.4515E+02
      5.657  0.2465E+01  0.4542E+02
      5.765  0.2782E+01  0.4572E+02
      5.873  0.3438E+01  0.4609E+02
      5.981  0.3250E+01  0.4644E+02
      6.090  0.4339E+01  0.4691E+02
      6.198  0.4750E+01  0.4743E+02
      6.306  0.3948E+01  0.4785E+02
      6.414  0.4758E+01  0.4837E+02
      6.522  0.3843E+01  0.4878E+02
      6.631  0.4485E+01  0.4927E+02
      6.739  0.4185E+01  0.4972E+02
      6.847  0.3369E+01  0.5009E+02
      6.955  0.4169E+01  0.5054E+02
      7.063  0.4941E+01  0.5107E+02
      7.171  0.4363E+01  0.5154E+02
      7.280  0.4767E+01  0.5206E+02
      7.388  0.5694E+01  0.5268E+02
      7.496  0.4502E+01  0.5316E+02
      7.604  0.4375E+01  0.5364E+02
      7.712  0.4110E+01  0.5408E+02
      7.821  0.3381E+01  0.5445E+02
      7.929  0.2964E+01  0.5477E+02
      8.037  0.2862E+01  0.5508E+02
      8.145  0.3551E+01  0.5546E+02
      8.253  0.4179E+01  0.5591E+02
      8.362  0.3923E+01  0.5634E+02
      8.470  0.3753E+01  0.5674E+02
      8.578  0.4421E+01  0.5722E+02
      8.686  0.4215E+01  0.5768E+02
      8.794  0.4794E+01  0.5820E+02
      8.903  0.5585E+01  0.5880E+02
      9.011  0.4514E+01  0.5929E+02
      9.119  0.4430E+01  0.5977E+02
      9.227  0.5533E+01  0.6037E+02
      9.335  0.4756E+01  0.6088E+02
      9.444  0.4750E+01  0.6140E+02
      9.552  0.4798E+01  0.6192E+02
      9.660  0.4433E+01  0.6239E+02
      9.768  0.5081E+01  0.6294E+02
      9.876  0.4597E+01  0.6344E+02
      9.985  0.5079E+01  0.6399E+02
     10.093  0.4007E+01  0.6443E+02
     10.201  0.4732E+01  0.6494E+02
     10.309  0.5307E+01  0.6551E+02
     10.417  0.4254E+01  0.6597E+02
     10.526  0.4579E+01  0.6647E+02
     10.634  0.5837E+01  0.6710E+02
     10.742  0.4213E+01  0.6755E+02
     10.850  0.4554E+01  0.6805E+02
     10.958  0.3000E+01  0.6837E+02
     11.067  0.4565E+01  0.6887E+02
     11.175  0.5090E+01  0.6942E+02
     11.283  0.6232E+01  0.7009E+02
     11.391  0.5871E+01  0.7073E+02
     11.499  0.5238E+01  0.7129E+02
     11.607  0.4912E+01  0.7182E+02
     11.716  0.4609E+01  0.7232E+02
     11.824  0.4856E+01  0.7285E+02
     11.932  0.4765E+01  0.7336E+02
     12.040  0.5422E+01  0.7395E+02
     12.148  0.5644E+01  0.7456E+02
     12.257  0.6355E+01  0.7525E+02
     12.365  0.5333E+01  0.7583E+02
     12.473  0.4968E+01  0.7636E+02
     12.581  0.5031E+01  0.7691E+02
     12.689  0.5412E+01  0.7749E+02
     12.798  0.6424E+01  0.7819E+02
     12.906  0.5607E+01  0.7879E+02
     13.014  0.5144E+01  0.7935E+02
     13.122  0.5996E+01  0.8000E+02
     13.230  0.5708E+01  0.8062E+02
     13.339  0.5923E+01  0.8126E+02
     13.447  0.5909E+01  0.8190E+02
     13.555  0.5894E+01  0.8254E+02
     13.663  0.5976E+01  0.8318E+02
     13.771  0.4717E+01  0.8369E+02
     13.880  0.5478E+01  0.8428E+02
     13.988  0.6421E+01  0.8498E+02
     14.096  0.4802E+01  0.8550E+02
     14.204  0.5671E+01  0.8611E+02
     14.312  0.4188E+01  0.8657E+02
     14.421  0.4455E+01  0.8705E+02
     14.529  0.5635E+01  0.8766E+02
     14.637  0.5072E+01  0.8821E+02
     14.745  0.4956E+01  0.8874E+02
     14.853  0.4867E+01  0.8927E+02
     14.962  0.4765E+01  0.8978E+02
     15.070  0.4309E+01  0.9025E+02
     15.178  0.5823E+01  0.9088E+02
     15.286  0.5949E+01  0.9152E+02
     15.394  0.5568E+01  0.9213E+02
     15.502  0.6370E+01  0.9282E+02
     15.611  0.5408E+01  0.9340E+02
     15.719  0.5759E+01  0.9402E+02
     15.827  0.4975E+01  0.9456E+02
     15.935  0.3576E+01  0.9495E+02
     16.043  0.2580E+01  0.9523E+02
     16.152  0.2284E+01  0.9548E+02
     16.260  0.1354E+01  0.9562E+02
     16.368  0.1170E+01  0.9575E+02
     16.476  0.8554E+00  0.9584E+02
     16.584  0.6069E+00  0.9591E+02
     16.693  0.6499E+00  0.9598E+02
     16.801  0.2095E+00  0.9600E+02
     16.909  0.2090E-02  0.9600E+02
     17.017  0.1680E-07  0.9600E+02
     17.125  0.1955E-16  0.9600E+02
     17.234  0.0000E+00  0.9600E+02
     17.342  0.0000E+00  0.9600E+02
     17.450  0.0000E+00  0.9600E+02
     17.558  0.0000E+00  0.9600E+02
     17.666  0.0000E+00  0.9600E+02
     17.775  0.0000E+00  0.9600E+02
     17.883  0.0000E+00  0.9600E+02
     17.991  0.0000E+00  0.9600E+02
     18.099  0.0000E+00  0.9600E+02
     18.207  0.0000E+00  0.9600E+02
