   14   14    1    1
  0.1021960E+02  0.5697000E-09  0.4047900E-09  0.6204200E-09  0.5000000E-15
  1.000000000000000E-004
  CAR 
 Kpoints                                 
     42    175     48
 
  0.5000000E-01  0.3571429E-01  0.0000000E+00  0.3174603E-02
      1        -12.775632   1.000000
      2        -11.616203   1.000000
      3         -8.671743   1.000000
      4         -8.446798   1.000000
      5         -6.061719   1.000000
      6         -5.115428   1.000000
      7         -4.656540   1.000000
      8         -4.249569   1.000000
      9         -3.994608   1.000000
     10         -3.499352   1.000000
     11         -2.573267   1.000000
     12         -2.300069   1.000000
     13         -1.800014   1.000000
     14         -0.990270   1.000000
     15          0.015344   1.000000
     16          0.044403   1.000000
     17          0.229505   1.000000
     18          0.230451   1.000000
     19          0.647468   1.000000
     20          2.120470   0.000011
     21          2.176207   0.000000
     22          2.315269   0.000000
     23          5.542793   0.000000
     24          5.843095   0.000000
     25          5.945028   0.000000
     26          6.051671   0.000000
     27          6.934293   0.000000
     28          7.661603   0.000000
     29          7.988997   0.000000
     30          8.580331   0.000000
     31          8.791881   0.000000
     32          8.949697   0.000000
     33          9.037030   0.000000
     34         10.150926   0.000000
     35         11.239049   0.000000
     36         11.513834   0.000000
     37         11.844582   0.000000
     38         11.868642   0.000000
     39         12.011270   0.000000
     40         12.501579   0.000000
     41         12.955912   0.000000
     42         13.681593   0.000000
     43         13.694094   0.000000
     44         15.548886   0.000000
     45         15.720811   0.000000
     46         16.282904   0.000000
     47         16.566848   0.000000
     48         16.584692   0.000000
 
  0.1500000E+00  0.3571429E-01  0.0000000E+00  0.3174603E-02
      1        -12.730772   1.000000
      2        -11.690179   1.000000
      3         -8.651905   1.000000
      4         -8.434226   1.000000
      5         -5.992718   1.000000
      6         -5.459861   1.000000
      7         -4.771960   1.000000
      8         -3.965136   1.000000
      9         -3.764345   1.000000
     10         -3.159639   1.000000
     11         -2.640546   1.000000
     12         -2.279430   1.000000
     13         -1.879687   1.000000
     14         -1.318642   1.000000
     15          0.043761   1.000000
     16          0.052312   1.000000
     17          0.164463   1.000000
     18          0.271804   1.000000
     19          0.547994   1.000000
     20          2.030806   0.044102
     21          2.094378   0.000230
     22          2.203580   0.000000
     23          5.639625   0.000000
     24          5.872379   0.000000
     25          5.964174   0.000000
     26          6.404989   0.000000
     27          6.831713   0.000000
     28          7.286781   0.000000
     29          8.187820   0.000000
     30          8.728801   0.000000
     31          9.054728   0.000000
     32          9.139179   0.000000
     33          9.215374   0.000000
     34         10.260748   0.000000
     35         11.102879   0.000000
     36         11.288727   0.000000
     37         11.330164   0.000000
     38         11.766263   0.000000
     39         12.248767   0.000000
     40         12.591002   0.000000
     41         13.264114   0.000000
     42         13.312191   0.000000
     43         14.251901   0.000000
     44         15.001477   0.000000
     45         15.931093   0.000000
     46         16.031587   0.000000
     47         16.419164   0.000000
     48         16.731959   0.000000
 
  0.2500000E+00  0.3571429E-01  0.0000000E+00  0.3174603E-02
      1        -12.644164   1.000000
      2        -11.824291   1.000000
      3         -8.608258   1.000000
      4         -8.418895   1.000000
      5         -5.977334   1.000000
      6         -5.790280   1.000000
      7         -4.713032   1.000000
      8         -3.839259   1.000000
      9         -3.247652   1.000000
     10         -2.804092   1.000000
     11         -2.668075   1.000000
     12         -2.235360   1.000000
     13         -1.984518   1.000000
     14         -1.838650   1.000000
     15         -0.173766   1.000000
     16          0.092199   1.000000
     17          0.215952   1.000000
     18          0.235333   1.000000
     19          0.529208   1.000000
     20          1.881671   0.994019
     21          1.959238   0.625251
     22          1.979711   0.397524
     23          5.772607   0.000000
     24          5.832180   0.000000
     25          6.278008   0.000000
     26          6.705559   0.000000
     27          6.866735   0.000000
     28          7.032163   0.000000
     29          8.324879   0.000000
     30          8.879286   0.000000
     31          9.038102   0.000000
     32          9.587198   0.000000
     33          9.683940   0.000000
     34         10.426604   0.000000
     35         10.551047   0.000000
     36         10.715977   0.000000
     37         11.491177   0.000000
     38         11.910365   0.000000
     39         12.490446   0.000000
     40         12.728332   0.000000
     41         12.893492   0.000000
     42         13.063090   0.000000
     43         14.832931   0.000000
     44         15.111186   0.000000
     45         15.401863   0.000000
     46         16.166393   0.000000
     47         16.178889   0.000000
     48         16.492362   0.000000
 
  0.3500000E+00  0.3571429E-01  0.0000000E+00  0.3174603E-02
      1        -12.518211   1.000000
      2        -11.995024   1.000000
      3         -8.547061   1.000000
      4         -8.414874   1.000000
      5         -6.059895   1.000000
      6         -6.027329   1.000000
      7         -4.371769   1.000000
      8         -3.671850   1.000000
      9         -2.997535   1.000000
     10         -2.855074   1.000000
     11         -2.380232   1.000000
     12         -2.204710   1.000000
     13         -2.111470   1.000000
     14         -2.078596   1.000000
     15         -0.478276   1.000000
     16         -0.189477   1.000000
     17          0.269060   1.000000
     18          0.336989   1.000000
     19          0.724114   1.000000
     20          1.655014   1.000000
     21          1.753571   1.000000
     22          1.801025   0.999999
     23          5.825575   0.000000
     24          5.873806   0.000000
     25          6.602868   0.000000
     26          6.760948   0.000000
     27          6.810674   0.000000
     28          7.537961   0.000000
     29          8.440449   0.000000
     30          8.777521   0.000000
     31          8.873867   0.000000
     32          9.682376   0.000000
     33         10.082915   0.000000
     34         10.192135   0.000000
     35         10.495942   0.000000
     36         11.177003   0.000000
     37         11.549066   0.000000
     38         12.096697   0.000000
     39         12.277664   0.000000
     40         12.399247   0.000000
     41         12.608391   0.000000
     42         13.393995   0.000000
     43         14.849814   0.000000
     44         15.127247   0.000000
     45         15.481065   0.000000
     46         15.546318   0.000000
     47         15.834405   0.000000
     48         16.569391   0.000000
 
  0.4500000E+00  0.3571429E-01  0.0000000E+00  0.3174603E-02
      1        -12.360608   1.000000
      2        -12.182225   1.000000
      3         -8.483247   1.000000
      4         -8.435291   1.000000
      5         -6.147674   1.000000
      6         -6.143279   1.000000
      7         -3.848331   1.000000
      8         -3.466787   1.000000
      9         -3.244300   1.000000
     10         -3.232216   1.000000
     11         -2.312956   1.000000
     12         -2.190868   1.000000
     13         -1.917299   1.000000
     14         -1.851847   1.000000
     15         -0.703672   1.000000
     16         -0.558273   1.000000
     17          0.354113   1.000000
     18          0.380701   1.000000
     19          0.986946   1.000000
     20          1.309340   1.000000
     21          1.664874   1.000000
     22          1.689245   1.000000
     23          5.843470   0.000000
     24          5.884667   0.000000
     25          6.573248   0.000000
     26          6.630704   0.000000
     27          7.487131   0.000000
     28          8.203060   0.000000
     29          8.227529   0.000000
     30          8.538863   0.000000
     31          8.651782   0.000000
     32          8.927816   0.000000
     33         10.575575   0.000000
     34         10.600058   0.000000
     35         10.864531   0.000000
     36         11.343830   0.000000
     37         11.526598   0.000000
     38         11.688388   0.000000
     39         11.991695   0.000000
     40         12.568401   0.000000
     41         12.818248   0.000000
     42         13.373655   0.000000
     43         14.704459   0.000000
     44         14.920875   0.000000
     45         15.005413   0.000000
     46         15.076171   0.000000
     47         16.403788   0.000000
     48         16.705552   0.000000
 
  0.5000000E-01  0.1071429E+00  0.0000000E+00  0.3174603E-02
      1        -12.751348   1.000000
      2        -11.594334   1.000000
      3         -8.652623   1.000000
      4         -8.421919   1.000000
      5         -6.034506   1.000000
      6         -5.080365   1.000000
      7         -4.635667   1.000000
      8         -4.533428   1.000000
      9         -4.157928   1.000000
     10         -3.477559   1.000000
     11         -3.275196   1.000000
     12         -1.757753   1.000000
     13         -0.995100   1.000000
     14         -0.986228   1.000000
     15         -0.230110   1.000000
     16         -0.193725   1.000000
     17          0.238619   1.000000
     18          0.305756   1.000000
     19          0.729269   1.000000
     20          1.841641   0.999867
     21          1.913746   0.945865
     22          2.373692   0.000000
     23          5.667879   0.000000
     24          5.797644   0.000000
     25          5.837346   0.000000
     26          6.127999   0.000000
     27          7.219321   0.000000
     28          7.952160   0.000000
     29          8.111004   0.000000
     30          8.309061   0.000000
     31          8.801661   0.000000
     32          9.094520   0.000000
     33          9.142377   0.000000
     34         10.640689   0.000000
     35         11.434030   0.000000
     36         11.460364   0.000000
     37         11.782331   0.000000
     38         11.973787   0.000000
     39         12.127002   0.000000
     40         12.792260   0.000000
     41         12.962210   0.000000
     42         13.383140   0.000000
     43         13.392258   0.000000
     44         15.454878   0.000000
     45         15.548328   0.000000
     46         16.044106   0.000000
     47         16.054268   0.000000
     48         16.427468   0.000000
 
  0.1500000E+00  0.1071429E+00  0.0000000E+00  0.3174603E-02
      1        -12.706577   1.000000
      2        -11.668331   1.000000
      3         -8.632158   1.000000
      4         -8.412374   1.000000
      5         -5.967175   1.000000
      6         -5.430061   1.000000
      7         -4.751734   1.000000
      8         -4.452504   1.000000
      9         -3.728319   1.000000
     10         -3.349958   1.000000
     11         -3.122133   1.000000
     12         -1.733780   1.000000
     13         -1.310251   1.000000
     14         -1.103086   1.000000
     15         -0.186702   1.000000
     16         -0.118555   1.000000
     17          0.196935   1.000000
     18          0.291001   1.000000
     19          0.621489   1.000000
     20          1.767358   1.000000
     21          1.845055   0.999807
     22          2.246769   0.000000
     23          5.743523   0.000000
     24          5.900023   0.000000
     25          6.063497   0.000000
     26          6.207840   0.000000
     27          7.127207   0.000000
     28          7.603857   0.000000
     29          8.265288   0.000000
     30          8.462183   0.000000
     31          9.137798   0.000000
     32          9.179526   0.000000
     33          9.421994   0.000000
     34         10.574372   0.000000
     35         11.035775   0.000000
     36         11.243942   0.000000
     37         11.534137   0.000000
     38         11.953876   0.000000
     39         12.358524   0.000000
     40         12.855926   0.000000
     41         13.030073   0.000000
     42         13.288253   0.000000
     43         13.945663   0.000000
     44         15.074324   0.000000
     45         15.581488   0.000000
     46         15.937090   0.000000
     47         15.944044   0.000000
     48         16.632875   0.000000
 
  0.2500000E+00  0.1071429E+00  0.0000000E+00  0.3174603E-02
      1        -12.620367   1.000000
      2        -11.801490   1.000000
      3         -8.587376   1.000000
      4         -8.398414   1.000000
      5         -5.946162   1.000000
      6         -5.759266   1.000000
      7         -4.698413   1.000000
      8         -4.347317   1.000000
      9         -3.471831   1.000000
     10         -3.196189   1.000000
     11         -2.652225   1.000000
     12         -1.835002   1.000000
     13         -1.688563   1.000000
     14         -1.262201   1.000000
     15         -0.172544   1.000000
     16         -0.141336   1.000000
     17          0.127303   1.000000
     18          0.276067   1.000000
     19          0.545748   1.000000
     20          1.629415   1.000000
     21          1.712563   1.000000
     22          2.005819   0.159090
     23          5.965393   0.000000
     24          6.035908   0.000000
     25          6.119678   0.000000
     26          6.664545   0.000000
     27          6.998655   0.000000
     28          7.372112   0.000000
     29          8.491749   0.000000
     30          8.589577   0.000000
     31          9.123019   0.000000
     32          9.633224   0.000000
     33          9.915837   0.000000
     34         10.256523   0.000000
     35         10.482652   0.000000
     36         10.866130   0.000000
     37         11.635061   0.000000
     38         12.197242   0.000000
     39         12.444918   0.000000
     40         12.646681   0.000000
     41         13.103973   0.000000
     42         13.132895   0.000000
     43         14.507900   0.000000
     44         15.240000   0.000000
     45         15.374835   0.000000
     46         15.780033   0.000000
     47         15.882456   0.000000
     48         16.594821   0.000000
 
  0.3500000E+00  0.1071429E+00  0.0000000E+00  0.3174603E-02
      1        -12.494536   1.000000
      2        -11.972070   1.000000
      3         -8.526588   1.000000
      4         -8.392627   1.000000
      5         -6.025528   1.000000
      6         -5.995513   1.000000
      7         -4.356058   1.000000
      8         -4.202426   1.000000
      9         -3.640825   1.000000
     10         -2.799237   1.000000
     11         -2.306012   1.000000
     12         -2.167079   1.000000
     13         -1.622179   1.000000
     14         -1.422976   1.000000
     15         -0.435213   1.000000
     16         -0.245240   1.000000
     17          0.174276   1.000000
     18          0.198696   1.000000
     19          0.721340   1.000000
     20          1.483954   1.000000
     21          1.564115   1.000000
     22          1.690035   1.000000
     23          5.994147   0.000000
     24          6.128746   0.000000
     25          6.625252   0.000000
     26          6.911835   0.000000
     27          6.988982   0.000000
     28          7.477592   0.000000
     29          8.525034   0.000000
     30          8.693362   0.000000
     31          8.978444   0.000000
     32          9.517836   0.000000
     33         10.130925   0.000000
     34         10.159467   0.000000
     35         10.512421   0.000000
     36         11.257190   0.000000
     37         11.499162   0.000000
     38         11.971720   0.000000
     39         12.396742   0.000000
     40         12.665160   0.000000
     41         12.808994   0.000000
     42         13.600572   0.000000
     43         14.956233   0.000000
     44         14.982787   0.000000
     45         15.356532   0.000000
     46         15.427648   0.000000
     47         15.884397   0.000000
     48         16.582500   0.000000
 
  0.4500000E+00  0.1071429E+00  0.0000000E+00  0.3174603E-02
      1        -12.337033   1.000000
      2        -12.158083   1.000000
      3         -8.463368   1.000000
      4         -8.414410   1.000000
      5         -6.114181   1.000000
      6         -6.111835   1.000000
      7         -4.024152   1.000000
      8         -3.850247   1.000000
      9         -3.815677   1.000000
     10         -3.231050   1.000000
     11         -2.051864   1.000000
     12         -1.851800   1.000000
     13         -1.549652   1.000000
     14         -1.536618   1.000000
     15         -0.661782   1.000000
     16         -0.546550   1.000000
     17          0.206747   1.000000
     18          0.237489   1.000000
     19          0.993090   1.000000
     20          1.309500   1.000000
     21          1.432586   1.000000
     22          1.452782   1.000000
     23          6.041307   0.000000
     24          6.109576   0.000000
     25          6.892454   0.000000
     26          6.942031   0.000000
     27          7.300095   0.000000
     28          8.023808   0.000000
     29          8.062681   0.000000
     30          8.745833   0.000000
     31          8.760761   0.000000
     32          8.869216   0.000000
     33         10.414369   0.000000
     34         10.631704   0.000000
     35         10.907760   0.000000
     36         11.024257   0.000000
     37         11.675994   0.000000
     38         11.746029   0.000000
     39         12.075192   0.000000
     40         12.744836   0.000000
     41         13.151785   0.000000
     42         13.623131   0.000000
     43         14.714509   0.000000
     44         14.886942   0.000000
     45         14.996769   0.000000
     46         15.190168   0.000000
     47         16.421518   0.000000
     48         16.677165   0.000000
 
  0.5000000E-01  0.1785714E+00  0.0000000E+00  0.3174603E-02
      1        -12.705948   1.000000
      2        -11.552781   1.000000
      3         -8.616127   1.000000
      4         -8.379998   1.000000
      5         -5.985075   1.000000
      6         -5.095515   1.000000
      7         -4.985159   1.000000
      8         -4.592902   1.000000
      9         -4.141940   1.000000
     10         -3.899175   1.000000
     11         -3.421734   1.000000
     12         -1.152982   1.000000
     13         -0.976495   1.000000
     14         -0.561160   1.000000
     15         -0.476941   1.000000
     16         -0.119875   1.000000
     17          0.268903   1.000000
     18          0.362242   1.000000
     19          0.807964   1.000000
     20          1.465549   1.000000
     21          1.516980   1.000000
     22          2.416105   0.000000
     23          5.385051   0.000000
     24          5.556332   0.000000
     25          6.222705   0.000000
     26          6.331832   0.000000
     27          7.642008   0.000000
     28          7.664992   0.000000
     29          8.428725   0.000000
     30          8.768254   0.000000
     31          8.982448   0.000000
     32          9.248258   0.000000
     33          9.374634   0.000000
     34         11.021061   0.000000
     35         11.470482   0.000000
     36         11.740903   0.000000
     37         11.769798   0.000000
     38         12.186137   0.000000
     39         12.356708   0.000000
     40         12.889930   0.000000
     41         12.944693   0.000000
     42         13.140326   0.000000
     43         13.338556   0.000000
     44         14.809048   0.000000
     45         15.273322   0.000000
     46         15.494566   0.000000
     47         15.577317   0.000000
     48         16.158699   0.000000
 
  0.1500000E+00  0.1785714E+00  0.0000000E+00  0.3174603E-02
      1        -12.661691   1.000000
      2        -11.626681   1.000000
      3         -8.595884   1.000000
      4         -8.370378   1.000000
      5         -5.914840   1.000000
      6         -5.378146   1.000000
      7         -4.999788   1.000000
      8         -4.717435   1.000000
      9         -3.966183   1.000000
     10         -3.685017   1.000000
     11         -3.081843   1.000000
     12         -1.299306   1.000000
     13         -1.127874   1.000000
     14         -0.680996   1.000000
     15         -0.438197   1.000000
     16         -0.038809   1.000000
     17          0.228526   1.000000
     18          0.323121   1.000000
     19          0.688541   1.000000
     20          1.381357   1.000000
     21          1.446567   1.000000
     22          2.284663   0.000000
     23          5.461170   0.000000
     24          5.904325   0.000000
     25          6.275914   0.000000
     26          6.343797   0.000000
     27          7.572747   0.000000
     28          7.816698   0.000000
     29          8.140425   0.000000
     30          8.894624   0.000000
     31          9.273472   0.000000
     32          9.363742   0.000000
     33          9.663526   0.000000
     34         10.652782   0.000000
     35         10.934814   0.000000
     36         11.365894   0.000000
     37         11.804460   0.000000
     38         12.309260   0.000000
     39         12.549073   0.000000
     40         12.612157   0.000000
     41         13.300081   0.000000
     42         13.380682   0.000000
     43         13.640520   0.000000
     44         14.843668   0.000000
     45         14.934447   0.000000
     46         15.384441   0.000000
     47         15.636275   0.000000
     48         16.163988   0.000000
 
  0.2500000E+00  0.1785714E+00  0.0000000E+00  0.3174603E-02
      1        -12.575212   1.000000
      2        -11.760656   1.000000
      3         -8.552019   1.000000
      4         -8.357761   1.000000
      5         -5.887155   1.000000
      6         -5.705242   1.000000
      7         -4.914040   1.000000
      8         -4.666687   1.000000
      9         -4.087560   1.000000
     10         -3.144846   1.000000
     11         -2.603769   1.000000
     12         -1.814746   1.000000
     13         -1.086020   1.000000
     14         -0.820353   1.000000
     15         -0.388704   1.000000
     16         -0.039739   1.000000
     17          0.077829   1.000000
     18          0.324643   1.000000
     19          0.576479   1.000000
     20          1.244187   1.000000
     21          1.334924   1.000000
     22          2.029633   0.047284
     23          5.777820   0.000000
     24          6.219347   0.000000
     25          6.389436   0.000000
     26          6.470387   0.000000
     27          7.459881   0.000000
     28          7.951630   0.000000
     29          8.066660   0.000000
     30          9.042282   0.000000
     31          9.289171   0.000000
     32          9.767236   0.000000
     33          9.989743   0.000000
     34         10.178716   0.000000
     35         10.374960   0.000000
     36         11.104955   0.000000
     37         11.710739   0.000000
     38         12.229296   0.000000
     39         12.623304   0.000000
     40         12.895403   0.000000
     41         13.206979   0.000000
     42         13.559584   0.000000
     43         14.157892   0.000000
     44         14.773903   0.000000
     45         14.985682   0.000000
     46         15.421062   0.000000
     47         15.692496   0.000000
     48         16.361557   0.000000
 
  0.3500000E+00  0.1785714E+00  0.0000000E+00  0.3174603E-02
      1        -12.450512   1.000000
      2        -11.931964   1.000000
      3         -8.491711   1.000000
      4         -8.356016   1.000000
      5         -5.965904   1.000000
      6         -5.940536   1.000000
      7         -4.779978   1.000000
      8         -4.334126   1.000000
      9         -4.250169   1.000000
     10         -2.763754   1.000000
     11         -2.268846   1.000000
     12         -2.128312   1.000000
     13         -1.029146   1.000000
     14         -0.969266   1.000000
     15         -0.395474   1.000000
     16         -0.325299   1.000000
     17          0.120528   1.000000
     18          0.124829   1.000000
     19          0.730878   1.000000
     20          1.113107   1.000000
     21          1.198374   1.000000
     22          1.692377   1.000000
     23          6.217361   0.000000
     24          6.326879   0.000000
     25          6.506546   0.000000
     26          6.918203   0.000000
     27          7.403892   0.000000
     28          7.871936   0.000000
     29          8.157361   0.000000
     30          9.147818   0.000000
     31          9.184768   0.000000
     32          9.279208   0.000000
     33          9.969981   0.000000
     34         10.222108   0.000000
     35         10.766037   0.000000
     36         11.186515   0.000000
     37         11.354517   0.000000
     38         12.081572   0.000000
     39         12.460990   0.000000
     40         13.120834   0.000000
     41         13.126855   0.000000
     42         13.925495   0.000000
     43         14.569018   0.000000
     44         14.571717   0.000000
     45         15.150876   0.000000
     46         15.325547   0.000000
     47         15.773135   0.000000
     48         16.521007   0.000000
 
  0.4500000E+00  0.1785714E+00  0.0000000E+00  0.3174603E-02
      1        -12.293754   1.000000
      2        -12.114348   1.000000
      3         -8.424462   1.000000
      4         -8.377640   1.000000
      5         -6.053361   1.000000
      6         -6.053093   1.000000
      7         -4.616428   1.000000
      8         -4.433053   1.000000
      9         -3.805958   1.000000
     10         -3.207558   1.000000
     11         -1.983093   1.000000
     12         -1.816627   1.000000
     13         -1.044665   1.000000
     14         -0.985747   1.000000
     15         -0.574234   1.000000
     16         -0.573584   1.000000
     17          0.079833   1.000000
     18          0.122816   1.000000
     19          1.003899   1.000000
     20          1.051593   1.000000
     21          1.094021   1.000000
     22          1.340153   1.000000
     23          6.319557   0.000000
     24          6.436643   0.000000
     25          6.987904   0.000000
     26          7.328807   0.000000
     27          7.395732   0.000000
     28          7.726060   0.000000
     29          8.042690   0.000000
     30          8.570171   0.000000
     31          9.191877   0.000000
     32          9.195343   0.000000
     33         10.090883   0.000000
     34         10.572474   0.000000
     35         10.775496   0.000000
     36         11.067824   0.000000
     37         11.833873   0.000000
     38         11.843644   0.000000
     39         12.197601   0.000000
     40         13.017270   0.000000
     41         13.573119   0.000000
     42         13.914706   0.000000
     43         14.388970   0.000000
     44         14.524945   0.000000
     45         15.169433   0.000000
     46         15.291869   0.000000
     47         16.208786   0.000000
     48         16.515817   0.000000
 
  0.5000000E-01  0.2500000E+00  0.0000000E+00  0.3174603E-02
      1        -12.647090   1.000000
      2        -11.499204   1.000000
      3         -8.573255   1.000000
      4         -8.326193   1.000000
      5         -5.921835   1.000000
      6         -5.579374   1.000000
      7         -4.918598   1.000000
      8         -4.537694   1.000000
      9         -4.419513   1.000000
     10         -4.104000   1.000000
     11         -3.360357   1.000000
     12         -1.140966   1.000000
     13         -0.972306   1.000000
     14         -0.923625   1.000000
     15         -0.140668   1.000000
     16          0.301197   1.000000
     17          0.402803   1.000000
     18          0.656871   1.000000
     19          0.862214   1.000000
     20          1.076605   1.000000
     21          1.079975   1.000000
     22          2.453892   0.000000
     23          5.048813   0.000000
     24          5.262657   0.000000
     25          6.500355   0.000000
     26          6.674493   0.000000
     27          7.290983   0.000000
     28          8.062727   0.000000
     29          8.712352   0.000000
     30          9.177427   0.000000
     31          9.495573   0.000000
     32          9.683455   0.000000
     33          9.724040   0.000000
     34         10.911230   0.000000
     35         11.436125   0.000000
     36         12.094715   0.000000
     37         12.106558   0.000000
     38         12.419369   0.000000
     39         12.540268   0.000000
     40         12.582990   0.000000
     41         12.700915   0.000000
     42         13.100255   0.000000
     43         13.900403   0.000000
     44         14.005200   0.000000
     45         14.492220   0.000000
     46         15.256399   0.000000
     47         15.533311   0.000000
     48         16.030853   0.000000
 
  0.1500000E+00  0.2500000E+00  0.0000000E+00  0.3174603E-02
      1        -12.602791   1.000000
      2        -11.571133   1.000000
      3         -8.549272   1.000000
      4         -8.317106   1.000000
      5         -5.846855   1.000000
      6         -5.543977   1.000000
      7         -5.262487   1.000000
      8         -4.664387   1.000000