  14  14   0   0
  0.1027488E+02  0.5707255E-09  0.4055186E-09  0.6215368E-09  0.5000000E-15
  1.000000000000000E-004
  CAR 
 Convergence                             
     17.88293368    -14.17587877  301      1.85278411      1.00000000
    -14.176  0.0000E+00  0.0000E+00
    -14.069  0.0000E+00  0.0000E+00
    -13.962  0.0000E+00  0.0000E+00
    -13.855  0.0000E+00  0.0000E+00
    -13.748  0.0000E+00  0.0000E+00
    -13.642  0.0000E+00  0.0000E+00
    -13.535  0.0000E+00  0.0000E+00
    -13.428  0.0000E+00  0.0000E+00
    -13.321  0.0000E+00  0.0000E+00
    -13.214  0.0000E+00  0.0000E+00
    -13.107  0.0000E+00  0.0000E+00
    -13.000  0.5277E-16  0.5639E-17
    -12.894  0.3238E-07  0.3460E-08
    -12.787  0.3901E-02  0.4169E-03
    -12.680  0.5106E+00  0.5498E-01
    -12.573  0.2396E+01  0.3111E+00
    -12.466  0.3577E+01  0.6933E+00
    -12.359  0.4381E+01  0.1161E+01
    -12.252  0.3539E+01  0.1540E+01
    -12.145  0.2738E+01  0.1832E+01
    -12.039  0.2757E+01  0.2127E+01
    -11.932  0.2497E+01  0.2394E+01
    -11.825  0.2772E+01  0.2690E+01
    -11.718  0.3406E+01  0.3054E+01
    -11.611  0.3538E+01  0.3432E+01
    -11.504  0.3146E+01  0.3768E+01
    -11.397  0.1708E+01  0.3951E+01
    -11.291  0.4517E+00  0.3999E+01
    -11.184  0.9171E-02  0.4000E+01
    -11.077  0.3037E-06  0.4000E+01
    -10.970  0.2421E-14  0.4000E+01
    -10.863  0.0000E+00  0.4000E+01
    -10.756  0.0000E+00  0.4000E+01
    -10.649  0.0000E+00  0.4000E+01
    -10.543  0.0000E+00  0.4000E+01
    -10.436  0.0000E+00  0.4000E+01
    -10.329  0.0000E+00  0.4000E+01
    -10.222  0.0000E+00  0.4000E+01
    -10.115  0.0000E+00  0.4000E+01
    -10.008  0.0000E+00  0.4000E+01
     -9.901  0.0000E+00  0.4000E+01
     -9.795  0.0000E+00  0.4000E+01
     -9.688  0.0000E+00  0.4000E+01
     -9.581  0.0000E+00  0.4000E+01
     -9.474  0.0000E+00  0.4000E+01
     -9.367  0.0000E+00  0.4000E+01
     -9.260  0.0000E+00  0.4000E+01
     -9.153  0.0000E+00  0.4000E+01
     -9.046  0.1149E-08  0.4000E+01
     -8.940  0.6753E-03  0.4000E+01
     -8.833  0.2838E+00  0.4030E+01
     -8.726  0.2119E+01  0.4257E+01
     -8.619  0.5394E+01  0.4833E+01
     -8.512  0.7024E+01  0.5584E+01
     -8.405  0.6278E+01  0.6255E+01
     -8.298  0.5331E+01  0.6824E+01
     -8.192  0.4851E+01  0.7343E+01
     -8.085  0.3860E+01  0.7755E+01
     -7.978  0.1661E+01  0.7933E+01
     -7.871  0.5767E+00  0.7994E+01
     -7.764  0.5230E-01  0.8000E+01
     -7.657  0.2517E-04  0.8000E+01
     -7.550  0.3109E-11  0.8000E+01
     -7.444  0.0000E+00  0.8000E+01
     -7.337  0.0000E+00  0.8000E+01
     -7.230  0.0000E+00  0.8000E+01
     -7.123  0.3977E-09  0.8000E+01
     -7.016  0.3484E-03  0.8000E+01
     -6.909  0.1088E+00  0.8012E+01
     -6.802  0.2602E+00  0.8039E+01
     -6.695  0.4237E+00  0.8085E+01
     -6.589  0.7665E+00  0.8167E+01
     -6.482  0.8433E+00  0.8257E+01
     -6.375  0.1428E+01  0.8409E+01
     -6.268  0.1925E+01  0.8615E+01
     -6.161  0.3049E+01  0.8941E+01
     -6.054  0.3806E+01  0.9348E+01
     -5.947  0.4126E+01  0.9789E+01
     -5.841  0.4056E+01  0.1022E+02
     -5.734  0.3896E+01  0.1064E+02
     -5.627  0.4078E+01  0.1107E+02
     -5.520  0.4215E+01  0.1152E+02
     -5.413  0.4576E+01  0.1201E+02
     -5.306  0.4634E+01  0.1251E+02
     -5.199  0.4502E+01  0.1299E+02
     -5.093  0.3890E+01  0.1341E+02
     -4.986  0.3220E+01  0.1375E+02
     -4.879  0.2984E+01  0.1407E+02
     -4.772  0.2296E+01  0.1431E+02
     -4.665  0.2899E+01  0.1462E+02
     -4.558  0.3373E+01  0.1498E+02
     -4.451  0.3436E+01  0.1535E+02
     -4.345  0.3376E+01  0.1571E+02
     -4.238  0.2968E+01  0.1603E+02
     -4.131  0.2913E+01  0.1634E+02
     -4.024  0.2925E+01  0.1665E+02
     -3.917  0.2895E+01  0.1696E+02
     -3.810  0.3100E+01  0.1729E+02
     -3.703  0.2908E+01  0.1760E+02
     -3.596  0.2710E+01  0.1789E+02
     -3.490  0.3083E+01  0.1822E+02
     -3.383  0.2670E+01  0.1851E+02
     -3.276  0.2817E+01  0.1881E+02
     -3.169  0.2816E+01  0.1911E+02
     -3.062  0.2698E+01  0.1940E+02
     -2.955  0.3100E+01  0.1973E+02
     -2.848  0.2991E+01  0.2005E+02
     -2.742  0.2454E+01  0.2031E+02
     -2.635  0.2627E+01  0.2059E+02
     -2.528  0.3006E+01  0.2091E+02
     -2.421  0.3015E+01  0.2124E+02
     -2.314  0.3176E+01  0.2158E+02
     -2.207  0.4000E+01  0.2200E+02
     -2.100  0.3654E+01  0.2239E+02
     -1.994  0.3176E+01  0.2273E+02
     -1.887  0.4934E+01  0.2326E+02
     -1.780  0.5517E+01  0.2385E+02
     -1.673  0.5668E+01  0.2446E+02
     -1.566  0.6161E+01  0.2511E+02
     -1.459  0.6167E+01  0.2577E+02
     -1.352  0.5634E+01  0.2638E+02
     -1.245  0.4695E+01  0.2688E+02
     -1.139  0.6473E+01  0.2757E+02
     -1.032  0.4267E+01  0.2802E+02
     -0.925  0.2298E+01  0.2827E+02
     -0.818  0.2710E+01  0.2856E+02
     -0.711  0.2888E+01  0.2887E+02
     -0.604  0.4390E+01  0.2934E+02
     -0.497  0.6788E+01  0.3006E+02
     -0.391  0.5696E+01  0.3067E+02
     -0.284  0.6601E+01  0.3138E+02
     -0.177  0.6400E+01  0.3206E+02
     -0.070  0.6729E+01  0.3278E+02
      0.037  0.6867E+01  0.3351E+02
      0.144  0.6213E+01  0.3418E+02
      0.251  0.8850E+01  0.3512E+02
      0.357  0.8152E+01  0.3599E+02
      0.464  0.8670E+01  0.3692E+02
      0.571  0.5468E+01  0.3751E+02
      0.678  0.3053E+01  0.3783E+02
      0.785  0.3199E+01  0.3817E+02
      0.892  0.3594E+01  0.3856E+02
      0.999  0.3591E+01  0.3894E+02
      1.105  0.2819E+01  0.3924E+02
      1.212  0.3351E+01  0.3960E+02
      1.319  0.4458E+01  0.4008E+02
      1.426  0.3845E+01  0.4049E+02
      1.533  0.3688E+01  0.4088E+02
      1.640  0.4595E+01  0.4137E+02
      1.747  0.3411E+01  0.4174E+02
      1.854  0.2474E+01  0.4200E+02
      1.960  0.2687E+01  0.4229E+02
      2.067  0.2102E+01  0.4251E+02
      2.174  0.2644E+01  0.4280E+02
      2.281  0.2629E+01  0.4308E+02
      2.388  0.1999E+01  0.4329E+02
      2.495  0.9324E+00  0.4339E+02
      2.602  0.3815E+00  0.4343E+02
      2.708  0.5766E+00  0.4349E+02
      2.815  0.4217E+00  0.4354E+02
      2.922  0.3063E+00  0.4357E+02
      3.029  0.7210E+00  0.4365E+02
      3.136  0.1030E+01  0.4376E+02
      3.243  0.5856E+00  0.4382E+02
      3.350  0.1887E-01  0.4382E+02
      3.456  0.1145E+00  0.4383E+02
      3.563  0.3904E+00  0.4388E+02
      3.670  0.3450E+00  0.4391E+02
      3.777  0.3601E+00  0.4395E+02
      3.884  0.4186E+00  0.4400E+02
      3.991  0.3466E-01  0.4400E+02
      4.098  0.8120E-05  0.4400E+02
      4.205  0.1471E-01  0.4400E+02
      4.311  0.1591E+00  0.4402E+02
      4.418  0.3726E+00  0.4406E+02
      4.525  0.4413E+00  0.4411E+02
      4.632  0.6158E+00  0.4417E+02
      4.739  0.8604E+00  0.4426E+02
      4.846  0.8397E+00  0.4435E+02
      4.953  0.8721E+00  0.4445E+02
      5.059  0.1237E+01  0.4458E+02
      5.166  0.1194E+01  0.4471E+02
      5.273  0.1573E+01  0.4487E+02
      5.380  0.2116E+01  0.4510E+02
      5.487  0.2511E+01  0.4537E+02
      5.594  0.2799E+01  0.4567E+02
      5.701  0.3268E+01  0.4602E+02
      5.807  0.3290E+01  0.4637E+02
      5.914  0.4199E+01  0.4682E+02
      6.021  0.4827E+01  0.4733E+02
      6.128  0.4113E+01  0.4777E+02
      6.235  0.4592E+01  0.4826E+02
      6.342  0.4325E+01  0.4873E+02
      6.449  0.3944E+01  0.4915E+02
      6.555  0.4536E+01  0.4963E+02
      6.662  0.3276E+01  0.4998E+02
      6.769  0.3946E+01  0.5040E+02
      6.876  0.4600E+01  0.5090E+02
      6.983  0.4605E+01  0.5139E+02
      7.090  0.4340E+01  0.5185E+02
      7.197  0.5566E+01  0.5245E+02
      7.304  0.5025E+01  0.5298E+02
      7.410  0.4495E+01  0.5346E+02
      7.517  0.4246E+01  0.5392E+02
      7.624  0.3606E+01  0.5430E+02
      7.731  0.3100E+01  0.5463E+02
      7.838  0.3038E+01  0.5496E+02
      7.945  0.2969E+01  0.5528E+02
      8.052  0.4151E+01  0.5572E+02
      8.158  0.3942E+01  0.5614E+02
      8.265  0.3764E+01  0.5654E+02
      8.372  0.4023E+01  0.5697E+02
      8.479  0.4264E+01  0.5743E+02
      8.586  0.4508E+01  0.5791E+02
      8.693  0.4318E+01  0.5837E+02
      8.800  0.5375E+01  0.5895E+02
      8.906  0.4761E+01  0.5945E+02
      9.013  0.5273E+01  0.6002E+02
      9.120  0.5227E+01  0.6058E+02
      9.227  0.5028E+01  0.6111E+02
      9.334  0.4658E+01  0.6161E+02
      9.441  0.4419E+01  0.6208E+02
      9.548  0.5084E+01  0.6263E+02
      9.655  0.5044E+01  0.6317E+02
      9.761  0.5277E+01  0.6373E+02
      9.868  0.4502E+01  0.6421E+02
      9.975  0.3709E+01  0.6461E+02
     10.082  0.5194E+01  0.6516E+02
     10.189  0.4727E+01  0.6567E+02
     10.296  0.4177E+01  0.6611E+02
     10.403  0.5310E+01  0.6668E+02
     10.509  0.5839E+01  0.6731E+02
     10.616  0.4091E+01  0.6774E+02
     10.723  0.3925E+01  0.6816E+02
     10.830  0.3294E+01  0.6851E+02
     10.937  0.4704E+01  0.6902E+02
     11.044  0.5383E+01  0.6959E+02
     11.151  0.6325E+01  0.7027E+02
     11.257  0.6009E+01  0.7091E+02
     11.364  0.5161E+01  0.7146E+02
     11.471  0.4459E+01  0.7194E+02
     11.578  0.4478E+01  0.7242E+02
     11.685  0.5000E+01  0.7295E+02
     11.792  0.4836E+01  0.7347E+02
     11.899  0.5975E+01  0.7411E+02
     12.005  0.6037E+01  0.7475E+02
     12.112  0.6077E+01  0.7540E+02
     12.219  0.5526E+01  0.7599E+02
     12.326  0.5003E+01  0.7653E+02
     12.433  0.5729E+01  0.7714E+02
     12.540  0.5965E+01  0.7778E+02
     12.647  0.5917E+01  0.7841E+02
     12.754  0.5972E+01  0.7905E+02
     12.860  0.5900E+01  0.7968E+02
     12.967  0.5633E+01  0.8028E+02
     13.074  0.6347E+01  0.8096E+02
     13.181  0.6336E+01  0.8163E+02
     13.288  0.5483E+01  0.8222E+02
     13.395  0.6118E+01  0.8287E+02
     13.502  0.5459E+01  0.8346E+02
     13.608  0.4854E+01  0.8398E+02
     13.715  0.6201E+01  0.8464E+02
     13.822  0.5516E+01  0.8523E+02
     13.929  0.5380E+01  0.8580E+02
     14.036  0.5478E+01  0.8639E+02
     14.143  0.4675E+01  0.8689E+02
     14.250  0.4981E+01  0.8742E+02
     14.356  0.4945E+01  0.8795E+02
     14.463  0.4936E+01  0.8848E+02
     14.570  0.5273E+01  0.8904E+02
     14.677  0.5212E+01  0.8960E+02
     14.784  0.4105E+01  0.9003E+02
     14.891  0.4993E+01  0.9057E+02
     14.998  0.6127E+01  0.9122E+02
     15.105  0.5725E+01  0.9183E+02
     15.211  0.5738E+01  0.9245E+02
     15.318  0.5988E+01  0.9309E+02
     15.425  0.5783E+01  0.9371E+02
     15.532  0.6032E+01  0.9435E+02
     15.639  0.4637E+01  0.9485E+02
     15.746  0.2531E+01  0.9512E+02
     15.853  0.2708E+01  0.9541E+02
     15.959  0.1838E+01  0.9560E+02
     16.066  0.1128E+01  0.9572E+02
     16.173  0.8871E+00  0.9582E+02
     16.280  0.7082E+00  0.9589E+02
     16.387  0.8168E+00  0.9598E+02
     16.494  0.1786E+00  0.9600E+02
     16.601  0.1720E-02  0.9600E+02
     16.707  0.2254E-07  0.9600E+02
     16.814  0.4617E-16  0.9600E+02
     16.921  0.0000E+00  0.9600E+02
     17.028  0.0000E+00  0.9600E+02
     17.135  0.0000E+00  0.9600E+02
     17.242  0.0000E+00  0.9600E+02
     17.349  0.0000E+00  0.9600E+02
     17.455  0.0000E+00  0.9600E+02
     17.562  0.0000E+00  0.9600E+02
     17.669  0.0000E+00  0.9600E+02
     17.776  0.0000E+00  0.9600E+02
     17.883  0.0000E+00  0.9600E+02
