   14   14    1    1
  0.1027488E+02  0.5707255E-09  0.4055186E-09  0.6215368E-09  0.5000000E-15
  1.000000000000000E-004
  CAR 
 Convergence                             
     42    175     48
 
  0.5000000E-01  0.3571429E-01  0.0000000E+00  0.3174603E-02
      1        -12.718660   1.000000
      2        -11.577349   1.000000
      3         -8.665644   1.000000
      4         -8.429670   1.000000
      5         -6.078723   1.000000
      6         -5.145604   1.000000
      7         -4.682931   1.000000
      8         -4.284394   1.000000
      9         -4.047114   1.000000
     10         -3.560069   1.000000
     11         -2.617307   1.000000
     12         -2.348843   1.000000
     13         -1.859193   1.000000
     14         -1.119093   1.000000
     15         -0.090970   1.000000
     16         -0.060478   1.000000
     17          0.128095   1.000000
     18          0.147827   1.000000
     19          0.537544   1.000000
     20          1.989543   0.000055
     21          2.051811   0.000000
     22          2.182836   0.000000
     23          5.415848   0.000000
     24          5.706273   0.000000
     25          5.792522   0.000000
     26          5.916755   0.000000
     27          6.766378   0.000000
     28          7.500513   0.000000
     29          7.826799   0.000000
     30          8.473231   0.000000
     31          8.729438   0.000000
     32          8.884833   0.000000
     33          8.969213   0.000000
     34         10.070787   0.000000
     35         11.135220   0.000000
     36         11.264748   0.000000
     37         11.591865   0.000000
     38         11.714826   0.000000
     39         11.881495   0.000000
     40         12.348021   0.000000
     41         12.793948   0.000000
     42         13.375822   0.000000
     43         13.403250   0.000000
     44         15.286722   0.000000
     45         15.483162   0.000000
     46         15.968178   0.000000
     47         16.250358   0.000000
     48         16.270066   0.000000
 
  0.1500000E+00  0.3571429E-01  0.0000000E+00  0.3174603E-02
      1        -12.674972   1.000000
      2        -11.651188   1.000000
      3         -8.644409   1.000000
      4         -8.418169   1.000000
      5         -6.010849   1.000000
      6         -5.484183   1.000000
      7         -4.803838   1.000000
      8         -4.022489   1.000000
      9         -3.805695   1.000000
     10         -3.224407   1.000000
     11         -2.687073   1.000000
     12         -2.329093   1.000000
     13         -1.936543   1.000000
     14         -1.425441   1.000000
     15         -0.051003   1.000000
     16         -0.045161   1.000000
     17          0.068947   1.000000
     18          0.169661   1.000000
     19          0.442319   1.000000
     20          1.903607   0.075291
     21          1.974163   0.000298
     22          2.062270   0.000000
     23          5.505336   0.000000
     24          5.711238   0.000000
     25          5.824315   0.000000
     26          6.260133   0.000000
     27          6.681557   0.000000
     28          7.140371   0.000000
     29          8.032603   0.000000
     30          8.609714   0.000000
     31          8.979962   0.000000
     32          9.060518   0.000000
     33          9.139832   0.000000
     34         10.176507   0.000000
     35         10.874522   0.000000
     36         11.060945   0.000000
     37         11.207361   0.000000
     38         11.633097   0.000000
     39         12.098270   0.000000
     40         12.435287   0.000000
     41         13.043993   0.000000
     42         13.052599   0.000000
     43         13.930983   0.000000
     44         14.778137   0.000000
     45         15.666595   0.000000
     46         15.750739   0.000000
     47         16.137506   0.000000
     48         16.425715   0.000000
 
  0.2500000E+00  0.3571429E-01  0.0000000E+00  0.3174603E-02
      1        -12.589462   1.000000
      2        -11.784195   1.000000
      3         -8.600695   1.000000
      4         -8.403410   1.000000
      5         -5.989005   1.000000
      6         -5.809598   1.000000
      7         -4.757359   1.000000
      8         -3.896373   1.000000
      9         -3.295499   1.000000
     10         -2.854299   1.000000
     11         -2.734453   1.000000
     12         -2.289372   1.000000
     13         -2.045584   1.000000
     14         -1.928825   1.000000
     15         -0.249592   1.000000
     16         -0.010402   1.000000
     17          0.116856   1.000000
     18          0.134672   1.000000
     19          0.412229   1.000000
     20          1.755869   0.996939
     21          1.834279   0.699654
     22          1.841907   0.620825
     23          5.626696   0.000000
     24          5.667579   0.000000
     25          6.133061   0.000000
     26          6.556560   0.000000
     27          6.716615   0.000000
     28          6.886435   0.000000
     29          8.180991   0.000000
     30          8.758751   0.000000
     31          8.928766   0.000000
     32          9.505140   0.000000
     33          9.585074   0.000000
     34         10.216535   0.000000
     35         10.417295   0.000000
     36         10.555767   0.000000
     37         11.324492   0.000000
     38         11.777046   0.000000
     39         12.332702   0.000000
     40         12.489239   0.000000
     41         12.731343   0.000000
     42         12.839978   0.000000
     43         14.554473   0.000000
     44         14.831992   0.000000
     45         15.152735   0.000000
     46         15.896619   0.000000
     47         15.918408   0.000000
     48         16.198482   0.000000
 
  0.3500000E+00  0.3571429E-01  0.0000000E+00  0.3174603E-02
      1        -12.466103   1.000000
      2        -11.953540   1.000000
      3         -8.538907   1.000000
      4         -8.400054   1.000000
      5         -6.068538   1.000000
      6         -6.042258   1.000000
      7         -4.430811   1.000000
      8         -3.728537   1.000000
      9         -3.047122   1.000000
     10         -2.912729   1.000000
     11         -2.462886   1.000000
     12         -2.274549   1.000000
     13         -2.172398   1.000000
     14         -2.144856   1.000000
     15         -0.548707   1.000000
     16         -0.274334   1.000000
     17          0.150028   1.000000
     18          0.224918   1.000000
     19          0.584792   1.000000
     20          1.498866   1.000000
     21          1.634494   1.000000
     22          1.694255   0.999996
     23          5.653158   0.000000
     24          5.711490   0.000000
     25          6.456463   0.000000
     26          6.629286   0.000000
     27          6.654752   0.000000
     28          7.362614   0.000000
     29          8.303661   0.000000
     30          8.631797   0.000000
     31          8.743803   0.000000
     32          9.474495   0.000000
     33          9.986558   0.000000
     34         10.056270   0.000000
     35         10.329528   0.000000
     36         11.070014   0.000000
     37         11.344665   0.000000
     38         11.870508   0.000000
     39         12.134818   0.000000
     40         12.203083   0.000000
     41         12.458709   0.000000
     42         13.192501   0.000000
     43         14.644280   0.000000
     44         14.899268   0.000000
     45         15.172681   0.000000
     46         15.295156   0.000000
     47         15.488908   0.000000
     48         16.292158   0.000000
 
  0.4500000E+00  0.3571429E-01  0.0000000E+00  0.3174603E-02
      1        -12.311529   1.000000
      2        -12.135829   1.000000
      3         -8.473017   1.000000
      4         -8.422374   1.000000
      5         -6.156146   1.000000
      6         -6.152580   1.000000
      7         -3.916790   1.000000
      8         -3.520655   1.000000
      9         -3.318720   1.000000
     10         -3.284358   1.000000
     11         -2.378678   1.000000
     12         -2.252978   1.000000
     13         -1.987201   1.000000
     14         -1.930999   1.000000
     15         -0.769323   1.000000
     16         -0.633087   1.000000
     17          0.232770   1.000000
     18          0.266017   1.000000
     19          0.844734   1.000000
     20          1.161110   1.000000
     21          1.554126   1.000000
     22          1.581115   1.000000
     23          5.682357   0.000000
     24          5.721295   0.000000
     25          6.436223   0.000000
     26          6.500609   0.000000
     27          7.320670   0.000000
     28          8.020230   0.000000
     29          8.044056   0.000000
     30          8.419787   0.000000
     31          8.556452   0.000000
     32          8.732513   0.000000
     33         10.439255   0.000000
     34         10.452396   0.000000
     35         10.690663   0.000000
     36         11.147467   0.000000
     37         11.331358   0.000000
     38         11.521595   0.000000
     39         11.853437   0.000000
     40         12.411796   0.000000
     41         12.653379   0.000000
     42         13.185949   0.000000
     43         14.523007   0.000000
     44         14.654384   0.000000
     45         14.796178   0.000000
     46         14.856060   0.000000
     47         16.011147   0.000000
     48         16.356934   0.000000
 
  0.5000000E-01  0.1071429E+00  0.0000000E+00  0.3174603E-02
      1        -12.694757   1.000000
      2        -11.555800   1.000000
      3         -8.647026   1.000000
      4         -8.406700   1.000000
      5         -6.052178   1.000000
      6         -5.111958   1.000000
      7         -4.661054   1.000000
      8         -4.583389   1.000000
      9         -4.190504   1.000000
     10         -3.537445   1.000000
     11         -3.308977   1.000000
     12         -1.817918   1.000000
     13         -1.114549   1.000000
     14         -1.061901   1.000000
     15         -0.323687   1.000000
     16         -0.295710   1.000000
     17          0.141619   1.000000
     18          0.218072   1.000000
     19          0.615494   1.000000
     20          1.723148   0.999877
     21          1.802259   0.923507
     22          2.234800   0.000000
     23          5.536384   0.000000
     24          5.663988   0.000000
     25          5.700672   0.000000
     26          5.958612   0.000000
     27          7.050366   0.000000
     28          7.785439   0.000000
     29          8.019802   0.000000
     30          8.135054   0.000000
     31          8.734456   0.000000
     32          9.021463   0.000000
     33          9.079265   0.000000
     34         10.519007   0.000000
     35         11.197591   0.000000
     36         11.347231   0.000000
     37         11.526415   0.000000
     38         11.817112   0.000000
     39         11.992502   0.000000
     40         12.625761   0.000000
     41         12.795470   0.000000
     42         13.115810   0.000000
     43         13.119315   0.000000
     44         15.242664   0.000000
     45         15.288634   0.000000
     46         15.773213   0.000000
     47         15.773934   0.000000
     48         16.130941   0.000000
 
  0.1500000E+00  0.1071429E+00  0.0000000E+00  0.3174603E-02
      1        -12.651163   1.000000
      2        -11.629501   1.000000
      3         -8.625640   1.000000
      4         -8.395571   1.000000
      5         -5.982534   1.000000
      6         -5.454169   1.000000
      7         -4.783969   1.000000
      8         -4.502519   1.000000
      9         -3.767455   1.000000
     10         -3.388919   1.000000
     11         -3.186748   1.000000
     12         -1.796388   1.000000
     13         -1.420049   1.000000
     14         -1.179086   1.000000
     15         -0.285166   1.000000
     16         -0.218162   1.000000
     17          0.108674   1.000000
     18          0.191208   1.000000
     19          0.512639   1.000000
     20          1.642967   1.000000
     21          1.726064   0.999831
     22          2.104583   0.000000
     23          5.612563   0.000000
     24          5.763398   0.000000
     25          5.887275   0.000000
     26          6.068095   0.000000
     27          6.967535   0.000000
     28          7.461096   0.000000
     29          8.165659   0.000000
     30          8.301842   0.000000
     31          9.050663   0.000000
     32          9.091067   0.000000
     33          9.349051   0.000000
     34         10.438968   0.000000
     35         10.807044   0.000000
     36         11.014219   0.000000
     37         11.401180   0.000000
     38         11.805871   0.000000
     39         12.211435   0.000000
     40         12.675133   0.000000
     41         12.796168   0.000000
     42         13.076490   0.000000
     43         13.650767   0.000000
     44         14.862598   0.000000
     45         15.311615   0.000000
     46         15.670592   0.000000
     47         15.706461   0.000000
     48         16.310935   0.000000
 
  0.2500000E+00  0.1071429E+00  0.0000000E+00  0.3174603E-02
      1        -12.565845   1.000000
      2        -11.762252   1.000000
      3         -8.581710   1.000000
      4         -8.381509   1.000000
      5         -5.957944   1.000000
      6         -5.779347   1.000000
      7         -4.740847   1.000000
      8         -4.394911   1.000000
      9         -3.510006   1.000000
     10         -3.242983   1.000000
     11         -2.721912   1.000000
     12         -1.924216   1.000000
     13         -1.752456   1.000000
     14         -1.340334   1.000000
     15         -0.251549   1.000000
     16         -0.239414   1.000000
     17          0.029247   1.000000
     18          0.178306   1.000000
     19          0.436553   1.000000
     20          1.508493   1.000000
     21          1.596441   1.000000
     22          1.857400   0.448062
     23          5.808950   0.000000
     24          5.891602   0.000000
     25          5.970242   0.000000
     26          6.514563   0.000000
     27          6.847768   0.000000
     28          7.234254   0.000000
     29          8.372423   0.000000
     30          8.432976   0.000000
     31          9.026478   0.000000
     32          9.543668   0.000000
     33          9.809433   0.000000
     34         10.061724   0.000000
     35         10.286538   0.000000
     36         10.751304   0.000000
     37         11.463722   0.000000
     38         12.041132   0.000000
     39         12.234918   0.000000
     40         12.493917   0.000000
     41         12.879594   0.000000
     42         12.959360   0.000000
     43         14.226293   0.000000
     44         14.996933   0.000000
     45         15.080727   0.000000
     46         15.559800   0.000000
     47         15.627506   0.000000
     48         16.331498   0.000000
 
  0.3500000E+00  0.1071429E+00  0.0000000E+00  0.3174603E-02
      1        -12.442746   1.000000
      2        -11.931254   1.000000
      3         -8.519670   1.000000
      4         -8.379034   1.000000
      5         -6.036279   1.000000
      6         -6.011175   1.000000
      7         -4.416435   1.000000
      8         -4.248823   1.000000
      9         -3.680199   1.000000
     10         -2.865092   1.000000
     11         -2.381932   1.000000
     12         -2.240025   1.000000
     13         -1.688727   1.000000
     14         -1.502085   1.000000
     15         -0.510900   1.000000
     16         -0.334887   1.000000
     17          0.060213   1.000000
     18          0.091416   1.000000
     19          0.595360   1.000000
     20          1.369146   1.000000
     21          1.451673   1.000000
     22          1.534856   1.000000
     23          5.826381   0.000000
     24          5.964540   0.000000
     25          6.474543   0.000000
     26          6.759501   0.000000
     27          6.833149   0.000000
     28          7.323481   0.000000
     29          8.363681   0.000000
     30          8.539596   0.000000
     31          8.872575   0.000000
     32          9.311456   0.000000
     33         10.005777   0.000000
     34         10.029154   0.000000
     35         10.377579   0.000000
     36         11.146201   0.000000
     37         11.299211   0.000000
     38         11.771432   0.000000
     39         12.211522   0.000000
     40         12.482277   0.000000
     41         12.657366   0.000000
     42         13.392988   0.000000
     43         14.686491   0.000000
     44         14.696103   0.000000
     45         15.069131   0.000000
     46         15.227966   0.000000
     47         15.564246   0.000000
     48         16.306295   0.000000
 
  0.4500000E+00  0.1071429E+00  0.0000000E+00  0.3174603E-02
      1        -12.288501   1.000000
      2        -12.113165   1.000000
      3         -8.453432   1.000000
      4         -8.402196   1.000000
      5         -6.124268   1.000000
      6         -6.120268   1.000000
      7         -4.071041   1.000000
      8         -3.909250   1.000000
      9         -3.868802   1.000000
     10         -3.306036   1.000000
     11         -2.126541   1.000000
     12         -1.934829   1.000000
     13         -1.620626   1.000000
     14         -1.614996   1.000000
     15         -0.731508   1.000000
     16         -0.628957   1.000000
     17          0.094473   1.000000
     18          0.125486   1.000000
     19          0.854058   1.000000
     20          1.167590   1.000000
     21          1.316041   1.000000
     22          1.339893   1.000000
     23          5.878546   0.000000
     24          5.945782   0.000000
     25          6.749776   0.000000
     26          6.800573   0.000000
     27          7.139121   0.000000
     28          7.847658   0.000000
     29          7.890152   0.000000
     30          8.568802   0.000000
     31          8.630883   0.000000
     32          8.742334   0.000000
     33         10.253235   0.000000
     34         10.502660   0.000000
     35         10.741391   0.000000
     36         10.839210   0.000000
     37         11.478720   0.000000
     38         11.580191   0.000000
     39         11.930952   0.000000
     40         12.578463   0.000000
     41         12.959516   0.000000
     42         13.415278   0.000000
     43         14.471627   0.000000
     44         14.657085   0.000000
     45         14.756435   0.000000
     46         14.974315   0.000000
     47         16.037059   0.000000
     48         16.331929   0.000000
 
  0.5000000E-01  0.1785714E+00  0.0000000E+00  0.3174603E-02
      1        -12.650604   1.000000
      2        -11.516063   1.000000
      3         -8.612944   1.000000
      4         -8.364329   1.000000
      5         -6.003116   1.000000
      6         -5.139742   1.000000
      7         -5.021945   1.000000
      8         -4.619598   1.000000
      9         -4.173828   1.000000
     10         -3.929756   1.000000
     11         -3.484514   1.000000
     12         -1.227473   1.000000
     13         -1.105348   1.000000
     14         -0.665407   1.000000
     15         -0.562159   1.000000
     16         -0.205302   1.000000
     17          0.162665   1.000000
     18          0.270262   1.000000
     19          0.693389   1.000000
     20          1.342492   1.000000
     21          1.405207   1.000000
     22          2.272489   0.000000
     23          5.250074   0.000000
     24          5.413601   0.000000
     25          6.075704   0.000000
     26          6.144946   0.000000
     27          7.481922   0.000000
     28          7.570865   0.000000
     29          8.265268   0.000000
     30          8.662393   0.000000
     31          8.820229   0.000000
     32          9.161465   0.000000
     33          9.302260   0.000000
     34         10.817480   0.000000
     35         11.252053   0.000000
     36         11.503070   0.000000
     37         11.644171   0.000000
     38         12.016412   0.000000
     39         12.208289   0.000000
     40         12.677350   0.000000
     41         12.689531   0.000000
     42         12.926179   0.000000
     43         13.161182   0.000000
     44         14.581686   0.000000
     45         15.074157   0.000000
     46         15.249789   0.000000
     47         15.354628   0.000000
     48         15.869346   0.000000
 
  0.1500000E+00  0.1785714E+00  0.0000000E+00  0.3174603E-02
      1        -12.607192   1.000000
      2        -11.589500   1.000000
      3         -8.591249   1.000000
      4         -8.353892   1.000000
      5         -5.930091   1.000000
      6         -5.405638   1.000000
      7         -5.043286   1.000000
      8         -4.746562   1.000000
      9         -3.995277   1.000000
     10         -3.725858   1.000000
     11         -3.147413   1.000000
     12         -1.411748   1.000000
     13         -1.201566   1.000000
     14         -0.773629   1.000000
     15         -0.524322   1.000000
     16         -0.123563   1.000000
     17          0.141334   1.000000
     18          0.216228   1.000000
     19          0.580796   1.000000
     20          1.263691   1.000000
     21          1.335697   1.000000
     22          2.137306   0.000000
     23          5.330570   0.000000
     24          5.757283   0.000000
     25          6.091066   0.000000
     26          6.191169   0.000000
     27          7.401603   0.000000
     28          7.727376   0.000000
     29          7.997671   0.000000
     30          8.754946   0.000000
     31          9.175651   0.000000
     32          9.221490   0.000000
     33          9.585497   0.000000
     34         10.453229   0.000000
     35         10.713163   0.000000
     36         11.208187   0.000000
     37         11.661927   0.000000
     38         12.130325   0.000000
     39         12.362363   0.000000
     40         12.436802   0.000000
     41         13.086989   0.000000
     42         13.207330   0.000000
     43         13.360214   0.000000
     44         14.594636   0.000000
     45         14.738113   0.000000
     46         15.183361   0.000000
     47         15.418818   0.000000
     48         15.902677   0.000000
 
  0.2500000E+00  0.1785714E+00  0.0000000E+00  0.3174603E-02
      1        -12.522208   1.000000
      2        -11.721762   1.000000
      3         -8.546888   1.000000
      4         -8.341147   1.000000
      5         -5.900143   1.000000
      6         -5.724710   1.000000
      7         -4.951833   1.000000
      8         -4.710020   1.000000
      9         -4.117788   1.000000
     10         -3.193544   1.000000
     11         -2.678191   1.000000
     12         -1.907943   1.000000
     13         -1.161276   1.000000
     14         -0.912999   1.000000
     15         -0.471907   1.000000
     16         -0.118251   1.000000
     17         -0.011810   1.000000
     18          0.227381   1.000000
     19          0.466156   1.000000
     20          1.132737   1.000000
     21          1.217764   1.000000
     22          1.881836   0.205621
     23          5.650681   0.000000
     24          6.046169   0.000000
     25          6.230876   0.000000
     26          6.321740   0.000000
     27          7.300185   0.000000
     28          7.809742   0.000000
     29          7.961546   0.000000
     30          8.883969   0.000000
     31          9.174079   0.000000
     32          9.651847   0.000000
     33          9.790675   0.000000
     34         10.067879   0.000000
     35         10.189467   0.000000
     36         10.990791   0.000000
     37         11.524183   0.000000
     38         12.037605   0.000000
     39         12.439584   0.000000
     40         12.738179   0.000000
     41         12.966977   0.000000
     42         13.377479   0.000000
     43         13.881920   0.000000
     44         14.506416   0.000000
     45         14.787065   0.000000
     46         15.208375   0.000000
     47         15.435305   0.000000
     48         16.113558   0.000000
 
  0.3500000E+00  0.1785714E+00  0.0000000E+00  0.3174603E-02
      1        -12.399606   1.000000
      2        -11.890132   1.000000
      3         -8.484384   1.000000
      4         -8.340363   1.000000
      5         -5.976157   1.000000
      6         -5.953837   1.000000
      7         -4.816807   1.000000
      8         -4.389925   1.000000
      9         -4.280966   1.000000
     10         -2.827152   1.000000
     11         -2.341541   1.000000
     12         -2.198983   1.000000
     13         -1.105130   1.000000
     14         -1.050299   1.000000
     15         -0.479434   1.000000
     16         -0.402713   1.000000
     17          0.031685   1.000000
     18          0.033581   1.000000
     19          0.612809   1.000000
     20          1.003573   1.000000
     21          1.085514   1.000000
     22          1.548134   1.000000
     23          6.058300   0.000000
     24          6.183199   0.000000
     25          6.352534   0.000000
     26          6.754958   0.000000
     27          7.245898   0.000000
     28          7.731929   0.000000
     29          8.019093   0.000000
     30          8.983400   0.000000
     31          9.044680   0.000000
     32          9.112940   0.000000
     33          9.819665   0.000000
     34         10.117919   0.000000
     35         10.638293   0.000000
     36         11.011179   0.000000
     37         11.244820   0.000000
     38         11.883236   0.000000
     39         12.273495   0.000000
     40         12.918897   0.000000
     41         12.969896   0.000000
     42         13.718443   0.000000
     43         14.295648   0.000000
     44         14.315054   0.000000
     45         14.946953   0.000000
     46         15.041952   0.000000
     47         15.526110   0.000000
     48         16.292500   0.000000
 
  0.4500000E+00  0.1785714E+00  0.0000000E+00  0.3174603E-02
      1        -12.245978   1.000000
      2        -12.071337   1.000000
      3         -8.417478   1.000000
      4         -8.365119   1.000000
      5         -6.065101   1.000000
      6         -6.060112   1.000000
      7         -4.650152   1.000000
      8         -4.465835   1.000000
      9         -3.878672   1.000000
     10         -3.283667   1.000000
     11         -2.059226   1.000000
     12         -1.894834   1.000000
     13         -1.123706   1.000000
     14         -1.064296   1.000000
     15         -0.656807   1.000000
     16         -0.652465   1.000000
     17         -0.017315   1.000000
     18          0.026175   1.000000
     19          0.869661   1.000000
     20          0.941163   1.000000
     21          0.981437   1.000000
     22          1.195872   1.000000
     23          6.150311   0.000000
     24          6.269701   0.000000
     25          6.832853   0.000000
     26          7.167678   0.000000
     27          7.225016   0.000000
     28          7.574494   0.000000
     29          7.878123   0.000000
     30          8.386067   0.000000
     31          9.038681   0.000000
     32          9.070155   0.000000
     33          9.944520   0.000000
     34         10.417297   0.000000
     35         10.639704   0.000000
     36         10.915574   0.000000
     37         11.658345   0.000000
     38         11.670157   0.000000
     39         12.049580   0.000000
     40         12.831624   0.000000
     41         13.346283   0.000000
     42         13.690746   0.000000
     43         14.147711   0.000000
     44         14.301766   0.000000
     45         14.916233   0.000000
     46         15.054758   0.000000
     47         15.904218   0.000000
     48         16.206435   0.000000
 
  0.5000000E-01  0.2500000E+00  0.0000000E+00  0.3174603E-02
      1        -12.593404   1.000000
      2        -11.464719   1.000000
      3         -8.569405   1.000000
      4         -8.309509   1.000000
      5         -5.939446   1.000000
      6         -5.619666   1.000000
      7         -4.952363   1.000000
      8         -4.563854   1.000000
      9         -4.448859   1.000000
     10         -4.134709   1.000000
     11         -3.422954   1.000000
     12         -1.236250   1.000000
     13         -1.091084   1.000000
     14         -1.017471   1.000000
     15         -0.220957   1.000000
     16          0.190678   1.000000
     17          0.313117   1.000000
     18          0.564195   1.000000
     19          0.756673   1.000000
     20          0.958846   1.000000
     21          0.972772   1.000000
     22          2.306332   0.000000
     23          4.909322   0.000000
     24          5.122014   0.000000
     25          6.304093   0.000000
     26          6.533920   0.000000
     27          7.214665   0.000000
     28          7.907583   0.000000
     29          8.632373   0.000000
     30          9.002614   0.000000
     31          9.386810   0.000000
     32          9.519649   0.000000
     33          9.583309   0.000000
     34         10.678848   0.000000
     35         11.199467   0.000000
     36         11.900662   0.000000
     37         11.957655   0.000000
     38         12.222180   0.000000
     39         12.356673   0.000000
     40         12.384074   0.000000
     41         12.495877   0.000000
     42         12.910899   0.000000
     43         13.701423   0.000000
     44         13.809632   0.000000
     45         14.331415   0.000000
     46         15.025987   0.000000
     47         15.328460   0.000000
     48         15.760107   0.000000
 
  0.1500000E+00  0.2500000E+00  0.0000000E+00  0.3174603E-02
      1        -12.550219   1.000000
      2        -11.537814   1.000000
      3         -8.547297   1.000000
      4         -8.300023   1.000000
      5         -5.861830   1.000000
      6         -5.584885   1.000000
      7         -5.287815   1.000000
      8         -4.697083   1.000000