       N       E                     dE             d eps       ncg     rms          rms(c)
DAV:   1     0.784300392479E+02    0.78430E+02   -0.19976E+04 16800   0.861E+02
DAV:   2    -0.916579009635E+02   -0.17009E+03   -0.15937E+03 23160   0.167E+02
DAV:   3    -0.975071308567E+02   -0.58492E+01   -0.58151E+01 24840   0.275E+01
DAV:   4    -0.975418452789E+02   -0.34714E-01   -0.34713E-01 20208   0.246E+00
DAV:   5    -0.975422352017E+02   -0.38992E-03   -0.38991E-03 24744   0.248E-01    0.123E+01
DAV:   6    -0.922059227374E+02    0.53363E+01   -0.38931E+00 24216   0.653E+00    0.676E+00
DAV:   7    -0.905753494345E+02    0.16306E+01   -0.31780E+00 25152   0.581E+00    0.170E+00
DAV:   8    -0.905878948140E+02   -0.12545E-01   -0.23204E-01 18624   0.166E+00    0.702E-01
DAV:   9    -0.906020866117E+02   -0.14192E-01   -0.16778E-02 23544   0.438E-01    0.197E-01
DAV:  10    -0.906061157491E+02   -0.40291E-02   -0.20918E-03 18984   0.161E-01    0.609E-02
DAV:  11    -0.906071851168E+02   -0.10694E-02   -0.62899E-04 21672   0.870E-02    0.319E-02
DAV:  12    -0.906072991372E+02   -0.11402E-03   -0.91326E-05 20832   0.369E-02    0.427E-03
DAV:  13    -0.906073040225E+02   -0.48853E-05   -0.40937E-06 23568   0.878E-03    0.178E-03
DAV:  14    -0.906073046965E+02   -0.67398E-06   -0.27835E-07 20496   0.228E-03
   1 F= -.90607305E+02 E0= -.90605696E+02  d E =-.321685E-02
