  14  14   0   0
  0.1021318E+02  0.5700971E-09  0.4044058E-09  0.6201871E-09  0.5000000E-15
  1.000000000000000E-004
  CAR 
 Dielectric                              
     50.80246280    -15.71551821 4000      1.91650959      1.00000000
    -15.716  0.0000E+00  0.0000E+00
    -15.699  0.0000E+00  0.0000E+00
    -15.682  0.0000E+00  0.0000E+00
    -15.666  0.0000E+00  0.0000E+00
    -15.649  0.0000E+00  0.0000E+00
    -15.632  0.0000E+00  0.0000E+00
    -15.616  0.0000E+00  0.0000E+00
    -15.599  0.0000E+00  0.0000E+00
    -15.582  0.0000E+00  0.0000E+00
    -15.566  0.0000E+00  0.0000E+00
    -15.549  0.0000E+00  0.0000E+00
    -15.533  0.0000E+00  0.0000E+00
    -15.516  0.0000E+00  0.0000E+00
    -15.499  0.0000E+00  0.0000E+00
    -15.483  0.0000E+00  0.0000E+00
    -15.466  0.0000E+00  0.0000E+00
    -15.449  0.0000E+00  0.0000E+00
    -15.433  0.0000E+00  0.0000E+00
    -15.416  0.0000E+00  0.0000E+00
    -15.399  0.0000E+00  0.0000E+00
    -15.383  0.0000E+00  0.0000E+00
    -15.366  0.0000E+00  0.0000E+00
    -15.350  0.0000E+00  0.0000E+00
    -15.333  0.0000E+00  0.0000E+00
    -15.316  0.0000E+00  0.0000E+00
    -15.300  0.0000E+00  0.0000E+00
    -15.283  0.0000E+00  0.0000E+00
    -15.266  0.0000E+00  0.0000E+00
    -15.250  0.0000E+00  0.0000E+00
    -15.233  0.0000E+00  0.0000E+00
    -15.217  0.0000E+00  0.0000E+00
    -15.200  0.0000E+00  0.0000E+00
    -15.183  0.0000E+00  0.0000E+00
    -15.167  0.0000E+00  0.0000E+00
    -15.150  0.0000E+00  0.0000E+00
    -15.133  0.0000E+00  0.0000E+00
    -15.117  0.0000E+00  0.0000E+00
    -15.100  0.0000E+00  0.0000E+00
    -15.083  0.0000E+00  0.0000E+00
    -15.067  0.0000E+00  0.0000E+00
    -15.050  0.0000E+00  0.0000E+00
    -15.034  0.0000E+00  0.0000E+00
    -15.017  0.0000E+00  0.0000E+00
    -15.000  0.0000E+00  0.0000E+00
    -14.984  0.0000E+00  0.0000E+00
    -14.967  0.0000E+00  0.0000E+00
    -14.950  0.0000E+00  0.0000E+00
    -14.934  0.0000E+00  0.0000E+00
    -14.917  0.0000E+00  0.0000E+00
    -14.900  0.0000E+00  0.0000E+00
    -14.884  0.0000E+00  0.0000E+00
    -14.867  0.0000E+00  0.0000E+00
    -14.851  0.0000E+00  0.0000E+00
    -14.834  0.0000E+00  0.0000E+00
    -14.817  0.0000E+00  0.0000E+00
    -14.801  0.0000E+00  0.0000E+00
    -14.784  0.0000E+00  0.0000E+00
    -14.767  0.0000E+00  0.0000E+00
    -14.751  0.0000E+00  0.0000E+00
    -14.734  0.0000E+00  0.0000E+00
    -14.717  0.0000E+00  0.0000E+00
    -14.701  0.0000E+00  0.0000E+00
    -14.684  0.0000E+00  0.0000E+00
    -14.668  0.0000E+00  0.0000E+00
    -14.651  0.0000E+00  0.0000E+00
    -14.634  0.0000E+00  0.0000E+00
    -14.618  0.0000E+00  0.0000E+00
    -14.601  0.0000E+00  0.0000E+00
    -14.584  0.0000E+00  0.0000E+00
    -14.568  0.0000E+00  0.0000E+00
    -14.551  0.0000E+00  0.0000E+00
    -14.535  0.0000E+00  0.0000E+00
    -14.518  0.0000E+00  0.0000E+00
    -14.501  0.0000E+00  0.0000E+00
    -14.485  0.0000E+00  0.0000E+00
    -14.468  0.0000E+00  0.0000E+00
    -14.451  0.0000E+00  0.0000E+00
    -14.435  0.0000E+00  0.0000E+00
    -14.418  0.0000E+00  0.0000E+00
    -14.401  0.0000E+00  0.0000E+00
    -14.385  0.0000E+00  0.0000E+00
    -14.368  0.0000E+00  0.0000E+00
    -14.352  0.0000E+00  0.0000E+00
    -14.335  0.0000E+00  0.0000E+00
    -14.318  0.0000E+00  0.0000E+00
    -14.302  0.0000E+00  0.0000E+00
    -14.285  0.0000E+00  0.0000E+00
    -14.268  0.0000E+00  0.0000E+00
    -14.252  0.0000E+00  0.0000E+00
    -14.235  0.0000E+00  0.0000E+00
    -14.218  0.0000E+00  0.0000E+00
    -14.202  0.0000E+00  0.0000E+00
    -14.185  0.0000E+00  0.0000E+00
    -14.169  0.0000E+00  0.0000E+00
    -14.152  0.0000E+00  0.0000E+00
    -14.135  0.0000E+00  0.0000E+00
    -14.119  0.0000E+00  0.0000E+00
    -14.102  0.0000E+00  0.0000E+00
    -14.085  0.0000E+00  0.0000E+00
    -14.069  0.0000E+00  0.0000E+00
    -14.052  0.0000E+00  0.0000E+00
    -14.036  0.0000E+00  0.0000E+00
    -14.019  0.0000E+00  0.0000E+00
    -14.002  0.0000E+00  0.0000E+00
    -13.986  0.0000E+00  0.0000E+00
    -13.969  0.0000E+00  0.0000E+00
    -13.952  0.0000E+00  0.0000E+00
    -13.936  0.0000E+00  0.0000E+00
    -13.919  0.0000E+00  0.0000E+00
    -13.902  0.0000E+00  0.0000E+00
    -13.886  0.0000E+00  0.0000E+00
    -13.869  0.0000E+00  0.0000E+00
    -13.853  0.0000E+00  0.0000E+00
    -13.836  0.0000E+00  0.0000E+00
    -13.819  0.0000E+00  0.0000E+00
    -13.803  0.0000E+00  0.0000E+00
    -13.786  0.0000E+00  0.0000E+00
    -13.769  0.0000E+00  0.0000E+00
    -13.753  0.0000E+00  0.0000E+00
    -13.736  0.0000E+00  0.0000E+00
    -13.719  0.0000E+00  0.0000E+00
    -13.703  0.0000E+00  0.0000E+00
    -13.686  0.0000E+00  0.0000E+00
    -13.670  0.0000E+00  0.0000E+00
    -13.653  0.0000E+00  0.0000E+00
    -13.636  0.0000E+00  0.0000E+00
    -13.620  0.0000E+00  0.0000E+00
    -13.603  0.0000E+00  0.0000E+00
    -13.586  0.0000E+00  0.0000E+00
    -13.570  0.0000E+00  0.0000E+00
    -13.553  0.0000E+00  0.0000E+00
    -13.537  0.0000E+00  0.0000E+00
    -13.520  0.0000E+00  0.0000E+00
    -13.503  0.0000E+00  0.0000E+00
    -13.487  0.0000E+00  0.0000E+00
    -13.470  0.0000E+00  0.0000E+00
    -13.453  0.0000E+00  0.0000E+00
    -13.437  0.0000E+00  0.0000E+00
    -13.420  0.0000E+00  0.0000E+00
    -13.403  0.0000E+00  0.0000E+00
    -13.387  0.0000E+00  0.0000E+00
    -13.370  0.0000E+00  0.0000E+00
    -13.354  0.0000E+00  0.0000E+00
    -13.337  0.0000E+00  0.0000E+00
    -13.320  0.0000E+00  0.0000E+00
    -13.304  0.0000E+00  0.0000E+00
    -13.287  0.0000E+00  0.0000E+00
    -13.270  0.0000E+00  0.0000E+00
    -13.254  0.0000E+00  0.0000E+00
    -13.237  0.0000E+00  0.0000E+00
    -13.220  0.0000E+00  0.0000E+00
    -13.204  0.0000E+00  0.0000E+00
    -13.187  0.0000E+00  0.0000E+00
    -13.171  0.0000E+00  0.0000E+00
    -13.154  0.0000E+00  0.0000E+00
    -13.137  0.0000E+00  0.0000E+00
    -13.121  0.0000E+00  0.0000E+00
    -13.104  0.0000E+00  0.0000E+00
    -13.087  0.0000E+00  0.0000E+00
    -13.071  0.0000E+00  0.0000E+00
    -13.054  0.0000E+00  0.0000E+00
    -13.037  0.0000E+00  0.0000E+00
    -13.021  0.0000E+00  0.0000E+00
    -13.004  0.0000E+00  0.0000E+00
    -12.988  0.0000E+00  0.0000E+00
    -12.971  0.0000E+00  0.0000E+00
    -12.954  0.0000E+00  0.0000E+00
    -12.938  0.0000E+00  0.0000E+00
    -12.921  0.0000E+00  0.0000E+00
    -12.904  0.0000E+00  0.0000E+00
    -12.888  0.0000E+00  0.0000E+00
    -12.871  0.0000E+00  0.0000E+00
    -12.855  0.0000E+00  0.0000E+00
    -12.838  0.0000E+00  0.0000E+00
    -12.821  0.0000E+00  0.0000E+00
    -12.805  0.0000E+00  0.0000E+00
    -12.788  0.0000E+00  0.0000E+00
    -12.771  0.0000E+00  0.0000E+00
    -12.755  0.0000E+00  0.0000E+00
    -12.738  0.1320E-10  0.2196E-12
    -12.721  0.5816E-05  0.9674E-07
    -12.705  0.1350E-01  0.2247E-03
    -12.688  0.3788E+00  0.6526E-02
    -12.672  0.8148E+00  0.2008E-01
    -12.655  0.1111E+01  0.3856E-01
    -12.638  0.1477E+01  0.6313E-01
    -12.622  0.1833E+01  0.9361E-01
    -12.605  0.2746E+01  0.1393E+00
    -12.588  0.1950E+01  0.1717E+00
    -12.572  0.2827E+01  0.2188E+00
    -12.555  0.3111E+01  0.2705E+00
    -12.538  0.3513E+01  0.3290E+00
    -12.522  0.3460E+01  0.3865E+00
    -12.505  0.2855E+01  0.4340E+00
    -12.489  0.3587E+01  0.4937E+00
    -12.472  0.3499E+01  0.5519E+00
    -12.455  0.3406E+01  0.6085E+00
    -12.439  0.3376E+01  0.6647E+00
    -12.422  0.4614E+01  0.7414E+00
    -12.405  0.4997E+01  0.8245E+00
    -12.389  0.4031E+01  0.8916E+00
    -12.372  0.4828E+01  0.9719E+00
    -12.356  0.5543E+01  0.1064E+01
    -12.339  0.4383E+01  0.1137E+01
    -12.322  0.2819E+01  0.1184E+01
    -12.306  0.3778E+01  0.1247E+01
    -12.289  0.3751E+01  0.1309E+01
    -12.272  0.2773E+01  0.1355E+01
    -12.256  0.3240E+01  0.1409E+01
    -12.239  0.4398E+01  0.1482E+01
    -12.222  0.3355E+01  0.1538E+01
    -12.206  0.2985E+01  0.1588E+01
    -12.189  0.2874E+01  0.1636E+01
    -12.173  0.2481E+01  0.1677E+01
    -12.156  0.2483E+01  0.1718E+01
    -12.139  0.2510E+01  0.1760E+01
    -12.123  0.1928E+01  0.1792E+01
    -12.106  0.2017E+01  0.1825E+01
    -12.089  0.3443E+01  0.1883E+01
    -12.073  0.3329E+01  0.1938E+01
    -12.056  0.3065E+01  0.1989E+01
    -12.039  0.1877E+01  0.2020E+01
    -12.023  0.3456E+01  0.2078E+01
    -12.006  0.3017E+01  0.2128E+01
    -11.990  0.1478E+01  0.2153E+01
    -11.973  0.2631E+01  0.2196E+01
    -11.956  0.1992E+01  0.2229E+01
    -11.940  0.1046E+01  0.2247E+01
    -11.923  0.2336E+01  0.2286E+01
    -11.906  0.4598E+01  0.2362E+01
    -11.890  0.2020E+01  0.2396E+01
    -11.873  0.2243E+01  0.2433E+01
    -11.857  0.3553E+01  0.2492E+01
    -11.840  0.3113E+01  0.2544E+01
    -11.823  0.3098E+01  0.2596E+01
    -11.807  0.2178E+01  0.2632E+01
    -11.790  0.2072E+01  0.2666E+01
    -11.773  0.1640E+01  0.2694E+01
    -11.757  0.2481E+01  0.2735E+01
    -11.740  0.3758E+01  0.2797E+01
    -11.723  0.2818E+01  0.2844E+01
    -11.707  0.3991E+01  0.2911E+01
    -11.690  0.4248E+01  0.2981E+01
    -11.674  0.4612E+01  0.3058E+01
    -11.657  0.3265E+01  0.3112E+01
    -11.640  0.3062E+01  0.3163E+01
    -11.624  0.3494E+01  0.3221E+01
    -11.607  0.2059E+01  0.3256E+01
    -11.590  0.4315E+01  0.3327E+01
    -11.574  0.4039E+01  0.3394E+01
    -11.557  0.2833E+01  0.3442E+01
    -11.540  0.3449E+01  0.3499E+01
    -11.524  0.4440E+01  0.3573E+01
    -11.507  0.2832E+01  0.3620E+01
    -11.491  0.2802E+01  0.3667E+01
    -11.474  0.4053E+01  0.3734E+01
    -11.457  0.1535E+01  0.3759E+01
    -11.441  0.2095E+01  0.3794E+01
    -11.424  0.2654E+01  0.3838E+01
    -11.407  0.1883E+01  0.3870E+01
    -11.391  0.1406E+01  0.3893E+01
    -11.374  0.1666E+01  0.3921E+01
    -11.358  0.1466E+01  0.3945E+01
    -11.341  0.9736E+00  0.3961E+01
    -11.324  0.6306E+00  0.3972E+01
    -11.308  0.6287E+00  0.3982E+01
    -11.291  0.7194E+00  0.3994E+01
    -11.274  0.3117E+00  0.4000E+01
    -11.258  0.2498E-01  0.4000E+01
    -11.241  0.2139E-04  0.4000E+01
    -11.224  0.9783E-10  0.4000E+01
    -11.208  0.0000E+00  0.4000E+01
    -11.191  0.0000E+00  0.4000E+01
    -11.175  0.0000E+00  0.4000E+01
    -11.158  0.0000E+00  0.4000E+01
    -11.141  0.0000E+00  0.4000E+01
    -11.125  0.0000E+00  0.4000E+01
    -11.108  0.0000E+00  0.4000E+01
    -11.091  0.0000E+00  0.4000E+01
    -11.075  0.0000E+00  0.4000E+01
    -11.058  0.0000E+00  0.4000E+01
    -11.041  0.0000E+00  0.4000E+01
    -11.025  0.0000E+00  0.4000E+01
    -11.008  0.0000E+00  0.4000E+01
    -10.992  0.0000E+00  0.4000E+01
    -10.975  0.0000E+00  0.4000E+01
    -10.958  0.0000E+00  0.4000E+01
    -10.942  0.0000E+00  0.4000E+01
    -10.925  0.0000E+00  0.4000E+01
    -10.908  0.0000E+00  0.4000E+01
    -10.892  0.0000E+00  0.4000E+01
    -10.875  0.0000E+00  0.4000E+01
    -10.858  0.0000E+00  0.4000E+01
    -10.842  0.0000E+00  0.4000E+01
    -10.825  0.0000E+00  0.4000E+01
    -10.809  0.0000E+00  0.4000E+01
    -10.792  0.0000E+00  0.4000E+01
    -10.775  0.0000E+00  0.4000E+01
    -10.759  0.0000E+00  0.4000E+01
    -10.742  0.0000E+00  0.4000E+01
    -10.725  0.0000E+00  0.4000E+01
    -10.709  0.0000E+00  0.4000E+01
    -10.692  0.0000E+00  0.4000E+01
    -10.676  0.0000E+00  0.4000E+01
    -10.659  0.0000E+00  0.4000E+01
    -10.642  0.0000E+00  0.4000E+01
    -10.626  0.0000E+00  0.4000E+01
    -10.609  0.0000E+00  0.4000E+01
    -10.592  0.0000E+00  0.4000E+01
    -10.576  0.0000E+00  0.4000E+01
    -10.559  0.0000E+00  0.4000E+01
    -10.542  0.0000E+00  0.4000E+01
    -10.526  0.0000E+00  0.4000E+01
    -10.509  0.0000E+00  0.4000E+01
    -10.493  0.0000E+00  0.4000E+01
    -10.476  0.0000E+00  0.4000E+01
    -10.459  0.0000E+00  0.4000E+01
    -10.443  0.0000E+00  0.4000E+01
    -10.426  0.0000E+00  0.4000E+01
    -10.409  0.0000E+00  0.4000E+01
    -10.393  0.0000E+00  0.4000E+01
    -10.376  0.0000E+00  0.4000E+01
    -10.359  0.0000E+00  0.4000E+01
    -10.343  0.0000E+00  0.4000E+01
    -10.326  0.0000E+00  0.4000E+01
    -10.310  0.0000E+00  0.4000E+01
    -10.293  0.0000E+00  0.4000E+01
    -10.276  0.0000E+00  0.4000E+01
    -10.260  0.0000E+00  0.4000E+01
    -10.243  0.0000E+00  0.4000E+01
    -10.226  0.0000E+00  0.4000E+01
    -10.210  0.0000E+00  0.4000E+01
    -10.193  0.0000E+00  0.4000E+01
    -10.177  0.0000E+00  0.4000E+01
    -10.160  0.0000E+00  0.4000E+01
    -10.143  0.0000E+00  0.4000E+01
    -10.127  0.0000E+00  0.4000E+01
    -10.110  0.0000E+00  0.4000E+01
    -10.093  0.0000E+00  0.4000E+01
    -10.077  0.0000E+00  0.4000E+01
    -10.060  0.0000E+00  0.4000E+01
    -10.043  0.0000E+00  0.4000E+01
    -10.027  0.0000E+00  0.4000E+01
    -10.010  0.0000E+00  0.4000E+01
     -9.994  0.0000E+00  0.4000E+01
     -9.977  0.0000E+00  0.4000E+01
     -9.960  0.0000E+00  0.4000E+01
     -9.944  0.0000E+00  0.4000E+01
     -9.927  0.0000E+00  0.4000E+01
     -9.910  0.0000E+00  0.4000E+01
     -9.894  0.0000E+00  0.4000E+01
     -9.877  0.0000E+00  0.4000E+01
     -9.860  0.0000E+00  0.4000E+01
     -9.844  0.0000E+00  0.4000E+01
     -9.827  0.0000E+00  0.4000E+01
     -9.811  0.0000E+00  0.4000E+01
     -9.794  0.0000E+00  0.4000E+01
     -9.777  0.0000E+00  0.4000E+01
     -9.761  0.0000E+00  0.4000E+01
     -9.744  0.0000E+00  0.4000E+01
     -9.727  0.0000E+00  0.4000E+01
     -9.711  0.0000E+00  0.4000E+01
     -9.694  0.0000E+00  0.4000E+01
     -9.678  0.0000E+00  0.4000E+01
     -9.661  0.0000E+00  0.4000E+01
     -9.644  0.0000E+00  0.4000E+01
     -9.628  0.0000E+00  0.4000E+01
     -9.611  0.0000E+00  0.4000E+01
     -9.594  0.0000E+00  0.4000E+01
     -9.578  0.0000E+00  0.4000E+01
     -9.561  0.0000E+00  0.4000E+01
     -9.544  0.0000E+00  0.4000E+01
     -9.528  0.0000E+00  0.4000E+01
     -9.511  0.0000E+00  0.4000E+01
     -9.495  0.0000E+00  0.4000E+01
     -9.478  0.0000E+00  0.4000E+01
     -9.461  0.0000E+00  0.4000E+01
     -9.445  0.0000E+00  0.4000E+01
     -9.428  0.0000E+00  0.4000E+01
     -9.411  0.0000E+00  0.4000E+01
     -9.395  0.0000E+00  0.4000E+01
     -9.378  0.0000E+00  0.4000E+01
     -9.361  0.0000E+00  0.4000E+01
     -9.345  0.0000E+00  0.4000E+01
     -9.328  0.0000E+00  0.4000E+01
     -9.312  0.0000E+00  0.4000E+01
     -9.295  0.0000E+00  0.4000E+01
     -9.278  0.0000E+00  0.4000E+01
     -9.262  0.0000E+00  0.4000E+01
     -9.245  0.0000E+00  0.4000E+01
     -9.228  0.0000E+00  0.4000E+01
     -9.212  0.0000E+00  0.4000E+01
     -9.195  0.0000E+00  0.4000E+01
     -9.178  0.0000E+00  0.4000E+01
     -9.162  0.0000E+00  0.4000E+01
     -9.145  0.0000E+00  0.4000E+01
     -9.129  0.0000E+00  0.4000E+01
     -9.112  0.0000E+00  0.4000E+01
     -9.095  0.0000E+00  0.4000E+01
     -9.079  0.0000E+00  0.4000E+01
     -9.062  0.0000E+00  0.4000E+01
     -9.045  0.0000E+00  0.4000E+01
     -9.029  0.0000E+00  0.4000E+01
     -9.012  0.0000E+00  0.4000E+01
     -8.996  0.0000E+00  0.4000E+01
     -8.979  0.0000E+00  0.4000E+01
     -8.962  0.0000E+00  0.4000E+01
     -8.946  0.0000E+00  0.4000E+01
     -8.929  0.0000E+00  0.4000E+01
     -8.912  0.0000E+00  0.4000E+01
     -8.896  0.0000E+00  0.4000E+01
     -8.879  0.2119E-15  0.4000E+01
     -8.862  0.3619E-08  0.4000E+01
     -8.846  0.2693E-03  0.4000E+01
     -8.829  0.1145E+00  0.4002E+01
     -8.813  0.6080E+00  0.4012E+01
     -8.796  0.9616E+00  0.4028E+01
     -8.779  0.1219E+01  0.4048E+01
     -8.763  0.2482E+01  0.4090E+01
     -8.746  0.2342E+01  0.4129E+01
     -8.729  0.1297E+01  0.4150E+01
     -8.713  0.2036E+01  0.4184E+01
     -8.696  0.4638E+01  0.4261E+01
     -8.679  0.4294E+01  0.4333E+01
     -8.663  0.2620E+01  0.4376E+01
     -8.646  0.6788E+01  0.4489E+01
     -8.630  0.6571E+01  0.4598E+01
     -8.613  0.5454E+01  0.4689E+01
     -8.596  0.7833E+01  0.4819E+01
     -8.580  0.6902E+01  0.4934E+01
     -8.563  0.6848E+01  0.5048E+01
     -8.546  0.7204E+01  0.5168E+01
     -8.530  0.6005E+01  0.5268E+01
     -8.513  0.6676E+01  0.5379E+01
     -8.497  0.5648E+01  0.5473E+01
     -8.480  0.7195E+01  0.5592E+01
     -8.463  0.8235E+01  0.5729E+01
     -8.447  0.6680E+01  0.5841E+01
     -8.430  0.5236E+01  0.5928E+01
     -8.413  0.5443E+01  0.6018E+01
     -8.397  0.3910E+01  0.6083E+01
     -8.380  0.2857E+01  0.6131E+01
     -8.363  0.4621E+01  0.6208E+01
     -8.347  0.4529E+01  0.6283E+01
     -8.330  0.4344E+01  0.6355E+01
     -8.314  0.4440E+01  0.6429E+01
     -8.297  0.5067E+01  0.6513E+01
     -8.280  0.4900E+01  0.6595E+01
     -8.264  0.4906E+01  0.6676E+01
     -8.247  0.5391E+01  0.6766E+01
     -8.230  0.5891E+01  0.6864E+01
     -8.214  0.4638E+01  0.6941E+01
     -8.197  0.4622E+01  0.7018E+01
     -8.180  0.4085E+01  0.7086E+01
     -8.164  0.4338E+01  0.7158E+01
     -8.147  0.4025E+01  0.7225E+01
     -8.131  0.3781E+01  0.7288E+01
     -8.114  0.5253E+01  0.7375E+01
     -8.097  0.5274E+01  0.7463E+01
     -8.081  0.4712E+01  0.7542E+01
     -8.064  0.2975E+01  0.7591E+01
     -8.047  0.4893E+01  0.7672E+01
     -8.031  0.2155E+01  0.7708E+01
     -8.014  0.2391E+01  0.7748E+01
     -7.998  0.2744E+01  0.7794E+01
     -7.981  0.2253E+01  0.7831E+01
     -7.964  0.6694E+00  0.7842E+01
     -7.948  0.1994E+01  0.7875E+01
     -7.931  0.7720E+00  0.7888E+01
     -7.914  0.1487E+01  0.7913E+01
     -7.898  0.1498E+01  0.7938E+01
     -7.881  0.1097E+01  0.7956E+01
     -7.864  0.7278E+00  0.7968E+01
     -7.848  0.3720E+00  0.7974E+01
     -7.831  0.1175E+00  0.7976E+01
     -7.815  0.5955E+00  0.7986E+01
     -7.798  0.5447E+00  0.7995E+01
     -7.781  0.2730E+00  0.8000E+01
     -7.765  0.2581E-02  0.8000E+01
     -7.748  0.1594E-06  0.8000E+01
     -7.731  0.4712E-13  0.8000E+01
     -7.715  0.0000E+00  0.8000E+01
     -7.698  0.0000E+00  0.8000E+01
     -7.681  0.0000E+00  0.8000E+01
     -7.665  0.0000E+00  0.8000E+01
     -7.648  0.0000E+00  0.8000E+01
     -7.632  0.0000E+00  0.8000E+01
     -7.615  0.0000E+00  0.8000E+01
     -7.598  0.0000E+00  0.8000E+01
     -7.582  0.0000E+00  0.8000E+01
     -7.565  0.0000E+00  0.8000E+01
     -7.548  0.0000E+00  0.8000E+01
     -7.532  0.0000E+00  0.8000E+01
     -7.515  0.0000E+00  0.8000E+01
     -7.498  0.0000E+00  0.8000E+01
     -7.482  0.0000E+00  0.8000E+01
     -7.465  0.0000E+00  0.8000E+01
     -7.449  0.0000E+00  0.8000E+01
     -7.432  0.0000E+00  0.8000E+01
     -7.415  0.0000E+00  0.8000E+01
     -7.399  0.0000E+00  0.8000E+01
     -7.382  0.0000E+00  0.8000E+01
     -7.365  0.0000E+00  0.8000E+01
     -7.349  0.0000E+00  0.8000E+01
     -7.332  0.0000E+00  0.8000E+01
     -7.316  0.0000E+00  0.8000E+01
     -7.299  0.0000E+00  0.8000E+01
     -7.282  0.0000E+00  0.8000E+01
     -7.266  0.0000E+00  0.8000E+01
     -7.249  0.0000E+00  0.8000E+01
     -7.232  0.0000E+00  0.8000E+01
     -7.216  0.0000E+00  0.8000E+01
     -7.199  0.0000E+00  0.8000E+01
     -7.182  0.0000E+00  0.8000E+01
     -7.166  0.0000E+00  0.8000E+01
     -7.149  0.0000E+00  0.8000E+01
     -7.133  0.0000E+00  0.8000E+01
     -7.116  0.0000E+00  0.8000E+01
     -7.099  0.0000E+00  0.8000E+01
     -7.083  0.0000E+00  0.8000E+01
     -7.066  0.0000E+00  0.8000E+01
     -7.049  0.0000E+00  0.8000E+01
     -7.033  0.0000E+00  0.8000E+01
     -7.016  0.0000E+00  0.8000E+01
     -6.999  0.0000E+00  0.8000E+01
     -6.983  0.0000E+00  0.8000E+01
     -6.966  0.4238E-16  0.8000E+01
     -6.950  0.7966E-09  0.8000E+01
     -6.933  0.1047E-03  0.8000E+01
     -6.916  0.7562E-01  0.8001E+01
     -6.900  0.5801E+00  0.8011E+01
     -6.883  0.3430E+00  0.8017E+01
     -6.866  0.5036E+00  0.8025E+01
     -6.850  0.2517E-01  0.8025E+01
     -6.833  0.1766E+00  0.8028E+01
     -6.817  0.5460E+00  0.8037E+01
     -6.800  0.4004E-01  0.8038E+01
     -6.783  0.4904E-03  0.8038E+01
     -6.767  0.1435E+00  0.8040E+01
     -6.750  0.5659E+00  0.8050E+01
     -6.733  0.2044E+00  0.8053E+01
     -6.717  0.5698E+00  0.8063E+01
     -6.700  0.4720E+00  0.8071E+01
     -6.683  0.8955E+00  0.8086E+01
     -6.667  0.2109E+00  0.8089E+01
     -6.650  0.6442E+00  0.8100E+01
     -6.634  0.9698E+00  0.8116E+01
     -6.617  0.1120E+01  0.8135E+01
     -6.600  0.3503E+00  0.8140E+01
     -6.584  0.9893E+00  0.8157E+01
     -6.567  0.1474E+01  0.8181E+01
     -6.550  0.6050E+00  0.8191E+01
     -6.534  0.5802E+00  0.8201E+01
     -6.517  0.4773E+00  0.8209E+01
     -6.500  0.1065E+01  0.8227E+01
     -6.484  0.7100E+00  0.8238E+01
     -6.467  0.2031E+00  0.8242E+01
     -6.451  0.9331E+00  0.8257E+01
     -6.434  0.1369E+01  0.8280E+01
     -6.417  0.2195E+01  0.8317E+01
     -6.401  0.1310E+01  0.8338E+01
     -6.384  0.1007E+01  0.8355E+01
     -6.367  0.2131E+01  0.8391E+01
     -6.351  0.2081E+01  0.8425E+01
     -6.334  0.1021E+01  0.8442E+01
     -6.318  0.7635E+00  0.8455E+01
     -6.301  0.1698E+01  0.8483E+01
     -6.284  0.2362E+01  0.8522E+01
     -6.268  0.2338E+01  0.8561E+01
     -6.251  0.2726E+01  0.8607E+01
     -6.234  0.2495E+01  0.8648E+01
     -6.218  0.2774E+01  0.8694E+01
     -6.201  0.2368E+01  0.8734E+01
     -6.184  0.2180E+01  0.8770E+01
     -6.168  0.3660E+01  0.8831E+01
     -6.151  0.3825E+01  0.8895E+01
     -6.135  0.5894E+01  0.8993E+01
     -6.118  0.4367E+01  0.9065E+01
     -6.101  0.3296E+01  0.9120E+01
     -6.085  0.3808E+01  0.9183E+01
     -6.068  0.3612E+01  0.9243E+01
     -6.051  0.3823E+01  0.9307E+01
     -6.035  0.3229E+01  0.9361E+01
     -6.018  0.3008E+01  0.9411E+01
     -6.001  0.3290E+01  0.9466E+01
     -5.985  0.3816E+01  0.9529E+01
     -5.968  0.4689E+01  0.9607E+01
     -5.952  0.5799E+01  0.9703E+01
     -5.935  0.4836E+01  0.9784E+01
     -5.918  0.3709E+01  0.9846E+01
     -5.902  0.4222E+01  0.9916E+01
     -5.885  0.4762E+01  0.9995E+01
     -5.868  0.2841E+01  0.1004E+02
     -5.852  0.3515E+01  0.1010E+02
     -5.835  0.3336E+01  0.1016E+02
     -5.818  0.3328E+01  0.1021E+02
     -5.802  0.5400E+01  0.1030E+02
     -5.785  0.6273E+01  0.1041E+02
     -5.769  0.4923E+01  0.1049E+02
     -5.752  0.3009E+01  0.1054E+02
     -5.735  0.3304E+01  0.1059E+02
     -5.719  0.2482E+01  0.1063E+02
     -5.702  0.3782E+01  0.1070E+02
     -5.685  0.3298E+01  0.1075E+02
     -5.669  0.5503E+01  0.1084E+02
     -5.652  0.3587E+01  0.1090E+02
     -5.636  0.3985E+01  0.1097E+02
     -5.619  0.3202E+01  0.1102E+02
     -5.602  0.5304E+01  0.1111E+02
     -5.586  0.4013E+01  0.1118E+02
     -5.569  0.4926E+01  0.1126E+02
     -5.552  0.3266E+01  0.1131E+02
     -5.536  0.1993E+01  0.1135E+02
     -5.519  0.4819E+01  0.1143E+02
     -5.502  0.7375E+01  0.1155E+02
     -5.486  0.4697E+01  0.1163E+02
     -5.469  0.3103E+01  0.1168E+02
     -5.453  0.4632E+01  0.1176E+02
     -5.436  0.4305E+01  0.1183E+02
     -5.419  0.5590E+01  0.1192E+02
     -5.403  0.5931E+01  0.1202E+02
     -5.386  0.3141E+01  0.1207E+02
     -5.369  0.3484E+01  0.1213E+02
     -5.353  0.5267E+01  0.1222E+02
     -5.336  0.5498E+01  0.1231E+02
     -5.319  0.4466E+01  0.1238E+02
     -5.303  0.4911E+01  0.1246E+02
     -5.286  0.4653E+01  0.1254E+02
     -5.270  0.4801E+01  0.1262E+02
     -5.253  0.5233E+01  0.1271E+02
     -5.236  0.3730E+01  0.1277E+02
     -5.220  0.3397E+01  0.1283E+02
     -5.203  0.4993E+01  0.1291E+02
     -5.186  0.4230E+01  0.1298E+02
     -5.170  0.3968E+01  0.1305E+02
     -5.153  0.4262E+01  0.1312E+02
     -5.137  0.4054E+01  0.1319E+02
     -5.120  0.4481E+01  0.1326E+02
     -5.103  0.4328E+01  0.1333E+02
     -5.087  0.2113E+01  0.1337E+02
     -5.070  0.3623E+01  0.1343E+02
     -5.053  0.3052E+01  0.1348E+02
     -5.037  0.2483E+01  0.1352E+02
     -5.020  0.3076E+01  0.1357E+02
     -5.003  0.4005E+01  0.1364E+02
     -4.987  0.2999E+01  0.1369E+02
     -4.970  0.2007E+01  0.1372E+02
     -4.954  0.2123E+01  0.1376E+02
     -4.937  0.2554E+01  0.1380E+02
     -4.920  0.5935E+01  0.1390E+02
     -4.904  0.3642E+01  0.1396E+02
     -4.887  0.2733E+01  0.1400E+02
     -4.870  0.2877E+01  0.1405E+02
     -4.854  0.1134E+01  0.1407E+02
     -4.837  0.7736E+00  0.1408E+02
     -4.820  0.2292E+01  0.1412E+02
     -4.804  0.1735E+01  0.1415E+02
     -4.787  0.2325E+01  0.1419E+02
     -4.771  0.2832E+01  0.1424E+02
     -4.754  0.5783E+01  0.1433E+02
     -4.737  0.3378E+01  0.1439E+02
     -4.721  0.2737E+01  0.1443E+02
     -4.704  0.4367E+01  0.1451E+02
     -4.687  0.2757E+01  0.1455E+02
     -4.671  0.1652E+01  0.1458E+02
     -4.654  0.2512E+01  0.1462E+02
     -4.638  0.3235E+01  0.1467E+02
     -4.621  0.3638E+01  0.1474E+02
     -4.604  0.4652E+01  0.1481E+02
     -4.588  0.3769E+01  0.1488E+02
     -4.571  0.2786E+01  0.1492E+02
     -4.554  0.3600E+01  0.1498E+02
     -4.538  0.3312E+01  0.1504E+02
     -4.521  0.3378E+01  0.1509E+02
     -4.504  0.2801E+01  0.1514E+02
     -4.488  0.2842E+01  0.1519E+02
     -4.471  0.3064E+01  0.1524E+02
     -4.455  0.3139E+01  0.1529E+02
     -4.438  0.4349E+01  0.1536E+02
     -4.421  0.4489E+01  0.1544E+02
     -4.405  0.4568E+01  0.1551E+02
     -4.388  0.3458E+01  0.1557E+02
     -4.371  0.1477E+01  0.1560E+02
     -4.355  0.3242E+01  0.1565E+02
     -4.338  0.1828E+01  0.1568E+02
     -4.321  0.3211E+01  0.1573E+02
     -4.305  0.3416E+01  0.1579E+02
     -4.288  0.2972E+01  0.1584E+02
     -4.272  0.2298E+01  0.1588E+02
     -4.255  0.2349E+01  0.1592E+02
     -4.238  0.2603E+01  0.1596E+02
     -4.222  0.3688E+01  0.1602E+02
     -4.205  0.2742E+01  0.1607E+02
     -4.188  0.4044E+01  0.1613E+02
     -4.172  0.3764E+01  0.1620E+02
     -4.155  0.2212E+01  0.1623E+02
     -4.138  0.2839E+01  0.1628E+02
     -4.122  0.2890E+01  0.1633E+02
     -4.105  0.2351E+01  0.1637E+02
     -4.089  0.3775E+01  0.1643E+02
     -4.072  0.2637E+01  0.1647E+02
     -4.055  0.3472E+01  0.1653E+02
     -4.039  0.1813E+01  0.1656E+02
     -4.022  0.2847E+01  0.1661E+02
     -4.005  0.2693E+01  0.1665E+02
     -3.989  0.1783E+01  0.1668E+02
     -3.972  0.4126E+01  0.1675E+02
     -3.956  0.5329E+01  0.1684E+02
     -3.939  0.2366E+01  0.1688E+02
     -3.922  0.1746E+01  0.1691E+02
     -3.906  0.2556E+01  0.1695E+02
     -3.889  0.3367E+01  0.1701E+02
     -3.872  0.2161E+01  0.1704E+02
     -3.856  0.2195E+01  0.1708E+02
     -3.839  0.1844E+01  0.1711E+02
     -3.822  0.3740E+01  0.1717E+02
     -3.806  0.5951E+01  0.1727E+02
     -3.789  0.5188E+01  0.1736E+02
     -3.773  0.2876E+01  0.1741E+02
     -3.756  0.3199E+01  0.1746E+02
     -3.739  0.1737E+01  0.1749E+02
     -3.723  0.1716E+01  0.1752E+02
     -3.706  0.1722E+01  0.1755E+02
     -3.689  0.2400E+01  0.1759E+02
     -3.673  0.2114E+01  0.1762E+02
     -3.656  0.2950E+01  0.1767E+02
     -3.639  0.3071E+01  0.1772E+02
     -3.623  0.3132E+01  0.1777E+02
     -3.606  0.2870E+01  0.1782E+02
     -3.590  0.3074E+01  0.1787E+02
     -3.573  0.3393E+01  0.1793E+02
     -3.556  0.3432E+01  0.1799E+02
     -3.540  0.2133E+01  0.1802E+02
     -3.523  0.2966E+01  0.1807E+02
     -3.506  0.3980E+01  0.1814E+02
     -3.490  0.2294E+01  0.1818E+02
     -3.473  0.2255E+01  0.1821E+02
     -3.457  0.3004E+01  0.1826E+02
     -3.440  0.2002E+01  0.1830E+02
     -3.423  0.1550E+01  0.1832E+02
     -3.407  0.2400E+01  0.1836E+02
     -3.390  0.2443E+01  0.1840E+02
     -3.373  0.3008E+01  0.1845E+02
     -3.357  0.3636E+01  0.1851E+02
     -3.340  0.2930E+01  0.1856E+02
     -3.323  0.3069E+01  0.1861E+02
     -3.307  0.2730E+01  0.1866E+02
     -3.290  0.2352E+01  0.1870E+02
     -3.274  0.3174E+01  0.1875E+02
     -3.257  0.3132E+01  0.1880E+02
     -3.240  0.3103E+01  0.1885E+02
     -3.224  0.2416E+01  0.1889E+02
     -3.207  0.5030E+01  0.1898E+02
     -3.190  0.3445E+01  0.1903E+02
     -3.174  0.1301E+01  0.1906E+02
     -3.157  0.2484E+01  0.1910E+02
     -3.140  0.1750E+01  0.1913E+02
     -3.124  0.8880E+00  0.1914E+02
     -3.107  0.1720E+01  0.1917E+02
     -3.091  0.2324E+01  0.1921E+02
     -3.074  0.2469E+01  0.1925E+02
     -3.057  0.3064E+01  0.1930E+02
     -3.041  0.3947E+01  0.1937E+02
     -3.024  0.3547E+01  0.1943E+02
     -3.007  0.2827E+01  0.1947E+02
     -2.991  0.3872E+01  0.1954E+02
     -2.974  0.3600E+01  0.1960E+02
     -2.958  0.3121E+01  0.1965E+02
     -2.941  0.2742E+01  0.1969E+02
     -2.924  0.1674E+01  0.1972E+02
     -2.908  0.2453E+01  0.1976E+02
     -2.891  0.2939E+01  0.1981E+02
     -2.874  0.3068E+01  0.1986E+02
     -2.858  0.3332E+01  0.1992E+02
     -2.841  0.2660E+01  0.1996E+02
     -2.824  0.3770E+01  0.2003E+02
     -2.808  0.3000E+01  0.2008E+02
     -2.791  0.2547E+01  0.2012E+02
     -2.775  0.2467E+01  0.2016E+02
     -2.758  0.1521E+01  0.2018E+02
     -2.741  0.1178E+01  0.2020E+02
     -2.725  0.2165E+01  0.2024E+02
     -2.708  0.2197E+01  0.2028E+02
     -2.691  0.3994E+01  0.2034E+02
     -2.675  0.1595E+01  0.2037E+02
     -2.658  0.2529E+01  0.2041E+02
     -2.641  0.2732E+01  0.2046E+02
     -2.625  0.2699E+01  0.2050E+02
     -2.608  0.2154E+01  0.2054E+02
     -2.592  0.1416E+01  0.2056E+02
     -2.575  0.3544E+01  0.2062E+02
     -2.558  0.2396E+01  0.2066E+02
     -2.542  0.2568E+01  0.2070E+02
     -2.525  0.3992E+01  0.2077E+02
     -2.508  0.3596E+01  0.2083E+02
     -2.492  0.3971E+01  0.2089E+02
     -2.475  0.2638E+01  0.2094E+02
     -2.458  0.2723E+01  0.2098E+02
     -2.442  0.4156E+01  0.2105E+02
     -2.425  0.2979E+01  0.2110E+02
     -2.409  0.2151E+01  0.2114E+02
     -2.392  0.2341E+01  0.2118E+02
     -2.375  0.4300E+01  0.2125E+02
     -2.359  0.3176E+01  0.2130E+02
     -2.342  0.2362E+01  0.2134E+02
     -2.325  0.2297E+01  0.2138E+02
     -2.309  0.2592E+01  0.2142E+02
     -2.292  0.3818E+01  0.2149E+02
     -2.276  0.2834E+01  0.2153E+02
     -2.259  0.3802E+01  0.2160E+02
     -2.242  0.4856E+01  0.2168E+02
     -2.226  0.5652E+01  0.2177E+02
     -2.209  0.5368E+01  0.2186E+02
     -2.192  0.5124E+01  0.2195E+02
     -2.176  0.3486E+01  0.2200E+02
     -2.159  0.1531E+01  0.2203E+02
     -2.142  0.1422E+01  0.2205E+02
     -2.126  0.3153E+01  0.2210E+02
     -2.109  0.6912E+01  0.2222E+02
     -2.093  0.4951E+01  0.2230E+02
     -2.076  0.2319E+01  0.2234E+02
     -2.059  0.2930E+01  0.2239E+02
     -2.043  0.3503E+01  0.2245E+02
     -2.026  0.2099E+01  0.2248E+02
     -2.009  0.4549E+01  0.2256E+02
     -1.993  0.4512E+01  0.2263E+02