<?xml version="1.0" encoding="ISO-8859-1"?>
<modeling>
 <generator>
  <i name="program" type="string">vasp </i>
  <i name="version" type="string">6.4.3  </i>
  <i name="subversion" type="string">19Mar24 (build May 31 2024 16:31:43) complex                          parallel </i>
  <i name="platform" type="string">LinuxIFC </i>
  <i name="date" type="string">2024 12 16 </i>
  <i name="time" type="string">11:56:31 </i>
 </generator>
 <incar>
  <i type="string" name="SYSTEM">Dielectric</i>
  <i type="int" name="ISTART">     1</i>
  <i type="string" name="PREC">Accurate</i>
  <i type="string" name="ALGO">Normal</i>
  <i type="int" name="ICHARG">     2</i>
  <i name="EDIFF">      0.00000100</i>
  <i name="ENCUT">    600.00000000</i>
  <i type="int" name="NBANDS">   128</i>
  <i type="int" name="NEDOS">  4000</i>
  <i type="logical" name="LREAL"> F  </i>
  <i type="int" name="ISMEAR">     0</i>
  <i name="SIGMA">      0.01000000</i>
  <i type="int" name="NWRITE">     3</i>
  <i type="logical" name="LOPTICS"> T  </i>
  <i name="CSHIFT">      0.10000000</i>
 </incar>
 <primitive_cell>
  <structure name="primitive_cell" >
   <crystal>
    <varray name="basis" >
     <v>       5.70097069       0.00000000       0.00000000 </v>
     <v>       0.00000000       4.04405810       0.00000000 </v>
     <v>       0.00000000       0.00000000       6.20187120 </v>
    </varray>
    <i name="volume">    142.98449202 </i>
    <varray name="rec_basis" >
     <v>       0.17540872       0.00000000       0.00000000 </v>
     <v>       0.00000000       0.24727637       0.00000000 </v>
     <v>       0.00000000       0.00000000       0.16124166 </v>
    </varray>
   </crystal>
   <varray name="positions" >
    <v>       0.52128988       0.50000000       0.63795770 </v>
    <v>       0.47871012       0.50000000       0.36204230 </v>
    <v>       0.97871012       0.50000000       0.63795770 </v>
    <v>       0.02128988       0.50000000       0.36204230 </v>
    <v>       0.59744966       0.50000000       0.89986832 </v>
    <v>       0.40255034       0.50000000       0.10013168 </v>
    <v>       0.90255034       0.50000000       0.89986832 </v>
    <v>       0.09744966       0.50000000       0.10013168 </v>
    <v>       0.75000000       0.79156493       0.72957940 </v>
    <v>       0.25000000       0.20843507       0.27042060 </v>
    <v>       0.75000000       0.20843507       0.72957940 </v>
    <v>       0.25000000       0.79156493       0.27042060 </v>
    <v>       0.25000000       0.50000000       0.52399303 </v>
    <v>       0.75000000       0.50000000       0.47600697 </v>
   </varray>
  </structure>
  <varray name="primitive_index" >
   <v type="int" >        1 </v>
   <v type="int" >        2 </v>
   <v type="int" >        3 </v>
   <v type="int" >        4 </v>
   <v type="int" >        5 </v>
   <v type="int" >        6 </v>
   <v type="int" >        7 </v>
   <v type="int" >        8 </v>
   <v type="int" >        9 </v>
   <v type="int" >       10 </v>
   <v type="int" >       11 </v>
   <v type="int" >       12 </v>
   <v type="int" >       13 </v>
   <v type="int" >       14 </v>
  </varray>
 </primitive_cell>
 <kpoints>
  <generation param="Monkhorst-Pack">
   <v type="int" name="divisions">      10       14        9 </v>
   <v name="usershift">      0.00000000       0.00000000       0.00000000 </v>
   <v name="genvec1">      0.10000000       0.00000000       0.00000000 </v>
   <v name="genvec2">      0.00000000       0.07142857       0.00000000 </v>
   <v name="genvec3">      0.00000000       0.00000000       0.11111111 </v>
   <v name="shift">      0.50000000       0.50000000       0.00000000 </v>
  </generation>
  <varray name="kpointlist" >
   <v>       0.05000000       0.03571429       0.00000000 </v>
   <v>       0.15000000       0.03571429       0.00000000 </v>
   <v>       0.25000000       0.03571429       0.00000000 </v>
   <v>       0.35000000       0.03571429       0.00000000 </v>
   <v>       0.45000000       0.03571429       0.00000000 </v>
   <v>       0.05000000       0.10714286       0.00000000 </v>
   <v>       0.15000000       0.10714286       0.00000000 </v>
   <v>       0.25000000       0.10714286       0.00000000 </v>
   <v>       0.35000000       0.10714286       0.00000000 </v>
   <v>       0.45000000       0.10714286       0.00000000 </v>
   <v>       0.05000000       0.17857143       0.00000000 </v>
   <v>       0.15000000       0.17857143       0.00000000 </v>
   <v>       0.25000000       0.17857143       0.00000000 </v>
   <v>       0.35000000       0.17857143       0.00000000 </v>
   <v>       0.45000000       0.17857143       0.00000000 </v>
   <v>       0.05000000       0.25000000       0.00000000 </v>
   <v>       0.15000000       0.25000000       0.00000000 </v>
   <v>       0.25000000       0.25000000       0.00000000 </v>
   <v>       0.35000000       0.25000000       0.00000000 </v>
   <v>       0.45000000       0.25000000       0.00000000 </v>
   <v>       0.05000000       0.32142857       0.00000000 </v>
   <v>       0.15000000       0.32142857       0.00000000 </v>
   <v>       0.25000000       0.32142857       0.00000000 </v>
   <v>       0.35000000       0.32142857       0.00000000 </v>
   <v>       0.45000000       0.32142857       0.00000000 </v>
   <v>       0.05000000       0.39285714       0.00000000 </v>
   <v>       0.15000000       0.39285714       0.00000000 </v>
   <v>       0.25000000       0.39285714       0.00000000 </v>
   <v>       0.35000000       0.39285714       0.00000000 </v>
   <v>       0.45000000       0.39285714       0.00000000 </v>
   <v>       0.05000000       0.46428571       0.00000000 </v>
   <v>       0.15000000       0.46428571       0.00000000 </v>
   <v>       0.25000000       0.46428571       0.00000000 </v>
   <v>       0.35000000       0.46428571       0.00000000 </v>
   <v>       0.45000000       0.46428571       0.00000000 </v>
   <v>       0.05000000       0.03571429       0.11111111 </v>
   <v>       0.15000000       0.03571429       0.11111111 </v>
   <v>       0.25000000       0.03571429       0.11111111 </v>
   <v>       0.35000000       0.03571429       0.11111111 </v>
   <v>       0.45000000       0.03571429       0.11111111 </v>
   <v>       0.05000000       0.10714286       0.11111111 </v>
   <v>       0.15000000       0.10714286       0.11111111 </v>
   <v>       0.25000000       0.10714286       0.11111111 </v>
   <v>       0.35000000       0.10714286       0.11111111 </v>
   <v>       0.45000000       0.10714286       0.11111111 </v>
   <v>       0.05000000       0.17857143       0.11111111 </v>
   <v>       0.15000000       0.17857143       0.11111111 </v>
   <v>       0.25000000       0.17857143       0.11111111 </v>
   <v>       0.35000000       0.17857143       0.11111111 </v>
   <v>       0.45000000       0.17857143       0.11111111 </v>
   <v>       0.05000000       0.25000000       0.11111111 </v>
   <v>       0.15000000       0.25000000       0.11111111 </v>
   <v>       0.25000000       0.25000000       0.11111111 </v>
   <v>       0.35000000       0.25000000       0.11111111 </v>
   <v>       0.45000000       0.25000000       0.11111111 </v>
   <v>       0.05000000       0.32142857       0.11111111 </v>
   <v>       0.15000000       0.32142857       0.11111111 </v>
   <v>       0.25000000       0.32142857       0.11111111 </v>
   <v>       0.35000000       0.32142857       0.11111111 </v>
   <v>       0.45000000       0.32142857       0.11111111 </v>
   <v>       0.05000000       0.39285714       0.11111111 </v>
   <v>       0.15000000       0.39285714       0.11111111 </v>
   <v>       0.25000000       0.39285714       0.11111111 </v>
   <v>       0.35000000       0.39285714       0.11111111 </v>
   <v>       0.45000000       0.39285714       0.11111111 </v>
   <v>       0.05000000       0.46428571       0.11111111 </v>
   <v>       0.15000000       0.46428571       0.11111111 </v>
   <v>       0.25000000       0.46428571       0.11111111 </v>
   <v>       0.35000000       0.46428571       0.11111111 </v>
   <v>       0.45000000       0.46428571       0.11111111 </v>
   <v>       0.05000000       0.03571429       0.22222222 </v>
   <v>       0.15000000       0.03571429       0.22222222 </v>
   <v>       0.25000000       0.03571429       0.22222222 </v>
   <v>       0.35000000       0.03571429       0.22222222 </v>
   <v>       0.45000000       0.03571429       0.22222222 </v>
   <v>       0.05000000       0.10714286       0.22222222 </v>
   <v>       0.15000000       0.10714286       0.22222222 </v>
   <v>       0.25000000       0.10714286       0.22222222 </v>
   <v>       0.35000000       0.10714286       0.22222222 </v>
   <v>       0.45000000       0.10714286       0.22222222 </v>
   <v>       0.05000000       0.17857143       0.22222222 </v>
   <v>       0.15000000       0.17857143       0.22222222 </v>
   <v>       0.25000000       0.17857143       0.22222222 </v>
   <v>       0.35000000       0.17857143       0.22222222 </v>
   <v>       0.45000000       0.17857143       0.22222222 </v>
   <v>       0.05000000       0.25000000       0.22222222 </v>
   <v>       0.15000000       0.25000000       0.22222222 </v>
   <v>       0.25000000       0.25000000       0.22222222 </v>
   <v>       0.35000000       0.25000000       0.22222222 </v>
   <v>       0.45000000       0.25000000       0.22222222 </v>
   <v>       0.05000000       0.32142857       0.22222222 </v>
   <v>       0.15000000       0.32142857       0.22222222 </v>
   <v>       0.25000000       0.32142857       0.22222222 </v>
   <v>       0.35000000       0.32142857       0.22222222 </v>
   <v>       0.45000000       0.32142857       0.22222222 </v>
   <v>       0.05000000       0.39285714       0.22222222 </v>
   <v>       0.15000000       0.39285714       0.22222222 </v>
   <v>       0.25000000       0.39285714       0.22222222 </v>
   <v>       0.35000000       0.39285714       0.22222222 </v>
   <v>       0.45000000       0.39285714       0.22222222 </v>
   <v>       0.05000000       0.46428571       0.22222222 </v>
   <v>       0.15000000       0.46428571       0.22222222 </v>
   <v>       0.25000000       0.46428571       0.22222222 </v>
   <v>       0.35000000       0.46428571       0.22222222 </v>
   <v>       0.45000000       0.46428571       0.22222222 </v>
   <v>       0.05000000       0.03571429       0.33333333 </v>
   <v>       0.15000000       0.03571429       0.33333333 </v>
   <v>       0.25000000       0.03571429       0.33333333 </v>
   <v>       0.35000000       0.03571429       0.33333333 </v>
   <v>       0.45000000       0.03571429       0.33333333 </v>
   <v>       0.05000000       0.10714286       0.33333333 </v>
   <v>       0.15000000       0.10714286       0.33333333 </v>
   <v>       0.25000000       0.10714286       0.33333333 </v>
   <v>       0.35000000       0.10714286       0.33333333 </v>
   <v>       0.45000000       0.10714286       0.33333333 </v>
   <v>       0.05000000       0.17857143       0.33333333 </v>
   <v>       0.15000000       0.17857143       0.33333333 </v>
   <v>       0.25000000       0.17857143       0.33333333 </v>
   <v>       0.35000000       0.17857143       0.33333333 </v>
   <v>       0.45000000       0.17857143       0.33333333 </v>
   <v>       0.05000000       0.25000000       0.33333333 </v>
   <v>       0.15000000       0.25000000       0.33333333 </v>
   <v>       0.25000000       0.25000000       0.33333333 </v>
   <v>       0.35000000       0.25000000       0.33333333 </v>
   <v>       0.45000000       0.25000000       0.33333333 </v>
   <v>       0.05000000       0.32142857       0.33333333 </v>
   <v>       0.15000000       0.32142857       0.33333333 </v>
   <v>       0.25000000       0.32142857       0.33333333 </v>
   <v>       0.35000000       0.32142857       0.33333333 </v>
   <v>       0.45000000       0.32142857       0.33333333 </v>
   <v>       0.05000000       0.39285714       0.33333333 </v>
   <v>       0.15000000       0.39285714       0.33333333 </v>
   <v>       0.25000000       0.39285714       0.33333333 </v>
   <v>       0.35000000       0.39285714       0.33333333 </v>
   <v>       0.45000000       0.39285714       0.33333333 </v>
   <v>       0.05000000       0.46428571       0.33333333 </v>
   <v>       0.15000000       0.46428571       0.33333333 </v>
   <v>       0.25000000       0.46428571       0.33333333 </v>
   <v>       0.35000000       0.46428571       0.33333333 </v>
   <v>       0.45000000       0.46428571       0.33333333 </v>
   <v>       0.05000000       0.03571429       0.44444444 </v>
   <v>       0.15000000       0.03571429       0.44444444 </v>
   <v>       0.25000000       0.03571429       0.44444444 </v>
   <v>       0.35000000       0.03571429       0.44444444 </v>
   <v>       0.45000000       0.03571429       0.44444444 </v>
   <v>       0.05000000       0.10714286       0.44444444 </v>
   <v>       0.15000000       0.10714286       0.44444444 </v>
   <v>       0.25000000       0.10714286       0.44444444 </v>
   <v>       0.35000000       0.10714286       0.44444444 </v>
   <v>       0.45000000       0.10714286       0.44444444 </v>
   <v>       0.05000000       0.17857143       0.44444444 </v>
   <v>       0.15000000       0.17857143       0.44444444 </v>
   <v>       0.25000000       0.17857143       0.44444444 </v>
   <v>       0.35000000       0.17857143       0.44444444 </v>
   <v>       0.45000000       0.17857143       0.44444444 </v>
   <v>       0.05000000       0.25000000       0.44444444 </v>
   <v>       0.15000000       0.25000000       0.44444444 </v>
   <v>       0.25000000       0.25000000       0.44444444 </v>
   <v>       0.35000000       0.25000000       0.44444444 </v>
   <v>       0.45000000       0.25000000       0.44444444 </v>
   <v>       0.05000000       0.32142857       0.44444444 </v>
   <v>       0.15000000       0.32142857       0.44444444 </v>
   <v>       0.25000000       0.32142857       0.44444444 </v>
   <v>       0.35000000       0.32142857       0.44444444 </v>
   <v>       0.45000000       0.32142857       0.44444444 </v>
   <v>       0.05000000       0.39285714       0.44444444 </v>
   <v>       0.15000000       0.39285714       0.44444444 </v>
   <v>       0.25000000       0.39285714       0.44444444 </v>
   <v>       0.35000000       0.39285714       0.44444444 </v>
   <v>       0.45000000       0.39285714       0.44444444 </v>
   <v>       0.05000000       0.46428571       0.44444444 </v>
   <v>       0.15000000       0.46428571       0.44444444 </v>
   <v>       0.25000000       0.46428571       0.44444444 </v>
   <v>       0.35000000       0.46428571       0.44444444 </v>
   <v>       0.45000000       0.46428571       0.44444444 </v>
  </varray>
  <varray name="weights" >
   <v>       0.00317460 </v>
   <v>       0.00317460 </v>
   <v>       0.00317460 </v>
   <v>       0.00317460 </v>
   <v>       0.00317460 </v>
   <v>       0.00317460 </v>
   <v>       0.00317460 </v>
   <v>       0.00317460 </v>
   <v>       0.00317460 </v>
   <v>       0.00317460 </v>
   <v>       0.00317460 </v>
   <v>       0.00317460 </v>
   <v>       0.00317460 </v>
   <v>       0.00317460 </v>
   <v>       0.00317460 </v>
   <v>       0.00317460 </v>
   <v>       0.00317460 </v>
   <v>       0.00317460 </v>
   <v>       0.00317460 </v>
   <v>       0.00317460 </v>
   <v>       0.00317460 </v>
   <v>       0.00317460 </v>
   <v>       0.00317460 </v>
   <v>       0.00317460 </v>
   <v>       0.00317460 </v>
   <v>       0.00317460 </v>
   <v>       0.00317460 </v>
   <v>       0.00317460 </v>
   <v>       0.00317460 </v>
   <v>       0.00317460 </v>
   <v>       0.00317460 </v>
   <v>       0.00317460 </v>
   <v>       0.00317460 </v>
   <v>       0.00317460 </v>
   <v>       0.00317460 </v>
   <v>       0.00634921 </v>
   <v>       0.00634921 </v>
   <v>       0.00634921 </v>
   <v>       0.00634921 </v>
   <v>       0.00634921 </v>
   <v>       0.00634921 </v>
   <v>       0.00634921 </v>
   <v>       0.00634921 </v>
   <v>       0.00634921 </v>
   <v>       0.00634921 </v>
   <v>       0.00634921 </v>
   <v>       0.00634921 </v>
   <v>       0.00634921 </v>
   <v>       0.00634921 </v>
   <v>       0.00634921 </v>
   <v>       0.00634921 </v>
   <v>       0.00634921 </v>
   <v>       0.00634921 </v>
   <v>       0.00634921 </v>
   <v>       0.00634921 </v>
   <v>       0.00634921 </v>
   <v>       0.00634921 </v>
   <v>       0.00634921 </v>
   <v>       0.00634921 </v>
   <v>       0.00634921 </v>
   <v>       0.00634921 </v>
   <v>       0.00634921 </v>
   <v>       0.00634921 </v>
   <v>       0.00634921 </v>
   <v>       0.00634921 </v>
   <v>       0.00634921 </v>
   <v>       0.00634921 </v>
   <v>       0.00634921 </v>
   <v>       0.00634921 </v>
   <v>       0.00634921 </v>
   <v>       0.00634921 </v>
   <v>       0.00634921 </v>
   <v>       0.00634921 </v>
   <v>       0.00634921 </v>
   <v>       0.00634921 </v>
   <v>       0.00634921 </v>
   <v>       0.00634921 </v>
   <v>       0.00634921 </v>
   <v>       0.00634921 </v>
   <v>       0.00634921 </v>
   <v>       0.00634921 </v>
   <v>       0.00634921 </v>
   <v>       0.00634921 </v>
   <v>       0.00634921 </v>
   <v>       0.00634921 </v>
   <v>       0.00634921 </v>
   <v>       0.00634921 </v>
   <v>       0.00634921 </v>
   <v>       0.00634921 </v>
   <v>       0.00634921 </v>
   <v>       0.00634921 </v>
   <v>       0.00634921 </v>
   <v>       0.00634921 </v>
   <v>       0.00634921 </v>
   <v>       0.00634921 </v>
   <v>       0.00634921 </v>
   <v>       0.00634921 </v>
   <v>       0.00634921 </v>
   <v>       0.00634921 </v>
   <v>       0.00634921 </v>
   <v>       0.00634921 </v>
   <v>       0.00634921 </v>
   <v>       0.00634921 </v>
   <v>       0.00634921 </v>
   <v>       0.00634921 </v>
   <v>       0.00634921 </v>
   <v>       0.00634921 </v>
   <v>       0.00634921 </v>
   <v>       0.00634921 </v>
   <v>       0.00634921 </v>
   <v>       0.00634921 </v>
   <v>       0.00634921 </v>
   <v>       0.00634921 </v>
   <v>       0.00634921 </v>
   <v>       0.00634921 </v>
   <v>       0.00634921 </v>
   <v>       0.00634921 </v>
   <v>       0.00634921 </v>
   <v>       0.00634921 </v>
   <v>       0.00634921 </v>
   <v>       0.00634921 </v>
   <v>       0.00634921 </v>
   <v>       0.00634921 </v>
   <v>       0.00634921 </v>
   <v>       0.00634921 </v>
   <v>       0.00634921 </v>
   <v>       0.00634921 </v>
   <v>       0.00634921 </v>
   <v>       0.00634921 </v>
   <v>       0.00634921 </v>
   <v>       0.00634921 </v>
   <v>       0.00634921 </v>
   <v>       0.00634921 </v>
   <v>       0.00634921 </v>
   <v>       0.00634921 </v>
   <v>       0.00634921 </v>
   <v>       0.00634921 </v>
   <v>       0.00634921 </v>
   <v>       0.00634921 </v>
   <v>       0.00634921 </v>
   <v>       0.00634921 </v>
   <v>       0.00634921 </v>
   <v>       0.00634921 </v>
   <v>       0.00634921 </v>
   <v>       0.00634921 </v>
   <v>       0.00634921 </v>
   <v>       0.00634921 </v>
   <v>       0.00634921 </v>
   <v>       0.00634921 </v>
   <v>       0.00634921 </v>
   <v>       0.00634921 </v>
   <v>       0.00634921 </v>
   <v>       0.00634921 </v>
   <v>       0.00634921 </v>
   <v>       0.00634921 </v>
   <v>       0.00634921 </v>
   <v>       0.00634921 </v>
   <v>       0.00634921 </v>
   <v>       0.00634921 </v>
   <v>       0.00634921 </v>
   <v>       0.00634921 </v>
   <v>       0.00634921 </v>
   <v>       0.00634921 </v>
   <v>       0.00634921 </v>
   <v>       0.00634921 </v>
   <v>       0.00634921 </v>
   <v>       0.00634921 </v>
   <v>       0.00634921 </v>
   <v>       0.00634921 </v>
   <v>       0.00634921 </v>
   <v>       0.00634921 </v>
   <v>       0.00634921 </v>
   <v>       0.00634921 </v>
   <v>       0.00634921 </v>
   <v>       0.00634921 </v>
  </varray>
 </kpoints>
 <parameters>
  <separator name="general" >
   <i type="string" name="SYSTEM">Dielectric</i>
   <i type="logical" name="LCOMPAT"> F  </i>
  </separator>
  <separator name="electronic" >
   <i type="string" name="PREC">accura</i>
   <i name="ENMAX">    600.00000000</i>
   <i name="ENAUG">    535.51400000</i>
   <i name="EDIFF">      0.00000100</i>
   <i type="int" name="IALGO">    38</i>
   <i type="int" name="IWAVPR">    10</i>
   <i type="int" name="NBANDS">   144</i>
   <i type="int" name="NBANDSLOW">    -1</i>
   <i type="int" name="NBANDSHIGH">    -1</i>
   <i name="NELECT">     42.00000000</i>
   <i type="int" name="TURBO">     0</i>
   <i type="int" name="IRESTART">     0</i>
   <i type="int" name="NREBOOT">     0</i>
   <i type="int" name="NMIN">     0</i>
   <i name="EREF">      0.00000000</i>
   <separator name="electronic smearing" >
    <i type="int" name="ISMEAR">     0</i>
    <i name="SIGMA">      0.01000000</i>
    <i name="KSPACING">      0.50000000</i>
    <i type="logical" name="KGAMMA"> T  </i>
    <i type="logical" name="KBLOWUP"> T  </i>
   </separator>
   <separator name="electronic projectors" >
    <i type="logical" name="LREAL"> F  </i>
    <v name="ROPT">      0.00000000</v>
    <i type="int" name="LMAXPAW">  -100</i>
    <i type="int" name="LMAXMIX">     2</i>
    <i type="logical" name="NLSPLINE"> F  </i>
   </separator>
   <separator name="electronic startup" >
    <i type="int" name="ISTART">     1</i>
    <i type="int" name="ICHARG">     2</i>
    <i type="int" name="INIWAV">     1</i>
   </separator>
   <separator name="electronic spin" >
    <i type="int" name="ISPIN">     1</i>
    <i type="logical" name="LNONCOLLINEAR"> F  </i>
    <v name="MAGMOM">      1.00000000      1.00000000      1.00000000      1.00000000      1.00000000      1.00000000      1.00000000      1.00000000      1.00000000      1.00000000      1.00000000      1.00000000      1.00000000      1.00000000</v>
    <i name="NUPDOWN">     -1.00000000</i>
    <i type="logical" name="LSORBIT"> F  </i>
    <v name="SAXIS">      0.00000000      0.00000000      1.00000000</v>
    <i type="logical" name="LSPIRAL"> F  </i>
    <v name="QSPIRAL">      0.00000000      0.00000000      0.00000000</v>
    <i type="logical" name="LZEROZ"> F  </i>
   </separator>
   <separator name="electronic exchange-correlation" >
    <i type="logical" name="LASPH"> F  </i>
   </separator>
   <separator name="electronic convergence" >
    <i type="int" name="NELM">    60</i>
    <i type="int" name="NELMDL">     0</i>
    <i type="int" name="NELMIN">     2</i>
    <i name="ENINI">    600.00000000</i>
    <separator name="electronic convergence detail" >
     <i type="logical" name="LDIAG"> T  </i>
     <i type="logical" name="LSUBROT"> F  </i>
     <i name="WEIMIN">      0.00000000</i>
     <i name="EBREAK">      0.00000000</i>
     <i name="DEPER">      0.30000000</i>
     <i type="int" name="NRMM">     4</i>
     <i name="TIME">      0.40000000</i>
    </separator>
   </separator>
   <separator name="electronic mixer" >
    <i name="AMIX">      0.40000000</i>
    <i name="BMIX">      1.00000000</i>
    <i name="AMIN">      0.10000000</i>
    <i name="AMIX_MAG">      1.60000000</i>
    <i name="BMIX_MAG">      1.00000000</i>
    <separator name="electronic mixer details" >
     <i type="int" name="IMIX">     4</i>
     <i type="logical" name="MIXFIRST"> F  </i>
     <i type="int" name="MAXMIX">   -45</i>
     <i name="WC">    100.00000000</i>
     <i type="int" name="INIMIX">     1</i>
     <i type="int" name="MIXPRE">     1</i>
     <i type="int" name="MREMOVE">     5</i>
    </separator>
   </separator>
   <separator name="electronic dipolcorrection" >
    <i type="logical" name="LDIPOL"> F  </i>
    <i type="logical" name="LMONO"> F  </i>
    <i type="int" name="IDIPOL">     0</i>
    <i name="EPSILON">      1.00000000</i>
    <v name="DIPOL">   -100.00000000   -100.00000000   -100.00000000</v>
    <i name="EFIELD">      0.00000000</i>
    <i type="logical" name="LVACPOTAV"> F  </i>
   </separator>
  </separator>
  <separator name="grids" >
   <i type="int" name="NGX">    48</i>
   <i type="int" name="NGY">    32</i>
   <i type="int" name="NGZ">    50</i>
   <i type="int" name="NGXF">    96</i>
   <i type="int" name="NGYF">    64</i>
   <i type="int" name="NGZF">   100</i>
   <i type="logical" name="ADDGRID"> F  </i>
  </separator>
  <separator name="ionic" >
   <i type="int" name="NSW">     0</i>
   <i type="int" name="IBRION">    -1</i>
   <i type="int" name="MDALGO">     0</i>
   <i type="int" name="ISIF">     2</i>
   <i name="PSTRESS">      0.00000000</i>
   <i name="EDIFFG">      0.00001000</i>
   <i type="int" name="NFREE">     0</i>
   <i name="POTIM">      0.50000000</i>
   <i name="SMASS">     -3.00000000</i>
   <i name="SCALEE">      1.00000000</i>
  </separator>
  <separator name="ionic md" >
   <i name="TEBEG">      0.00010000</i>
   <i name="TEEND">      0.00010000</i>
   <i type="int" name="NBLOCK">     1</i>
   <i type="int" name="KBLOCK">     1</i>
   <i type="int" name="NPACO">   256</i>
   <i name="APACO">     10.00000000</i>
  </separator>
  <separator name="symmetry" >
   <i type="int" name="ISYM">     2</i>
   <i name="SYMPREC">      0.00001000</i>
  </separator>
  <separator name="dos" >
   <i type="int" name="LORBIT">     0</i>
   <v name="RWIGS">     -1.00000000</v>
   <i type="int" name="NEDOS">  4000</i>
   <i name="EMIN">     10.00000000</i>
   <i name="EMAX">    -10.00000000</i>
   <i name="EFERMI">      0.00000000</i>
  </separator>
  <separator name="writing" >
   <i type="int" name="NWRITE">     3</i>
   <i type="logical" name="LWAVE"> T  </i>
   <i type="logical" name="LDOWNSAMPLE"> F  </i>
   <i type="logical" name="LCHARG"> T  </i>
   <i type="logical" name="LPARD"> F  </i>
   <i type="logical" name="LVTOT"> F  </i>
   <i type="logical" name="LVHAR"> F  </i>
   <i type="logical" name="LELF"> F  </i>
   <i type="logical" name="LOPTICS"> T  </i>
   <v name="STM">      0.00000000      0.00000000      0.00000000      0.00000000      0.00000000      0.00000000      0.00000000</v>
  </separator>
  <separator name="performance" >
   <i type="int" name="NPAR">    24</i>
   <i type="int" name="NSIM">     4</i>
   <i type="int" name="NBLK">    -1</i>
   <i type="logical" name="LPLANE"> T  </i>
   <i type="logical" name="LSCALAPACK"> T  </i>
   <i type="logical" name="LSCAAWARE"> F  </i>
   <i type="logical" name="LSCALU"> F  </i>
   <i type="logical" name="LASYNC"> F  </i>
   <i type="logical" name="LORBITALREAL"> F  </i>
  </separator>
  <separator name="miscellaneous" >
   <i type="int" name="IDIOT">     3</i>
   <i type="int" name="PHON_NSTRUCT">    -1</i>
   <i type="logical" name="LMUSIC"> F  </i>
   <v name="POMASS">     10.81100000</v>
   <v name="DARWINR">      0.00000000</v>
   <v name="DARWINV">      1.00000000</v>
   <i type="logical" name="LCORR"> T  </i>
  </separator>
  <i type="logical" name="GGA_COMPAT"> T  </i>
  <i type="logical" name="LBERRY"> F  </i>
  <i type="int" name="ICORELEVEL">     0</i>
  <i type="logical" name="LDAU"> F  </i>
  <i type="int" name="I_CONSTRAINED_M">     0</i>
  <separator name="electronic exchange-correlation" >
   <i type="string" name="GGA    ">PE</i>
   <i type="string" name="XC_C">1</i>
   <i type="int" name="VOSKOWN">     0</i>
   <i type="logical" name="LHFCALC"> F  </i>
   <i type="string" name="PRECFOCK"></i>
   <i type="logical" name="LSYMGRAD"> F  </i>
   <i type="logical" name="LHFONE"> F  </i>
   <i type="logical" name="LRHFCALC"> F  </i>
   <i type="logical" name="LTHOMAS"> F  </i>
   <i type="logical" name="LMODELHF"> F  </i>
   <i type="logical" name="LFOCKACE"> F  </i>
   <i name="ENCUT4O">     -1.00000000</i>
   <i type="int" name="EXXOEP">     0</i>
   <i type="int" name="FOURORBIT">     0</i>
   <i name="AEXX">      0.00000000</i>
   <i name="HFALPHA">      0.00000000</i>
   <i name="MCALPHA">      0.00000000</i>
   <i name="ALDAX">      1.00000000</i>
   <i name="AGGAX">      1.00000000</i>
   <i name="AMGGAX">      1.00000000</i>
   <i name="ALDAC">      1.00000000</i>
   <i name="AGGAC">      1.00000000</i>
   <i name="AMGGAC">      1.00000000</i>
   <i type="int" name="NKREDX">     1</i>
   <i type="int" name="NKREDY">     1</i>
   <i type="int" name="NKREDZ">     1</i>
   <i type="logical" name="SHIFTRED"> F  </i>
   <i type="logical" name="ODDONLY"> F  </i>
   <i type="logical" name="EVENONLY"> F  </i>
   <i type="int" name="LMAXFOCK">     0</i>
   <i type="int" name="NMAXFOCKAE">     0</i>
   <i type="logical" name="LFOCKAEDFT"> F  </i>
   <i name="HFSCREEN">      0.00000000</i>
   <i name="HFSCREENC">      0.00000000</i>
   <i type="int" name="NBANDSGWLOW">     0</i>
  </separator>
  <separator name="vdW DFT" >
   <i type="logical" name="LUSE_VDW"> F  </i>
   <i type="int" name="IVDW_NL">    -1</i>
   <i type="logical" name="LSPIN_VDW"> F  </i>
   <i name="ZAB_VDW">     -0.84910000</i>
   <i name="GAMMA_VDW">      1.39626340</i>
   <i name="ALPHA_VDW">      0.00000000</i>
   <i name="PARAM1">      0.12340000</i>
   <i name="PARAM2">      1.00000000</i>
   <i name="BPARAM">      6.30000000</i>
   <i name="CPARAM">      0.00930000</i>
  </separator>
  <separator name="model GW" >
   <i type="int" name="MODEL_GW">     0</i>
   <i name="MODEL_EPS0">      6.12790680</i>
   <i name="MODEL_ALPHA">      1.00000000</i>
  </separator>
  <separator name="linear response parameters" >
   <i type="logical" name="LEPSILON"> F  </i>
   <i type="logical" name="LRPA"> F  </i>
   <i type="logical" name="LNABLA"> F  </i>
   <i type="logical" name="LVEL"> F  </i>
   <i name="CSHIFT">      0.10000000</i>
   <i name="OMEGAMAX">     -1.00000000</i>
   <i name="DEG_THRESHOLD">      0.00200000</i>
   <i name="RTIME">     -0.10000000</i>
   <i name="WPLASMAI">      0.00000000</i>
   <v name="DFIELD">      0.00000000      0.00000000      0.00000000</v>
   <v name="WPLASMA">      0.00000000      0.00000000      0.00000000      0.00000000      0.00000000      0.00000000      0.00000000      0.00000000      0.00000000</v>
  </separator>
  <separator name="orbital magnetization" >
   <i type="logical" name="NUCIND"> F  </i>
   <v name="MAGPOS">      0.00000000      0.00000000      0.00000000</v>
   <i type="logical" name="LNICSALL"> T  </i>
   <i type="logical" name="ORBITALMAG"> F  </i>
   <i type="logical" name="LMAGBLOCH"> F  </i>
   <i type="logical" name="LCHIMAG"> F  </i>
   <i type="logical" name="LGAUGE"> T  </i>
   <i type="int" name="MAGATOM">     0</i>
   <v name="MAGDIPOL">      0.00000000      0.00000000      0.00000000</v>
   <v name="AVECCONST">      0.00000000      0.00000000      0.00000000</v>
  </separator>
  <separator name="response functions" >
   <i type="logical" name="LALL_IN_ONE"> F  </i>
   <i type="int" name="IALL_IN_ONE">    -1</i>
   <i type="int" name="NBANDS_WAVE">    -1</i>
   <i type="logical" name="LFINITE_TEMPERATURE"> F  </i>
   <i type="logical" name="LADDER"> F  </i>
   <i type="logical" name="LRPAFORCE"> F  </i>
   <i type="logical" name="LFXC"> F  </i>
   <i type="logical" name="LHARTREE"> T  </i>
   <i type="int" name="IBSE">     0</i>
   <v type="int" name="KPOINT">    -1     0     0     0</v>
   <i type="logical" name="LTCTC"> F  </i>
   <i type="logical" name="LTCTE"> F  </i>
   <i type="logical" name="LTETE"> F  </i>
   <i type="logical" name="LTRIPLET"> F  </i>
   <i type="logical" name="LFXCEPS"> F  </i>
   <i type="logical" name="LFXHEG"> F  </i>
   <i type="int" name="NATURALO">     2</i>
   <i type="logical" name="LHOLEGF"> F  </i>
   <i type="logical" name="L2ORDER"> F  </i>
   <i type="logical" name="LDMP1"> F  </i>
   <i type="logical" name="LMP2LT"> F  </i>
   <i type="logical" name="LSMP2LT"> F  </i>
   <i type="logical" name="LGWLF"> F  </i>
   <i name="ENCUTGW">     -1.60000002</i>
   <i name="ENCUTGWSOFT">     -1.60000002</i>
   <i name="ENCUTLF">     -1.00000000</i>
   <i type="logical" name="ESF_SPLINES"> F  </i>
   <i name="ESF_CONV">      0.01000000</i>
   <i type="int" name="ESF_NINTER">    15</i>
   <i type="int" name="LMAXMP2">    -1</i>
   <i name="SCISSOR">      0.00000000</i>
   <i type="int" name="NOMEGA">     0</i>
   <i type="int" name="NOMEGAR">     0</i>
   <i type="int" name="NBANDSGW">    -1</i>
   <i type="int" name="NBANDSO">    -1</i>
   <i type="int" name="NBANDSV">    -1</i>
   <i type="int" name="NELMGW">     1</i>
   <i type="int" name="NELMHF">     1</i>
   <i type="int" name="DIM">     3</i>
   <i type="int" name="IESPILON">     4</i>
   <i type="int" name="ANTIRES">     0</i>
   <i name="OMEGAMAX">    -30.00000000</i>
   <i name="OMEGAMIN">    -30.00000000</i>
   <i name="OMEGATL">   -200.00000000</i>
   <i type="int" name="OMEGAGRID">     0</i>
   <i name="CSHIFT">      0.10000000</i>
   <i type="logical" name="LSELFENERGY"> F  </i>
   <i type="logical" name="LSPECTRAL"> F  </i>
   <i type="logical" name="LSPECTRALGW"> F  </i>
   <i type="logical" name="LSINGLES"> F  </i>
   <i type="logical" name="LFERMIGW"> F  </i>
   <i type="logical" name="ODDONLYGW"> F  </i>
   <i type="logical" name="EVENONLYGW"> F  </i>
   <i type="int" name="NKREDLFX">     1</i>
   <i type="int" name="NKREDLFY">     1</i>
   <i type="int" name="NKREDLFZ">     1</i>
   <i type="int" name="MAXMEM">  2800</i>
   <i type="int" name="TELESCOPE">     0</i>
   <i type="int" name="NTAUPAR">    -1</i>
   <i type="int" name="NOMEGAPAR">    -1</i>
   <i name="DAMP_NEWTON">      0.80000001</i>
   <i name="LAMBDA">      1.00000000</i>
  </separator>
  <separator name="External order field" >
   <i name="OFIELD_KAPPA">      0.00000000</i>
   <v name="OFIELD_K">      0.00000000      0.00000000      0.00000000</v>
   <i name="OFIELD_Q6_NEAR">      0.00000000</i>
   <i name="OFIELD_Q6_FAR">      0.00000000</i>
   <i name="OFIELD_A">      0.00000000</i>
  </separator>
  <separator name="optional k-points parameters" >
   <i type="int" name="KPOINTS_OPT_MODE">     1</i>
   <i type="logical" name="LKPOINTS_OPT"> F  </i>
  </separator>
 </parameters>
 <atominfo>
  <atoms>      14 </atoms>
  <types>       1 </types>
  <array name="atoms" >
   <dimension dim="1">ion</dimension>
   <field type="string">element</field>
   <field type="int">atomtype</field>
   <set>
    <rc><c>B </c><c>   1</c></rc>
    <rc><c>B </c><c>   1</c></rc>
    <rc><c>B </c><c>   1</c></rc>
    <rc><c>B </c><c>   1</c></rc>
    <rc><c>B </c><c>   1</c></rc>
    <rc><c>B </c><c>   1</c></rc>
    <rc><c>B </c><c>   1</c></rc>
    <rc><c>B </c><c>   1</c></rc>
    <rc><c>B </c><c>   1</c></rc>
    <rc><c>B </c><c>   1</c></rc>
    <rc><c>B </c><c>   1</c></rc>
    <rc><c>B </c><c>   1</c></rc>
    <rc><c>B </c><c>   1</c></rc>
    <rc><c>B </c><c>   1</c></rc>
   </set>
  </array>
  <array name="atomtypes" >
   <dimension dim="1">type</dimension>
   <field type="int">atomspertype</field>
   <field type="string">element</field>
   <field>mass</field>
   <field>valence</field>
   <field type="string">pseudopotential</field>
   <set>
    <rc><c>  14</c><c>B </c><c>     10.81100000</c><c>      3.00000000</c><c>  PAW_PBE B 06Sep2000                   </c></rc>
   </set>
  </array>
 </atominfo>
 <structure name="initialpos" >
  <crystal>
   <varray name="basis" >
    <v>       5.70097069       0.00000000       0.00000000 </v>
    <v>       0.00000000       4.04405810       0.00000000 </v>
    <v>       0.00000000       0.00000000       6.20187120 </v>
   </varray>
   <i name="volume">    142.98449202 </i>
   <varray name="rec_basis" >
    <v>       0.17540872       0.00000000       0.00000000 </v>
    <v>       0.00000000       0.24727637       0.00000000 </v>
    <v>       0.00000000       0.00000000       0.16124166 </v>
   </varray>
  </crystal>
  <varray name="positions" >
   <v>       0.52128988       0.50000000       0.63795770 </v>
   <v>       0.47871012       0.50000000       0.36204230 </v>
   <v>       0.97871012       0.50000000       0.63795770 </v>
   <v>       0.02128988       0.50000000       0.36204230 </v>
   <v>       0.59744966       0.50000000       0.89986832 </v>
   <v>       0.40255034       0.50000000       0.10013168 </v>
   <v>       0.90255034       0.50000000       0.89986832 </v>
   <v>       0.09744966       0.50000000       0.10013168 </v>
   <v>       0.75000000       0.79156493       0.72957940 </v>
   <v>       0.25000000       0.20843507       0.27042060 </v>
   <v>       0.75000000       0.20843507       0.72957940 </v>
   <v>       0.25000000       0.79156493       0.27042060 </v>
   <v>       0.25000000       0.50000000       0.52399303 </v>
   <v>       0.75000000       0.50000000       0.47600697 </v>
  </varray>
 </structure>
 <calculation>
  <scstep>
   <time name="dav">   16.49   16.71</time>
   <time name="total">   16.60   16.82</time>
   <energy>
    <i name="alphaZ">     94.30280740 </i>
    <i name="ewald">   -798.79353645 </i>
    <i name="hartreedc">   -269.52400652 </i>
    <i name="XCdc">     97.46456534 </i>
    <i name="pawpsdc">    608.99811708 </i>
    <i name="pawaedc">   -597.02363782 </i>
    <i name="eentropy">     -0.00007310 </i>
    <i name="bandstr">   -228.99460089 </i>
    <i name="atom">    996.37441054 </i>
    <i name="e_fr_energy">    -97.19595441 </i>
    <i name="e_wo_entrp">    -97.19588131 </i>
    <i name="e_0_energy">    -97.19591786 </i>
   </energy>
  </scstep>
  <scstep>
   <time name="dav">   19.27   19.52</time>
   <time name="total">   19.41   19.67</time>
   <energy>
    <i name="e_fr_energy">    -92.39088076 </i>
    <i name="e_wo_entrp">    -92.39070107 </i>
    <i name="e_0_energy">    -92.39079091 </i>
   </energy>
  </scstep>
  <scstep>
   <time name="dav">   19.68   19.93</time>
   <time name="total">   19.81   20.07</time>
   <energy>
    <i name="e_fr_energy">    -90.60877210 </i>
    <i name="e_wo_entrp">    -90.60868953 </i>
    <i name="e_0_energy">    -90.60873082 </i>
   </energy>
  </scstep>
  <scstep>
   <time name="dav">   18.63   18.87</time>
   <time name="total">   18.77   19.01</time>
   <energy>
    <i name="e_fr_energy">    -90.61894496 </i>
    <i name="e_wo_entrp">    -90.61882226 </i>
    <i name="e_0_energy">    -90.61888361 </i>
   </energy>
  </scstep>
  <scstep>
   <time name="dav">   19.48   19.73</time>
   <time name="total">   19.62   19.87</time>
   <energy>
    <i name="e_fr_energy">    -90.63345443 </i>
    <i name="e_wo_entrp">    -90.63331269 </i>
    <i name="e_0_energy">    -90.63338356 </i>
   </energy>
  </scstep>
  <scstep>
   <time name="dav">   19.04   19.28</time>
   <time name="total">   19.17   19.42</time>
   <energy>
    <i name="e_fr_energy">    -90.63780326 </i>
    <i name="e_wo_entrp">    -90.63766842 </i>
    <i name="e_0_energy">    -90.63773584 </i>
   </energy>
  </scstep>
  <scstep>
   <time name="dav">   18.93   19.17</time>
   <time name="total">   19.06   19.31</time>
   <energy>
    <i name="e_fr_energy">    -90.63897037 </i>
    <i name="e_wo_entrp">    -90.63883604 </i>
    <i name="e_0_energy">    -90.63890320 </i>
   </energy>
  </scstep>
  <scstep>
   <time name="dav">   19.28   19.52</time>
   <time name="total">   19.41   19.66</time>
   <energy>
    <i name="e_fr_energy">    -90.63903278 </i>
    <i name="e_wo_entrp">    -90.63889600 </i>
    <i name="e_0_energy">    -90.63896439 </i>
   </energy>
  </scstep>
  <scstep>
   <time name="dav">   18.89   19.13</time>
   <time name="total">   19.03   19.27</time>
   <energy>
    <i name="e_fr_energy">    -90.63903887 </i>
    <i name="e_wo_entrp">    -90.63890205 </i>
    <i name="e_0_energy">    -90.63897046 </i>
   </energy>
  </scstep>
  <scstep>
   <time name="dav">   19.14   19.39</time>
   <time name="total">   19.18   19.43</time>
   <energy>
    <i name="alphaZ">     94.30280740 </i>
    <i name="ewald">   -798.79353645 </i>
    <i name="hartreedc">   -346.66947173 </i>
    <i name="XCdc">    101.54594274 </i>
    <i name="pawpsdc">   3725.13869521 </i>
    <i name="pawaedc">  -3714.32157974 </i>
    <i name="eentropy">     -0.00013675 </i>
    <i name="bandstr">   -148.21617070 </i>
    <i name="atom">    996.37441054 </i>
    <i name="e_fr_energy">    -90.63903948 </i>
    <i name="e_wo_entrp">    -90.63890273 </i>
    <i name="e_0_energy">    -90.63897111 </i>
   </energy>
  </scstep>
  <structure>
   <crystal>
    <varray name="basis" >
     <v>       5.70097069       0.00000000       0.00000000 </v>
     <v>       0.00000000       4.04405810       0.00000000 </v>
     <v>       0.00000000       0.00000000       6.20187120 </v>
    </varray>
    <i name="volume">    142.98449202 </i>
    <varray name="rec_basis" >
     <v>       0.17540872       0.00000000       0.00000000 </v>
     <v>       0.00000000       0.24727637       0.00000000 </v>
     <v>       0.00000000       0.00000000       0.16124166 </v>
    </varray>
   </crystal>
   <varray name="positions" >
    <v>       0.52128988       0.50000000       0.63795770 </v>
    <v>       0.47871012       0.50000000       0.36204230 </v>
    <v>       0.97871012       0.50000000       0.63795770 </v>
    <v>       0.02128988       0.50000000       0.36204230 </v>
    <v>       0.59744966       0.50000000       0.89986832 </v>
    <v>       0.40255034       0.50000000       0.10013168 </v>
    <v>       0.90255034       0.50000000       0.89986832 </v>
    <v>       0.09744966       0.50000000       0.10013168 </v>
    <v>       0.75000000       0.79156493       0.72957940 </v>
    <v>       0.25000000       0.20843507       0.27042060 </v>
    <v>       0.75000000       0.20843507       0.72957940 </v>
    <v>       0.25000000       0.79156493       0.27042060 </v>
    <v>       0.25000000       0.50000000       0.52399303 </v>
    <v>       0.75000000       0.50000000       0.47600697 </v>
   </varray>
  </structure>
  <varray name="forces" >
   <v>       0.00042706      -0.00000000      -0.00257511 </v>
   <v>      -0.00042706       0.00000000       0.00257511 </v>
   <v>      -0.00042706       0.00000000      -0.00257511 </v>
   <v>       0.00042706       0.00000000       0.00257511 </v>
   <v>       0.00065656       0.00000000       0.00070528 </v>
   <v>      -0.00065656       0.00000000      -0.00070528 </v>
   <v>      -0.00065656      -0.00000000       0.00070528 </v>
   <v>       0.00065656      -0.00000000      -0.00070528 </v>
   <v>      -0.00000000       0.01878895       0.00082331 </v>
   <v>       0.00000000      -0.01878895      -0.00082331 </v>
   <v>      -0.00000000      -0.01878895       0.00082331 </v>
   <v>       0.00000000       0.01878895      -0.00082331 </v>
   <v>       0.00000000      -0.00000000      -0.00070767 </v>
   <v>       0.00000000      -0.00000000       0.00070767 </v>
  </varray>
  <varray name="stress" >
   <v>      -0.11630610       0.00000000       0.00000000 </v>
   <v>       0.00000000       0.30592015       0.00000000 </v>
   <v>       0.00000000       0.00000000      -0.13997295 </v>
  </varray>
  <energy>
   <i name="e_fr_energy">    -90.63903948 </i>
   <i name="e_wo_entrp">    -90.63890273 </i>
   <i name="e_0_energy">    -90.63897111 </i>
  </energy>
  <time name="totalsc">  201.09  203.73</time>
  <eigenvalues>
   <array>
    <dimension dim="1">band</dimension>
    <dimension dim="2">kpoint</dimension>
    <dimension dim="3">spin</dimension>
    <field>eigene</field>
    <field>occ</field>
    <set>
     <set comment="spin 1">
      <set comment="kpoint 1">
       <r>  -12.6920    1.0000 </r>
       <r>  -11.5257    1.0000 </r>
       <r>   -8.6560    1.0000 </r>
       <r>   -8.3636    1.0000 </r>
       <r>   -6.0410    1.0000 </r>
       <r>   -5.1633    1.0000 </r>
       <r>   -4.7063    1.0000 </r>
       <r>   -4.2990    1.0000 </r>
       <r>   -4.0007    1.0000 </r>
       <r>   -3.4743    1.0000 </r>
       <r>   -2.5472    1.0000 </r>
       <r>   -2.3027    1.0000 </r>
       <r>   -1.7787    1.0000 </r>
       <r>   -1.1097    1.0000 </r>
       <r>   -0.0812    1.0000 </r>
       <r>    0.0066    1.0000 </r>
       <r>    0.0454    1.0000 </r>
       <r>    0.0986    1.0000 </r>
       <r>    0.6753    1.0000 </r>
       <r>    2.0747    0.0000 </r>
       <r>    2.0870    0.0000 </r>
       <r>    2.2481    0.0000 </r>
       <r>    5.5506    0.0000 </r>
       <r>    5.6857    0.0000 </r>
       <r>    5.7741    0.0000 </r>
       <r>    5.9902    0.0000 </r>
       <r>    6.7539    0.0000 </r>
       <r>    7.5705    0.0000 </r>
       <r>    7.9048    0.0000 </r>
       <r>    8.5270    0.0000 </r>
       <r>    8.9000    0.0000 </r>
       <r>    8.9436    0.0000 </r>
       <r>    9.0629    0.0000 </r>
       <r>   10.1148    0.0000 </r>
       <r>   11.2329    0.0000 </r>
       <r>   11.3395    0.0000 </r>
       <r>   11.5205    0.0000 </r>
       <r>   11.6735    0.0000 </r>
       <r>   11.9991    0.0000 </r>
       <r>   12.3433    0.0000 </r>
       <r>   12.9688    0.0000 </r>
       <r>   13.4083    0.0000 </r>
       <r>   13.4345    0.0000 </r>
       <r>   15.3949    0.0000 </r>
       <r>   15.5287    0.0000 </r>
       <r>   16.0438    0.0000 </r>
       <r>   16.3133    0.0000 </r>
       <r>   16.3357    0.0000 </r>
       <r>   16.6913    0.0000 </r>
       <r>   16.7218    0.0000 </r>
       <r>   16.9335    0.0000 </r>
       <r>   17.4835    0.0000 </r>
       <r>   17.6688    0.0000 </r>
       <r>   18.1046    0.0000 </r>
       <r>   18.3510    0.0000 </r>
       <r>   18.5272    0.0000 </r>
       <r>   18.7622    0.0000 </r>
       <r>   18.8564    0.0000 </r>
       <r>   19.5979    0.0000 </r>
       <r>   19.9177    0.0000 </r>
       <r>   19.9944    0.0000 </r>
       <r>   20.2506    0.0000 </r>
       <r>   20.4821    0.0000 </r>
       <r>   20.7076    0.0000 </r>
       <r>   21.1266    0.0000 </r>
       <r>   21.8181    0.0000 </r>
       <r>   22.3551    0.0000 </r>
       <r>   22.5162    0.0000 </r>
       <r>   22.9680    0.0000 </r>
       <r>   23.0193    0.0000 </r>
       <r>   23.4383    0.0000 </r>
       <r>   23.7223    0.0000 </r>
       <r>   23.8871    0.0000 </r>
       <r>   24.4221    0.0000 </r>
       <r>   25.3714    0.0000 </r>
       <r>   25.3873    0.0000 </r>
       <r>   25.4249    0.0000 </r>
       <r>   25.5338    0.0000 </r>
       <r>   25.6590    0.0000 </r>
       <r>   26.2730    0.0000 </r>
       <r>   26.3644    0.0000 </r>
       <r>   26.8814    0.0000 </r>
       <r>   27.1437    0.0000 </r>
       <r>   28.6646    0.0000 </r>
       <r>   29.1978    0.0000 </r>
       <r>   29.2626    0.0000 </r>
       <r>   29.4148    0.0000 </r>
       <r>   29.7188    0.0000 </r>
       <r>   30.3173    0.0000 </r>
       <r>   30.6969    0.0000 </r>
       <r>   30.7942    0.0000 </r>
       <r>   32.1641    0.0000 </r>
       <r>   32.3408    0.0000 </r>
       <r>   32.4952    0.0000 </r>
       <r>   32.5420    0.0000 </r>
       <r>   33.0819    0.0000 </r>
       <r>   33.7378    0.0000 </r>
       <r>   34.0765    0.0000 </r>
       <r>   34.1995    0.0000 </r>
       <r>   34.4740    0.0000 </r>
       <r>   34.6418    0.0000 </r>
       <r>   34.6553    0.0000 </r>
       <r>   35.4981    0.0000 </r>
       <r>   35.9328    0.0000 </r>
       <r>   35.9943    0.0000 </r>
       <r>   36.1166    0.0000 </r>
       <r>   36.2662    0.0000 </r>
       <r>   36.7582    0.0000 </r>
       <r>   37.7555    0.0000 </r>
       <r>   37.9640    0.0000 </r>
       <r>   38.0072    0.0000 </r>
       <r>   38.3568    0.0000 </r>
       <r>   38.3892    0.0000 </r>
       <r>   38.7523    0.0000 </r>
       <r>   39.0633    0.0000 </r>
       <r>   39.1819    0.0000 </r>
       <r>   39.5675    0.0000 </r>
       <r>   39.6288    0.0000 </r>
       <r>   39.7642    0.0000 </r>
       <r>   40.1890    0.0000 </r>
       <r>   40.3465    0.0000 </r>
       <r>   40.5394    0.0000 </r>
       <r>   40.8597    0.0000 </r>
       <r>   40.9926    0.0000 </r>
       <r>   41.4362    0.0000 </r>
       <r>   41.5149    0.0000 </r>
       <r>   41.7805    0.0000 </r>
       <r>   42.1468    0.0000 </r>
       <r>   42.2296    0.0000 </r>
       <r>   42.9768    0.0000 </r>
       <r>   43.1657    0.0000 </r>
       <r>   43.4494    0.0000 </r>
       <r>   43.8039    0.0000 </r>
       <r>   44.1495    0.0000 </r>
       <r>   44.2078    0.0000 </r>
       <r>   44.2581    0.0000 </r>
       <r>   44.7303    0.0000 </r>
       <r>   44.7509    0.0000 </r>
       <r>   45.0023    0.0000 </r>
       <r>   45.3270    0.0000 </r>
       <r>   45.5668    0.0000 </r>
       <r>   45.7211    0.0000 </r>
       <r>   45.8395    0.0000 </r>
       <r>   45.9494    0.0000 </r>
      </set>
      <set comment="kpoint 2">
       <r>  -12.6477    1.0000 </r>
       <r>  -11.6021    1.0000 </r>
       <r>   -8.6297    1.0000 </r>
       <r>   -8.3521    1.0000 </r>
       <r>   -5.9740    1.0000 </r>
       <r>   -5.5035    1.0000 </r>
       <r>   -4.8226    1.0000 </r>
       <r>   -3.9782    1.0000 </r>
       <r>   -3.8161    1.0000 </r>
       <r>   -3.1416    1.0000 </r>
       <r>   -2.6167    1.0000 </r>
       <r>   -2.2830    1.0000 </r>
       <r>   -1.8661    1.0000 </r>
       <r>   -1.4160    1.0000 </r>
       <r>   -0.1398    1.0000 </r>
       <r>    0.0457    1.0000 </r>
       <r>    0.0612    1.0000 </r>
       <r>    0.1464    1.0000 </r>
       <r>    0.5727    1.0000 </r>
       <r>    1.9901    0.0000 </r>
       <r>    1.9951    0.0000 </r>
       <r>    2.1215    0.0000 </r>
       <r>    5.6300    0.0000 </r>
       <r>    5.6986    0.0000 </r>
       <r>    5.8343    0.0000 </r>
       <r>    6.3081    0.0000 </r>
       <r>    6.6752    0.0000 </r>
       <r>    7.2124    0.0000 </r>
       <r>    8.1246    0.0000 </r>
       <r>    8.6660    0.0000 </r>
       <r>    9.0768    0.0000 </r>
       <r>    9.2002    0.0000 </r>
       <r>    9.2075    0.0000 </r>
       <r>   10.1896    0.0000 </r>
       <r>   10.9385    0.0000 </r>
       <r>   11.1249    0.0000 </r>
       <r>   11.3074    0.0000 </r>
       <r>   11.5421    0.0000 </r>
       <r>   12.2130    0.0000 </r>
       <r>   12.4376    0.0000 </r>
       <r>   13.0794    0.0000 </r>
       <r>   13.1899    0.0000 </r>
       <r>   13.9810    0.0000 </r>
       <r>   14.8562    0.0000 </r>
       <r>   15.7231    0.0000 </r>
       <r>   15.8204    0.0000 </r>
       <r>   16.1961    0.0000 </r>
       <r>   16.4783    0.0000 </r>
       <r>   16.6224    0.0000 </r>
       <r>   16.6673    0.0000 </r>
       <r>   17.1004    0.0000 </r>
       <r>   17.1676    0.0000 </r>
       <r>   17.7952    0.0000 </r>
       <r>   18.1208    0.0000 </r>
       <r>   18.4086    0.0000 </r>
       <r>   18.6893    0.0000 </r>
       <r>   18.7373    0.0000 </r>
       <r>   18.9985    0.0000 </r>
       <r>   19.4284    0.0000 </r>
       <r>   19.5236    0.0000 </r>
       <r>   19.9895    0.0000 </r>
       <r>   20.0568    0.0000 </r>
       <r>   20.4696    0.0000 </r>
       <r>   20.9019    0.0000 </r>
       <r>   20.9240    0.0000 </r>
       <r>   21.7273    0.0000 </r>
       <r>   21.7523    0.0000 </r>
       <r>   21.9835    0.0000 </r>
       <r>   23.0679    0.0000 </r>
       <r>   23.3893    0.0000 </r>
       <r>   23.6591    0.0000 </r>
       <r>   23.7269    0.0000 </r>
       <r>   24.4482    0.0000 </r>
       <r>   24.6901    0.0000 </r>
       <r>   24.7944    0.0000 </r>
       <r>   25.3539    0.0000 </r>
       <r>   25.4915    0.0000 </r>
       <r>   25.8472    0.0000 </r>
       <r>   26.0381    0.0000 </r>
       <r>   26.3499    0.0000 </r>
       <r>   26.5867    0.0000 </r>
       <r>   26.7774    0.0000 </r>
       <r>   27.5369    0.0000 </r>
       <r>   29.0991    0.0000 </r>
       <r>   29.1257    0.0000 </r>
       <r>   29.2936    0.0000 </r>
       <r>   29.4093    0.0000 </r>
       <r>   29.6248    0.0000 </r>
       <r>   30.4481    0.0000 </r>
       <r>   30.7674    0.0000 </r>
       <r>   30.9549    0.0000 </r>
       <r>   31.5948    0.0000 </r>
       <r>   32.2142    0.0000 </r>
       <r>   32.4906    0.0000 </r>
       <r>   32.5610    0.0000 </r>
       <r>   33.2492    0.0000 </r>
       <r>   33.6053    0.0000 </r>
       <r>   34.0269    0.0000 </r>
       <r>   34.2758    0.0000 </r>
       <r>   34.3418    0.0000 </r>
       <r>   34.7194    0.0000 </r>
       <r>   34.8005    0.0000 </r>
       <r>   35.3981    0.0000 </r>
       <r>   36.2313    0.0000 </r>
       <r>   36.2621    0.0000 </r>
       <r>   36.4204    0.0000 </r>
       <r>   36.6007    0.0000 </r>
       <r>   36.6613    0.0000 </r>
       <r>   37.3224    0.0000 </r>
       <r>   37.4038    0.0000 </r>
       <r>   37.7679    0.0000 </r>
       <r>   37.9010    0.0000 </r>
       <r>   38.2994    0.0000 </r>
       <r>   38.3718    0.0000 </r>
       <r>   38.8408    0.0000 </r>
       <r>   39.3465    0.0000 </r>
       <r>   39.3826    0.0000 </r>
       <r>   39.7211    0.0000 </r>
       <r>   40.0368    0.0000 </r>
       <r>   40.4441    0.0000 </r>
       <r>   40.4955    0.0000 </r>
       <r>   40.7142    0.0000 </r>
       <r>   41.1881    0.0000 </r>
       <r>   41.2205    0.0000 </r>
       <r>   41.2416    0.0000 </r>
       <r>   41.3929    0.0000 </r>
       <r>   41.4483    0.0000 </r>
       <r>   42.0482    0.0000 </r>
       <r>   42.1991    0.0000 </r>
       <r>   42.6102    0.0000 </r>
       <r>   42.8557    0.0000 </r>
       <r>   42.9840    0.0000 </r>
       <r>   43.4279    0.0000 </r>
       <r>   43.7450    0.0000 </r>
       <r>   43.9130    0.0000 </r>
       <r>   44.2435    0.0000 </r>
       <r>   44.5238    0.0000 </r>
       <r>   44.8095    0.0000 </r>
       <r>   45.0049    0.0000 </r>
       <r>   45.4420    0.0000 </r>
       <r>   45.6432    0.0000 </r>
       <r>   45.7934    0.0000 </r>
       <r>   45.9989    0.0000 </r>
       <r>   46.1624    0.0000 </r>
      </set>
      <set comment="kpoint 3">
       <r>  -12.5610    1.0000 </r>
       <r>  -11.7392    1.0000 </r>
       <r>   -8.5771    1.0000 </r>
       <r>   -8.3380    1.0000 </r>
       <r>   -5.9607    1.0000 </r>
       <r>   -5.8293    1.0000 </r>
       <r>   -4.7704    1.0000 </r>
       <r>   -3.8440    1.0000 </r>
       <r>   -3.3106    1.0000 </r>
       <r>   -2.7767    1.0000 </r>
       <r>   -2.6556    1.0000 </r>
       <r>   -2.2433    1.0000 </r>
       <r>   -1.9872    1.0000 </r>
       <r>   -1.9202    1.0000 </r>
       <r>   -0.3570    1.0000 </r>
       <r>    0.0639    1.0000 </r>
       <r>    0.1735    1.0000 </r>
       <r>    0.1828    1.0000 </r>
       <r>    0.4709    1.0000 </r>
       <r>    1.8206    1.0000 </r>
       <r>    1.8595    1.0000 </r>
       <r>    1.8869    1.0000 </r>
       <r>    5.6599    0.0000 </r>
       <r>    5.7320    0.0000 </r>
       <r>    6.1629    0.0000 </r>
       <r>    6.5628    0.0000 </r>
       <r>    6.7647    0.0000 </r>
       <r>    6.9534    0.0000 </r>
       <r>    8.2716    0.0000 </r>
       <r>    8.8233    0.0000 </r>
       <r>    9.0137    0.0000 </r>
       <r>    9.6367    0.0000 </r>
       <r>    9.6497    0.0000 </r>
       <r>   10.2616    0.0000 </r>
       <r>   10.4421    0.0000 </r>
       <r>   10.5826    0.0000 </r>
       <r>   11.4353    0.0000 </r>
       <r>   11.7685    0.0000 </r>
       <r>   12.3903    0.0000 </r>
       <r>   12.5284    0.0000 </r>
       <r>   12.7906    0.0000 </r>
       <r>   12.9849    0.0000 </r>
       <r>   14.6123    0.0000 </r>
       <r>   14.8807    0.0000 </r>
       <r>   15.2211    0.0000 </r>
       <r>   15.9502    0.0000 </r>
       <r>   15.9569    0.0000 </r>
       <r>   16.2445    0.0000 </r>
       <r>   16.5612    0.0000 </r>
       <r>   16.7248    0.0000 </r>
       <r>   16.7806    0.0000 </r>
       <r>   17.3779    0.0000 </r>
       <r>   17.8852    0.0000 </r>
       <r>   18.0131    0.0000 </r>
       <r>   18.2931    0.0000 </r>
       <r>   18.8007    0.0000 </r>
       <r>   18.8470    0.0000 </r>
       <r>   18.9297    0.0000 </r>
       <r>   19.2451    0.0000 </r>
       <r>   19.4457    0.0000 </r>
       <r>   19.6812    0.0000 </r>
       <r>   19.9532    0.0000 </r>
       <r>   20.6824    0.0000 </r>
       <r>   20.8625    0.0000 </r>
       <r>   20.9366    0.0000 </r>
       <r>   21.0848    0.0000 </r>
       <r>   21.1144    0.0000 </r>
       <r>   22.0646    0.0000 </r>
       <r>   23.3487    0.0000 </r>
       <r>   23.4455    0.0000 </r>
       <r>   23.8494    0.0000 </r>
       <r>   23.9136    0.0000 </r>
       <r>   24.5875    0.0000 </r>
       <r>   24.6191    0.0000 </r>
       <r>   24.7811    0.0000 </r>
       <r>   25.2154    0.0000 </r>
       <r>   25.5925    0.0000 </r>
       <r>   25.9117    0.0000 </r>
       <r>   26.4426    0.0000 </r>
       <r>   26.4954    0.0000 </r>
       <r>   26.7317    0.0000 </r>
       <r>   27.6826    0.0000 </r>
       <r>   28.0108    0.0000 </r>
       <r>   28.9338    0.0000 </r>
       <r>   29.2776    0.0000 </r>
       <r>   29.5980    0.0000 </r>
       <r>   29.7049    0.0000 </r>
       <r>   29.7367    0.0000 </r>
       <r>   29.9928    0.0000 </r>
       <r>   30.9515    0.0000 </r>
       <r>   31.0345    0.0000 </r>
       <r>   31.1104    0.0000 </r>
       <r>   32.4336    0.0000 </r>
       <r>   32.5271    0.0000 </r>
       <r>   32.6360    0.0000 </r>
       <r>   33.2110    0.0000 </r>
       <r>   33.7993    0.0000 </r>
       <r>   33.8298    0.0000 </r>
       <r>   34.0961    0.0000 </r>
       <r>   34.4135    0.0000 </r>
       <r>   34.7625    0.0000 </r>
       <r>   35.0048    0.0000 </r>
       <r>   35.2742    0.0000 </r>
       <r>   35.5229    0.0000 </r>
       <r>   36.4480    0.0000 </r>
       <r>   36.7222    0.0000 </r>
       <r>   36.7317    0.0000 </r>
       <r>   36.8932    0.0000 </r>
       <r>   37.0683    0.0000 </r>
       <r>   37.1378    0.0000 </r>
       <r>   37.3983    0.0000 </r>
       <r>   37.8070    0.0000 </r>
       <r>   37.8608    0.0000 </r>
       <r>   38.5302    0.0000 </r>
       <r>   38.7546    0.0000 </r>
       <r>   39.2327    0.0000 </r>
       <r>   39.3677    0.0000 </r>
       <r>   39.7703    0.0000 </r>
       <r>   39.9997    0.0000 </r>
       <r>   40.1446    0.0000 </r>
       <r>   40.2576    0.0000 </r>
       <r>   40.3640    0.0000 </r>
       <r>   40.8465    0.0000 </r>
       <r>   41.1170    0.0000 </r>
       <r>   41.3304    0.0000 </r>
       <r>   41.4890    0.0000 </r>
       <r>   41.7368    0.0000 </r>
       <r>   42.0115    0.0000 </r>
       <r>   42.1306    0.0000 </r>
       <r>   42.4681    0.0000 </r>
       <r>   42.6568    0.0000 </r>
       <r>   42.8526    0.0000 </r>
       <r>   43.1990    0.0000 </r>
       <r>   43.2922    0.0000 </r>
       <r>   43.4168    0.0000 </r>
       <r>   44.0599    0.0000 </r>
       <r>   44.4476    0.0000 </r>
       <r>   44.8240    0.0000 </r>
       <r>   44.8417    0.0000 </r>
       <r>   45.2766    0.0000 </r>
       <r>   45.4585    0.0000 </r>
       <r>   45.6386    0.0000 </r>
       <r>   46.2141    0.0000 </r>
       <r>   46.6745    0.0000 </r>
      </set>
      <set comment="kpoint 4">
       <r>  -12.4357    1.0000 </r>
       <r>  -11.9131    1.0000 </r>
       <r>   -8.5044    1.0000 </r>
       <r>   -8.3376    1.0000 </r>
       <r>   -6.0598    1.0000 </r>
       <r>   -6.0555    1.0000 </r>
       <r>   -4.4355    1.0000 </r>
       <r>   -3.6733    1.0000 </r>
       <r>   -2.9788    1.0000 </r>
       <r>   -2.9205    1.0000 </r>
       <r>   -2.4455    1.0000 </r>
       <r>   -2.1811    1.0000 </r>
       <r>   -2.1397    1.0000 </r>
       <r>   -2.0982    1.0000 </r>
       <r>   -0.6397    1.0000 </r>
       <r>   -0.2091    1.0000 </r>
       <r>    0.2549    1.0000 </r>
       <r>    0.2902    1.0000 </r>
       <r>    0.6012    1.0000 </r>
       <r>    1.5341    1.0000 </r>
       <r>    1.6823    1.0000 </r>
       <r>    1.7086    1.0000 </r>
       <r>    5.6561    0.0000 </r>
       <r>    5.7868    0.0000 </r>
       <r>    6.4843    0.0000 </r>
       <r>    6.6926    0.0000 </r>
       <r>    6.7058    0.0000 </r>
       <r>    7.4033    0.0000 </r>
       <r>    8.3835    0.0000 </r>
       <r>    8.7040    0.0000 </r>
       <r>    8.8147    0.0000 </r>
       <r>    9.5117    0.0000 </r>
       <r>   10.1060    0.0000 </r>
       <r>   10.1266    0.0000 </r>
       <r>   10.3692    0.0000 </r>
       <r>   11.0715    0.0000 </r>
       <r>   11.4713    0.0000 </r>
       <r>   11.9152    0.0000 </r>
       <r>   12.1847    0.0000 </r>
       <r>   12.3443    0.0000 </r>
       <r>   12.4782    0.0000 </r>
       <r>   13.2842    0.0000 </r>
       <r>   14.7020    0.0000 </r>
       <r>   14.9370    0.0000 </r>
       <r>   15.2133    0.0000 </r>
       <r>   15.3662    0.0000 </r>
       <r>   15.5343    0.0000 </r>
       <r>   16.3785    0.0000 </r>
       <r>   16.7533    0.0000 </r>
       <r>   16.7854    0.0000 </r>
       <r>   16.9796    0.0000 </r>
       <r>   17.4338    0.0000 </r>
       <r>   17.9256    0.0000 </r>
       <r>   18.0480    0.0000 </r>
       <r>   18.0994    0.0000 </r>
       <r>   18.3146    0.0000 </r>
       <r>   18.8324    0.0000 </r>
       <r>   18.9164    0.0000 </r>
       <r>   18.9827    0.0000 </r>
       <r>   19.2200    0.0000 </r>
       <r>   19.9138    0.0000 </r>
       <r>   19.9368    0.0000 </r>
       <r>   20.1666    0.0000 </r>
       <r>   20.2516    0.0000 </r>
       <r>   20.9818    0.0000 </r>
       <r>   21.1561    0.0000 </r>
       <r>   21.5774    0.0000 </r>
       <r>   22.2331    0.0000 </r>
       <r>   23.1484    0.0000 </r>
       <r>   23.3454    0.0000 </r>
       <r>   23.6170    0.0000 </r>
       <r>   24.0580    0.0000 </r>
       <r>   24.5251    0.0000 </r>
       <r>   24.9738    0.0000 </r>
       <r>   25.0286    0.0000 </r>
       <r>   25.1289    0.0000 </r>
       <r>   25.7476    0.0000 </r>
       <r>   26.2481    0.0000 </r>
       <r>   26.4723    0.0000 </r>
       <r>   26.7360    0.0000 </r>
       <r>   26.8518    0.0000 </r>
       <r>   28.0965    0.0000 </r>
       <r>   28.3650    0.0000 </r>
       <r>   28.8095    0.0000 </r>
       <r>   29.3438    0.0000 </r>
       <r>   29.9052    0.0000 </r>
       <r>   29.9721    0.0000 </r>
       <r>   30.2028    0.0000 </r>
       <r>   30.4886    0.0000 </r>
       <r>   30.6132    0.0000 </r>
       <r>   30.7926    0.0000 </r>
       <r>   30.9664    0.0000 </r>
       <r>   32.3980    0.0000 </r>
       <r>   32.7845    0.0000 </r>
       <r>   32.8420    0.0000 </r>
       <r>   33.3856    0.0000 </r>
       <r>   33.4213    0.0000 </r>
       <r>   33.5687    0.0000 </r>
       <r>   34.2974    0.0000 </r>
       <r>   34.3217    0.0000 </r>
       <r>   34.6949    0.0000 </r>
       <r>   35.0067    0.0000 </r>
       <r>   35.2336    0.0000 </r>
       <r>   35.5982    0.0000 </r>
       <r>   35.9405    0.0000 </r>
       <r>   36.4044    0.0000 </r>
       <r>   36.6412    0.0000 </r>
       <r>   36.9558    0.0000 </r>
       <r>   37.0249    0.0000 </r>
       <r>   37.1159    0.0000 </r>
       <r>   37.3533    0.0000 </r>
       <r>   37.6901    0.0000 </r>
       <r>   38.0498    0.0000 </r>
       <r>   38.1188    0.0000 </r>
       <r>   38.9015    0.0000 </r>
       <r>   39.0940    0.0000 </r>
       <r>   39.3044    0.0000 </r>
       <r>   39.6106    0.0000 </r>
       <r>   39.6355    0.0000 </r>
       <r>   39.9568    0.0000 </r>
       <r>   40.0544    0.0000 </r>
       <r>   40.0972    0.0000 </r>
       <r>   40.3447    0.0000 </r>
       <r>   40.9304    0.0000 </r>
       <r>   41.1457    0.0000 </r>
       <r>   41.5701    0.0000 </r>
       <r>   41.8737    0.0000 </r>
       <r>   41.9399    0.0000 </r>
       <r>   42.0982    0.0000 </r>
       <r>   42.3612    0.0000 </r>
       <r>   42.6311    0.0000 </r>
       <r>   42.6774    0.0000 </r>
       <r>   43.1066    0.0000 </r>
       <r>   43.5488    0.0000 </r>
       <r>   43.8476    0.0000 </r>
       <r>   43.8606    0.0000 </r>
       <r>   44.3791    0.0000 </r>
       <r>   44.6762    0.0000 </r>
       <r>   44.9572    0.0000 </r>
       <r>   45.0143    0.0000 </r>
       <r>   45.4123    0.0000 </r>
       <r>   46.1637    0.0000 </r>
       <r>   46.2523    0.0000 </r>
       <r>   46.4358    0.0000 </r>
      </set>
      <set comment="kpoint 5">
       <r>  -12.2786    1.0000 </r>
       <r>  -12.0995    1.0000 </r>
       <r>   -8.4271    1.0000 </r>
       <r>   -8.3665    1.0000 </r>
       <r>   -6.1675    1.0000 </r>
       <r>   -6.1534    1.0000 </r>
       <r>   -3.9162    1.0000 </r>
       <r>   -3.4626    1.0000 </r>
       <r>   -3.3153    1.0000 </r>
       <r>   -3.2210    1.0000 </r>
       <r>   -2.3480    1.0000 </r>
       <r>   -2.2072    1.0000 </r>
       <r>   -1.9597    1.0000 </r>
       <r>   -1.8618    1.0000 </r>
       <r>   -0.8143    1.0000 </r>
       <r>   -0.5999    1.0000 </r>
       <r>    0.3356    1.0000 </r>
       <r>    0.3551    1.0000 </r>
       <r>    0.8598    1.0000 </r>
       <r>    1.1844    1.0000 </r>
       <r>    1.5812    1.0000 </r>
       <r>    1.5965    1.0000 </r>
       <r>    5.7002    0.0000 </r>
       <r>    5.7629    0.0000 </r>
       <r>    6.4887    0.0000 </r>
       <r>    6.5672    0.0000 </r>
       <r>    7.3755    0.0000 </r>
       <r>    8.0597    0.0000 </r>
       <r>    8.1113    0.0000 </r>
       <r>    8.4886    0.0000 </r>
       <r>    8.6185    0.0000 </r>
       <r>    8.7715    0.0000 </r>
       <r>   10.5090    0.0000 </r>
       <r>   10.5444    0.0000 </r>
       <r>   10.7287    0.0000 </r>
       <r>   11.2183    0.0000 </r>
       <r>   11.4532    0.0000 </r>
       <r>   11.6781    0.0000 </r>
       <r>   11.8651    0.0000 </r>
       <r>   12.4172    0.0000 </r>
       <r>   12.7250    0.0000 </r>
       <r>   13.2831    0.0000 </r>
       <r>   14.5850    0.0000 </r>
       <r>   14.6797    0.0000 </r>
       <r>   14.8154    0.0000 </r>
       <r>   14.9250    0.0000 </r>
       <r>   16.1154    0.0000 </r>
       <r>   16.4811    0.0000 </r>
       <r>   16.9864    0.0000 </r>
       <r>   17.0425    0.0000 </r>
       <r>   17.1934    0.0000 </r>
       <r>   17.3547    0.0000 </r>
       <r>   17.6945    0.0000 </r>
       <r>   17.9218    0.0000 </r>
       <r>   18.0614    0.0000 </r>
       <r>   18.3006    0.0000 </r>
       <r>   18.4036    0.0000 </r>
       <r>   18.7632    0.0000 </r>
       <r>   19.0365    0.0000 </r>
       <r>   19.0541    0.0000 </r>
       <r>   19.6440    0.0000 </r>
       <r>   19.6803    0.0000 </r>
       <r>   20.1678    0.0000 </r>
       <r>   20.2052    0.0000 </r>
       <r>   21.0951    0.0000 </r>
       <r>   21.1574    0.0000 </r>
       <r>   22.2195    0.0000 </r>
       <r>   22.4616    0.0000 </r>
       <r>   22.8793    0.0000 </r>
       <r>   22.9327    0.0000 </r>
       <r>   23.4730    0.0000 </r>
       <r>   23.6382    0.0000 </r>
       <r>   24.9781    0.0000 </r>
       <r>   25.0873    0.0000 </r>
       <r>   25.4130    0.0000 </r>
       <r>   25.5818    0.0000 </r>
       <r>   25.9695    0.0000 </r>
       <r>   26.0518    0.0000 </r>
       <r>   26.1590    0.0000 </r>
       <r>   26.5445    0.0000 </r>
       <r>   27.3971    0.0000 </r>
       <r>   28.0945    0.0000 </r>
       <r>   28.4476    0.0000 </r>
       <r>   28.7813    0.0000 </r>
       <r>   29.2110    0.0000 </r>
       <r>   29.4584    0.0000 </r>
       <r>   30.2759    0.0000 </r>
       <r>   30.5078    0.0000 </r>
       <r>   30.7396    0.0000 </r>
       <r>   31.1560    0.0000 </r>
       <r>   31.4607    0.0000 </r>
       <r>   31.5057    0.0000 </r>
       <r>   32.0841    0.0000 </r>
       <r>   32.4184    0.0000 </r>
       <r>   32.6356    0.0000 </r>
       <r>   32.7896    0.0000 </r>
       <r>   33.4741    0.0000 </r>
       <r>   33.8774    0.0000 </r>
       <r>   34.0878    0.0000 </r>
       <r>   34.1918    0.0000 </r>
       <r>   34.4449    0.0000 </r>
       <r>   34.8611    0.0000 </r>
       <r>   35.5964    0.0000 </r>
       <r>   35.7551    0.0000 </r>
       <r>   35.9890    0.0000 </r>
       <r>   36.2810    0.0000 </r>
       <r>   36.2975    0.0000 </r>
       <r>   36.9739    0.0000 </r>
       <r>   37.1560    0.0000 </r>
       <r>   37.2247    0.0000 </r>
       <r>   37.3983    0.0000 </r>
       <r>   37.6576    0.0000 </r>
       <r>   38.1288    0.0000 </r>
       <r>   38.1359    0.0000 </r>
       <r>   38.5523    0.0000 </r>
       <r>   38.6935    0.0000 </r>
       <r>   38.8757    0.0000 </r>
       <r>   39.0017    0.0000 </r>
       <r>   39.3155    0.0000 </r>
       <r>   39.3398    0.0000 </r>
       <r>   40.3344    0.0000 </r>
       <r>   40.6133    0.0000 </r>
       <r>   40.6399    0.0000 </r>
       <r>   40.8780    0.0000 </r>
       <r>   41.1989    0.0000 </r>
       <r>   41.5405    0.0000 </r>
       <r>   41.6021    0.0000 </r>
       <r>   41.7350    0.0000 </r>
       <r>   41.8370    0.0000 </r>
       <r>   42.0792    0.0000 </r>
       <r>   42.6093    0.0000 </r>
       <r>   43.1327    0.0000 </r>
       <r>   43.2976    0.0000 </r>
       <r>   43.7867    0.0000 </r>
       <r>   43.8407    0.0000 </r>
       <r>   44.1237    0.0000 </r>
       <r>   44.1393    0.0000 </r>
       <r>   44.3633    0.0000 </r>
       <r>   45.3053    0.0000 </r>
       <r>   45.5315    0.0000 </r>
       <r>   45.7798    0.0000 </r>
       <r>   46.0990    0.0000 </r>
       <r>   46.3085    0.0000 </r>
       <r>   46.5987    0.0000 </r>
      </set>
      <set comment="kpoint 6">
       <r>  -12.6677    1.0000 </r>
       <r>  -11.5038    1.0000 </r>
       <r>   -8.6371    1.0000 </r>
       <r>   -8.3401    1.0000 </r>
       <r>   -6.0144    1.0000 </r>
       <r>   -5.1293    1.0000 </r>
       <r>   -4.6845    1.0000 </r>
       <r>   -4.5459    1.0000 </r>
       <r>   -4.2026    1.0000 </r>
       <r>   -3.4492    1.0000 </r>
       <r>   -3.2437    1.0000 </r>
       <r>   -1.7687    1.0000 </r>
       <r>   -1.1050    1.0000 </r>
       <r>   -0.9791    1.0000 </r>
       <r>   -0.3088    1.0000 </r>
       <r>   -0.2299    1.0000 </r>
       <r>    0.1080    1.0000 </r>
       <r>    0.1125    1.0000 </r>
       <r>    0.7601    1.0000 </r>
       <r>    1.8176    1.0000 </r>
       <r>    1.8236    1.0000 </r>
       <r>    2.2981    0.0000 </r>
       <r>    5.5264    0.0000 </r>
       <r>    5.7676    0.0000 </r>
       <r>    5.7965    0.0000 </r>
       <r>    5.9293    0.0000 </r>
       <r>    7.0347    0.0000 </r>
       <r>    7.8567    0.0000 </r>
       <r>    8.0738    0.0000 </r>
       <r>    8.2219    0.0000 </r>
       <r>    8.9035    0.0000 </r>
       <r>    9.1008    0.0000 </r>
       <r>    9.1457    0.0000 </r>
       <r>   10.5673    0.0000 </r>
       <r>   11.2662    0.0000 </r>
       <r>   11.4576    0.0000 </r>
       <r>   11.5907    0.0000 </r>
       <r>   11.6548    0.0000 </r>
       <r>   12.1012    0.0000 </r>
       <r>   12.6185    0.0000 </r>
       <r>   12.9392    0.0000 </r>
       <r>   13.1473    0.0000 </r>
       <r>   13.1911    0.0000 </r>
       <r>   15.3071    0.0000 </r>
       <r>   15.3869    0.0000 </r>
       <r>   15.8552    0.0000 </r>
       <r>   15.8843    0.0000 </r>
       <r>   16.1988    0.0000 </r>
       <r>   16.6939    0.0000 </r>
       <r>   16.8310    0.0000 </r>
       <r>   16.8893    0.0000 </r>
       <r>   17.1054    0.0000 </r>
       <r>   17.5005    0.0000 </r>
       <r>   18.1200    0.0000 </r>
       <r>   18.2375    0.0000 </r>
       <r>   18.4970    0.0000 </r>
       <r>   19.0250    0.0000 </r>
       <r>   19.0765    0.0000 </r>
       <r>   19.7138    0.0000 </r>
       <r>   19.8576    0.0000 </r>
       <r>   20.0841    0.0000 </r>
       <r>   20.5377    0.0000 </r>
       <r>   20.6008    0.0000 </r>
       <r>   20.9286    0.0000 </r>
       <r>   21.0218    0.0000 </r>
       <r>   21.9157    0.0000 </r>
       <r>   22.3013    0.0000 </r>
       <r>   22.6159    0.0000 </r>
       <r>   22.7826    0.0000 </r>
       <r>   22.8057    0.0000 </r>
       <r>   23.3453    0.0000 </r>
       <r>   23.8727    0.0000 </r>
       <r>   24.1465    0.0000 </r>
       <r>   24.4692    0.0000 </r>
       <r>   24.7896    0.0000 </r>
       <r>   24.9320    0.0000 </r>
       <r>   25.0994    0.0000 </r>
       <r>   25.4325    0.0000 </r>
       <r>   25.8489    0.0000 </r>
       <r>   26.5290    0.0000 </r>
       <r>   26.6264    0.0000 </r>
       <r>   26.9645    0.0000 </r>
       <r>   27.7690    0.0000 </r>
       <r>   28.6990    0.0000 </r>
       <r>   28.8688    0.0000 </r>
       <r>   29.0048    0.0000 </r>
       <r>   29.3212    0.0000 </r>
       <r>   29.8849    0.0000 </r>
       <r>   30.4509    0.0000 </r>
       <r>   30.6197    0.0000 </r>
       <r>   30.7441    0.0000 </r>
       <r>   32.1528    0.0000 </r>
       <r>   32.2478    0.0000 </r>
       <r>   32.4951    0.0000 </r>
       <r>   32.5523    0.0000 </r>
       <r>   32.7483    0.0000 </r>
       <r>   33.2322    0.0000 </r>
       <r>   33.8040    0.0000 </r>
       <r>   34.0034    0.0000 </r>
       <r>   34.2005    0.0000 </r>
       <r>   34.8962    0.0000 </r>
       <r>   34.9191    0.0000 </r>
       <r>   34.9664    0.0000 </r>
       <r>   36.0575    0.0000 </r>
       <r>   36.4733    0.0000 </r>
       <r>   36.4888    0.0000 </r>
       <r>   36.6696    0.0000 </r>
       <r>   36.7308    0.0000 </r>
       <r>   37.2161    0.0000 </r>
       <r>   37.7586    0.0000 </r>
       <r>   37.9848    0.0000 </r>
       <r>   38.1154    0.0000 </r>
       <r>   38.5748    0.0000 </r>
       <r>   38.7070    0.0000 </r>
       <r>   39.0608    0.0000 </r>
       <r>   39.4635    0.0000 </r>
       <r>   39.6870    0.0000 </r>
       <r>   39.6972    0.0000 </r>
       <r>   39.9716    0.0000 </r>
       <r>   40.1640    0.0000 </r>
       <r>   40.6217    0.0000 </r>
       <r>   40.8008    0.0000 </r>
       <r>   40.9824    0.0000 </r>
       <r>   41.0781    0.0000 </r>
       <r>   41.3018    0.0000 </r>
       <r>   41.3366    0.0000 </r>
       <r>   41.7430    0.0000 </r>
       <r>   41.7716    0.0000 </r>
       <r>   42.1436    0.0000 </r>
       <r>   42.6925    0.0000 </r>
       <r>   42.9258    0.0000 </r>
       <r>   43.1827    0.0000 </r>
       <r>   43.1847    0.0000 </r>
       <r>   43.6054    0.0000 </r>
       <r>   43.8164    0.0000 </r>
       <r>   43.9333    0.0000 </r>
       <r>   44.3100    0.0000 </r>
       <r>   44.9609    0.0000 </r>
       <r>   44.9967    0.0000 </r>
       <r>   45.5332    0.0000 </r>
       <r>   45.7652    0.0000 </r>
       <r>   45.9039    0.0000 </r>
       <r>   46.0789    0.0000 </r>
       <r>   46.5710    0.0000 </r>
      </set>
      <set comment="kpoint 7">
       <r>  -12.6235    1.0000 </r>
       <r>  -11.5800    1.0000 </r>
       <r>   -8.6105    1.0000 </r>
       <r>   -8.3290    1.0000 </r>
       <r>   -5.9454    1.0000 </r>
       <r>   -5.4732    1.0000 </r>
       <r>   -4.8027    1.0000 </r>
       <r>   -4.4579    1.0000 </r>
       <r>   -3.7851    1.0000 </r>
       <r>   -3.3189    1.0000 </r>
       <r>   -3.1087    1.0000 </r>
       <r>   -1.7468    1.0000 </r>
       <r>   -1.4103    1.0000 </r>
       <r>   -1.1116    1.0000 </r>
       <r>   -0.2372    1.0000 </r>
       <r>   -0.1917    1.0000 </r>
       <r>    0.0330    1.0000 </r>
       <r>    0.1653    1.0000 </r>
       <r>    0.6518    1.0000 </r>
       <r>    1.7278    1.0000 </r>
       <r>    1.7459    1.0000 </r>
       <r>    2.1611    0.0000 </r>
       <r>    5.6294    0.0000 </r>
       <r>    5.8802    0.0000 </r>
       <r>    5.8861    0.0000 </r>
       <r>    6.0977    0.0000 </r>
       <r>    6.9584    0.0000 </r>
       <r>    7.5368    0.0000 </r>
       <r>    8.2211    0.0000 </r>
       <r>    8.4027    0.0000 </r>
       <r>    9.1464    0.0000 </r>
       <r>    9.2327    0.0000 </r>
       <r>    9.4064    0.0000 </r>
       <r>   10.4570    0.0000 </r>
       <r>   10.8537    0.0000 </r>
       <r>   11.0684    0.0000 </r>
       <r>   11.5130    0.0000 </r>
       <r>   11.7508    0.0000 </r>
       <r>   12.3195    0.0000 </r>
       <r>   12.6802    0.0000 </r>
       <r>   12.8251    0.0000 </r>
       <r>   13.2055    0.0000 </r>
       <r>   13.7154    0.0000 </r>
       <r>   14.9336    0.0000 </r>
       <r>   15.3968    0.0000 </r>
       <r>   15.7512    0.0000 </r>
       <r>   15.7937    0.0000 </r>
       <r>   16.3848    0.0000 </r>
       <r>   16.6546    0.0000 </r>
       <r>   16.8433    0.0000 </r>
       <r>   16.9200    0.0000 </r>
       <r>   17.1950    0.0000 </r>
       <r>   17.3839    0.0000 </r>
       <r>   17.9983    0.0000 </r>
       <r>   18.3109    0.0000 </r>
       <r>   18.3362    0.0000 </r>
       <r>   18.9669    0.0000 </r>
       <r>   19.2749    0.0000 </r>
       <r>   19.5192    0.0000 </r>
       <r>   19.7424    0.0000 </r>
       <r>   20.0115    0.0000 </r>
       <r>   20.0682    0.0000 </r>
       <r>   20.6427    0.0000 </r>
       <r>   20.7866    0.0000 </r>
       <r>   21.2377    0.0000 </r>
       <r>   21.7447    0.0000 </r>
       <r>   21.8529    0.0000 </r>
       <r>   22.2386    0.0000 </r>
       <r>   22.7413    0.0000 </r>
       <r>   23.1675    0.0000 </r>
       <r>   23.6493    0.0000 </r>
       <r>   24.1148    0.0000 </r>
       <r>   24.3589    0.0000 </r>
       <r>   24.7107    0.0000 </r>
       <r>   24.9453    0.0000 </r>
       <r>   25.1772    0.0000 </r>
       <r>   25.3551    0.0000 </r>
       <r>   25.3828    0.0000 </r>
       <r>   25.7767    0.0000 </r>
       <r>   26.5665    0.0000 </r>
       <r>   26.6033    0.0000 </r>
       <r>   27.1689    0.0000 </r>
       <r>   27.3806    0.0000 </r>
       <r>   28.8455    0.0000 </r>
       <r>   29.0075    0.0000 </r>
       <r>   29.1773    0.0000 </r>
       <r>   29.5642    0.0000 </r>
       <r>   29.9591    0.0000 </r>
       <r>   30.4674    0.0000 </r>
       <r>   30.7375    0.0000 </r>
       <r>   31.0029    0.0000 </r>
       <r>   31.5503    0.0000 </r>
       <r>   32.0648    0.0000 </r>
       <r>   32.5210    0.0000 </r>
       <r>   32.5868    0.0000 </r>
       <r>   33.0780    0.0000 </r>
       <r>   33.2359    0.0000 </r>
       <r>   33.8180    0.0000 </r>
       <r>   33.8609    0.0000 </r>
       <r>   34.2966    0.0000 </r>
       <r>   34.8229    0.0000 </r>
       <r>   35.0248    0.0000 </r>
       <r>   35.1409    0.0000 </r>
       <r>   35.8664    0.0000 </r>
       <r>   36.5078    0.0000 </r>
       <r>   36.5996    0.0000 </r>
       <r>   36.7010    0.0000 </r>
       <r>   36.9101    0.0000 </r>
       <r>   37.1194    0.0000 </r>
       <r>   37.2176    0.0000 </r>
       <r>   37.6395    0.0000 </r>
       <r>   37.6976    0.0000 </r>
       <r>   38.3096    0.0000 </r>
       <r>   38.3163    0.0000 </r>
       <r>   39.3495    0.0000 </r>
       <r>   39.4566    0.0000 </r>
       <r>   39.6341    0.0000 </r>
       <r>   39.9928    0.0000 </r>
       <r>   40.1018    0.0000 </r>
       <r>   40.2139    0.0000 </r>
       <r>   40.3947    0.0000 </r>
       <r>   40.8721    0.0000 </r>
       <r>   41.0381    0.0000 </r>
       <r>   41.2942    0.0000 </r>
       <r>   41.5762    0.0000 </r>
       <r>   41.6178    0.0000 </r>
       <r>   41.6864    0.0000 </r>
       <r>   41.8417    0.0000 </r>
       <r>   42.1179    0.0000 </r>
       <r>   42.2768    0.0000 </r>
       <r>   42.5773    0.0000 </r>
       <r>   42.7609    0.0000 </r>
       <r>   43.2898    0.0000 </r>
       <r>   43.3403    0.0000 </r>
       <r>   43.5257    0.0000 </r>
       <r>   43.6753    0.0000 </r>
       <r>   44.0211    0.0000 </r>
       <r>   44.6364    0.0000 </r>
       <r>   45.1565    0.0000 </r>
       <r>   45.6661    0.0000 </r>
       <r>   45.7457    0.0000 </r>
       <r>   45.8267    0.0000 </r>
       <r>   46.0008    0.0000 </r>
       <r>   46.7538    0.0000 </r>
      </set>
      <set comment="kpoint 8">
       <r>  -12.5370    1.0000 </r>
       <r>  -11.7169    1.0000 </r>
       <r>   -8.5577    1.0000 </r>
       <r>   -8.3157    1.0000 </r>
       <r>   -5.9294    1.0000 </r>
[...]
       <r>    44.5815     8.8225   271.2432 </r>
       <r>    44.5981     5.8806   271.3411 </r>
       <r>    44.6147     5.3637   271.4303 </r>
       <r>    44.6314     7.8466   271.5608 </r>
       <r>    44.6480     5.9356   271.6595 </r>
       <r>    44.6646     6.5306   271.7682 </r>
       <r>    44.6813     6.0532   271.8688 </r>
       <r>    44.6979     6.3400   271.9743 </r>
       <r>    44.7145     6.3851   272.0805 </r>
       <r>    44.7312     7.6398   272.2076 </r>
       <r>    44.7478     8.2084   272.3441 </r>
       <r>    44.7644     7.5820   272.4702 </r>
       <r>    44.7811     8.6425   272.6140 </r>
       <r>    44.7977     6.7955   272.7270 </r>
       <r>    44.8143     5.3783   272.8165 </r>
       <r>    44.8310     6.3333   272.9218 </r>
       <r>    44.8476     7.3872   273.0447 </r>
       <r>    44.8642     6.2794   273.1492 </r>
       <r>    44.8809     5.1347   273.2346 </r>
       <r>    44.8975     5.8220   273.3314 </r>
       <r>    44.9141     6.9219   273.4465 </r>
       <r>    44.9308     9.7234   273.6083 </r>
       <r>    44.9474     9.5873   273.7677 </r>
       <r>    44.9641     7.1237   273.8862 </r>
       <r>    44.9807     5.3425   273.9751 </r>
       <r>    44.9973     6.3109   274.0801 </r>
       <r>    45.0140     5.5514   274.1724 </r>
       <r>    45.0306     5.4441   274.2630 </r>
       <r>    45.0472     4.4421   274.3369 </r>
       <r>    45.0639     4.9585   274.4193 </r>
       <r>    45.0805     4.0468   274.4867 </r>
       <r>    45.0971     4.8350   274.5671 </r>
       <r>    45.1138     8.5569   274.7094 </r>
       <r>    45.1304     7.2462   274.8299 </r>
       <r>    45.1470     6.4124   274.9366 </r>
       <r>    45.1637     9.7657   275.0990 </r>
       <r>    45.1803     8.0932   275.2337 </r>
       <r>    45.1969     5.7741   275.3297 </r>
       <r>    45.2136     6.0616   275.4305 </r>
       <r>    45.2302     4.7117   275.5089 </r>
       <r>    45.2468     5.4141   275.5990 </r>
       <r>    45.2635     5.6747   275.6934 </r>
       <r>    45.2801     6.3691   275.7993 </r>
       <r>    45.2967     6.8658   275.9135 </r>
       <r>    45.3134     9.6411   276.0739 </r>
       <r>    45.3300     9.3710   276.2297 </r>
       <r>    45.3466     8.5381   276.3718 </r>
       <r>    45.3633     6.5133   276.4801 </r>
       <r>    45.3799     5.5305   276.5721 </r>
       <r>    45.3965     4.3567   276.6446 </r>
       <r>    45.4132     5.8645   276.7421 </r>
       <r>    45.4298     4.0734   276.8099 </r>
       <r>    45.4464     7.6618   276.9373 </r>
       <r>    45.4631     8.8585   277.0847 </r>
       <r>    45.4797     5.9001   277.1828 </r>
       <r>    45.4963     4.6414   277.2600 </r>
       <r>    45.5130     8.8225   277.4067 </r>
       <r>    45.5296     9.6041   277.5665 </r>
       <r>    45.5462     7.4300   277.6901 </r>
       <r>    45.5629     8.4307   277.8303 </r>
       <r>    45.5795     6.4875   277.9382 </r>
       <r>    45.5961     5.6427   278.0321 </r>
       <r>    45.6128     8.0257   278.1656 </r>
       <r>    45.6294     6.2563   278.2697 </r>
       <r>    45.6460     7.3635   278.3921 </r>
       <r>    45.6627     9.8195   278.5555 </r>
       <r>    45.6793     8.5847   278.6983 </r>
       <r>    45.6959     5.6519   278.7923 </r>
       <r>    45.7126     5.1256   278.8775 </r>
       <r>    45.7292     6.5807   278.9870 </r>
       <r>    45.7458     6.8116   279.1003 </r>
       <r>    45.7625     6.7947   279.2133 </r>
       <r>    45.7791     8.2202   279.3500 </r>
       <r>    45.7957     9.1878   279.5029 </r>
       <r>    45.8124     7.6313   279.6298 </r>
       <r>    45.8290     7.0474   279.7470 </r>
       <r>    45.8456     5.3726   279.8364 </r>
       <r>    45.8623     7.1712   279.9557 </r>
       <r>    45.8789     6.9848   280.0719 </r>
       <r>    45.8955     5.0654   280.1561 </r>
       <r>    45.9122     6.0495   280.2567 </r>
       <r>    45.9288     5.8232   280.3536 </r>
       <r>    45.9454     2.5510   280.3960 </r>
       <r>    45.9621     4.9802   280.4789 </r>
       <r>    45.9787     8.0564   280.6129 </r>
       <r>    45.9953     8.0034   280.7460 </r>
       <r>    46.0120     9.4153   280.9026 </r>
       <r>    46.0286     7.0755   281.0203 </r>
       <r>    46.0452     6.7559   281.1327 </r>
       <r>    46.0619     6.0982   281.2341 </r>
       <r>    46.0785     5.4474   281.3247 </r>
       <r>    46.0951     6.3376   281.4302 </r>
       <r>    46.1118     5.1799   281.5163 </r>
       <r>    46.1284     4.4470   281.5903 </r>
       <r>    46.1450     7.9980   281.7233 </r>
       <r>    46.1617     9.0653   281.8741 </r>
       <r>    46.1783     7.0147   281.9908 </r>
       <r>    46.1949     4.3402   282.0630 </r>
       <r>    46.2116     7.2583   282.1837 </r>
       <r>    46.2282     7.0764   282.3014 </r>
       <r>    46.2448     6.2013   282.4046 </r>
       <r>    46.2615     8.6181   282.5479 </r>
       <r>    46.2781     7.2202   282.6680 </r>
       <r>    46.2947     8.8418   282.8151 </r>
       <r>    46.3114     9.7426   282.9771 </r>
       <r>    46.3280     7.0584   283.0946 </r>
       <r>    46.3446     9.6997   283.2559 </r>
       <r>    46.3613     9.2831   283.4103 </r>
       <r>    46.3779     3.9644   283.4762 </r>
       <r>    46.3945     5.8150   283.5730 </r>
       <r>    46.4112     6.8382   283.6867 </r>
       <r>    46.4278     5.9115   283.7850 </r>
       <r>    46.4444     4.8478   283.8657 </r>
       <r>    46.4611     4.3506   283.9380 </r>
       <r>    46.4777     4.8289   284.0184 </r>
       <r>    46.4943     6.3085   284.1233 </r>
       <r>    46.5110     8.9160   284.2716 </r>
       <r>    46.5276     6.8821   284.3861 </r>
       <r>    46.5442     7.9458   284.5183 </r>
       <r>    46.5609     7.4486   284.6421 </r>
       <r>    46.5775     4.2577   284.7130 </r>
       <r>    46.5941     4.9533   284.7954 </r>
       <r>    46.6108     7.2899   284.9166 </r>
       <r>    46.6274     4.8257   284.9969 </r>
       <r>    46.6440     5.8286   285.0938 </r>
       <r>    46.6607     4.9292   285.1758 </r>
       <r>    46.6773     5.3590   285.2650 </r>
       <r>    46.6940     6.4793   285.3727 </r>
       <r>    46.7106     5.5397   285.4649 </r>
       <r>    46.7272     5.7997   285.5614 </r>
       <r>    46.7439     6.1965   285.6644 </r>
       <r>    46.7605     6.1622   285.7669 </r>
       <r>    46.7771     4.6588   285.8444 </r>
       <r>    46.7938     7.0869   285.9623 </r>
       <r>    46.8104     6.8460   286.0762 </r>
       <r>    46.8270     5.9143   286.1746 </r>
       <r>    46.8437     5.3002   286.2627 </r>
       <r>    46.8603     6.1619   286.3652 </r>
       <r>    46.8769     5.2268   286.4522 </r>
       <r>    46.8936     4.2478   286.5228 </r>
       <r>    46.9102     5.4706   286.6138 </r>
       <r>    46.9268     5.9863   286.7134 </r>
       <r>    46.9435     2.3839   286.7530 </r>
       <r>    46.9601     3.7665   286.8157 </r>
       <r>    46.9767     4.0660   286.8833 </r>
       <r>    46.9934     2.4561   286.9242 </r>
       <r>    47.0100     4.8755   287.0053 </r>
       <r>    47.0266     5.3199   287.0938 </r>
       <r>    47.0433     4.0556   287.1612 </r>
       <r>    47.0599     4.3122   287.2329 </r>
       <r>    47.0765     3.3266   287.2883 </r>
       <r>    47.0932     1.9221   287.3202 </r>
       <r>    47.1098     1.6686   287.3480 </r>
       <r>    47.1264     1.4897   287.3728 </r>
       <r>    47.1431     1.5069   287.3978 </r>
       <r>    47.1597     2.1984   287.4344 </r>
       <r>    47.1763     3.0861   287.4857 </r>
       <r>    47.1930     2.8609   287.5333 </r>
       <r>    47.2096     2.1702   287.5694 </r>
       <r>    47.2262     2.0884   287.6042 </r>
       <r>    47.2429     1.9183   287.6361 </r>
       <r>    47.2595     1.8843   287.6674 </r>
       <r>    47.2761     1.2744   287.6886 </r>
       <r>    47.2928     1.8894   287.7201 </r>
       <r>    47.3094     2.9345   287.7689 </r>
       <r>    47.3260     2.7204   287.8141 </r>
       <r>    47.3427     1.7468   287.8432 </r>
       <r>    47.3593     0.9368   287.8588 </r>
       <r>    47.3759     1.1777   287.8783 </r>
       <r>    47.3926     1.1389   287.8973 </r>
       <r>    47.4092     0.0856   287.8987 </r>
       <r>    47.4258     0.6687   287.9098 </r>
       <r>    47.4425     0.8058   287.9232 </r>
       <r>    47.4591     0.0453   287.9240 </r>
       <r>    47.4757     0.7386   287.9363 </r>
       <r>    47.4924     1.1233   287.9550 </r>
       <r>    47.5090     0.4249   287.9620 </r>
       <r>    47.5256     0.3678   287.9681 </r>
       <r>    47.5423     0.0067   287.9683 </r>
       <r>    47.5589     0.0093   287.9684 </r>
       <r>    47.5755     0.2982   287.9734 </r>
       <r>    47.5922     0.4215   287.9804 </r>
       <r>    47.6088     0.0344   287.9810 </r>
       <r>    47.6254     0.0000   287.9810 </r>
       <r>    47.6421     0.0000   287.9810 </r>
       <r>    47.6587     0.0000   287.9810 </r>
       <r>    47.6753     0.0039   287.9810 </r>
       <r>    47.6920     0.1918   287.9842 </r>
       <r>    47.7086     0.1827   287.9872 </r>
       <r>    47.7252     0.0033   287.9873 </r>
       <r>    47.7419     0.0000   287.9873 </r>
       <r>    47.7585     0.0018   287.9873 </r>
       <r>    47.7751     0.2389   287.9913 </r>
       <r>    47.7918     0.4992   287.9996 </r>
       <r>    47.8084     0.0236   288.0000 </r>
       <r>    47.8250     0.0000   288.0000 </r>
       <r>    47.8417     0.0000   288.0000 </r>
       <r>    47.8583     0.0000   288.0000 </r>
       <r>    47.8749     0.0000   288.0000 </r>
       <r>    47.8916     0.0000   288.0000 </r>
       <r>    47.9082     0.0000   288.0000 </r>
       <r>    47.9248     0.0000   288.0000 </r>
       <r>    47.9415     0.0000   288.0000 </r>
       <r>    47.9581     0.0000   288.0000 </r>
       <r>    47.9747     0.0000   288.0000 </r>
       <r>    47.9914     0.0000   288.0000 </r>
       <r>    48.0080     0.0000   288.0000 </r>
       <r>    48.0246     0.0000   288.0000 </r>
       <r>    48.0413     0.0000   288.0000 </r>
       <r>    48.0579     0.0000   288.0000 </r>
       <r>    48.0745     0.0000   288.0000 </r>
       <r>    48.0912     0.0000   288.0000 </r>
       <r>    48.1078     0.0000   288.0000 </r>
       <r>    48.1244     0.0000   288.0000 </r>
       <r>    48.1411     0.0000   288.0000 </r>
       <r>    48.1577     0.0000   288.0000 </r>
       <r>    48.1743     0.0000   288.0000 </r>
       <r>    48.1910     0.0000   288.0000 </r>
       <r>    48.2076     0.0000   288.0000 </r>
       <r>    48.2242     0.0000   288.0000 </r>
       <r>    48.2409     0.0000   288.0000 </r>
       <r>    48.2575     0.0000   288.0000 </r>
       <r>    48.2741     0.0000   288.0000 </r>
       <r>    48.2908     0.0000   288.0000 </r>
       <r>    48.3074     0.0000   288.0000 </r>
       <r>    48.3240     0.0000   288.0000 </r>
       <r>    48.3407     0.0000   288.0000 </r>
       <r>    48.3573     0.0000   288.0000 </r>
       <r>    48.3739     0.0000   288.0000 </r>
       <r>    48.3906     0.0000   288.0000 </r>
       <r>    48.4072     0.0000   288.0000 </r>
       <r>    48.4239     0.0000   288.0000 </r>
       <r>    48.4405     0.0000   288.0000 </r>
       <r>    48.4571     0.0000   288.0000 </r>
       <r>    48.4738     0.0000   288.0000 </r>
       <r>    48.4904     0.0000   288.0000 </r>
       <r>    48.5070     0.0000   288.0000 </r>
       <r>    48.5237     0.0000   288.0000 </r>
       <r>    48.5403     0.0000   288.0000 </r>
       <r>    48.5569     0.0000   288.0000 </r>
       <r>    48.5736     0.0000   288.0000 </r>
       <r>    48.5902     0.0000   288.0000 </r>
       <r>    48.6068     0.0000   288.0000 </r>
       <r>    48.6235     0.0000   288.0000 </r>
       <r>    48.6401     0.0000   288.0000 </r>
       <r>    48.6567     0.0000   288.0000 </r>
       <r>    48.6734     0.0000   288.0000 </r>
       <r>    48.6900     0.0000   288.0000 </r>
       <r>    48.7066     0.0000   288.0000 </r>
       <r>    48.7233     0.0000   288.0000 </r>
       <r>    48.7399     0.0000   288.0000 </r>
       <r>    48.7565     0.0000   288.0000 </r>
       <r>    48.7732     0.0000   288.0000 </r>
       <r>    48.7898     0.0000   288.0000 </r>
       <r>    48.8064     0.0000   288.0000 </r>
       <r>    48.8231     0.0000   288.0000 </r>
       <r>    48.8397     0.0000   288.0000 </r>
       <r>    48.8563     0.0000   288.0000 </r>
       <r>    48.8730     0.0000   288.0000 </r>
       <r>    48.8896     0.0000   288.0000 </r>
       <r>    48.9062     0.0000   288.0000 </r>
       <r>    48.9229     0.0000   288.0000 </r>
       <r>    48.9395     0.0000   288.0000 </r>
       <r>    48.9561     0.0000   288.0000 </r>
       <r>    48.9728     0.0000   288.0000 </r>
       <r>    48.9894     0.0000   288.0000 </r>
       <r>    49.0060     0.0000   288.0000 </r>
       <r>    49.0227     0.0000   288.0000 </r>
       <r>    49.0393     0.0000   288.0000 </r>
       <r>    49.0559     0.0000   288.0000 </r>
       <r>    49.0726     0.0000   288.0000 </r>
       <r>    49.0892     0.0000   288.0000 </r>
       <r>    49.1058     0.0000   288.0000 </r>
       <r>    49.1225     0.0000   288.0000 </r>
       <r>    49.1391     0.0000   288.0000 </r>
       <r>    49.1557     0.0000   288.0000 </r>
       <r>    49.1724     0.0000   288.0000 </r>
       <r>    49.1890     0.0000   288.0000 </r>
       <r>    49.2056     0.0000   288.0000 </r>
       <r>    49.2223     0.0000   288.0000 </r>
       <r>    49.2389     0.0000   288.0000 </r>
       <r>    49.2555     0.0000   288.0000 </r>
       <r>    49.2722     0.0000   288.0000 </r>
       <r>    49.2888     0.0000   288.0000 </r>
       <r>    49.3054     0.0000   288.0000 </r>
       <r>    49.3221     0.0000   288.0000 </r>
       <r>    49.3387     0.0000   288.0000 </r>
       <r>    49.3553     0.0000   288.0000 </r>
       <r>    49.3720     0.0000   288.0000 </r>
       <r>    49.3886     0.0000   288.0000 </r>
       <r>    49.4052     0.0000   288.0000 </r>
       <r>    49.4219     0.0000   288.0000 </r>
       <r>    49.4385     0.0000   288.0000 </r>
       <r>    49.4551     0.0000   288.0000 </r>
       <r>    49.4718     0.0000   288.0000 </r>
       <r>    49.4884     0.0000   288.0000 </r>
       <r>    49.5050     0.0000   288.0000 </r>
       <r>    49.5217     0.0000   288.0000 </r>
       <r>    49.5383     0.0000   288.0000 </r>
       <r>    49.5549     0.0000   288.0000 </r>
       <r>    49.5716     0.0000   288.0000 </r>
       <r>    49.5882     0.0000   288.0000 </r>
       <r>    49.6048     0.0000   288.0000 </r>
       <r>    49.6215     0.0000   288.0000 </r>
       <r>    49.6381     0.0000   288.0000 </r>
       <r>    49.6547     0.0000   288.0000 </r>
       <r>    49.6714     0.0000   288.0000 </r>
       <r>    49.6880     0.0000   288.0000 </r>
       <r>    49.7046     0.0000   288.0000 </r>
       <r>    49.7213     0.0000   288.0000 </r>
       <r>    49.7379     0.0000   288.0000 </r>
       <r>    49.7545     0.0000   288.0000 </r>
       <r>    49.7712     0.0000   288.0000 </r>
       <r>    49.7878     0.0000   288.0000 </r>
       <r>    49.8044     0.0000   288.0000 </r>
       <r>    49.8211     0.0000   288.0000 </r>
       <r>    49.8377     0.0000   288.0000 </r>
       <r>    49.8543     0.0000   288.0000 </r>
       <r>    49.8710     0.0000   288.0000 </r>
       <r>    49.8876     0.0000   288.0000 </r>
       <r>    49.9042     0.0000   288.0000 </r>
       <r>    49.9209     0.0000   288.0000 </r>
       <r>    49.9375     0.0000   288.0000 </r>
       <r>    49.9541     0.0000   288.0000 </r>
       <r>    49.9708     0.0000   288.0000 </r>
       <r>    49.9874     0.0000   288.0000 </r>
       <r>    50.0040     0.0000   288.0000 </r>
       <r>    50.0207     0.0000   288.0000 </r>
       <r>    50.0373     0.0000   288.0000 </r>
       <r>    50.0539     0.0000   288.0000 </r>
       <r>    50.0706     0.0000   288.0000 </r>
       <r>    50.0872     0.0000   288.0000 </r>
       <r>    50.1038     0.0000   288.0000 </r>
       <r>    50.1205     0.0000   288.0000 </r>
       <r>    50.1371     0.0000   288.0000 </r>
       <r>    50.1538     0.0000   288.0000 </r>
       <r>    50.1704     0.0000   288.0000 </r>
       <r>    50.1870     0.0000   288.0000 </r>
       <r>    50.2037     0.0000   288.0000 </r>
       <r>    50.2203     0.0000   288.0000 </r>
       <r>    50.2369     0.0000   288.0000 </r>
       <r>    50.2536     0.0000   288.0000 </r>
       <r>    50.2702     0.0000   288.0000 </r>
       <r>    50.2868     0.0000   288.0000 </r>
       <r>    50.3035     0.0000   288.0000 </r>
       <r>    50.3201     0.0000   288.0000 </r>
       <r>    50.3367     0.0000   288.0000 </r>
       <r>    50.3534     0.0000   288.0000 </r>
       <r>    50.3700     0.0000   288.0000 </r>
       <r>    50.3866     0.0000   288.0000 </r>
       <r>    50.4033     0.0000   288.0000 </r>
       <r>    50.4199     0.0000   288.0000 </r>
       <r>    50.4365     0.0000   288.0000 </r>
       <r>    50.4532     0.0000   288.0000 </r>
       <r>    50.4698     0.0000   288.0000 </r>
       <r>    50.4864     0.0000   288.0000 </r>
       <r>    50.5031     0.0000   288.0000 </r>
       <r>    50.5197     0.0000   288.0000 </r>
       <r>    50.5363     0.0000   288.0000 </r>
       <r>    50.5530     0.0000   288.0000 </r>
       <r>    50.5696     0.0000   288.0000 </r>
       <r>    50.5862     0.0000   288.0000 </r>
       <r>    50.6029     0.0000   288.0000 </r>
       <r>    50.6195     0.0000   288.0000 </r>
       <r>    50.6361     0.0000   288.0000 </r>
       <r>    50.6528     0.0000   288.0000 </r>
       <r>    50.6694     0.0000   288.0000 </r>
       <r>    50.6860     0.0000   288.0000 </r>
       <r>    50.7027     0.0000   288.0000 </r>
       <r>    50.7193     0.0000   288.0000 </r>
       <r>    50.7359     0.0000   288.0000 </r>
       <r>    50.7526     0.0000   288.0000 </r>
       <r>    50.7692     0.0000   288.0000 </r>
       <r>    50.7858     0.0000   288.0000 </r>
       <r>    50.8025     0.0000   288.0000 </r>
      </set>
     </set>
    </array>
   </total>
  </dos>
 </calculation>
 <structure name="finalpos" >
  <crystal>
   <varray name="basis" >
    <v>       5.70097069       0.00000000       0.00000000 </v>
    <v>       0.00000000       4.04405810       0.00000000 </v>
    <v>       0.00000000       0.00000000       6.20187120 </v>
   </varray>
   <i name="volume">    142.98449202 </i>
   <varray name="rec_basis" >
    <v>       0.17540872       0.00000000       0.00000000 </v>
    <v>       0.00000000       0.24727637       0.00000000 </v>
    <v>       0.00000000       0.00000000       0.16124166 </v>
   </varray>
  </crystal>
  <varray name="positions" >
   <v>       0.52128988       0.50000000       0.63795770 </v>
   <v>       0.47871012       0.50000000       0.36204230 </v>
   <v>       0.97871012       0.50000000       0.63795770 </v>
   <v>       0.02128988       0.50000000       0.36204230 </v>
   <v>       0.59744966       0.50000000       0.89986832 </v>
   <v>       0.40255034       0.50000000       0.10013168 </v>
   <v>       0.90255034       0.50000000       0.89986832 </v>
   <v>       0.09744966       0.50000000       0.10013168 </v>
   <v>       0.75000000       0.79156493       0.72957940 </v>
   <v>       0.25000000       0.20843507       0.27042060 </v>
   <v>       0.75000000       0.20843507       0.72957940 </v>
   <v>       0.25000000       0.79156493       0.27042060 </v>
   <v>       0.25000000       0.50000000       0.52399303 </v>
   <v>       0.75000000       0.50000000       0.47600697 </v>
  </varray>
 </structure>
</modeling>
