  14  14   0   0
  0.1021960E+02  0.5697000E-09  0.4047900E-09  0.6204200E-09  0.5000000E-15
  1.000000000000000E-004
  CAR 
 Kpoints                                 
     17.97714501    -14.18679442  301      1.88546599      1.00000000
    -14.187  0.0000E+00  0.0000E+00
    -14.080  0.0000E+00  0.0000E+00
    -13.972  0.0000E+00  0.0000E+00
    -13.865  0.0000E+00  0.0000E+00
    -13.758  0.0000E+00  0.0000E+00
    -13.651  0.0000E+00  0.0000E+00
    -13.544  0.0000E+00  0.0000E+00
    -13.436  0.0000E+00  0.0000E+00
    -13.329  0.0000E+00  0.0000E+00
    -13.222  0.0000E+00  0.0000E+00
    -13.115  0.0000E+00  0.0000E+00
    -13.007  0.4602E-16  0.4934E-17
    -12.900  0.2962E-07  0.3176E-08
    -12.793  0.3819E-02  0.4094E-03
    -12.686  0.5089E+00  0.5497E-01
    -12.579  0.2391E+01  0.3113E+00
    -12.471  0.3565E+01  0.6936E+00
    -12.364  0.4371E+01  0.1162E+01
    -12.257  0.3538E+01  0.1542E+01
    -12.150  0.2734E+01  0.1835E+01
    -12.043  0.2751E+01  0.2130E+01
    -11.935  0.2505E+01  0.2398E+01
    -11.828  0.2770E+01  0.2695E+01
    -11.721  0.3427E+01  0.3063E+01
    -11.614  0.3535E+01  0.3442E+01
    -11.506  0.3114E+01  0.3775E+01
    -11.399  0.1666E+01  0.3954E+01
    -11.292  0.4210E+00  0.3999E+01
    -11.185  0.7229E-02  0.4000E+01
    -11.078  0.1736E-06  0.4000E+01
    -10.970  0.9139E-15  0.4000E+01
    -10.863  0.0000E+00  0.4000E+01
    -10.756  0.0000E+00  0.4000E+01
    -10.649  0.0000E+00  0.4000E+01
    -10.542  0.0000E+00  0.4000E+01
    -10.434  0.0000E+00  0.4000E+01
    -10.327  0.0000E+00  0.4000E+01
    -10.220  0.0000E+00  0.4000E+01
    -10.113  0.0000E+00  0.4000E+01
    -10.005  0.0000E+00  0.4000E+01
     -9.898  0.0000E+00  0.4000E+01
     -9.791  0.0000E+00  0.4000E+01
     -9.684  0.0000E+00  0.4000E+01
     -9.577  0.0000E+00  0.4000E+01
     -9.469  0.0000E+00  0.4000E+01
     -9.362  0.0000E+00  0.4000E+01
     -9.255  0.0000E+00  0.4000E+01
     -9.148  0.0000E+00  0.4000E+01
     -9.041  0.9364E-09  0.4000E+01
     -8.933  0.6221E-03  0.4000E+01
     -8.826  0.2761E+00  0.4030E+01
     -8.719  0.2090E+01  0.4254E+01
     -8.612  0.5330E+01  0.4825E+01
     -8.504  0.6986E+01  0.5574E+01
     -8.397  0.6299E+01  0.6250E+01
     -8.290  0.5325E+01  0.6820E+01
     -8.183  0.4834E+01  0.7339E+01
     -8.076  0.3873E+01  0.7754E+01
     -7.968  0.1666E+01  0.7933E+01
     -7.861  0.5773E+00  0.7994E+01
     -7.754  0.5184E-01  0.8000E+01
     -7.647  0.2383E-04  0.8000E+01
     -7.540  0.2651E-11  0.8000E+01
     -7.432  0.0000E+00  0.8000E+01
     -7.325  0.0000E+00  0.8000E+01
     -7.218  0.0000E+00  0.8000E+01
     -7.111  0.4775E-09  0.8000E+01
     -7.004  0.3940E-03  0.8000E+01
     -6.896  0.1128E+00  0.8012E+01
     -6.789  0.2577E+00  0.8040E+01
     -6.682  0.4260E+00  0.8085E+01
     -6.575  0.7659E+00  0.8168E+01
     -6.467  0.8511E+00  0.8259E+01
     -6.360  0.1445E+01  0.8414E+01
     -6.253  0.1963E+01  0.8624E+01
     -6.146  0.3057E+01  0.8952E+01
     -6.039  0.3783E+01  0.9358E+01
     -5.931  0.4113E+01  0.9799E+01
     -5.824  0.4046E+01  0.1023E+02
     -5.717  0.3861E+01  0.1065E+02
     -5.610  0.4072E+01  0.1108E+02
     -5.503  0.4221E+01  0.1154E+02
     -5.395  0.4544E+01  0.1202E+02
     -5.288  0.4597E+01  0.1252E+02
     -5.181  0.4490E+01  0.1300E+02
     -5.074  0.3868E+01  0.1341E+02
     -4.966  0.3227E+01  0.1376E+02
     -4.859  0.2953E+01  0.1407E+02
     -4.752  0.2335E+01  0.1432E+02
     -4.645  0.2895E+01  0.1464E+02
     -4.538  0.3368E+01  0.1500E+02
     -4.430  0.3470E+01  0.1537E+02
     -4.323  0.3334E+01  0.1573E+02
     -4.216  0.2954E+01  0.1604E+02
     -4.109  0.2906E+01  0.1635E+02
     -4.002  0.2945E+01  0.1667E+02
     -3.894  0.2860E+01  0.1698E+02
     -3.787  0.3118E+01  0.1731E+02
     -3.680  0.2876E+01  0.1762E+02
     -3.573  0.2703E+01  0.1791E+02
     -3.465  0.3066E+01  0.1824E+02
     -3.358  0.2637E+01  0.1852E+02
     -3.251  0.2860E+01  0.1883E+02
     -3.144  0.2746E+01  0.1912E+02
     -3.037  0.2738E+01  0.1942E+02
     -2.929  0.3046E+01  0.1974E+02
     -2.822  0.2975E+01  0.2006E+02
     -2.715  0.2431E+01  0.2032E+02
     -2.608  0.2655E+01  0.2061E+02
     -2.501  0.3019E+01  0.2093E+02
     -2.393  0.2985E+01  0.2125E+02
     -2.286  0.3192E+01  0.2159E+02
     -2.179  0.4009E+01  0.2202E+02
     -2.072  0.3657E+01  0.2241E+02
     -1.964  0.3273E+01  0.2276E+02
     -1.857  0.5120E+01  0.2331E+02
     -1.750  0.5578E+01  0.2391E+02
     -1.643  0.5603E+01  0.2451E+02
     -1.536  0.6180E+01  0.2517E+02
     -1.428  0.6107E+01  0.2583E+02
     -1.321  0.5572E+01  0.2643E+02
     -1.214  0.4683E+01  0.2693E+02
     -1.107  0.6493E+01  0.2763E+02
     -1.000  0.3987E+01  0.2805E+02
     -0.892  0.2270E+01  0.2830E+02
     -0.785  0.2697E+01  0.2859E+02
     -0.678  0.2880E+01  0.2889E+02
     -0.571  0.4516E+01  0.2938E+02
     -0.464  0.6863E+01  0.3011E+02
     -0.356  0.5659E+01  0.3072E+02
     -0.249  0.6705E+01  0.3144E+02
     -0.142  0.6357E+01  0.3212E+02
     -0.035  0.6746E+01  0.3284E+02
      0.073  0.6760E+01  0.3357E+02
      0.180  0.6292E+01  0.3424E+02
      0.287  0.8797E+01  0.3519E+02
      0.394  0.7982E+01  0.3604E+02
      0.501  0.8696E+01  0.3698E+02
      0.609  0.5259E+01  0.3754E+02
      0.716  0.2938E+01  0.3785E+02
      0.823  0.3291E+01  0.3821E+02
      0.930  0.3589E+01  0.3859E+02
      1.037  0.3561E+01  0.3897E+02
      1.145  0.2791E+01  0.3927E+02
      1.252  0.3390E+01  0.3964E+02
      1.359  0.4495E+01  0.4012E+02
      1.466  0.3780E+01  0.4052E+02
      1.574  0.3720E+01  0.4092E+02
      1.681  0.4576E+01  0.4141E+02
      1.788  0.3235E+01  0.4176E+02
      1.895  0.2479E+01  0.4203E+02
      2.002  0.2660E+01  0.4231E+02
      2.110  0.2091E+01  0.4253E+02
      2.217  0.2650E+01  0.4282E+02
      2.324  0.2572E+01  0.4309E+02
      2.431  0.1938E+01  0.4330E+02
      2.538  0.8531E+00  0.4339E+02
      2.646  0.3782E+00  0.4343E+02
      2.753  0.5724E+00  0.4350E+02
      2.860  0.4194E+00  0.4354E+02
      2.967  0.3054E+00  0.4357E+02
      3.075  0.7572E+00  0.4365E+02
      3.182  0.1014E+01  0.4376E+02
      3.289  0.5387E+00  0.4382E+02
      3.396  0.1311E-01  0.4382E+02
      3.503  0.1309E+00  0.4384E+02
      3.611  0.3950E+00  0.4388E+02
      3.718  0.3305E+00  0.4391E+02
      3.825  0.3716E+00  0.4395E+02
      3.932  0.4028E+00  0.4400E+02
      4.039  0.2681E-01  0.4400E+02
      4.147  0.2833E-04  0.4400E+02
      4.254  0.3139E-01  0.4400E+02
      4.361  0.1763E+00  0.4402E+02
      4.468  0.4025E+00  0.4407E+02
      4.576  0.4710E+00  0.4412E+02
      4.683  0.6341E+00  0.4418E+02
      4.790  0.8890E+00  0.4428E+02
      4.897  0.8413E+00  0.4437E+02
      5.004  0.8568E+00  0.4446E+02
      5.112  0.1277E+01  0.4460E+02
      5.219  0.1152E+01  0.4472E+02
      5.326  0.1632E+01  0.4490E+02
      5.433  0.2191E+01  0.4513E+02
      5.540  0.2487E+01  0.4540E+02
      5.648  0.2788E+01  0.4570E+02
      5.755  0.3368E+01  0.4606E+02
      5.862  0.3219E+01  0.4640E+02
      5.969  0.4313E+01  0.4687E+02
      6.076  0.4757E+01  0.4738E+02
      6.184  0.4044E+01  0.4781E+02
      6.291  0.4624E+01  0.4830E+02
      6.398  0.4152E+01  0.4875E+02
      6.505  0.4017E+01  0.4918E+02
      6.613  0.4480E+01  0.4966E+02
      6.720  0.3227E+01  0.5001E+02
      6.827  0.3998E+01  0.5044E+02
      6.934  0.4614E+01  0.5093E+02
      7.041  0.4553E+01  0.5142E+02
      7.149  0.4339E+01  0.5188E+02
      7.256  0.5600E+01  0.5248E+02
      7.363  0.4923E+01  0.5301E+02
      7.470  0.4452E+01  0.5349E+02
      7.577  0.4191E+01  0.5394E+02
      7.685  0.3565E+01  0.5432E+02
      7.792  0.3125E+01  0.5466E+02
      7.899  0.3010E+01  0.5498E+02
      8.006  0.2979E+01  0.5530E+02
      8.114  0.4167E+01  0.5574E+02
      8.221  0.3889E+01  0.5616E+02
      8.328  0.3686E+01  0.5656E+02
      8.435  0.3991E+01  0.5698E+02
      8.542  0.4216E+01  0.5744E+02
      8.650  0.4456E+01  0.5791E+02
      8.757  0.4222E+01  0.5837E+02
      8.864  0.5266E+01  0.5893E+02
      8.971  0.4944E+01  0.5946E+02
      9.078  0.5292E+01  0.6003E+02
      9.186  0.5238E+01  0.6059E+02
      9.293  0.4971E+01  0.6112E+02
      9.400  0.4689E+01  0.6163E+02
      9.507  0.4367E+01  0.6209E+02
      9.615  0.5105E+01  0.6264E+02
      9.722  0.5027E+01  0.6318E+02
      9.829  0.5301E+01  0.6375E+02
      9.936  0.4478E+01  0.6423E+02
     10.043  0.3635E+01  0.6462E+02
     10.151  0.5176E+01  0.6517E+02
     10.258  0.4716E+01  0.6568E+02
     10.365  0.4117E+01  0.6612E+02
     10.472  0.5415E+01  0.6670E+02
     10.579  0.5809E+01  0.6732E+02
     10.687  0.4066E+01  0.6776E+02
     10.794  0.3885E+01  0.6818E+02
     10.901  0.3236E+01  0.6852E+02
     11.008  0.4673E+01  0.6902E+02
     11.116  0.5483E+01  0.6961E+02
     11.223  0.6194E+01  0.7028E+02
     11.330  0.5990E+01  0.7092E+02
     11.437  0.5285E+01  0.7149E+02
     11.544  0.4300E+01  0.7195E+02
     11.652  0.4475E+01  0.7243E+02
     11.759  0.4933E+01  0.7295E+02
     11.866  0.4807E+01  0.7347E+02
     11.973  0.6034E+01  0.7412E+02
     12.080  0.5961E+01  0.7476E+02
     12.188  0.5986E+01  0.7540E+02
     12.295  0.5616E+01  0.7600E+02
     12.402  0.5005E+01  0.7654E+02
     12.509  0.5687E+01  0.7715E+02
     12.616  0.5990E+01  0.7779E+02
     12.724  0.6021E+01  0.7843E+02
     12.831  0.5886E+01  0.7907E+02
     12.938  0.5862E+01  0.7969E+02
     13.045  0.5596E+01  0.8029E+02
     13.153  0.6349E+01  0.8097E+02
     13.260  0.6257E+01  0.8165E+02
     13.367  0.5391E+01  0.8222E+02
     13.474  0.6132E+01  0.8288E+02
     13.581  0.5342E+01  0.8345E+02
     13.689  0.4809E+01  0.8397E+02
     13.796  0.6136E+01  0.8463E+02
     13.903  0.5520E+01  0.8522E+02
     14.010  0.5345E+01  0.8579E+02
     14.117  0.5475E+01  0.8638E+02
     14.225  0.4681E+01  0.8688E+02
     14.332  0.4908E+01  0.8741E+02
     14.439  0.5019E+01  0.8795E+02
     14.546  0.4962E+01  0.8848E+02
     14.654  0.5271E+01  0.8904E+02
     14.761  0.5166E+01  0.8960E+02
     14.868  0.4091E+01  0.9003E+02
     14.975  0.5084E+01  0.9058E+02
     15.082  0.6188E+01  0.9124E+02
     15.190  0.5635E+01  0.9185E+02
     15.297  0.5681E+01  0.9246E+02
     15.404  0.6027E+01  0.9310E+02
     15.511  0.5731E+01  0.9372E+02
     15.618  0.5950E+01  0.9436E+02
     15.726  0.4588E+01  0.9485E+02
     15.833  0.2466E+01  0.9511E+02
     15.940  0.2707E+01  0.9540E+02
     16.047  0.1858E+01  0.9560E+02
     16.155  0.1144E+01  0.9572E+02
     16.262  0.8896E+00  0.9582E+02
     16.369  0.6990E+00  0.9589E+02
     16.476  0.8129E+00  0.9598E+02
     16.583  0.1759E+00  0.9600E+02
     16.691  0.1682E-02  0.9600E+02
     16.798  0.2066E-07  0.9600E+02
     16.905  0.3945E-16  0.9600E+02
     17.012  0.0000E+00  0.9600E+02
     17.119  0.0000E+00  0.9600E+02
     17.227  0.0000E+00  0.9600E+02
     17.334  0.0000E+00  0.9600E+02
     17.441  0.0000E+00  0.9600E+02
     17.548  0.0000E+00  0.9600E+02
     17.656  0.0000E+00  0.9600E+02
     17.763  0.0000E+00  0.9600E+02
     17.870  0.0000E+00  0.9600E+02
     17.977  0.0000E+00  0.9600E+02
