       N       E                     dE             d eps       ncg     rms          rms(c)
DAV:   1     0.255338704237E+02    0.25534E+02   -0.14941E+04 16800   0.577E+02
DAV:   2    -0.940518370571E+02   -0.11959E+03   -0.11304E+03 23808   0.128E+02
DAV:   3    -0.975853819166E+02   -0.35335E+01   -0.35219E+01 24024   0.202E+01
DAV:   4    -0.976055831588E+02   -0.20201E-01   -0.20200E-01 21696   0.168E+00
DAV:   5    -0.976058227764E+02   -0.23962E-03   -0.23961E-03 23688   0.181E-01    0.124E+01
DAV:   6    -0.921946361092E+02    0.54112E+01   -0.39463E+00 24336   0.654E+00    0.681E+00
DAV:   7    -0.905440804031E+02    0.16506E+01   -0.32116E+00 25176   0.582E+00    0.171E+00
DAV:   8    -0.905562497215E+02   -0.12169E-01   -0.23050E-01 18504   0.162E+00    0.714E-01
DAV:   9    -0.905704551077E+02   -0.14205E-01   -0.16894E-02 23568   0.431E-01    0.199E-01
DAV:  10    -0.905744335111E+02   -0.39784E-02   -0.20480E-03 18984   0.157E-01    0.614E-02
DAV:  11    -0.905755284398E+02   -0.10949E-02   -0.64703E-04 21456   0.853E-02    0.324E-02
DAV:  12    -0.905756434011E+02   -0.11496E-03   -0.90161E-05 20880   0.343E-02    0.433E-03
DAV:  13    -0.905756481333E+02   -0.47322E-05   -0.38727E-06 23448   0.773E-03    0.187E-03
DAV:  14    -0.905756487793E+02   -0.64600E-06   -0.26078E-07 20280   0.195E-03
   1 F= -.90575649E+02 E0= -.90574043E+02  d E =-.321125E-02
