<?xml version="1.0" encoding="ISO-8859-1"?>
<modeling>
 <generator>
  <i name="program" type="string">vasp </i>
  <i name="version" type="string">6.4.3  </i>
  <i name="subversion" type="string">19Mar24 (build May 31 2024 16:31:43) complex                          parallel </i>
  <i name="platform" type="string">LinuxIFC </i>
  <i name="date" type="string">2024 10 30 </i>
  <i name="time" type="string">19:31:20 </i>
 </generator>
 <incar>
  <i type="string" name="SYSTEM">Kpoints</i>
  <i type="int" name="ISTART">     0</i>
  <i type="string" name="PREC">Accurate</i>
  <i type="string" name="ALGO">Normal</i>
  <i type="int" name="ISPIN">     1</i>
  <i type="int" name="ICHARG">     2</i>
  <i type="int" name="NELM">   100</i>
  <i type="int" name="IBRION">    -1</i>
  <i name="EDIFF">      0.00000100</i>
  <i name="EDIFFG">     -0.00100000</i>
  <i type="int" name="NSW">     0</i>
  <i type="int" name="ISIF">     2</i>
  <i name="ENCUT">    260.00000000</i>
  <i name="POTIM">      0.50000000</i>
  <i type="int" name="ISMEAR">     0</i>
  <i name="SIGMA">      0.05000000</i>
  <i type="logical" name="LWAVE"> F  </i>
  <i type="logical" name="LCHARG"> F  </i>
  <i type="string" name="GGA">PE</i>
 </incar>
 <primitive_cell>
  <structure name="primitive_cell" >
   <crystal>
    <varray name="basis" >
     <v>       5.69700000       0.00000000       0.00000000 </v>
     <v>       0.00000000       4.04790000       0.00000000 </v>
     <v>       0.00000000       0.00000000       6.20420000 </v>
    </varray>
    <i name="volume">    143.07435078 </i>
    <varray name="rec_basis" >
     <v>       0.17553098       0.00000000       0.00000000 </v>
     <v>       0.00000000       0.24704168       0.00000000 </v>
     <v>       0.00000000       0.00000000       0.16118114 </v>
    </varray>
   </crystal>
   <varray name="positions" >
    <v>       0.52123000       0.50000000       0.63796000 </v>
    <v>       0.47877000       0.50000000       0.36204000 </v>
    <v>       0.97877000       0.50000000       0.63796000 </v>
    <v>       0.02123000       0.50000000       0.36204000 </v>
    <v>       0.60090000       0.50000000       0.89991000 </v>
    <v>       0.39910000       0.50000000       0.10009000 </v>
    <v>       0.89910000       0.50000000       0.89991000 </v>
    <v>       0.10090000       0.50000000       0.10009000 </v>
    <v>       0.75000000       0.79171000       0.72973000 </v>
    <v>       0.25000000       0.20829000       0.27027000 </v>
    <v>       0.75000000       0.20829000       0.72973000 </v>
    <v>       0.25000000       0.79171000       0.27027000 </v>
    <v>       0.25000000       0.50000000       0.52367000 </v>
    <v>       0.75000000       0.50000000       0.47633000 </v>
   </varray>
  </structure>
  <varray name="primitive_index" >
   <v type="int" >        1 </v>
   <v type="int" >        2 </v>
   <v type="int" >        3 </v>
   <v type="int" >        4 </v>
   <v type="int" >        5 </v>
   <v type="int" >        6 </v>
   <v type="int" >        7 </v>
   <v type="int" >        8 </v>
   <v type="int" >        9 </v>
   <v type="int" >       10 </v>
   <v type="int" >       11 </v>
   <v type="int" >       12 </v>
   <v type="int" >       13 </v>
   <v type="int" >       14 </v>
  </varray>
 </primitive_cell>
 <kpoints>
  <generation param="Monkhorst-Pack">
   <v type="int" name="divisions">      10       14        9 </v>
   <v name="usershift">      0.00000000       0.00000000       0.00000000 </v>
   <v name="genvec1">      0.10000000       0.00000000       0.00000000 </v>
   <v name="genvec2">      0.00000000       0.07142857       0.00000000 </v>
   <v name="genvec3">      0.00000000       0.00000000       0.11111111 </v>
   <v name="shift">      0.50000000       0.50000000       0.00000000 </v>
  </generation>
  <varray name="kpointlist" >
   <v>       0.05000000       0.03571429       0.00000000 </v>
   <v>       0.15000000       0.03571429       0.00000000 </v>
   <v>       0.25000000       0.03571429       0.00000000 </v>
   <v>       0.35000000       0.03571429       0.00000000 </v>
   <v>       0.45000000       0.03571429       0.00000000 </v>
   <v>       0.05000000       0.10714286       0.00000000 </v>
   <v>       0.15000000       0.10714286       0.00000000 </v>
   <v>       0.25000000       0.10714286       0.00000000 </v>
   <v>       0.35000000       0.10714286       0.00000000 </v>
   <v>       0.45000000       0.10714286       0.00000000 </v>
   <v>       0.05000000       0.17857143       0.00000000 </v>
   <v>       0.15000000       0.17857143       0.00000000 </v>
   <v>       0.25000000       0.17857143       0.00000000 </v>
   <v>       0.35000000       0.17857143       0.00000000 </v>
   <v>       0.45000000       0.17857143       0.00000000 </v>
   <v>       0.05000000       0.25000000       0.00000000 </v>
   <v>       0.15000000       0.25000000       0.00000000 </v>
   <v>       0.25000000       0.25000000       0.00000000 </v>
   <v>       0.35000000       0.25000000       0.00000000 </v>
   <v>       0.45000000       0.25000000       0.00000000 </v>
   <v>       0.05000000       0.32142857       0.00000000 </v>
   <v>       0.15000000       0.32142857       0.00000000 </v>
   <v>       0.25000000       0.32142857       0.00000000 </v>
   <v>       0.35000000       0.32142857       0.00000000 </v>
   <v>       0.45000000       0.32142857       0.00000000 </v>
   <v>       0.05000000       0.39285714       0.00000000 </v>
   <v>       0.15000000       0.39285714       0.00000000 </v>
   <v>       0.25000000       0.39285714       0.00000000 </v>
   <v>       0.35000000       0.39285714       0.00000000 </v>
   <v>       0.45000000       0.39285714       0.00000000 </v>
   <v>       0.05000000       0.46428571       0.00000000 </v>
   <v>       0.15000000       0.46428571       0.00000000 </v>
   <v>       0.25000000       0.46428571       0.00000000 </v>
   <v>       0.35000000       0.46428571       0.00000000 </v>
   <v>       0.45000000       0.46428571       0.00000000 </v>
   <v>       0.05000000       0.03571429       0.11111111 </v>
   <v>       0.15000000       0.03571429       0.11111111 </v>
   <v>       0.25000000       0.03571429       0.11111111 </v>
   <v>       0.35000000       0.03571429       0.11111111 </v>
   <v>       0.45000000       0.03571429       0.11111111 </v>
   <v>       0.05000000       0.10714286       0.11111111 </v>
   <v>       0.15000000       0.10714286       0.11111111 </v>
   <v>       0.25000000       0.10714286       0.11111111 </v>
   <v>       0.35000000       0.10714286       0.11111111 </v>
   <v>       0.45000000       0.10714286       0.11111111 </v>
   <v>       0.05000000       0.17857143       0.11111111 </v>
   <v>       0.15000000       0.17857143       0.11111111 </v>
   <v>       0.25000000       0.17857143       0.11111111 </v>
   <v>       0.35000000       0.17857143       0.11111111 </v>
   <v>       0.45000000       0.17857143       0.11111111 </v>
   <v>       0.05000000       0.25000000       0.11111111 </v>
   <v>       0.15000000       0.25000000       0.11111111 </v>
   <v>       0.25000000       0.25000000       0.11111111 </v>
   <v>       0.35000000       0.25000000       0.11111111 </v>
   <v>       0.45000000       0.25000000       0.11111111 </v>
   <v>       0.05000000       0.32142857       0.11111111 </v>
   <v>       0.15000000       0.32142857       0.11111111 </v>
   <v>       0.25000000       0.32142857       0.11111111 </v>
   <v>       0.35000000       0.32142857       0.11111111 </v>
   <v>       0.45000000       0.32142857       0.11111111 </v>
   <v>       0.05000000       0.39285714       0.11111111 </v>
   <v>       0.15000000       0.39285714       0.11111111 </v>
   <v>       0.25000000       0.39285714       0.11111111 </v>
   <v>       0.35000000       0.39285714       0.11111111 </v>
   <v>       0.45000000       0.39285714       0.11111111 </v>
   <v>       0.05000000       0.46428571       0.11111111 </v>
   <v>       0.15000000       0.46428571       0.11111111 </v>
   <v>       0.25000000       0.46428571       0.11111111 </v>
   <v>       0.35000000       0.46428571       0.11111111 </v>
   <v>       0.45000000       0.46428571       0.11111111 </v>
   <v>       0.05000000       0.03571429       0.22222222 </v>
   <v>       0.15000000       0.03571429       0.22222222 </v>
   <v>       0.25000000       0.03571429       0.22222222 </v>
   <v>       0.35000000       0.03571429       0.22222222 </v>
   <v>       0.45000000       0.03571429       0.22222222 </v>
   <v>       0.05000000       0.10714286       0.22222222 </v>
   <v>       0.15000000       0.10714286       0.22222222 </v>
   <v>       0.25000000       0.10714286       0.22222222 </v>
   <v>       0.35000000       0.10714286       0.22222222 </v>
   <v>       0.45000000       0.10714286       0.22222222 </v>
   <v>       0.05000000       0.17857143       0.22222222 </v>
   <v>       0.15000000       0.17857143       0.22222222 </v>
   <v>       0.25000000       0.17857143       0.22222222 </v>
   <v>       0.35000000       0.17857143       0.22222222 </v>
   <v>       0.45000000       0.17857143       0.22222222 </v>
   <v>       0.05000000       0.25000000       0.22222222 </v>
   <v>       0.15000000       0.25000000       0.22222222 </v>
   <v>       0.25000000       0.25000000       0.22222222 </v>
   <v>       0.35000000       0.25000000       0.22222222 </v>
   <v>       0.45000000       0.25000000       0.22222222 </v>
   <v>       0.05000000       0.32142857       0.22222222 </v>
   <v>       0.15000000       0.32142857       0.22222222 </v>
   <v>       0.25000000       0.32142857       0.22222222 </v>
   <v>       0.35000000       0.32142857       0.22222222 </v>
   <v>       0.45000000       0.32142857       0.22222222 </v>
   <v>       0.05000000       0.39285714       0.22222222 </v>
   <v>       0.15000000       0.39285714       0.22222222 </v>
   <v>       0.25000000       0.39285714       0.22222222 </v>
   <v>       0.35000000       0.39285714       0.22222222 </v>
   <v>       0.45000000       0.39285714       0.22222222 </v>
   <v>       0.05000000       0.46428571       0.22222222 </v>
   <v>       0.15000000       0.46428571       0.22222222 </v>
   <v>       0.25000000       0.46428571       0.22222222 </v>
   <v>       0.35000000       0.46428571       0.22222222 </v>
   <v>       0.45000000       0.46428571       0.22222222 </v>
   <v>       0.05000000       0.03571429       0.33333333 </v>
   <v>       0.15000000       0.03571429       0.33333333 </v>
   <v>       0.25000000       0.03571429       0.33333333 </v>
   <v>       0.35000000       0.03571429       0.33333333 </v>
   <v>       0.45000000       0.03571429       0.33333333 </v>
   <v>       0.05000000       0.10714286       0.33333333 </v>
   <v>       0.15000000       0.10714286       0.33333333 </v>
   <v>       0.25000000       0.10714286       0.33333333 </v>
   <v>       0.35000000       0.10714286       0.33333333 </v>
   <v>       0.45000000       0.10714286       0.33333333 </v>
   <v>       0.05000000       0.17857143       0.33333333 </v>
   <v>       0.15000000       0.17857143       0.33333333 </v>
   <v>       0.25000000       0.17857143       0.33333333 </v>
   <v>       0.35000000       0.17857143       0.33333333 </v>
   <v>       0.45000000       0.17857143       0.33333333 </v>
   <v>       0.05000000       0.25000000       0.33333333 </v>
   <v>       0.15000000       0.25000000       0.33333333 </v>
   <v>       0.25000000       0.25000000       0.33333333 </v>
   <v>       0.35000000       0.25000000       0.33333333 </v>
   <v>       0.45000000       0.25000000       0.33333333 </v>
   <v>       0.05000000       0.32142857       0.33333333 </v>
   <v>       0.15000000       0.32142857       0.33333333 </v>
   <v>       0.25000000       0.32142857       0.33333333 </v>
   <v>       0.35000000       0.32142857       0.33333333 </v>
   <v>       0.45000000       0.32142857       0.33333333 </v>
   <v>       0.05000000       0.39285714       0.33333333 </v>
   <v>       0.15000000       0.39285714       0.33333333 </v>
   <v>       0.25000000       0.39285714       0.33333333 </v>
   <v>       0.35000000       0.39285714       0.33333333 </v>
   <v>       0.45000000       0.39285714       0.33333333 </v>
   <v>       0.05000000       0.46428571       0.33333333 </v>
   <v>       0.15000000       0.46428571       0.33333333 </v>
   <v>       0.25000000       0.46428571       0.33333333 </v>
   <v>       0.35000000       0.46428571       0.33333333 </v>
   <v>       0.45000000       0.46428571       0.33333333 </v>
   <v>       0.05000000       0.03571429       0.44444444 </v>
   <v>       0.15000000       0.03571429       0.44444444 </v>
   <v>       0.25000000       0.03571429       0.44444444 </v>
   <v>       0.35000000       0.03571429       0.44444444 </v>
   <v>       0.45000000       0.03571429       0.44444444 </v>
   <v>       0.05000000       0.10714286       0.44444444 </v>
   <v>       0.15000000       0.10714286       0.44444444 </v>
   <v>       0.25000000       0.10714286       0.44444444 </v>
   <v>       0.35000000       0.10714286       0.44444444 </v>
   <v>       0.45000000       0.10714286       0.44444444 </v>
   <v>       0.05000000       0.17857143       0.44444444 </v>
   <v>       0.15000000       0.17857143       0.44444444 </v>
   <v>       0.25000000       0.17857143       0.44444444 </v>
   <v>       0.35000000       0.17857143       0.44444444 </v>
   <v>       0.45000000       0.17857143       0.44444444 </v>
   <v>       0.05000000       0.25000000       0.44444444 </v>
   <v>       0.15000000       0.25000000       0.44444444 </v>
   <v>       0.25000000       0.25000000       0.44444444 </v>
   <v>       0.35000000       0.25000000       0.44444444 </v>
   <v>       0.45000000       0.25000000       0.44444444 </v>
   <v>       0.05000000       0.32142857       0.44444444 </v>
   <v>       0.15000000       0.32142857       0.44444444 </v>
   <v>       0.25000000       0.32142857       0.44444444 </v>
   <v>       0.35000000       0.32142857       0.44444444 </v>
   <v>       0.45000000       0.32142857       0.44444444 </v>
   <v>       0.05000000       0.39285714       0.44444444 </v>
   <v>       0.15000000       0.39285714       0.44444444 </v>
   <v>       0.25000000       0.39285714       0.44444444 </v>
   <v>       0.35000000       0.39285714       0.44444444 </v>
   <v>       0.45000000       0.39285714       0.44444444 </v>
   <v>       0.05000000       0.46428571       0.44444444 </v>
   <v>       0.15000000       0.46428571       0.44444444 </v>
   <v>       0.25000000       0.46428571       0.44444444 </v>
   <v>       0.35000000       0.46428571       0.44444444 </v>
   <v>       0.45000000       0.46428571       0.44444444 </v>
  </varray>
  <varray name="weights" >
   <v>       0.00317460 </v>
   <v>       0.00317460 </v>
   <v>       0.00317460 </v>
   <v>       0.00317460 </v>
   <v>       0.00317460 </v>
   <v>       0.00317460 </v>
   <v>       0.00317460 </v>
   <v>       0.00317460 </v>
   <v>       0.00317460 </v>
   <v>       0.00317460 </v>
   <v>       0.00317460 </v>
   <v>       0.00317460 </v>
   <v>       0.00317460 </v>
   <v>       0.00317460 </v>
   <v>       0.00317460 </v>
   <v>       0.00317460 </v>
   <v>       0.00317460 </v>
   <v>       0.00317460 </v>
   <v>       0.00317460 </v>
   <v>       0.00317460 </v>
   <v>       0.00317460 </v>
   <v>       0.00317460 </v>
   <v>       0.00317460 </v>
   <v>       0.00317460 </v>
   <v>       0.00317460 </v>
   <v>       0.00317460 </v>
   <v>       0.00317460 </v>
   <v>       0.00317460 </v>
   <v>       0.00317460 </v>
   <v>       0.00317460 </v>
   <v>       0.00317460 </v>
   <v>       0.00317460 </v>
   <v>       0.00317460 </v>
   <v>       0.00317460 </v>
   <v>       0.00317460 </v>
   <v>       0.00634921 </v>
   <v>       0.00634921 </v>
   <v>       0.00634921 </v>
   <v>       0.00634921 </v>
   <v>       0.00634921 </v>
   <v>       0.00634921 </v>
   <v>       0.00634921 </v>
   <v>       0.00634921 </v>
   <v>       0.00634921 </v>
   <v>       0.00634921 </v>
   <v>       0.00634921 </v>
   <v>       0.00634921 </v>
   <v>       0.00634921 </v>
   <v>       0.00634921 </v>
   <v>       0.00634921 </v>
   <v>       0.00634921 </v>
   <v>       0.00634921 </v>
   <v>       0.00634921 </v>
   <v>       0.00634921 </v>
   <v>       0.00634921 </v>
   <v>       0.00634921 </v>
   <v>       0.00634921 </v>
   <v>       0.00634921 </v>
   <v>       0.00634921 </v>
   <v>       0.00634921 </v>
   <v>       0.00634921 </v>
   <v>       0.00634921 </v>
   <v>       0.00634921 </v>
   <v>       0.00634921 </v>
   <v>       0.00634921 </v>
   <v>       0.00634921 </v>
   <v>       0.00634921 </v>
   <v>       0.00634921 </v>
   <v>       0.00634921 </v>
   <v>       0.00634921 </v>
   <v>       0.00634921 </v>
   <v>       0.00634921 </v>
   <v>       0.00634921 </v>
   <v>       0.00634921 </v>
   <v>       0.00634921 </v>
   <v>       0.00634921 </v>
   <v>       0.00634921 </v>
   <v>       0.00634921 </v>
   <v>       0.00634921 </v>
   <v>       0.00634921 </v>
   <v>       0.00634921 </v>
   <v>       0.00634921 </v>
   <v>       0.00634921 </v>
   <v>       0.00634921 </v>
   <v>       0.00634921 </v>
   <v>       0.00634921 </v>
   <v>       0.00634921 </v>
   <v>       0.00634921 </v>
   <v>       0.00634921 </v>
   <v>       0.00634921 </v>
   <v>       0.00634921 </v>
   <v>       0.00634921 </v>
   <v>       0.00634921 </v>
   <v>       0.00634921 </v>
   <v>       0.00634921 </v>
   <v>       0.00634921 </v>
   <v>       0.00634921 </v>
   <v>       0.00634921 </v>
   <v>       0.00634921 </v>
   <v>       0.00634921 </v>
   <v>       0.00634921 </v>
   <v>       0.00634921 </v>
   <v>       0.00634921 </v>
   <v>       0.00634921 </v>
   <v>       0.00634921 </v>
   <v>       0.00634921 </v>
   <v>       0.00634921 </v>
   <v>       0.00634921 </v>
   <v>       0.00634921 </v>
   <v>       0.00634921 </v>
   <v>       0.00634921 </v>
   <v>       0.00634921 </v>
   <v>       0.00634921 </v>
   <v>       0.00634921 </v>
   <v>       0.00634921 </v>
   <v>       0.00634921 </v>
   <v>       0.00634921 </v>
   <v>       0.00634921 </v>
   <v>       0.00634921 </v>
   <v>       0.00634921 </v>
   <v>       0.00634921 </v>
   <v>       0.00634921 </v>
   <v>       0.00634921 </v>
   <v>       0.00634921 </v>
   <v>       0.00634921 </v>
   <v>       0.00634921 </v>
   <v>       0.00634921 </v>
   <v>       0.00634921 </v>
   <v>       0.00634921 </v>
   <v>       0.00634921 </v>
   <v>       0.00634921 </v>
   <v>       0.00634921 </v>
   <v>       0.00634921 </v>
   <v>       0.00634921 </v>
   <v>       0.00634921 </v>
   <v>       0.00634921 </v>
   <v>       0.00634921 </v>
   <v>       0.00634921 </v>
   <v>       0.00634921 </v>
   <v>       0.00634921 </v>
   <v>       0.00634921 </v>
   <v>       0.00634921 </v>
   <v>       0.00634921 </v>
   <v>       0.00634921 </v>
   <v>       0.00634921 </v>
   <v>       0.00634921 </v>
   <v>       0.00634921 </v>
   <v>       0.00634921 </v>
   <v>       0.00634921 </v>
   <v>       0.00634921 </v>
   <v>       0.00634921 </v>
   <v>       0.00634921 </v>
   <v>       0.00634921 </v>
   <v>       0.00634921 </v>
   <v>       0.00634921 </v>
   <v>       0.00634921 </v>
   <v>       0.00634921 </v>
   <v>       0.00634921 </v>
   <v>       0.00634921 </v>
   <v>       0.00634921 </v>
   <v>       0.00634921 </v>
   <v>       0.00634921 </v>
   <v>       0.00634921 </v>
   <v>       0.00634921 </v>
   <v>       0.00634921 </v>
   <v>       0.00634921 </v>
   <v>       0.00634921 </v>
   <v>       0.00634921 </v>
   <v>       0.00634921 </v>
   <v>       0.00634921 </v>
   <v>       0.00634921 </v>
   <v>       0.00634921 </v>
   <v>       0.00634921 </v>
   <v>       0.00634921 </v>
   <v>       0.00634921 </v>
  </varray>
 </kpoints>
 <parameters>
  <separator name="general" >
   <i type="string" name="SYSTEM">Kpoints</i>
   <i type="logical" name="LCOMPAT"> F  </i>
  </separator>
  <separator name="electronic" >
   <i type="string" name="PREC">accura</i>
   <i name="ENMAX">    260.00000000</i>
   <i name="ENAUG">    535.51400000</i>
   <i name="EDIFF">      0.00000100</i>
   <i type="int" name="IALGO">    38</i>
   <i type="int" name="IWAVPR">    10</i>
   <i type="int" name="NBANDS">    48</i>
   <i type="int" name="NBANDSLOW">    -1</i>
   <i type="int" name="NBANDSHIGH">    -1</i>
   <i name="NELECT">     42.00000000</i>
   <i type="int" name="TURBO">     0</i>
   <i type="int" name="IRESTART">     0</i>
   <i type="int" name="NREBOOT">     0</i>
   <i type="int" name="NMIN">     0</i>
   <i name="EREF">      0.00000000</i>
   <separator name="electronic smearing" >
    <i type="int" name="ISMEAR">     0</i>
    <i name="SIGMA">      0.05000000</i>
    <i name="KSPACING">      0.50000000</i>
    <i type="logical" name="KGAMMA"> T  </i>
    <i type="logical" name="KBLOWUP"> T  </i>
   </separator>
   <separator name="electronic projectors" >
    <i type="logical" name="LREAL"> F  </i>
    <v name="ROPT">      0.00000000</v>
    <i type="int" name="LMAXPAW">  -100</i>
    <i type="int" name="LMAXMIX">     2</i>
    <i type="logical" name="NLSPLINE"> F  </i>
   </separator>
   <separator name="electronic startup" >
    <i type="int" name="ISTART">     0</i>
    <i type="int" name="ICHARG">     2</i>
    <i type="int" name="INIWAV">     1</i>
   </separator>
   <separator name="electronic spin" >
    <i type="int" name="ISPIN">     1</i>
    <i type="logical" name="LNONCOLLINEAR"> F  </i>
    <v name="MAGMOM">      1.00000000      1.00000000      1.00000000      1.00000000      1.00000000      1.00000000      1.00000000      1.00000000      1.00000000      1.00000000      1.00000000      1.00000000      1.00000000      1.00000000</v>
    <i name="NUPDOWN">     -1.00000000</i>
    <i type="logical" name="LSORBIT"> F  </i>
    <v name="SAXIS">      0.00000000      0.00000000      1.00000000</v>
    <i type="logical" name="LSPIRAL"> F  </i>
    <v name="QSPIRAL">      0.00000000      0.00000000      0.00000000</v>
    <i type="logical" name="LZEROZ"> F  </i>
   </separator>
   <separator name="electronic exchange-correlation" >
    <i type="logical" name="LASPH"> F  </i>
   </separator>
   <separator name="electronic convergence" >
    <i type="int" name="NELM">   100</i>
    <i type="int" name="NELMDL">    -5</i>
    <i type="int" name="NELMIN">     2</i>
    <i name="ENINI">    260.00000000</i>
    <separator name="electronic convergence detail" >
     <i type="logical" name="LDIAG"> T  </i>
     <i type="logical" name="LSUBROT"> F  </i>
     <i name="WEIMIN">      0.00000000</i>
     <i name="EBREAK">      0.00000001</i>
     <i name="DEPER">      0.30000000</i>
     <i type="int" name="NRMM">     4</i>
     <i name="TIME">      0.40000000</i>
    </separator>
   </separator>
   <separator name="electronic mixer" >
    <i name="AMIX">      0.40000000</i>
    <i name="BMIX">      1.00000000</i>
    <i name="AMIN">      0.10000000</i>
    <i name="AMIX_MAG">      1.60000000</i>
    <i name="BMIX_MAG">      1.00000000</i>
    <separator name="electronic mixer details" >
     <i type="int" name="IMIX">     4</i>
     <i type="logical" name="MIXFIRST"> F  </i>
     <i type="int" name="MAXMIX">   -45</i>
     <i name="WC">    100.00000000</i>
     <i type="int" name="INIMIX">     1</i>
     <i type="int" name="MIXPRE">     1</i>
     <i type="int" name="MREMOVE">     5</i>
    </separator>
   </separator>
   <separator name="electronic dipolcorrection" >
    <i type="logical" name="LDIPOL"> F  </i>
    <i type="logical" name="LMONO"> F  </i>
    <i type="int" name="IDIPOL">     0</i>
    <i name="EPSILON">      1.00000000</i>
    <v name="DIPOL">   -100.00000000   -100.00000000   -100.00000000</v>
    <i name="EFIELD">      0.00000000</i>
    <i type="logical" name="LVACPOTAV"> F  </i>
   </separator>
  </separator>
  <separator name="grids" >
   <i type="int" name="NGX">    30</i>
   <i type="int" name="NGY">    24</i>
   <i type="int" name="NGZ">    36</i>
   <i type="int" name="NGXF">    60</i>
   <i type="int" name="NGYF">    48</i>
   <i type="int" name="NGZF">    72</i>
   <i type="logical" name="ADDGRID"> F  </i>
  </separator>
  <separator name="ionic" >
   <i type="int" name="NSW">     0</i>
   <i type="int" name="IBRION">    -1</i>
   <i type="int" name="MDALGO">     0</i>
   <i type="int" name="ISIF">     2</i>
   <i name="PSTRESS">      0.00000000</i>
   <i name="EDIFFG">     -0.00100000</i>
   <i type="int" name="NFREE">     0</i>
   <i name="POTIM">      0.50000000</i>
   <i name="SMASS">     -3.00000000</i>
   <i name="SCALEE">      1.00000000</i>
  </separator>
  <separator name="ionic md" >
   <i name="TEBEG">      0.00010000</i>
   <i name="TEEND">      0.00010000</i>
   <i type="int" name="NBLOCK">     1</i>
   <i type="int" name="KBLOCK">     1</i>
   <i type="int" name="NPACO">   256</i>
   <i name="APACO">     10.00000000</i>
  </separator>
  <separator name="symmetry" >
   <i type="int" name="ISYM">     2</i>
   <i name="SYMPREC">      0.00001000</i>
  </separator>
  <separator name="dos" >
   <i type="int" name="LORBIT">     0</i>
   <v name="RWIGS">     -1.00000000</v>
   <i type="int" name="NEDOS">   301</i>
   <i name="EMIN">     10.00000000</i>
   <i name="EMAX">    -10.00000000</i>
   <i name="EFERMI">      0.00000000</i>
  </separator>
  <separator name="writing" >
   <i type="int" name="NWRITE">     2</i>
   <i type="logical" name="LWAVE"> F  </i>
   <i type="logical" name="LDOWNSAMPLE"> F  </i>
   <i type="logical" name="LCHARG"> F  </i>
   <i type="logical" name="LPARD"> F  </i>
   <i type="logical" name="LVTOT"> F  </i>
   <i type="logical" name="LVHAR"> F  </i>
   <i type="logical" name="LELF"> F  </i>
   <i type="logical" name="LOPTICS"> F  </i>
   <v name="STM">      0.00000000      0.00000000      0.00000000      0.00000000      0.00000000      0.00000000      0.00000000</v>
  </separator>
  <separator name="performance" >
   <i type="int" name="NPAR">    24</i>
   <i type="int" name="NSIM">     4</i>
   <i type="int" name="NBLK">    -1</i>
   <i type="logical" name="LPLANE"> T  </i>
   <i type="logical" name="LSCALAPACK"> T  </i>
   <i type="logical" name="LSCAAWARE"> F  </i>
   <i type="logical" name="LSCALU"> F  </i>
   <i type="logical" name="LASYNC"> F  </i>
   <i type="logical" name="LORBITALREAL"> F  </i>
  </separator>
  <separator name="miscellaneous" >
   <i type="int" name="IDIOT">     3</i>
   <i type="int" name="PHON_NSTRUCT">    -1</i>
   <i type="logical" name="LMUSIC"> F  </i>
   <v name="POMASS">     10.81100000</v>
   <v name="DARWINR">      0.00000000</v>
   <v name="DARWINV">      1.00000000</v>
   <i type="logical" name="LCORR"> T  </i>
  </separator>
  <i type="logical" name="GGA_COMPAT"> T  </i>
  <i type="logical" name="LBERRY"> F  </i>
  <i type="int" name="ICORELEVEL">     0</i>
  <i type="logical" name="LDAU"> F  </i>
  <i type="int" name="I_CONSTRAINED_M">     0</i>
  <separator name="electronic exchange-correlation" >
   <i type="string" name="GGA    ">PE</i>
   <i type="string" name="XC_C">1</i>
   <i type="int" name="VOSKOWN">     0</i>
   <i type="logical" name="LHFCALC"> F  </i>
   <i type="string" name="PRECFOCK"></i>
   <i type="logical" name="LSYMGRAD"> F  </i>
   <i type="logical" name="LHFONE"> F  </i>
   <i type="logical" name="LRHFCALC"> F  </i>
   <i type="logical" name="LTHOMAS"> F  </i>
   <i type="logical" name="LMODELHF"> F  </i>
   <i type="logical" name="LFOCKACE"> F  </i>
   <i name="ENCUT4O">     -1.00000000</i>
   <i type="int" name="EXXOEP">     0</i>
   <i type="int" name="FOURORBIT">     0</i>
   <i name="AEXX">      0.00000000</i>
   <i name="HFALPHA">      0.00000000</i>
   <i name="MCALPHA">      0.00000000</i>
   <i name="ALDAX">      1.00000000</i>
   <i name="AGGAX">      1.00000000</i>
   <i name="AMGGAX">      1.00000000</i>
   <i name="ALDAC">      1.00000000</i>
   <i name="AGGAC">      1.00000000</i>
   <i name="AMGGAC">      1.00000000</i>
   <i type="int" name="NKREDX">     1</i>
   <i type="int" name="NKREDY">     1</i>
   <i type="int" name="NKREDZ">     1</i>
   <i type="logical" name="SHIFTRED"> F  </i>
   <i type="logical" name="ODDONLY"> F  </i>
   <i type="logical" name="EVENONLY"> F  </i>
   <i type="int" name="LMAXFOCK">     0</i>
   <i type="int" name="NMAXFOCKAE">     0</i>
   <i type="logical" name="LFOCKAEDFT"> F  </i>
   <i name="HFSCREEN">      0.00000000</i>
   <i name="HFSCREENC">      0.00000000</i>
   <i type="int" name="NBANDSGWLOW">     0</i>
  </separator>
  <separator name="vdW DFT" >
   <i type="logical" name="LUSE_VDW"> F  </i>
   <i type="int" name="IVDW_NL">    -1</i>
   <i type="logical" name="LSPIN_VDW"> F  </i>
   <i name="ZAB_VDW">     -0.84910000</i>
   <i name="GAMMA_VDW">      1.39626340</i>
   <i name="ALPHA_VDW">      0.00000000</i>
   <i name="PARAM1">      0.12340000</i>
   <i name="PARAM2">      1.00000000</i>
   <i name="BPARAM">      6.30000000</i>
   <i name="CPARAM">      0.00930000</i>
  </separator>
  <separator name="model GW" >
   <i type="int" name="MODEL_GW">     0</i>
   <i name="MODEL_EPS0">      6.13175789</i>
   <i name="MODEL_ALPHA">      1.00000000</i>
  </separator>
  <separator name="linear response parameters" >
   <i type="logical" name="LEPSILON"> F  </i>
   <i type="logical" name="LRPA"> F  </i>
   <i type="logical" name="LNABLA"> F  </i>
   <i type="logical" name="LVEL"> F  </i>
   <i name="CSHIFT">      0.10000000</i>
   <i name="OMEGAMAX">     -1.00000000</i>
   <i name="DEG_THRESHOLD">      0.00200000</i>
   <i name="RTIME">     -0.10000000</i>
   <i name="WPLASMAI">      0.00000000</i>
   <v name="DFIELD">      0.00000000      0.00000000      0.00000000</v>
   <v name="WPLASMA">      0.00000000      0.00000000      0.00000000      0.00000000      0.00000000      0.00000000      0.00000000      0.00000000      0.00000000</v>
  </separator>
  <separator name="orbital magnetization" >
   <i type="logical" name="NUCIND"> F  </i>
   <v name="MAGPOS">      0.00000000      0.00000000      0.00000000</v>
   <i type="logical" name="LNICSALL"> T  </i>
   <i type="logical" name="ORBITALMAG"> F  </i>
   <i type="logical" name="LMAGBLOCH"> F  </i>
   <i type="logical" name="LCHIMAG"> F  </i>
   <i type="logical" name="LGAUGE"> T  </i>
   <i type="int" name="MAGATOM">     0</i>
   <v name="MAGDIPOL">      0.00000000      0.00000000      0.00000000</v>
   <v name="AVECCONST">      0.00000000      0.00000000      0.00000000</v>
  </separator>
  <separator name="response functions" >
   <i type="logical" name="LALL_IN_ONE"> F  </i>
   <i type="int" name="IALL_IN_ONE">    -1</i>
   <i type="int" name="NBANDS_WAVE">    -1</i>
   <i type="logical" name="LFINITE_TEMPERATURE"> F  </i>
   <i type="logical" name="LADDER"> F  </i>
   <i type="logical" name="LRPAFORCE"> F  </i>
   <i type="logical" name="LFXC"> F  </i>
   <i type="logical" name="LHARTREE"> T  </i>
   <i type="int" name="IBSE">     0</i>
   <v type="int" name="KPOINT">    -1     0     0     0</v>
   <i type="logical" name="LTCTC"> F  </i>
   <i type="logical" name="LTCTE"> F  </i>
   <i type="logical" name="LTETE"> F  </i>
   <i type="logical" name="LTRIPLET"> F  </i>
   <i type="logical" name="LFXCEPS"> F  </i>
   <i type="logical" name="LFXHEG"> F  </i>
   <i type="int" name="NATURALO">     2</i>
   <i type="logical" name="LHOLEGF"> F  </i>
   <i type="logical" name="L2ORDER"> F  </i>
   <i type="logical" name="LDMP1"> F  </i>
   <i type="logical" name="LMP2LT"> F  </i>
   <i type="logical" name="LSMP2LT"> F  </i>
   <i type="logical" name="LGWLF"> F  </i>
   <i name="ENCUTGW">     -1.60000002</i>
   <i name="ENCUTGWSOFT">     -1.60000002</i>
   <i name="ENCUTLF">     -1.00000000</i>
   <i type="logical" name="ESF_SPLINES"> F  </i>
   <i name="ESF_CONV">      0.01000000</i>
   <i type="int" name="ESF_NINTER">    15</i>
   <i type="int" name="LMAXMP2">    -1</i>
   <i name="SCISSOR">      0.00000000</i>
   <i type="int" name="NOMEGA">     0</i>
   <i type="int" name="NOMEGAR">     0</i>
   <i type="int" name="NBANDSGW">    -1</i>
   <i type="int" name="NBANDSO">    -1</i>
   <i type="int" name="NBANDSV">    -1</i>
   <i type="int" name="NELMGW">     1</i>
   <i type="int" name="NELMHF">     1</i>
   <i type="int" name="DIM">     3</i>
   <i type="int" name="IESPILON">     4</i>
   <i type="int" name="ANTIRES">     0</i>
   <i name="OMEGAMAX">    -30.00000000</i>
   <i name="OMEGAMIN">    -30.00000000</i>
   <i name="OMEGATL">   -200.00000000</i>
   <i type="int" name="OMEGAGRID">     0</i>
   <i name="CSHIFT">     -0.10000000</i>
   <i type="logical" name="LSELFENERGY"> F  </i>
   <i type="logical" name="LSPECTRAL"> F  </i>
   <i type="logical" name="LSPECTRALGW"> F  </i>
   <i type="logical" name="LSINGLES"> F  </i>
   <i type="logical" name="LFERMIGW"> F  </i>
   <i type="logical" name="ODDONLYGW"> F  </i>
   <i type="logical" name="EVENONLYGW"> F  </i>
   <i type="int" name="NKREDLFX">     1</i>
   <i type="int" name="NKREDLFY">     1</i>
   <i type="int" name="NKREDLFZ">     1</i>
   <i type="int" name="MAXMEM">  2800</i>
   <i type="int" name="TELESCOPE">     0</i>
   <i type="int" name="NTAUPAR">    -1</i>
   <i type="int" name="NOMEGAPAR">    -1</i>
   <i name="DAMP_NEWTON">      0.80000001</i>
   <i name="LAMBDA">      1.00000000</i>
  </separator>
  <separator name="External order field" >
   <i name="OFIELD_KAPPA">      0.00000000</i>
   <v name="OFIELD_K">      0.00000000      0.00000000      0.00000000</v>
   <i name="OFIELD_Q6_NEAR">      0.00000000</i>
   <i name="OFIELD_Q6_FAR">      0.00000000</i>
   <i name="OFIELD_A">      0.00000000</i>
  </separator>
  <separator name="optional k-points parameters" >
   <i type="int" name="KPOINTS_OPT_MODE">     1</i>
   <i type="logical" name="LKPOINTS_OPT"> F  </i>
  </separator>
 </parameters>
 <atominfo>
  <atoms>      14 </atoms>
  <types>       1 </types>
  <array name="atoms" >
   <dimension dim="1">ion</dimension>
   <field type="string">element</field>
   <field type="int">atomtype</field>
   <set>
    <rc><c>B </c><c>   1</c></rc>
    <rc><c>B </c><c>   1</c></rc>
    <rc><c>B </c><c>   1</c></rc>
    <rc><c>B </c><c>   1</c></rc>
    <rc><c>B </c><c>   1</c></rc>
    <rc><c>B </c><c>   1</c></rc>
    <rc><c>B </c><c>   1</c></rc>
    <rc><c>B </c><c>   1</c></rc>
    <rc><c>B </c><c>   1</c></rc>
    <rc><c>B </c><c>   1</c></rc>
    <rc><c>B </c><c>   1</c></rc>
    <rc><c>B </c><c>   1</c></rc>
    <rc><c>B </c><c>   1</c></rc>
    <rc><c>B </c><c>   1</c></rc>
   </set>
  </array>
  <array name="atomtypes" >
   <dimension dim="1">type</dimension>
   <field type="int">atomspertype</field>
   <field type="string">element</field>
   <field>mass</field>
   <field>valence</field>
   <field type="string">pseudopotential</field>
   <set>
    <rc><c>  14</c><c>B </c><c>     10.81100000</c><c>      3.00000000</c><c>  PAW_PBE B 06Sep2000                   </c></rc>
   </set>
  </array>
 </atominfo>
 <structure name="initialpos" >
  <crystal>
   <varray name="basis" >
    <v>       5.69700000       0.00000000       0.00000000 </v>
    <v>       0.00000000       4.04790000       0.00000000 </v>
    <v>       0.00000000       0.00000000       6.20420000 </v>
   </varray>
   <i name="volume">    143.07435078 </i>
   <varray name="rec_basis" >
    <v>       0.17553098       0.00000000       0.00000000 </v>
    <v>       0.00000000       0.24704168       0.00000000 </v>
    <v>       0.00000000       0.00000000       0.16118114 </v>
   </varray>
  </crystal>
  <varray name="positions" >
   <v>       0.52123000       0.50000000       0.63796000 </v>
   <v>       0.47877000       0.50000000       0.36204000 </v>
   <v>       0.97877000       0.50000000       0.63796000 </v>
   <v>       0.02123000       0.50000000       0.36204000 </v>
   <v>       0.60090000       0.50000000       0.89991000 </v>
   <v>       0.39910000       0.50000000       0.10009000 </v>
   <v>       0.89910000       0.50000000       0.89991000 </v>
   <v>       0.10090000       0.50000000       0.10009000 </v>
   <v>       0.75000000       0.79171000       0.72973000 </v>
   <v>       0.25000000       0.20829000       0.27027000 </v>
   <v>       0.75000000       0.20829000       0.72973000 </v>
   <v>       0.25000000       0.79171000       0.27027000 </v>
   <v>       0.25000000       0.50000000       0.52367000 </v>
   <v>       0.75000000       0.50000000       0.47633000 </v>
  </varray>
 </structure>
 <calculation>
  <scstep>
   <time name="dav">    2.61    2.61</time>
   <time name="total">    2.62    2.62</time>
   <energy>
    <i name="alphaZ">     94.24357992 </i>
    <i name="ewald">   -795.76658092 </i>
    <i name="hartreedc">   -271.33601302 </i>
    <i name="XCdc">     97.50108269 </i>
    <i name="pawpsdc">    608.99811708 </i>
    <i name="pawaedc">   -597.02363782 </i>
    <i name="eentropy">     -0.00153957 </i>
    <i name="bandstr">   -131.02627890 </i>
    <i name="atom">    995.95098050 </i>
    <i name="e_fr_energy">      1.53970997 </i>
    <i name="e_wo_entrp">      1.54124954 </i>
    <i name="e_0_energy">      1.54047975 </i>
   </energy>
  </scstep>
  <scstep>
   <time name="dav">    3.87    3.87</time>
   <time name="total">    3.87    3.87</time>
   <energy>
    <i name="e_fr_energy">    -94.38836603 </i>
    <i name="e_wo_entrp">    -94.38480023 </i>
    <i name="e_0_energy">    -94.38658313 </i>
   </energy>
  </scstep>
  <scstep>
   <time name="dav">    3.59    3.59</time>
   <time name="total">    3.59    3.59</time>
   <energy>
    <i name="e_fr_energy">    -96.99958908 </i>
    <i name="e_wo_entrp">    -96.99591109 </i>
    <i name="e_0_energy">    -96.99775009 </i>
   </energy>
  </scstep>
  <scstep>
   <time name="dav">    3.66    3.66</time>
   <time name="total">    3.66    3.66</time>
   <energy>
    <i name="e_fr_energy">    -97.01472507 </i>
    <i name="e_wo_entrp">    -97.01104835 </i>
    <i name="e_0_energy">    -97.01288671 </i>
   </energy>
  </scstep>
  <scstep>
   <time name="dav">    3.52    3.52</time>
   <time name="total">    3.56    3.56</time>
   <energy>
    <i name="e_fr_energy">    -97.01491166 </i>
    <i name="e_wo_entrp">    -97.01123495 </i>
    <i name="e_0_energy">    -97.01307330 </i>
   </energy>
  </scstep>
  <scstep>
   <time name="dav">    3.78    3.78</time>
   <time name="total">    3.83    3.83</time>
   <energy>
    <i name="e_fr_energy">    -91.68544515 </i>
    <i name="e_wo_entrp">    -91.68198533 </i>
    <i name="e_0_energy">    -91.68371524 </i>
   </energy>
  </scstep>
  <scstep>
   <time name="dav">    3.99    3.99</time>
   <time name="total">    4.04    4.04</time>
   <energy>
    <i name="e_fr_energy">    -90.04971481 </i>
    <i name="e_wo_entrp">    -90.04656595 </i>
    <i name="e_0_energy">    -90.04814038 </i>
   </energy>
  </scstep>
  <scstep>
   <time name="dav">    2.84    2.84</time>
   <time name="total">    2.88    2.89</time>
   <energy>
    <i name="e_fr_energy">    -90.06163218 </i>
    <i name="e_wo_entrp">    -90.05842853 </i>
    <i name="e_0_energy">    -90.06003036 </i>
   </energy>
  </scstep>
  <scstep>
   <time name="dav">    3.72    3.72</time>
   <time name="total">    3.76    3.77</time>
   <energy>
    <i name="e_fr_energy">    -90.07563300 </i>
    <i name="e_wo_entrp">    -90.07234445 </i>
    <i name="e_0_energy">    -90.07398873 </i>
   </energy>
  </scstep>
  <scstep>
   <time name="dav">    3.02    3.02</time>
   <time name="total">    3.07    3.07</time>
   <energy>
    <i name="e_fr_energy">    -90.07936185 </i>
    <i name="e_wo_entrp">    -90.07612082 </i>
    <i name="e_0_energy">    -90.07774133 </i>
   </energy>
  </scstep>
  <scstep>
   <time name="dav">    3.41    3.42</time>
   <time name="total">    3.46    3.46</time>
   <energy>
    <i name="e_fr_energy">    -90.08041824 </i>
    <i name="e_wo_entrp">    -90.07718760 </i>
    <i name="e_0_energy">    -90.07880292 </i>
   </energy>
  </scstep>
  <scstep>
   <time name="dav">    3.33    3.33</time>
   <time name="total">    3.38    3.38</time>
   <energy>
    <i name="e_fr_energy">    -90.08051903 </i>
    <i name="e_wo_entrp">    -90.07728256 </i>
    <i name="e_0_energy">    -90.07890079 </i>
   </energy>
  </scstep>
  <scstep>
   <time name="dav">    3.65    3.65</time>
   <time name="total">    3.69    3.70</time>
   <energy>
    <i name="e_fr_energy">    -90.08052272 </i>
    <i name="e_wo_entrp">    -90.07728594 </i>
    <i name="e_0_energy">    -90.07890433 </i>
   </energy>
  </scstep>
  <scstep>
   <time name="dav">    3.20    3.20</time>
   <time name="total">    3.20    3.21</time>
   <energy>
    <i name="alphaZ">     94.24357992 </i>
    <i name="ewald">   -795.76658092 </i>
    <i name="hartreedc">   -348.76924287 </i>
    <i name="XCdc">    101.73845569 </i>
    <i name="pawpsdc">   4435.71613850 </i>
    <i name="pawaedc">  -4424.80868243 </i>
    <i name="eentropy">     -0.00323692 </i>
    <i name="bandstr">   -148.38193469 </i>
    <i name="atom">    995.95098050 </i>
    <i name="e_fr_energy">    -90.08052321 </i>
    <i name="e_wo_entrp">    -90.07728630 </i>
    <i name="e_0_energy">    -90.07890475 </i>
   </energy>
  </scstep>
  <structure>
   <crystal>
    <varray name="basis" >
     <v>       5.69700000       0.00000000       0.00000000 </v>
     <v>       0.00000000       4.04790000       0.00000000 </v>
     <v>       0.00000000       0.00000000       6.20420000 </v>
    </varray>
    <i name="volume">    143.07435078 </i>
    <varray name="rec_basis" >
     <v>       0.17553098       0.00000000       0.00000000 </v>
     <v>       0.00000000       0.24704168       0.00000000 </v>
     <v>       0.00000000       0.00000000       0.16118114 </v>
    </varray>
   </crystal>
   <varray name="positions" >
    <v>       0.52123000       0.50000000       0.63796000 </v>
    <v>       0.47877000       0.50000000       0.36204000 </v>
    <v>       0.97877000       0.50000000       0.63796000 </v>
    <v>       0.02123000       0.50000000       0.36204000 </v>
    <v>       0.60090000       0.50000000       0.89991000 </v>
    <v>       0.39910000       0.50000000       0.10009000 </v>
    <v>       0.89910000       0.50000000       0.89991000 </v>
    <v>       0.10090000       0.50000000       0.10009000 </v>
    <v>       0.75000000       0.79171000       0.72973000 </v>
    <v>       0.25000000       0.20829000       0.27027000 </v>
    <v>       0.75000000       0.20829000       0.72973000 </v>
    <v>       0.25000000       0.79171000       0.27027000 </v>
    <v>       0.25000000       0.50000000       0.52367000 </v>
    <v>       0.75000000       0.50000000       0.47633000 </v>
   </varray>
  </structure>
  <varray name="forces" >
   <v>       0.01166128       0.00000000       0.06324892 </v>
   <v>      -0.01166128      -0.00000000      -0.06324892 </v>
   <v>      -0.01166128      -0.00000000       0.06324892 </v>
   <v>       0.01166128       0.00000000      -0.06324892 </v>
   <v>      -0.78793607       0.00000000       0.23639924 </v>
   <v>       0.78793607       0.00000000      -0.23639924 </v>
   <v>       0.78793607      -0.00000000       0.23639924 </v>
   <v>      -0.78793607      -0.00000000      -0.23639924 </v>
   <v>      -0.00000000      -0.01176611      -0.05620758 </v>
   <v>      -0.00000000       0.01176611       0.05620758 </v>
   <v>       0.00000000       0.01176611      -0.05620758 </v>
   <v>      -0.00000000      -0.01176611       0.05620758 </v>
   <v>       0.00000000       0.00000000       0.09225961 </v>
   <v>      -0.00000000      -0.00000000      -0.09225961 </v>
  </varray>
  <varray name="stress" >
   <v>     -29.79974329       0.00000000       0.00000000 </v>
   <v>       0.00000000     -50.51208686       0.00000000 </v>
   <v>       0.00000000       0.00000000     -51.02736129 </v>
  </varray>
  <energy>
   <i name="e_fr_energy">    -90.08052321 </i>
   <i name="e_wo_entrp">    -90.07728630 </i>
   <i name="e_0_energy">    -90.07890475 </i>
  </energy>
  <time name="totalsc">   50.09   50.13</time>
  <eigenvalues>
   <array>
    <dimension dim="1">band</dimension>
    <dimension dim="2">kpoint</dimension>
    <dimension dim="3">spin</dimension>
    <field>eigene</field>
    <field>occ</field>
    <set>
     <set comment="spin 1">
      <set comment="kpoint 1">
       <r>  -12.7321    1.0000 </r>
       <r>  -11.5814    1.0000 </r>
       <r>   -8.6576    1.0000 </r>
       <r>   -8.4235    1.0000 </r>
       <r>   -6.0612    1.0000 </r>
       <r>   -5.1240    1.0000 </r>
       <r>   -4.6611    1.0000 </r>
       <r>   -4.2632    1.0000 </r>
       <r>   -4.0269    1.0000 </r>
       <r>   -3.5337    1.0000 </r>
       <r>   -2.5923    1.0000 </r>
       <r>   -2.3252    1.0000 </r>
       <r>   -1.8292    1.0000 </r>
       <r>   -1.0870    1.0000 </r>
       <r>   -0.0488    1.0000 </r>
       <r>   -0.0181    1.0000 </r>
       <r>    0.1745    1.0000 </r>
       <r>    0.1921    1.0000 </r>
       <r>    0.5844    1.0000 </r>
       <r>    2.0473    0.0001 </r>
       <r>    2.1099    0.0000 </r>
       <r>    2.2391    0.0000 </r>
       <r>    5.4731    0.0000 </r>
       <r>    5.7711    0.0000 </r>
       <r>    5.8597    0.0000 </r>
       <r>    5.9833    0.0000 </r>
       <r>    6.8390    0.0000 </r>
       <r>    7.5632    0.0000 </r>
       <r>    7.8924    0.0000 </r>
       <r>    8.5387    0.0000 </r>
       <r>    8.7980    0.0000 </r>
       <r>    8.9462    0.0000 </r>
       <r>    9.0470    0.0000 </r>
       <r>   10.1262    0.0000 </r>
       <r>   11.1895    0.0000 </r>
       <r>   11.3667    0.0000 </r>
       <r>   11.6947    0.0000 </r>
       <r>   11.7949    0.0000 </r>
       <r>   11.9542    0.0000 </r>
       <r>   12.4171    0.0000 </r>
       <r>   12.8824    0.0000 </r>
       <r>   13.4844    0.0000 </r>
       <r>   13.5112    0.0000 </r>
       <r>   15.4000    0.0000 </r>
       <r>   15.5935    0.0000 </r>
       <r>   16.0855    0.0000 </r>
       <r>   16.3613    0.0000 </r>
       <r>   16.3961    0.0000 </r>
      </set>
      <set comment="kpoint 2">
       <r>  -12.6879    1.0000 </r>
       <r>  -11.6568    1.0000 </r>
       <r>   -8.6370    1.0000 </r>
       <r>   -8.4121    1.0000 </r>
       <r>   -5.9946    1.0000 </r>
       <r>   -5.4666    1.0000 </r>
       <r>   -4.7842    1.0000 </r>
       <r>   -4.0026    1.0000 </r>
       <r>   -3.7805    1.0000 </r>
       <r>   -3.1971    1.0000 </r>
       <r>   -2.6626    1.0000 </r>
       <r>   -2.3063    1.0000 </r>
       <r>   -1.9079    1.0000 </r>
       <r>   -1.3922    1.0000 </r>
       <r>   -0.0083    1.0000 </r>
       <r>   -0.0048    1.0000 </r>
       <r>    0.1106    1.0000 </r>
       <r>    0.2139    1.0000 </r>
       <r>    0.4872    1.0000 </r>
       <r>    1.9583    0.0901 </r>
       <r>    2.0292    0.0004 </r>
       <r>    2.1154    0.0000 </r>
       <r>    5.5622    0.0000 </r>
       <r>    5.7744    0.0000 </r>
       <r>    5.8880    0.0000 </r>
       <r>    6.3278    0.0000 </r>
       <r>    6.7461    0.0000 </r>
       <r>    7.1964    0.0000 </r>
       <r>    8.0971    0.0000 </r>
       <r>    8.6770    0.0000 </r>
       <r>    9.0532    0.0000 </r>
       <r>    9.1305    0.0000 </r>
       <r>    9.2021    0.0000 </r>
       <r>   10.2389    0.0000 </r>
       <r>   10.9705    0.0000 </r>
       <r>   11.1572    0.0000 </r>
       <r>   11.2632    0.0000 </r>
       <r>   11.7080    0.0000 </r>
       <r>   12.1739    0.0000 </r>
       <r>   12.5047    0.0000 </r>
       <r>   13.1463    0.0000 </r>
       <r>   13.1512    0.0000 </r>
       <r>   14.0433    0.0000 </r>
       <r>   14.8830    0.0000 </r>
       <r>   15.7714    0.0000 </r>
       <r>   15.8509    0.0000 </r>
       <r>   16.2502    0.0000 </r>
       <r>   16.5453    0.0000 </r>
      </set>
      <set comment="kpoint 3">
       <r>  -12.6017    1.0000 </r>
       <r>  -11.7909    1.0000 </r>
       <r>   -8.5931    1.0000 </r>
       <r>   -8.3966    1.0000 </r>
       <r>   -5.9719    1.0000 </r>
       <r>   -5.7936    1.0000 </r>
       <r>   -4.7371    1.0000 </r>
       <r>   -3.8757    1.0000 </r>
       <r>   -3.2674    1.0000 </r>
       <r>   -2.8298    1.0000 </r>
       <r>   -2.7037    1.0000 </r>
       <r>   -2.2660    1.0000 </r>
       <r>   -2.0169    1.0000 </r>
       <r>   -1.8935    1.0000 </r>
       <r>   -0.2100    1.0000 </r>
       <r>    0.0345    1.0000 </r>
       <r>    0.1632    1.0000 </r>
       <r>    0.1785    1.0000 </r>
       <r>    0.4566    1.0000 </r>
       <r>    1.8080    0.9982 </r>
       <r>    1.8870    0.7510 </r>
       <r>    1.8944    0.6795 </r>
       <r>    5.6835    0.0000 </r>
       <r>    5.7310    0.0000 </r>
       <r>    6.1999    0.0000 </r>
       <r>    6.6181    0.0000 </r>
       <r>    6.7854    0.0000 </r>
       <r>    6.9448    0.0000 </r>
       <r>    8.2480    0.0000 </r>
       <r>    8.8303    0.0000 </r>
       <r>    9.0016    0.0000 </r>
       <r>    9.5746    0.0000 </r>
       <r>    9.6515    0.0000 </r>
       <r>   10.3084    0.0000 </r>
       <r>   10.4985    0.0000 </r>
       <r>   10.6395    0.0000 </r>
       <r>   11.3877    0.0000 </r>
       <r>   11.8498    0.0000 </r>
       <r>   12.4083    0.0000 </r>
       <r>   12.5907    0.0000 </r>
       <r>   12.8079    0.0000 </r>
       <r>   12.9341    0.0000 </r>
       <r>   14.6656    0.0000 </r>
       <r>   14.9424    0.0000 </r>
       <r>   15.2449    0.0000 </r>
       <r>   16.0122    0.0000 </r>
       <r>   16.0240    0.0000 </r>
       <r>   16.3281    0.0000 </r>
      </set>
      <set comment="kpoint 4">
       <r>  -12.4774    1.0000 </r>
       <r>  -11.9615    1.0000 </r>
       <r>   -8.5320    1.0000 </r>
       <r>   -8.3927    1.0000 </r>
       <r>   -6.0523    1.0000 </r>
       <r>   -6.0277    1.0000 </r>
       <r>   -4.4094    1.0000 </r>
       <r>   -3.7074    1.0000 </r>
       <r>   -3.0235    1.0000 </r>
       <r>   -2.8834    1.0000 </r>
       <r>   -2.4338    1.0000 </r>
       <r>   -2.2420    1.0000 </r>
       <r>   -2.1453    1.0000 </r>
       <r>   -2.1168    1.0000 </r>
       <r>   -0.5096    1.0000 </r>
       <r>   -0.2308    1.0000 </r>
       <r>    0.1949    1.0000 </r>
       <r>    0.2688    1.0000 </r>
       <r>    0.6282    1.0000 </r>
       <r>    1.5465    1.0000 </r>
       <r>    1.6861    1.0000 </r>
       <r>    1.7463    1.0000 </r>
       <r>    5.7147    0.0000 </r>
       <r>    5.7681    0.0000 </r>
       <r>    6.5136    0.0000 </r>
       <r>    6.6828    0.0000 </r>
       <r>    6.7233    0.0000 </r>
       <r>    7.4389    0.0000 </r>
       <r>    8.3714    0.0000 </r>
       <r>    8.7102    0.0000 </r>
       <r>    8.8137    0.0000 </r>
       <r>    9.5598    0.0000 </r>
       <r>   10.0561    0.0000 </r>
       <r>   10.1254    0.0000 </r>
       <r>   10.4116    0.0000 </r>
       <r>   11.1510    0.0000 </r>
       <r>   11.4186    0.0000 </r>
       <r>   11.9660    0.0000 </r>
       <r>   12.2130    0.0000 </r>
       <r>   12.2861    0.0000 </r>
       <r>   12.5324    0.0000 </r>
       <r>   13.2769    0.0000 </r>
       <r>   14.7300    0.0000 </r>
       <r>   14.9978    0.0000 </r>
       <r>   15.2921    0.0000 </r>
       <r>   15.3965    0.0000 </r>
       <r>   15.6045    0.0000 </r>
       <r>   16.4071    0.0000 </r>
      </set>
      <set comment="kpoint 5">
       <r>  -12.3218    1.0000 </r>
       <r>  -12.1448    1.0000 </r>
       <r>   -8.4659    1.0000 </r>
       <r>   -8.4148    1.0000 </r>
       <r>   -6.1413    1.0000 </r>
       <r>   -6.1369    1.0000 </r>
       <r>   -3.8929    1.0000 </r>
       <r>   -3.4990    1.0000 </r>
       <r>   -3.2919    1.0000 </r>
       <r>   -3.2619    1.0000 </r>
       <r>   -2.3519    1.0000 </r>
       <r>   -2.2272    1.0000 </r>
       <r>   -1.9545    1.0000 </r>
       <r>   -1.8953    1.0000 </r>
       <r>   -0.7304    1.0000 </r>
       <r>   -0.5926    1.0000 </r>
       <r>    0.2783    1.0000 </r>
       <r>    0.3116    1.0000 </r>
       <r>    0.8891    1.0000 </r>
       <r>    1.2067    1.0000 </r>
       <r>    1.6040    1.0000 </r>
       <r>    1.6309    1.0000 </r>
       <r>    5.7413    0.0000 </r>
       <r>    5.7798    0.0000 </r>
       <r>    6.4898    0.0000 </r>
       <r>    6.5535    0.0000 </r>
       <r>    7.3962    0.0000 </r>
       <r>    8.0970    0.0000 </r>
       <r>    8.1236    0.0000 </r>
       <r>    8.4862    0.0000 </r>
       <r>    8.6216    0.0000 </r>
       <r>    8.8131    0.0000 </r>
       <r>   10.5096    0.0000 </r>
       <r>   10.5221    0.0000 </r>
       <r>   10.7737    0.0000 </r>
       <r>   11.2318    0.0000 </r>
       <r>   11.4168    0.0000 </r>
       <r>   11.6075    0.0000 </r>
       <r>   11.9390    0.0000 </r>
       <r>   12.4909    0.0000 </r>
       <r>   12.7297    0.0000 </r>
       <r>   13.2716    0.0000 </r>
       <r>   14.6066    0.0000 </r>
       <r>   14.7563    0.0000 </r>
       <r>   14.8838    0.0000 </r>
       <r>   14.9493    0.0000 </r>
       <r>   16.1399    0.0000 </r>
       <r>   16.4817    0.0000 </r>
      </set>
      <set comment="kpoint 6">
       <r>  -12.7080    1.0000 </r>
       <r>  -11.5597    1.0000 </r>
       <r>   -8.6394    1.0000 </r>
       <r>   -8.4005    1.0000 </r>
       <r>   -6.0352    1.0000 </r>
       <r>   -5.0908    1.0000 </r>
       <r>   -4.6388    1.0000 </r>
       <r>   -4.5667    1.0000 </r>
       <r>   -4.1685    1.0000 </r>
       <r>   -3.5119    1.0000 </r>
       <r>   -3.2884    1.0000 </r>
       <r>   -1.7901    1.0000 </r>
       <r>   -1.0790    1.0000 </r>
       <r>   -1.0257    1.0000 </r>
       <r>   -0.2848    1.0000 </r>
       <r>   -0.2553    1.0000 </r>
       <r>    0.1857    1.0000 </r>
       <r>    0.2625    1.0000 </r>
       <r>    0.6630    1.0000 </r>
       <r>    1.7769    0.9999 </r>
       <r>    1.8567    0.9373 </r>
       <r>    2.2901    0.0000 </r>
       <r>    5.5951    0.0000 </r>
       <r>    5.7242    0.0000 </r>
       <r>    5.7637    0.0000 </r>
       <r>    6.0287    0.0000 </r>
       <r>    7.1238    0.0000 </r>
       <r>    7.8497    0.0000 </r>
       <r>    8.0774    0.0000 </r>
       <r>    8.2024    0.0000 </r>
       <r>    8.8043    0.0000 </r>
       <r>    9.0948    0.0000 </r>
       <r>    9.1460    0.0000 </r>
       <r>   10.5841    0.0000 </r>
       <r>   11.3000    0.0000 </r>
       <r>   11.4062    0.0000 </r>
       <r>   11.6339    0.0000 </r>
       <r>   11.8984    0.0000 </r>
       <r>   12.0653    0.0000 </r>
       <r>   12.6990    0.0000 </r>
       <r>   12.8827    0.0000 </r>
       <r>   13.2171    0.0000 </r>
       <r>   13.2269    0.0000 </r>
       <r>   15.3516    0.0000 </r>
       <r>   15.4002    0.0000 </r>
       <r>   15.8878    0.0000 </r>
       <r>   15.8890    0.0000 </r>
       <r>   16.2533    0.0000 </r>
      </set>
      <set comment="kpoint 7">
       <r>  -12.6640    1.0000 </r>
       <r>  -11.6343    1.0000 </r>
       <r>   -8.6176    1.0000 </r>
       <r>   -8.3889    1.0000 </r>
       <r>   -5.9648    1.0000 </r>
       <r>   -5.4356    1.0000 </r>
       <r>   -4.7632    1.0000 </r>
       <r>   -4.4859    1.0000 </r>
       <r>   -3.7418    1.0000 </r>
       <r>   -3.3688    1.0000 </r>
       <r>   -3.1582    1.0000 </r>
       <r>   -1.7684    1.0000 </r>
       <r>   -1.3856    1.0000 </r>
       <r>   -1.1451    1.0000 </r>
       <r>   -0.2455    1.0000 </r>
       <r>   -0.1769    1.0000 </r>
       <r>    0.1516    1.0000 </r>
       <r>    0.2353    1.0000 </r>
       <r>    0.5601    1.0000 </r>
       <r>    1.6962    1.0000 </r>
       <r>    1.7797    0.9999 </r>
       <r>    2.1590    0.0000 </r>
       <r>    5.6702    0.0000 </r>
       <r>    5.8240    0.0000 </r>
       <r>    5.9559    0.0000 </r>
       <r>    6.1343    0.0000 </r>
       <r>    7.0380    0.0000 </r>
       <r>    7.5201    0.0000 </r>
       <r>    8.2260    0.0000 </r>
       <r>    8.3695    0.0000 </r>
       <r>    9.1275    0.0000 </r>
       <r>    9.1619    0.0000 </r>
       <r>    9.4135    0.0000 </r>
       <r>   10.5124    0.0000 </r>
       <r>   10.9021    0.0000 </r>
       <r>   11.1113    0.0000 </r>
       <r>   11.4626    0.0000 </r>
       <r>   11.8840    0.0000 </r>
       <r>   12.2872    0.0000 </r>
       <r>   12.7564    0.0000 </r>
       <r>   12.8883    0.0000 </r>
       <r>   13.1699    0.0000 </r>
       <r>   13.7610    0.0000 </r>
       <r>   14.9717    0.0000 </r>
       <r>   15.4213    0.0000 </r>
       <r>   15.7775    0.0000 </r>
       <r>   15.8144    0.0000 </r>
       <r>   16.4337    0.0000 </r>
      </set>
      <set comment="kpoint 8">
       <r>  -12.5780    1.0000 </r>
       <r>  -11.7690    1.0000 </r>
       <r>   -8.5747    1.0000 </r>
       <r>   -8.3747    1.0000 </r>
       <r>   -5.9412    1.0000 </r>
       <r>   -5.7636    1.0000 </r>
       <r>   -4.7218    1.0000 </r>
       <r>   -4.3785    1.0000 </r>
       <r>   -3.4899    1.0000 </r>
       <r>   -3.2151    1.0000 </r>
       <r>   -2.6915    1.0000 </r>
       <r>   -1.8921    1.0000 </r>
       <r>   -1.7245    1.0000 </r>
       <r>   -1.3088    1.0000 </r>
       <r>   -0.2130    1.0000 </r>
       <r>   -0.1980    1.0000 </r>
       <r>    0.0707    1.0000 </r>
       <r>    0.2233    1.0000 </r>
       <r>    0.4792    1.0000 </r>
       <r>    1.5578    1.0000 </r>
       <r>    1.6451    1.0000 </r>
       <r>    1.9080    0.5331 </r>
       <r>    5.8716    0.0000 </r>
       <r>    5.9503    0.0000 </r>
       <r>    6.0298    0.0000 </r>
       <r>    6.5819    0.0000 </r>
       <r>    6.9107    0.0000 </r>
       <r>    7.2905    0.0000 </r>
       <r>    8.4355    0.0000 </r>
       <r>    8.4996    0.0000 </r>
       <r>    9.0996    0.0000 </r>
       <r>    9.6130    0.0000 </r>
       <r>    9.8775    0.0000 </r>
       <r>   10.1481    0.0000 </r>
       <r>   10.3761    0.0000 </r>
       <r>   10.8281    0.0000 </r>
       <r>   11.5311    0.0000 </r>
       <r>   12.1153    0.0000 </r>
       <r>   12.3291    0.0000 </r>
       <r>   12.5701    0.0000 </r>
       <r>   12.9718    0.0000 </r>
       <r>   13.0374    0.0000 </r>
       <r>   14.3343    0.0000 </r>
       <r>   15.1065    0.0000 </r>
       <r>   15.1827    0.0000 </r>
       <r>   15.6609    0.0000 </r>
       <r>   15.7350    0.0000 </r>
       <r>   16.4515    0.0000 </r>
      </set>
      <set comment="kpoint 9">
       <r>  -12.4538    1.0000 </r>
       <r>  -11.9390    1.0000 </r>
       <r>   -8.5121    1.0000 </r>
       <r>   -8.3712    1.0000 </r>
       <r>   -6.0198    1.0000 </r>
       <r>   -5.9962    1.0000 </r>
       <r>   -4.3951    1.0000 </r>
       <r>   -4.2312    1.0000 </r>
       <r>   -3.6606    1.0000 </r>
       <r>   -2.8351    1.0000 </r>
       <r>   -2.3491    1.0000 </r>
       <r>   -2.2058    1.0000 </r>
       <r>   -1.6597    1.0000 </r>
       <r>   -1.4711    1.0000 </r>
       <r>   -0.4720    1.0000 </r>
       <r>   -0.2916    1.0000 </r>
       <r>    0.1041    1.0000 </r>
       <r>    0.1339    1.0000 </r>
       <r>    0.6401    1.0000 </r>
       <r>    1.4180    1.0000 </r>
       <r>    1.5015    1.0000 </r>
       <r>    1.5848    1.0000 </r>
       <r>    5.8908    0.0000 </r>
       <r>    6.0248    0.0000 </r>
       <r>    6.5377    0.0000 </r>
       <r>    6.8212    0.0000 </r>
       <r>    6.8961    0.0000 </r>
       <r>    7.3911    0.0000 </r>
       <r>    8.4368    0.0000 </r>
       <r>    8.6096    0.0000 </r>
       <r>    8.9415    0.0000 </r>
       <r>    9.3963    0.0000 </r>
       <r>   10.0873    0.0000 </r>
       <r>   10.0996    0.0000 </r>
       <r>   10.4491    0.0000 </r>
       <r>   11.2287    0.0000 </r>
       <r>   11.3769    0.0000 </r>
       <r>   11.8598    0.0000 </r>
       <r>   12.3022    0.0000 </r>
       <r>   12.5583    0.0000 </r>
       <r>   12.7315    0.0000 </r>
       <r>   13.4797    0.0000 </r>
       <r>   14.7924    0.0000 </r>
       <r>   14.7934    0.0000 </r>
       <r>   15.1829    0.0000 </r>
       <r>   15.3261    0.0000 </r>
       <r>   15.6816    0.0000 </r>
       <r>   16.4217    0.0000 </r>
      </set>
      <set comment="kpoint 10">
       <r>  -12.2982    1.0000 </r>
       <r>  -12.1218    1.0000 </r>
       <r>   -8.4463    1.0000 </r>
       <r>   -8.3939    1.0000 </r>
       <r>   -6.1083    1.0000 </r>
       <r>   -6.1045    1.0000 </r>
       <r>   -4.0523    1.0000 </r>
       <r>   -3.8857    1.0000 </r>
       <r>   -3.8490    1.0000 </r>
       <r>   -3.2783    1.0000 </r>
       <r>   -2.0913    1.0000 </r>
       <r>   -1.8986    1.0000 </r>
       <r>   -1.5897    1.0000 </r>
       <r>   -1.5840    1.0000 </r>
       <r>   -0.6923    1.0000 </r>
       <r>   -0.5870    1.0000 </r>
       <r>    0.1385    1.0000 </r>
       <r>    0.1694    1.0000 </r>
       <r>    0.8990    1.0000 </r>
       <r>    1.2152    1.0000 </r>
       <r>    1.3647    1.0000 </r>
       <r>    1.3891    1.0000 </r>
       <r>    5.9413    0.0000 </r>
       <r>    6.0079    0.0000 </r>
       <r>    6.8101    0.0000 </r>
       <r>    6.8606    0.0000 </r>
       <r>    7.2074    0.0000 </r>
       <r>    7.9225    0.0000 </r>
       <r>    7.9666    0.0000 </r>
       <r>    8.6491    0.0000 </r>
       <r>    8.7006    0.0000 </r>
       <r>    8.8105    0.0000 </r>
       <r>   10.3304    0.0000 </r>
       <r>   10.5738    0.0000 </r>
       <r>   10.8162    0.0000 </r>
       <r>   10.9221    0.0000 </r>
       <r>   11.5643    0.0000 </r>
       <r>   11.6672    0.0000 </r>
       <r>   12.0186    0.0000 </r>
       <r>   12.6619    0.0000 </r>
       <r>   13.0423    0.0000 </r>
       <r>   13.5038    0.0000 </r>
       <r>   14.5653    0.0000 </r>
       <r>   14.7506    0.0000 </r>
       <r>   14.8557    0.0000 </r>
       <r>   15.0722    0.0000 </r>
       <r>   16.1630    0.0000 </r>
       <r>   16.4568    0.0000 </r>
      </set>
      <set comment="kpoint 11">
       <r>  -12.6634    1.0000 </r>
       <r>  -11.5190    1.0000 </r>
       <r>   -8.6053    1.0000 </r>
       <r>   -8.3572    1.0000 </r>
       <r>   -5.9863    1.0000 </r>
       <r>   -5.1249    1.0000 </r>
       <r>   -5.0010    1.0000 </r>
       <r>   -4.5966    1.0000 </r>
       <r>   -4.1506    1.0000 </r>
       <r>   -3.9130    1.0000 </r>
       <r>   -3.4586    1.0000 </r>
       <r>   -1.1932    1.0000 </r>
       <r>   -1.0663    1.0000 </r>
       <r>   -0.6296    1.0000 </r>
       <r>   -0.5255    1.0000 </r>
       <r>   -0.1605    1.0000 </r>
       <r>    0.2057    1.0000 </r>
       <r>    0.3150    1.0000 </r>
       <r>    0.7425    1.0000 </r>
       <r>    1.3931    1.0000 </r>
       <r>    1.4569    1.0000 </r>
       <r>    2.3267    0.0000 </r>
       <r>    5.3061    0.0000 </r>
       <r>    5.4722    0.0000 </r>
       <r>    6.1405    0.0000 </r>
       <r>    6.2220    0.0000 </r>
       <r>    7.5578    0.0000 </r>
       <r>    7.6258    0.0000 </r>
       <r>    8.3324    0.0000 </r>
       <r>    8.7312    0.0000 </r>
       <r>    8.8952    0.0000 </r>
       <r>    9.2380    0.0000 </r>
       <r>    9.3684    0.0000 </r>
       <r>   10.9135    0.0000 </r>
       <r>   11.3451    0.0000 </r>
       <r>   11.6028    0.0000 </r>
       <r>   11.7096    0.0000 </r>
       <r>   12.1035    0.0000 </r>
       <r>   12.2835    0.0000 </r>
       <r>   12.7691    0.0000 </r>
       <r>   12.7847    0.0000 </r>
       <r>   13.0275    0.0000 </r>
       <r>   13.2414    0.0000 </r>
       <r>   14.6955    0.0000 </r>
       <r>   15.1754    0.0000 </r>
       <r>   15.3586    0.0000 </r>
       <r>   15.4536    0.0000 </r>
       <r>   15.9884    0.0000 </r>
      </set>
      <set comment="kpoint 12">
       <r>  -12.6197    1.0000 </r>
       <r>  -11.5935    1.0000 </r>
       <r>   -8.5834    1.0000 </r>
       <r>   -8.3469    1.0000 </r>
       <r>   -5.9125    1.0000 </r>
       <r>   -5.3873    1.0000 </r>
       <r>   -5.0290    1.0000 </r>
       <r>   -4.7263    1.0000 </r>
       <r>   -3.9785    1.0000 </r>
       <r>   -3.6999    1.0000 </r>
       <r>   -3.1197    1.0000 </r>
       <r>   -1.3770    1.0000 </r>
       <r>   -1.1673    1.0000 </r>
       <r>   -0.7360    1.0000 </r>
       <r>   -0.4883    1.0000 </r>
       <r>   -0.0810    1.0000 </r>
       <r>    0.1843    1.0000 </r>
       <r>    0.2596    1.0000 </r>
       <r>    0.6280    1.0000 </r>
       <r>    1.3130    1.0000 </r>
       <r>    1.3861    1.0000 </r>
       <r>    2.1912    0.0000 </r>
       <r>    5.3862    0.0000 </r>
       <r>    5.8189    0.0000 </r>
       <r>    6.1633    0.0000 </r>
       <r>    6.2553    0.0000 </r>
       <r>    7.4759    0.0000 </r>
       <r>    7.7836    0.0000 </r>
       <r>    8.0613    0.0000 </r>
       <r>    8.8255    0.0000 </r>
       <r>    9.2528    0.0000 </r>
       <r>    9.2959    0.0000 </r>
       <r>    9.6537    0.0000 </r>
       <r>   10.5492    0.0000 </r>
       <r>   10.8096    0.0000 </r>
       <r>   11.2896    0.0000 </r>
       <r>   11.7299    0.0000 </r>
       <r>   12.2133    0.0000 </r>
       <r>   12.4499    0.0000 </r>
       <r>   12.5161    0.0000 </r>
       <r>   13.1806    0.0000 </r>
       <r>   13.2892    0.0000 </r>
       <r>   13.4696    0.0000 </r>
       <r>   14.7070    0.0000 </r>
       <r>   14.8382    0.0000 </r>
       <r>   15.2941    0.0000 </r>
       <r>   15.5167    0.0000 </r>
       <r>   16.0148    0.0000 </r>
      </set>
      <set comment="kpoint 13">
       <r>  -12.5341    1.0000 </r>
       <r>  -11.7276    1.0000 </r>
       <r>   -8.5393    1.0000 </r>
       <r>   -8.3342    1.0000 </r>
       <r>   -5.8831    1.0000 </r>
       <r>   -5.7085    1.0000 </r>
       <r>   -4.9378    1.0000 </r>
       <r>   -4.6906    1.0000 </r>
       <r>   -4.1013    1.0000 </r>
       <r>   -3.1649    1.0000 </r>
       <r>   -2.6469    1.0000 </r>
       <r>   -1.8760    1.0000 </r>
       <r>   -1.1271    1.0000 </r>
       <r>   -0.8764    1.0000 </r>
       <r>   -0.4355    1.0000 </r>
       <r>   -0.0778    1.0000 </r>
       <r>    0.0297    1.0000 </r>
       <r>    0.2729    1.0000 </r>
       <r>    0.5093    1.0000 </r>
       <r>    1.1809    1.0000 </r>
       <r>    1.2651    1.0000 </r>
       <r>    1.9342    0.2553 </r>
       <r>    5.7065    0.0000 </r>
       <r>    6.1153    0.0000 </r>
       <r>    6.2962    0.0000 </r>
       <r>    6.3860    0.0000 </r>
       <r>    7.3707    0.0000 </r>
       <r>    7.8709    0.0000 </r>
       <r>    8.0219    0.0000 </r>
       <r>    8.9557    0.0000 </r>
       <r>    9.2497    0.0000 </r>
       <r>    9.7238    0.0000 </r>
       <r>    9.8820    0.0000 </r>
       <r>   10.1451    0.0000 </r>
       <r>   10.2738    0.0000 </r>
       <r>   11.0669    0.0000 </r>
       <r>   11.6015    0.0000 </r>
       <r>   12.1220    0.0000 </r>
       <r>   12.5242    0.0000 </r>
       <r>   12.8166    0.0000 </r>
       <r>   13.0586    0.0000 </r>
       <r>   13.4637    0.0000 </r>
       <r>   13.9931    0.0000 </r>
       <r>   14.6159    0.0000 </r>
       <r>   14.8892    0.0000 </r>
       <r>   15.3181    0.0000 </r>
       <r>   15.5388    0.0000 </r>
       <r>   16.2226    0.0000 </r>
      </set>
      <set comment="kpoint 14">
       <r>  -12.4104    1.0000 </r>
       <r>  -11.8974    1.0000 </r>
       <r>   -8.4769    1.0000 </r>
       <r>   -8.3331    1.0000 </r>
       <r>   -5.9596    1.0000 </r>
       <r>   -5.9387    1.0000 </r>
       <r>   -4.8026    1.0000 </r>
       <r>   -4.3686    1.0000 </r>
       <r>   -4.2649    1.0000 </r>
       <r>   -2.7978    1.0000 </r>
       <r>   -2.3087    1.0000 </r>
       <r>   -2.1645    1.0000 </r>
       <r>   -1.0716    1.0000 </r>
       <r>   -1.0154    1.0000 </r>
       <r>   -0.4403    1.0000 </r>
       <r>   -0.3635    1.0000 </r>
       <r>    0.0733    1.0000 </r>
       <r>    0.0767    1.0000 </r>
       <r>    0.6563    1.0000 </r>
       <r>    1.0495    1.0000 </r>
       <r>    1.1312    1.0000 </r>
       <r>    1.5988    1.0000 </r>
       <r>    6.1244    0.0000 </r>
       <r>    6.2437    0.0000 </r>
       <r>    6.4173    0.0000 </r>
       <r>    6.8232    0.0000 </r>
       <r>    7.3141    0.0000 </r>
       <r>    7.7956    0.0000 </r>
       <r>    8.0860    0.0000 </r>
       <r>    9.0573    0.0000 </r>
       <r>    9.1217    0.0000 </r>
       <r>    9.1908    0.0000 </r>
       <r>    9.9016    0.0000 </r>
       <r>   10.1898    0.0000 </r>
       <r>   10.7076    0.0000 </r>
       <r>   11.0914    0.0000 </r>
       <r>   11.3288    0.0000 </r>
       <r>   11.9686    0.0000 </r>
       <r>   12.3646    0.0000 </r>
       <r>   13.0042    0.0000 </r>
       <r>   13.0488    0.0000 </r>
       <r>   13.8118    0.0000 </r>
       <r>   14.4008    0.0000 </r>
       <r>   14.4232    0.0000 </r>
       <r>   15.0496    0.0000 </r>
       <r>   15.1555    0.0000 </r>
       <r>   15.6381    0.0000 </r>
       <r>   16.3999    0.0000 </r>
      </set>
      <set comment="kpoint 15">
       <r>  -12.2556    1.0000 </r>
       <r>  -12.0796    1.0000 </r>
       <r>   -8.4088    1.0000 </r>
       <r>   -8.3565    1.0000 </r>
       <r>   -6.0492    1.0000 </r>
       <r>   -6.0444    1.0000 </r>
       <r>   -4.6352    1.0000 </r>
       <r>   -4.4499    1.0000 </r>
       <r>   -3.8546    1.0000 </r>
       <r>   -3.2560    1.0000 </r>
       <r>   -2.0226    1.0000 </r>
       <r>   -1.8585    1.0000 </r>
       <r>   -1.0866    1.0000 </r>
       <r>   -1.0300    1.0000 </r>
       <r>   -0.6154    1.0000 </r>
       <r>   -0.6138    1.0000 </r>
       <r>    0.0228    1.0000 </r>
       <r>    0.0676    1.0000 </r>
       <r>    0.9177    1.0000 </r>
       <r>    0.9857    1.0000 </r>
       <r>    1.0259    1.0000 </r>
       <r>    1.2464    1.0000 </r>
       <r>    6.2171    0.0000 </r>
       <r>    6.3349    0.0000 </r>
       <r>    6.8995    0.0000 </r>
       <r>    7.2353    0.0000 </r>
       <r>    7.2941    0.0000 </r>
       <r>    7.6442    0.0000 </r>
       <r>    7.9465    0.0000 </r>
       <r>    8.4631    0.0000 </r>
       <r>    9.1128    0.0000 </r>
       <r>    9.1406    0.0000 </r>
       <r>   10.0236    0.0000 </r>
       <r>   10.4946    0.0000 </r>
       <r>   10.7137    0.0000 </r>
       <r>   10.9888    0.0000 </r>
       <r>   11.7450    0.0000 </r>
       <r>   11.7583    0.0000 </r>
       <r>   12.1402    0.0000 </r>
       <r>   12.9207    0.0000 </r>
       <r>   13.4377    0.0000 </r>
       <r>   13.7862    0.0000 </r>
       <r>   14.2464    0.0000 </r>
       <r>   14.4013    0.0000 </r>
       <r>   15.0267    0.0000 </r>
       <r>   15.1631    0.0000 </r>
       <r>   16.0219    0.0000 </r>
       <r>   16.3285    0.0000 </r>
      </set>
      <set comment="kpoint 16">
       <r>  -12.6057    1.0000 </r>
       <r>  -11.4678    1.0000 </r>
       <r>   -8.5614    1.0000 </r>
       <r>   -8.3015    1.0000 </r>
       <r>   -5.9223    1.0000 </r>
       <r>   -5.6092    1.0000 </r>
       <r>   -4.9293    1.0000 </r>
       <r>   -4.5413    1.0000 </r>
       <r>   -4.4342    1.0000 </r>
       <r>   -4.1109    1.0000 </r>
       <r>   -3.3969    1.0000 </r>
       <r>   -1.2014    1.0000 </r>
       <r>   -1.0510    1.0000 </r>
       <r>   -0.9845    1.0000 </r>
       <r>   -0.1797    1.0000 </r>
       <r>    0.2331    1.0000 </r>
       <r>    0.3568    1.0000 </r>
       <r>    0.6116    1.0000 </r>
       <r>    0.8058    1.0000 </r>
       <r>    1.0079    1.0000 </r>
       <r>    1.0222    1.0000 </r>
       <r>    2.3619    0.0000 </r>
       <r>    4.9614    0.0000 </r>
       <r>    5.1785    0.0000 </r>
       <r>    6.3825    0.0000 </r>
       <r>    6.6014    0.0000 </r>
       <r>    7.2659    0.0000 </r>
       <r>    7.9875    0.0000 </r>
       <r>    8.7021    0.0000 </r>
       <r>    9.0727    0.0000 </r>
       <r>    9.4665    0.0000 </r>
       <r>    9.6012    0.0000 </r>
       <r>    9.6547    0.0000 </r>
       <r>   10.7796    0.0000 </r>
       <r>   11.3000    0.0000 </r>
       <r>   11.9869    0.0000 </r>
       <r>   12.0281    0.0000 </r>
       <r>   12.3173    0.0000 </r>
       <r>   12.4442    0.0000 </r>
       <r>   12.4627    0.0000 </r>
       <r>   12.5841    0.0000 </r>
       <r>   13.0078    0.0000 </r>
       <r>   13.8072    0.0000 </r>
       <r>   13.9012    0.0000 </r>
       <r>   14.4258    0.0000 </r>
       <r>   15.1216    0.0000 </r>
       <r>   15.4214    0.0000 </r>
       <r>   15.8832    0.0000 </r>
      </set>
      <set comment="kpoint 17">
       <r>  -12.5622    1.0000 </r>
       <r>  -11.5412    1.0000 </r>
       <r>   -8.5394    1.0000 </r>
       <r>   -8.2920    1.0000 </r>
       <r>   -5.8438    1.0000 </r>
       <r>   -5.5736    1.0000 </r>
       <r>   -5.2687    1.0000 </r>
       <r>   -4.6765    1.0000 </r>
       <r>   -4.4989    1.0000 </r>
       <r>   -3.6458    1.0000 </r>
       <r>   -3.0579    1.0000 </r>
       <r>   -1.3698    1.0000 </r>
       <r>   -1.1444    1.0000 </r>
       <r>   -0.9993    1.0000 </r>
       <r>   -0.1803    1.0000 </r>
       <r>    0.2176    1.0000 </r>
       <r>    0.2904    1.0000 </r>
       <r>    0.5921    1.0000 </r>
       <r>    0.6835    1.0000 </r>
       <r>    0.9417    1.0000 </r>
       <r>    0.9803    1.0000 </r>
       <r>    2.2247    0.0000 </r>
       <r>    5.0584    0.0000 </r>
       <r>    5.5111    0.0000 </r>
       <r>    6.3254    0.0000 </r>
       <r>    6.7359    0.0000 </r>
       <r>    7.4037    0.0000 </r>
       <r>    7.9435    0.0000 </r>
       <r>    8.6429    0.0000 </r>
       <r>    9.1819    0.0000 </r>
       <r>    9.4337    0.0000 </r>
       <r>    9.8113    0.0000 </r>
       <r>    9.9011    0.0000 </r>
       <r>   10.3654    0.0000 </r>
       <r>   10.7315    0.0000 </r>
       <r>   11.7167    0.0000 </r>
       <r>   11.8995    0.0000 </r>
       <r>   12.2600    0.0000 </r>
       <r>   12.4991    0.0000 </r>
       <r>   12.6580    0.0000 </r>
       <r>   12.9838    0.0000 </r>
       <r>   13.4144    0.0000 </r>
       <r>   13.8089    0.0000 </r>
       <r>   13.9435    0.0000 </r>
       <r>   14.2669    0.0000 </r>
       <r>   15.0893    0.0000 </r>
       <r>   15.4519    0.0000 </r>
       <r>   15.7535    0.0000 </r>
      </set>
      <set comment="kpoint 18">
       <r>  -12.4768    1.0000 </r>
       <r>  -11.6741    1.0000 </r>
       <r>   -8.4945    1.0000 </r>
       <r>   -8.2806    1.0000 </r>
       <r>   -5.8064    1.0000 </r>
       <r>   -5.6562    1.0000 </r>
       <r>   -5.4207    1.0000 </r>
       <r>   -4.6506    1.0000 </r>
       <r>   -4.6202    1.0000 </r>
       <r>   -3.1054    1.0000 </r>
       <r>   -2.5876    1.0000 </r>
       <r>   -1.8571    1.0000 </r>
       <r>   -1.0848    1.0000 </r>
       <r>   -1.0176    1.0000 </r>
       <r>   -0.2005    1.0000 </r>
       <r>   -0.0372    1.0000 </r>
       <r>    0.3319    1.0000 </r>
       <r>    0.5241    1.0000 </r>
       <r>    0.5378    1.0000 </r>
       <r>    0.8509    1.0000 </r>
       <r>    0.9099    1.0000 </r>
       <r>    1.9662    0.0589 </r>
       <r>    5.3857    0.0000 </r>
       <r>    5.9855    0.0000 </r>
       <r>    6.2938    0.0000 </r>
       <r>    6.8495    0.0000 </r>
       <r>    7.5774    0.0000 </r>
       <r>    7.9595    0.0000 </r>
       <r>    8.5718    0.0000 </r>
       <r>    9.3750    0.0000 </r>
       <r>    9.4008    0.0000 </r>
       <r>    9.6188    0.0000 </r>
       <r>   10.0590    0.0000 </r>
       <r>   10.1287    0.0000 </r>
       <r>   10.5643    0.0000 </r>
       <r>   11.3933    0.0000 </r>
       <r>   11.4103    0.0000 </r>
       <r>   12.2525    0.0000 </r>
       <r>   12.7565    0.0000 </r>
       <r>   12.9731    0.0000 </r>
       <r>   13.1992    0.0000 </r>
       <r>   13.5478    0.0000 </r>
       <r>   13.7811    0.0000 </r>
       <r>   14.0345    0.0000 </r>
       <r>   14.4072    0.0000 </r>
       <r>   15.1819    0.0000 </r>
       <r>   15.3840    0.0000 </r>
       <r>   16.0139    0.0000 </r>
      </set>
      <set comment="kpoint 19">
       <r>  -12.3541    1.0000 </r>
       <r>  -11.8429    1.0000 </r>
       <r>   -8.4314    1.0000 </r>
       <r>   -8.2821    1.0000 </r>
       <r>   -5.8803    1.0000 </r>
       <r>   -5.8662    1.0000 </r>
       <r>   -5.3077    1.0000 </r>
       <r>   -4.7836    1.0000 </r>
       <r>   -4.3327    1.0000 </r>
       <r>   -2.7521    1.0000 </r>
       <r>   -2.2666    1.0000 </r>
       <r>   -2.1086    1.0000 </r>
       <r>   -1.0249    1.0000 </r>
       <r>   -1.0014    1.0000 </r>
       <r>   -0.3626    1.0000 </r>
       <r>   -0.3145    1.0000 </r>
       <r>    0.1678    1.0000 </r>
       <r>    0.3926    1.0000 </r>
       <r>    0.6784    1.0000 </r>
       <r>    0.7935    1.0000 </r>
       <r>    0.8408    1.0000 </r>
       <r>    1.6256    1.0000 </r>
       <r>    5.9136    0.0000 </r>
       <r>    6.3236    0.0000 </r>
       <r>    6.5673    0.0000 </r>
       <r>    6.8009    0.0000 </r>
       <r>    7.5854    0.0000 </r>
       <r>    8.0213    0.0000 </r>
       <r>    8.5286    0.0000 </r>
       <r>    8.9375    0.0000 </r>
       <r>    9.2836    0.0000 </r>
       <r>    9.5957    0.0000 </r>
       <r>    9.9162    0.0000 </r>
       <r>   10.3554    0.0000 </r>
       <r>   10.8042    0.0000 </r>
       <r>   11.1005    0.0000 </r>
       <r>   11.4471    0.0000 </r>
       <r>   12.1841    0.0000 </r>
       <r>   12.4312    0.0000 </r>
       <r>   13.1815    0.0000 </r>
       <r>   13.2971    0.0000 </r>
       <r>   13.6747    0.0000 </r>
       <r>   13.9221    0.0000 </r>
       <r>   14.1728    0.0000 </r>
       <r>   14.7815    0.0000 </r>
       <r>   15.0228    0.0000 </r>
       <r>   15.4550    0.0000 </r>
       <r>   16.3669    0.0000 </r>
      </set>
      <set comment="kpoint 20">
       <r>  -12.2000    1.0000 </r>
       <r>  -12.0248    1.0000 </r>
       <r>   -8.3624    1.0000 </r>
       <r>   -8.3083    1.0000 </r>
       <r>   -5.9718    1.0000 </r>
       <r>   -5.9651    1.0000 </r>
       <r>   -5.1464    1.0000 </r>
       <r>   -4.9655    1.0000 </r>
       <r>   -3.8219    1.0000 </r>
       <r>   -3.2262    1.0000 </r>
       <r>   -1.9662    1.0000 </r>
       <r>   -1.8113    1.0000 </r>
       <r>   -0.9643    1.0000 </r>
       <r>   -0.9057    1.0000 </r>
       <r>   -0.6592    1.0000 </r>
       <r>   -0.6134    1.0000 </r>
       <r>    0.1423    1.0000 </r>
       <r>    0.2431    1.0000 </r>
       <r>    0.7777    1.0000 </r>
       <r>    0.7934    1.0000 </r>
       <r>    0.9429    1.0000 </r>
       <r>    1.2678    1.0000 </r>
       <r>    6.4584    0.0000 </r>
       <r>    6.5753    0.0000 </r>
       <r>    6.6385    0.0000 </r>
       <r>    7.1591    0.0000 </r>
       <r>    7.2270    0.0000 </r>
       <r>    7.7155    0.0000 </r>
       <r>    8.5191    0.0000 </r>
       <r>    8.5849    0.0000 </r>
       <r>    9.4754    0.0000 </r>
       <r>    9.6536    0.0000 </r>
       <r>    9.8571    0.0000 </r>
       <r>   10.1540    0.0000 </r>
       <r>   10.8659    0.0000 </r>
       <r>   11.2446    0.0000 </r>
       <r>   11.8778    0.0000 </r>
       <r>   11.9573    0.0000 </r>
       <r>   12.2627    0.0000 </r>
       <r>   13.1604    0.0000 </r>
       <r>   13.4598    0.0000 </r>
       <r>   13.6384    0.0000 </r>
       <r>   13.8653    0.0000 </r>
       <r>   13.9665    0.0000 </r>
       <r>   15.1326    0.0000 </r>
       <r>   15.1472    0.0000 </r>
       <r>   15.6956    0.0000 </r>
       <r>   16.0030    0.0000 </r>
      </set>
      <set comment="kpoint 21">
       <r>  -12.5453    1.0000 </r>
[...]
       <r>   -2.3110    1.0000 </r>
       <r>   -2.1287    1.0000 </r>
       <r>   -1.9667    1.0000 </r>
       <r>   -1.4812    1.0000 </r>
       <r>   -0.7268    1.0000 </r>
       <r>   -0.1850    1.0000 </r>
       <r>    0.1844    1.0000 </r>
       <r>    0.4054    1.0000 </r>
       <r>    0.5290    1.0000 </r>
       <r>    1.6083    1.0000 </r>
       <r>    1.6461    1.0000 </r>
       <r>    1.9031    0.5879 </r>
       <r>    5.5299    0.0000 </r>
       <r>    6.1608    0.0000 </r>
       <r>    6.6824    0.0000 </r>
       <r>    7.2353    0.0000 </r>
       <r>    7.7931    0.0000 </r>
       <r>    8.2459    0.0000 </r>
       <r>    9.0087    0.0000 </r>
       <r>    9.1653    0.0000 </r>
       <r>    9.7420    0.0000 </r>
       <r>    9.9770    0.0000 </r>
       <r>   10.6094    0.0000 </r>
       <r>   11.0424    0.0000 </r>
       <r>   11.2119    0.0000 </r>
       <r>   11.4738    0.0000 </r>
       <r>   11.5789    0.0000 </r>
       <r>   11.9713    0.0000 </r>
       <r>   12.8562    0.0000 </r>
       <r>   13.1514    0.0000 </r>
       <r>   13.3812    0.0000 </r>
       <r>   13.7751    0.0000 </r>
       <r>   13.8869    0.0000 </r>
       <r>   14.1848    0.0000 </r>
       <r>   14.5081    0.0000 </r>
       <r>   14.9831    0.0000 </r>
       <r>   15.1142    0.0000 </r>
       <r>   15.4084    0.0000 </r>
      </set>
      <set comment="kpoint 175">
       <r>  -12.0224    1.0000 </r>
       <r>  -11.8820    1.0000 </r>
       <r>   -8.5496    1.0000 </r>
       <r>   -8.4370    1.0000 </r>
       <r>   -5.9291    1.0000 </r>
       <r>   -5.8239    1.0000 </r>
       <r>   -4.8888    1.0000 </r>
       <r>   -4.5641    1.0000 </r>
       <r>   -4.4084    1.0000 </r>
       <r>   -3.9702    1.0000 </r>
       <r>   -2.1811    1.0000 </r>
       <r>   -2.1202    1.0000 </r>
       <r>   -2.0526    1.0000 </r>
       <r>   -1.7662    1.0000 </r>
       <r>   -0.2058    1.0000 </r>
       <r>    0.0108    1.0000 </r>
       <r>    0.4075    1.0000 </r>
       <r>    0.4979    1.0000 </r>
       <r>    0.5674    1.0000 </r>
       <r>    0.8948    1.0000 </r>
       <r>    1.6615    1.0000 </r>
       <r>    1.7617    1.0000 </r>
       <r>    5.8738    0.0000 </r>
       <r>    6.0585    0.0000 </r>
       <r>    6.8853    0.0000 </r>
       <r>    7.4199    0.0000 </r>
       <r>    7.4919    0.0000 </r>
       <r>    7.5879    0.0000 </r>
       <r>    9.4171    0.0000 </r>
       <r>    9.6036    0.0000 </r>
       <r>    9.8111    0.0000 </r>
       <r>    9.9935    0.0000 </r>
       <r>   10.4824    0.0000 </r>
       <r>   10.8298    0.0000 </r>
       <r>   11.2485    0.0000 </r>
       <r>   11.5153    0.0000 </r>
       <r>   11.5189    0.0000 </r>
       <r>   11.6262    0.0000 </r>
       <r>   13.0982    0.0000 </r>
       <r>   13.2038    0.0000 </r>
       <r>   13.7256    0.0000 </r>
       <r>   14.0795    0.0000 </r>
       <r>   14.2152    0.0000 </r>
       <r>   14.3079    0.0000 </r>
       <r>   14.6171    0.0000 </r>
       <r>   14.7501    0.0000 </r>
       <r>   14.8994    0.0000 </r>
       <r>   15.0757    0.0000 </r>
      </set>
     </set>
    </set>
   </array>
  </eigenvalues>
  <separator name="orbital magnetization" >
   <v name="MAGDIPOLOUT">      0.00000000      0.00000000      0.00000000</v>
  </separator>
  <dos>
   <i name="efermi">      1.91091145 </i>
   <total>
    <array>
     <dimension dim="1">gridpoints</dimension>
     <dimension dim="2">spin</dimension>
     <field>energy</field>
     <field>total</field>
     <field>integrated</field>
     <set>
      <set comment="spin 1">
       <r>   -14.1960     0.0000     0.0000 </r>
       <r>   -14.0886     0.0000     0.0000 </r>
       <r>   -13.9813     0.0000     0.0000 </r>
       <r>   -13.8739     0.0000     0.0000 </r>
       <r>   -13.7666     0.0000     0.0000 </r>
       <r>   -13.6592     0.0000     0.0000 </r>
       <r>   -13.5519     0.0000     0.0000 </r>
       <r>   -13.4445     0.0000     0.0000 </r>
       <r>   -13.3372     0.0000     0.0000 </r>
       <r>   -13.2298     0.0000     0.0000 </r>
       <r>   -13.1225     0.0000     0.0000 </r>
       <r>   -13.0151     0.0000     0.0000 </r>
       <r>   -12.9078     0.0000     0.0000 </r>
       <r>   -12.8004     0.0037     0.0004 </r>
       <r>   -12.6931     0.5012     0.0542 </r>
       <r>   -12.5857     2.3654     0.3081 </r>
       <r>   -12.4784     3.5331     0.6874 </r>
       <r>   -12.3710     4.3443     1.1538 </r>
       <r>   -12.2637     3.5288     1.5326 </r>
       <r>   -12.1563     2.7272     1.8254 </r>
       <r>   -12.0490     2.7383     2.1193 </r>
       <r>   -11.9416     2.4761     2.3851 </r>
       <r>   -11.8343     2.7670     2.6822 </r>
       <r>   -11.7269     3.3545     3.0423 </r>
       <r>   -11.6196     3.5136     3.4195 </r>
       <r>   -11.5122     3.1603     3.7587 </r>
       <r>   -11.4049     1.7453     3.9461 </r>
       <r>   -11.2975     0.4901     3.9987 </r>
       <r>   -11.1902     0.0120     4.0000 </r>
       <r>   -11.0828     0.0000     4.0000 </r>
       <r>   -10.9755     0.0000     4.0000 </r>
       <r>   -10.8681     0.0000     4.0000 </r>
       <r>   -10.7608     0.0000     4.0000 </r>
       <r>   -10.6534     0.0000     4.0000 </r>
       <r>   -10.5461     0.0000     4.0000 </r>
       <r>   -10.4387     0.0000     4.0000 </r>
       <r>   -10.3314     0.0000     4.0000 </r>
       <r>   -10.2240     0.0000     4.0000 </r>
       <r>   -10.1167     0.0000     4.0000 </r>
       <r>   -10.0093     0.0000     4.0000 </r>
       <r>    -9.9020     0.0000     4.0000 </r>
       <r>    -9.7946     0.0000     4.0000 </r>
       <r>    -9.6873     0.0000     4.0000 </r>
       <r>    -9.5799     0.0000     4.0000 </r>
       <r>    -9.4726     0.0000     4.0000 </r>
       <r>    -9.3652     0.0000     4.0000 </r>
       <r>    -9.2579     0.0000     4.0000 </r>
       <r>    -9.1505     0.0000     4.0000 </r>
       <r>    -9.0432     0.0000     4.0000 </r>
       <r>    -8.9358     0.0007     4.0001 </r>
       <r>    -8.8285     0.2798     4.0301 </r>
       <r>    -8.7211     2.0856     4.2540 </r>
       <r>    -8.6138     5.3058     4.8236 </r>
       <r>    -8.5064     6.9881     5.5738 </r>
       <r>    -8.3991     6.2842     6.2484 </r>
       <r>    -8.2917     5.3013     6.8175 </r>
       <r>    -8.1844     4.8131     7.3342 </r>
       <r>    -8.0770     3.8845     7.7512 </r>
       <r>    -7.9697     1.6795     7.9315 </r>
       <r>    -7.8623     0.5847     7.9942 </r>
       <r>    -7.7550     0.0537     8.0000 </r>
       <r>    -7.6476     0.0000     8.0000 </r>
       <r>    -7.5403     0.0000     8.0000 </r>
       <r>    -7.4329     0.0000     8.0000 </r>
       <r>    -7.3256     0.0000     8.0000 </r>
       <r>    -7.2182     0.0000     8.0000 </r>
       <r>    -7.1109     0.0000     8.0000 </r>
       <r>    -7.0035     0.0004     8.0000 </r>
       <r>    -6.8962     0.1106     8.0119 </r>
       <r>    -6.7888     0.2601     8.0398 </r>
       <r>    -6.6815     0.4238     8.0853 </r>
       <r>    -6.5741     0.7668     8.1677 </r>
       <r>    -6.4668     0.8550     8.2594 </r>
       <r>    -6.3594     1.4513     8.4152 </r>
       <r>    -6.2520     1.9704     8.6268 </r>
       <r>    -6.1447     3.0527     8.9545 </r>
       <r>    -6.0373     3.7855     9.3608 </r>
       <r>    -5.9300     4.1102     9.8021 </r>
       <r>    -5.8226     4.0770    10.2398 </r>
       <r>    -5.7153     3.8405    10.6520 </r>
       <r>    -5.6079     4.0805    11.0901 </r>
       <r>    -5.5006     4.2542    11.5468 </r>
       <r>    -5.3932     4.5360    12.0337 </r>
       <r>    -5.2859     4.5654    12.5238 </r>
       <r>    -5.1785     4.4731    13.0040 </r>
       <r>    -5.0712     3.8351    13.4157 </r>
       <r>    -4.9638     3.2325    13.7627 </r>
       <r>    -4.8565     2.9477    14.0791 </r>
       <r>    -4.7491     2.3169    14.3279 </r>
       <r>    -4.6418     2.8731    14.6363 </r>
       <r>    -4.5344     3.3563    14.9966 </r>
       <r>    -4.4271     3.4443    15.3663 </r>
       <r>    -4.3197     3.3351    15.7244 </r>
       <r>    -4.2124     2.9645    16.0426 </r>
       <r>    -4.1050     2.8699    16.3507 </r>
       <r>    -3.9977     2.9340    16.6657 </r>
       <r>    -3.8903     2.8658    16.9733 </r>
       <r>    -3.7830     3.0631    17.3021 </r>
       <r>    -3.6756     2.9199    17.6156 </r>
       <r>    -3.5683     2.6815    17.9034 </r>
       <r>    -3.4609     3.0754    18.2336 </r>
       <r>    -3.3536     2.6420    18.5172 </r>
       <r>    -3.2462     2.8286    18.8209 </r>
       <r>    -3.1389     2.7469    19.1157 </r>
       <r>    -3.0315     2.7193    19.4077 </r>
       <r>    -2.9242     3.0729    19.7375 </r>
       <r>    -2.8168     2.9703    20.0564 </r>
       <r>    -2.7095     2.4287    20.3171 </r>
       <r>    -2.6021     2.6133    20.5977 </r>
       <r>    -2.4948     2.9816    20.9177 </r>
       <r>    -2.3874     3.0111    21.2410 </r>
       <r>    -2.2801     3.3129    21.5966 </r>
       <r>    -2.1727     3.9072    22.0161 </r>
       <r>    -2.0654     3.6192    22.4046 </r>
       <r>    -1.9580     3.1736    22.7453 </r>
       <r>    -1.8507     4.9653    23.2783 </r>
       <r>    -1.7433     5.6132    23.8809 </r>
       <r>    -1.6360     5.6208    24.4843 </r>
       <r>    -1.5286     6.1393    25.1433 </r>
       <r>    -1.4213     6.0953    25.7977 </r>
       <r>    -1.3139     5.5910    26.3979 </r>
       <r>    -1.2066     4.7016    26.9026 </r>
       <r>    -1.0992     6.4836    27.5986 </r>
       <r>    -0.9919     4.0901    28.0377 </r>
       <r>    -0.8845     2.2899    28.2835 </r>
       <r>    -0.7772     2.7011    28.5735 </r>
       <r>    -0.6698     2.8604    28.8805 </r>
       <r>    -0.5625     4.4391    29.3571 </r>
       <r>    -0.4551     6.8008    30.0872 </r>
       <r>    -0.3478     5.6240    30.6909 </r>
       <r>    -0.2404     6.6176    31.4013 </r>
       <r>    -0.1331     6.3251    32.0803 </r>
       <r>    -0.0257     6.7179    32.8015 </r>
       <r>     0.0816     6.8053    33.5320 </r>
       <r>     0.1890     6.2110    34.1988 </r>
       <r>     0.2963     8.7842    35.1418 </r>
       <r>     0.4037     8.0261    36.0034 </r>
       <r>     0.5110     8.6086    36.9275 </r>
       <r>     0.6184     5.4280    37.5102 </r>
       <r>     0.7257     3.0251    37.8350 </r>
       <r>     0.8331     3.1903    38.1774 </r>
       <r>     0.9404     3.5690    38.5606 </r>
       <r>     1.0478     3.5369    38.9403 </r>
       <r>     1.1551     2.8032    39.2412 </r>
       <r>     1.2625     3.2668    39.5919 </r>
       <r>     1.3698     4.3525    40.0591 </r>
       <r>     1.4772     3.8976    40.4775 </r>
       <r>     1.5845     3.7026    40.8750 </r>
       <r>     1.6919     4.5098    41.3591 </r>
       <r>     1.7993     3.4175    41.7260 </r>
       <r>     1.9066     2.4484    41.9889 </r>
       <r>     2.0140     2.6923    42.2779 </r>
       <r>     2.1213     2.1075    42.5041 </r>
       <r>     2.2287     2.6506    42.7887 </r>
       <r>     2.3360     2.6336    43.0714 </r>
       <r>     2.4434     2.0182    43.2881 </r>
       <r>     2.5507     0.9488    43.3899 </r>
       <r>     2.6581     0.3758    43.4302 </r>
       <r>     2.7654     0.5821    43.4927 </r>
       <r>     2.8728     0.4115    43.5369 </r>
       <r>     2.9801     0.3165    43.5709 </r>
       <r>     3.0875     0.7056    43.6466 </r>
       <r>     3.1948     1.0202    43.7561 </r>
       <r>     3.3022     0.5947    43.8200 </r>
       <r>     3.4095     0.0213    43.8223 </r>
       <r>     3.5169     0.1149    43.8346 </r>
       <r>     3.6242     0.3779    43.8752 </r>
       <r>     3.7316     0.3509    43.9128 </r>
       <r>     3.8389     0.3575    43.9512 </r>
       <r>     3.9463     0.4144    43.9957 </r>
       <r>     4.0536     0.0401    44.0000 </r>
       <r>     4.1610     0.0000    44.0000 </r>
       <r>     4.2683     0.0290    44.0031 </r>
       <r>     4.3757     0.1745    44.0218 </r>
       <r>     4.4830     0.4007    44.0649 </r>
       <r>     4.5904     0.4651    44.1148 </r>
       <r>     4.6977     0.6290    44.1823 </r>
       <r>     4.8051     0.8868    44.2775 </r>
       <r>     4.9124     0.8345    44.3671 </r>
       <r>     5.0198     0.8527    44.4586 </r>
       <r>     5.1271     1.2636    44.5943 </r>
       <r>     5.2345     1.1543    44.7182 </r>
       <r>     5.3418     1.6202    44.8921 </r>
       <r>     5.4492     2.1857    45.1268 </r>
       <r>     5.5565     2.4923    45.3943 </r>
       <r>     5.6639     2.7611    45.6907 </r>
       <r>     5.7712     3.3572    46.0511 </r>
       <r>     5.8786     3.2452    46.3995 </r>
       <r>     5.9859     4.2902    46.8600 </r>
       <r>     6.0933     4.7740    47.3725 </r>
       <r>     6.2006     3.9941    47.8013 </r>
       <r>     6.3080     4.6174    48.2970 </r>
       <r>     6.4153     4.1683    48.7444 </r>
       <r>     6.5227     4.0579    49.1801 </r>
       <r>     6.6300     4.4910    49.6622 </r>
       <r>     6.7374     3.1985    50.0055 </r>
       <r>     6.8447     4.0310    50.4383 </r>
       <r>     6.9521     4.6342    50.9357 </r>
       <r>     7.0594     4.5808    51.4275 </r>
       <r>     7.1668     4.3597    51.8955 </r>
       <r>     7.2741     5.6399    52.5010 </r>
       <r>     7.3815     4.8798    53.0248 </r>
       <r>     7.4888     4.4589    53.5035 </r>
       <r>     7.5962     4.1588    53.9499 </r>
       <r>     7.7035     3.5764    54.3339 </r>
       <r>     7.8109     3.1128    54.6680 </r>
       <r>     7.9182     2.9992    54.9900 </r>
       <r>     8.0256     3.0196    55.3142 </r>
       <r>     8.1329     4.2099    55.7661 </r>
       <r>     8.2403     3.9419    56.1893 </r>
       <r>     8.3476     3.6612    56.5823 </r>
       <r>     8.4550     4.1149    57.0240 </r>
       <r>     8.5623     4.1136    57.4656 </r>
       <r>     8.6697     4.5653    57.9557 </r>
       <r>     8.7770     4.3396    58.4216 </r>
       <r>     8.8844     5.3897    59.0001 </r>
       <r>     8.9917     4.6969    59.5044 </r>
       <r>     9.0991     5.3623    60.0800 </r>
       <r>     9.2064     5.1601    60.6339 </r>
       <r>     9.3138     4.9083    61.1609 </r>
       <r>     9.4211     4.7350    61.6692 </r>
       <r>     9.5285     4.3239    62.1333 </r>
       <r>     9.6358     5.1592    62.6872 </r>
       <r>     9.7432     4.9236    63.2157 </r>
       <r>     9.8506     5.3039    63.7851 </r>
       <r>     9.9579     4.3232    64.2492 </r>
       <r>    10.0653     3.7489    64.6517 </r>
       <r>    10.1726     5.3817    65.2294 </r>
       <r>    10.2800     4.5197    65.7146 </r>
       <r>    10.3873     4.1925    66.1646 </r>
       <r>    10.4947     5.6482    66.7710 </r>
       <r>    10.6020     5.4467    67.3557 </r>
       <r>    10.7094     4.1616    67.8024 </r>
       <r>    10.8167     3.7453    68.2045 </r>
       <r>    10.9241     3.3214    68.5611 </r>
       <r>    11.0314     4.9184    69.0890 </r>
       <r>    11.1388     5.3777    69.6663 </r>
       <r>    11.2461     6.4574    70.3595 </r>
       <r>    11.3535     5.7740    70.9794 </r>
       <r>    11.4608     5.2062    71.5383 </r>
       <r>    11.5682     4.3227    72.0023 </r>
       <r>    11.6755     4.4867    72.4840 </r>
       <r>    11.7829     4.9823    73.0188 </r>
       <r>    11.8902     4.9107    73.5460 </r>
       <r>    11.9976     5.9521    74.1850 </r>
       <r>    12.1049     6.1375    74.8438 </r>
       <r>    12.2123     5.7797    75.4643 </r>
       <r>    12.3196     5.6670    76.0726 </r>
       <r>    12.4270     4.9185    76.6006 </r>
       <r>    12.5343     5.6404    77.2061 </r>
       <r>    12.6417     6.0545    77.8561 </r>
       <r>    12.7490     5.9576    78.4956 </r>
       <r>    12.8564     5.7547    79.1134 </r>
       <r>    12.9637     5.8935    79.7461 </r>
       <r>    13.0711     5.6063    80.3479 </r>
       <r>    13.1784     6.4087    81.0359 </r>
       <r>    13.2858     6.0354    81.6838 </r>
       <r>    13.3931     5.5566    82.2803 </r>
       <r>    13.5005     6.1047    82.9356 </r>
       <r>    13.6078     5.2522    83.4995 </r>
       <r>    13.7152     4.7959    84.0143 </r>
       <r>    13.8225     6.3290    84.6937 </r>
       <r>    13.9299     5.3588    85.2690 </r>
       <r>    14.0372     5.3534    85.8437 </r>
       <r>    14.1446     5.4185    86.4254 </r>
       <r>    14.2519     4.4942    86.9078 </r>
       <r>    14.3593     5.0695    87.4520 </r>
       <r>    14.4666     5.0042    87.9892 </r>
       <r>    14.5740     4.9505    88.5207 </r>
       <r>    14.6813     5.2056    89.0795 </r>
       <r>    14.7887     5.1471    89.6321 </r>
       <r>    14.8960     4.0780    90.0698 </r>
       <r>    15.0034     5.1848    90.6264 </r>
       <r>    15.1107     6.2475    91.2971 </r>
       <r>    15.2181     5.4889    91.8863 </r>
       <r>    15.3254     5.8881    92.5184 </r>
       <r>    15.4328     5.9608    93.1583 </r>
       <r>    15.5401     5.6625    93.7662 </r>
       <r>    15.6475     5.8493    94.3941 </r>
       <r>    15.7548     4.4268    94.8693 </r>
       <r>    15.8622     2.3867    95.1256 </r>
       <r>    15.9695     2.6982    95.4152 </r>
       <r>    16.0769     1.7811    95.6064 </r>
       <r>    16.1842     1.1030    95.7248 </r>
       <r>    16.2916     0.8841    95.8197 </r>
       <r>    16.3989     0.6801    95.8927 </r>
       <r>    16.5063     0.8106    95.9797 </r>
       <r>    16.6136     0.1869    95.9998 </r>
       <r>    16.7210     0.0017    96.0000 </r>
       <r>    16.8283     0.0000    96.0000 </r>
       <r>    16.9357     0.0000    96.0000 </r>
       <r>    17.0430     0.0000    96.0000 </r>
       <r>    17.1504     0.0000    96.0000 </r>
       <r>    17.2577     0.0000    96.0000 </r>
       <r>    17.3651     0.0000    96.0000 </r>
       <r>    17.4724     0.0000    96.0000 </r>
       <r>    17.5798     0.0000    96.0000 </r>
       <r>    17.6872     0.0000    96.0000 </r>
       <r>    17.7945     0.0000    96.0000 </r>
       <r>    17.9019     0.0000    96.0000 </r>
       <r>    18.0092     0.0000    96.0000 </r>
      </set>
     </set>
    </array>
   </total>
  </dos>
 </calculation>
 <structure name="finalpos" >
  <crystal>
   <varray name="basis" >
    <v>       5.69700000       0.00000000       0.00000000 </v>
    <v>       0.00000000       4.04790000       0.00000000 </v>
    <v>       0.00000000       0.00000000       6.20420000 </v>
   </varray>
   <i name="volume">    143.07435078 </i>
   <varray name="rec_basis" >
    <v>       0.17553098       0.00000000       0.00000000 </v>
    <v>       0.00000000       0.24704168       0.00000000 </v>
    <v>       0.00000000       0.00000000       0.16118114 </v>
   </varray>
  </crystal>
  <varray name="positions" >
   <v>       0.52123000       0.50000000       0.63796000 </v>
   <v>       0.47877000       0.50000000       0.36204000 </v>
   <v>       0.97877000       0.50000000       0.63796000 </v>
   <v>       0.02123000       0.50000000       0.36204000 </v>
   <v>       0.60090000       0.50000000       0.89991000 </v>
   <v>       0.39910000       0.50000000       0.10009000 </v>
   <v>       0.89910000       0.50000000       0.89991000 </v>
   <v>       0.10090000       0.50000000       0.10009000 </v>
   <v>       0.75000000       0.79171000       0.72973000 </v>
   <v>       0.25000000       0.20829000       0.27027000 </v>
   <v>       0.75000000       0.20829000       0.72973000 </v>
   <v>       0.25000000       0.79171000       0.27027000 </v>
   <v>       0.25000000       0.50000000       0.52367000 </v>
   <v>       0.75000000       0.50000000       0.47633000 </v>
  </varray>
 </structure>
</modeling>
