  14  14   0   0
  0.1021318E+02  0.4044058E-09  0.5700971E-09  0.6201871E-09  0.5000000E-15
  1.000000000000000E-004
  CAR 
 SC                                      
     18.01123661    -14.15222019  301      1.89959688      1.00000000
    -14.152  0.0000E+00  0.0000E+00
    -14.045  0.0000E+00  0.0000E+00
    -13.938  0.0000E+00  0.0000E+00
    -13.831  0.0000E+00  0.0000E+00
    -13.723  0.0000E+00  0.0000E+00
    -13.616  0.0000E+00  0.0000E+00
    -13.509  0.0000E+00  0.0000E+00
    -13.402  0.0000E+00  0.0000E+00
    -13.295  0.0000E+00  0.0000E+00
    -13.187  0.1145E-12  0.1228E-13
    -13.080  0.2331E-08  0.2500E-09
    -12.973  0.5496E-05  0.5895E-06
    -12.866  0.1658E-02  0.1783E-03
    -12.758  0.7696E-01  0.8429E-02
    -12.651  0.7417E+00  0.8794E-01
    -12.544  0.2231E+01  0.3271E+00
    -12.437  0.3471E+01  0.6993E+00
    -12.330  0.4015E+01  0.1130E+01
    -12.222  0.3521E+01  0.1507E+01
    -12.115  0.2882E+01  0.1816E+01
    -12.008  0.2610E+01  0.2096E+01
    -11.901  0.2554E+01  0.2370E+01
    -11.794  0.2701E+01  0.2659E+01
    -11.686  0.3126E+01  0.2995E+01
    -11.579  0.3427E+01  0.3362E+01
    -11.472  0.3058E+01  0.3690E+01
    -11.365  0.1975E+01  0.3901E+01
    -11.258  0.7797E+00  0.3985E+01
    -11.150  0.1333E+00  0.3999E+01
    -11.043  0.5911E-02  0.4000E+01
    -10.936  0.4535E-04  0.4000E+01
    -10.829  0.4737E-07  0.4000E+01
    -10.721  0.5910E-11  0.4000E+01
    -10.614  0.7890E-16  0.4000E+01
    -10.507  0.0000E+00  0.4000E+01
    -10.400  0.0000E+00  0.4000E+01
    -10.293  0.0000E+00  0.4000E+01
    -10.185  0.0000E+00  0.4000E+01
    -10.078  0.0000E+00  0.4000E+01
     -9.971  0.0000E+00  0.4000E+01
     -9.864  0.0000E+00  0.4000E+01
     -9.757  0.0000E+00  0.4000E+01
     -9.649  0.0000E+00  0.4000E+01
     -9.542  0.0000E+00  0.4000E+01
     -9.435  0.0000E+00  0.4000E+01
     -9.328  0.3782E-13  0.4000E+01
     -9.220  0.9808E-09  0.4000E+01
     -9.113  0.2911E-05  0.4000E+01
     -9.006  0.1086E-02  0.4000E+01
     -8.899  0.6056E-01  0.4007E+01
     -8.792  0.6919E+00  0.4081E+01
     -8.684  0.2678E+01  0.4368E+01
     -8.577  0.5333E+01  0.4940E+01
     -8.470  0.6333E+01  0.5619E+01
     -8.363  0.5389E+01  0.6196E+01
     -8.256  0.4780E+01  0.6709E+01
     -8.148  0.4624E+01  0.7205E+01
     -8.041  0.3859E+01  0.7618E+01
     -7.934  0.2278E+01  0.7863E+01
     -7.827  0.9729E+00  0.7967E+01
     -7.720  0.2773E+00  0.7997E+01
     -7.612  0.3089E-01  0.8000E+01
     -7.505  0.7554E-03  0.8000E+01
     -7.398  0.2762E-05  0.8000E+01
     -7.291  0.9073E-08  0.8000E+01
     -7.183  0.1037E-04  0.8000E+01
     -7.076  0.1620E-02  0.8000E+01
     -6.969  0.3503E-01  0.8004E+01
     -6.862  0.1523E+00  0.8020E+01
     -6.755  0.3213E+00  0.8055E+01
     -6.647  0.5388E+00  0.8112E+01
     -6.540  0.6973E+00  0.8187E+01
     -6.433  0.1065E+01  0.8301E+01
     -6.326  0.1599E+01  0.8473E+01
     -6.219  0.2237E+01  0.8713E+01
     -6.111  0.3281E+01  0.9065E+01
     -6.004  0.3916E+01  0.9484E+01
     -5.897  0.4144E+01  0.9929E+01
     -5.790  0.4129E+01  0.1037E+02
     -5.683  0.3877E+01  0.1079E+02
     -5.575  0.3911E+01  0.1121E+02
     -5.468  0.4419E+01  0.1168E+02
     -5.361  0.4726E+01  0.1219E+02
     -5.254  0.4883E+01  0.1271E+02
     -5.146  0.4244E+01  0.1317E+02
     -5.039  0.3407E+01  0.1353E+02
     -4.932  0.2636E+01  0.1381E+02
     -4.825  0.2367E+01  0.1407E+02
     -4.718  0.3115E+01  0.1440E+02
     -4.610  0.3797E+01  0.1481E+02
     -4.503  0.3766E+01  0.1521E+02
     -4.396  0.3150E+01  0.1555E+02
     -4.289  0.2604E+01  0.1583E+02
     -4.182  0.2542E+01  0.1610E+02
     -4.074  0.2812E+01  0.1640E+02
     -3.967  0.3073E+01  0.1673E+02
     -3.860  0.3455E+01  0.1710E+02
     -3.753  0.3379E+01  0.1746E+02
     -3.645  0.2902E+01  0.1778E+02
     -3.538  0.2366E+01  0.1803E+02
     -3.431  0.2412E+01  0.1829E+02
     -3.324  0.2653E+01  0.1857E+02
     -3.217  0.2667E+01  0.1886E+02
     -3.109  0.2716E+01  0.1915E+02
     -3.002  0.3158E+01  0.1949E+02
     -2.895  0.3308E+01  0.1984E+02
     -2.788  0.2786E+01  0.2014E+02
     -2.681  0.2301E+01  0.2039E+02
     -2.573  0.2345E+01  0.2064E+02
     -2.466  0.2794E+01  0.2094E+02
     -2.359  0.2880E+01  0.2125E+02
     -2.252  0.3126E+01  0.2158E+02
     -2.145  0.4069E+01  0.2202E+02
     -2.037  0.4136E+01  0.2246E+02
     -1.930  0.4475E+01  0.2294E+02
     -1.823  0.5195E+01  0.2350E+02
     -1.716  0.5393E+01  0.2408E+02
     -1.608  0.5487E+01  0.2467E+02
     -1.501  0.5623E+01  0.2527E+02
     -1.394  0.5495E+01  0.2586E+02
     -1.287  0.6077E+01  0.2651E+02
     -1.180  0.6134E+01  0.2717E+02
     -1.072  0.4918E+01  0.2769E+02
     -0.965  0.3464E+01  0.2807E+02
     -0.858  0.2884E+01  0.2837E+02
     -0.751  0.2989E+01  0.2870E+02
     -0.644  0.4001E+01  0.2912E+02
     -0.536  0.5384E+01  0.2970E+02
     -0.429  0.5907E+01  0.3033E+02
     -0.322  0.5800E+01  0.3096E+02
     -0.215  0.5984E+01  0.3160E+02
     -0.108  0.6779E+01  0.3233E+02
     -0.000  0.6732E+01  0.3305E+02
      0.107  0.6822E+01  0.3378E+02
      0.214  0.8887E+01  0.3473E+02
      0.321  0.8841E+01  0.3568E+02
      0.429  0.7671E+01  0.3650E+02
      0.536  0.5633E+01  0.3711E+02
      0.643  0.3941E+01  0.3753E+02
      0.750  0.3653E+01  0.3792E+02
      0.857  0.3268E+01  0.3827E+02
      0.965  0.3042E+01  0.3860E+02
      1.072  0.3481E+01  0.3897E+02
      1.179  0.3781E+01  0.3937E+02
      1.286  0.3603E+01  0.3976E+02
      1.393  0.3404E+01  0.4013E+02
      1.501  0.3657E+01  0.4052E+02
      1.608  0.4022E+01  0.4095E+02
      1.715  0.4254E+01  0.4141E+02
      1.822  0.3543E+01  0.4178E+02
      1.930  0.2704E+01  0.4207E+02
      2.037  0.2274E+01  0.4232E+02
      2.144  0.2259E+01  0.4256E+02
      2.251  0.2424E+01  0.4282E+02
      2.358  0.2400E+01  0.4308E+02
      2.466  0.1679E+01  0.4326E+02
      2.573  0.8462E+00  0.4335E+02
      2.680  0.6818E+00  0.4342E+02
      2.787  0.6345E+00  0.4349E+02
      2.894  0.5654E+00  0.4355E+02
      3.002  0.6249E+00  0.4362E+02
      3.109  0.5307E+00  0.4367E+02
      3.216  0.3667E+00  0.4371E+02
      3.323  0.3909E+00  0.4376E+02
      3.430  0.4104E+00  0.4380E+02
      3.538  0.3851E+00  0.4384E+02
      3.645  0.3612E+00  0.4388E+02
      3.752  0.3267E+00  0.4391E+02
      3.859  0.2144E+00  0.4394E+02
      3.967  0.2232E+00  0.4396E+02
      4.074  0.2621E+00  0.4399E+02
      4.181  0.9574E-01  0.4400E+02
      4.288  0.7484E-01  0.4401E+02
      4.395  0.2227E+00  0.4403E+02
      4.503  0.3536E+00  0.4407E+02
      4.610  0.5891E+00  0.4413E+02
      4.717  0.7786E+00  0.4422E+02
      4.824  0.8449E+00  0.4431E+02
      4.931  0.8781E+00  0.4440E+02
      5.039  0.1056E+01  0.4451E+02
      5.146  0.1306E+01  0.4465E+02
      5.253  0.1481E+01  0.4481E+02
      5.360  0.1765E+01  0.4500E+02
      5.467  0.2088E+01  0.4523E+02
      5.575  0.2656E+01  0.4551E+02
      5.682  0.3060E+01  0.4584E+02
      5.789  0.3263E+01  0.4619E+02
      5.896  0.3841E+01  0.4660E+02
      6.004  0.4507E+01  0.4708E+02
      6.111  0.4487E+01  0.4756E+02
      6.218  0.4452E+01  0.4804E+02
      6.325  0.4330E+01  0.4851E+02
      6.432  0.4060E+01  0.4894E+02
      6.540  0.3805E+01  0.4935E+02
      6.647  0.3959E+01  0.4977E+02
      6.754  0.3758E+01  0.5018E+02
      6.861  0.3820E+01  0.5059E+02
      6.968  0.4263E+01  0.5104E+02
      7.076  0.4749E+01  0.5155E+02
      7.183  0.5252E+01  0.5212E+02
      7.290  0.4828E+01  0.5263E+02
      7.397  0.4367E+01  0.5310E+02
      7.505  0.4269E+01  0.5356E+02
      7.612  0.3923E+01  0.5398E+02
      7.719  0.3524E+01  0.5436E+02
      7.826  0.3496E+01  0.5473E+02
      7.933  0.3654E+01  0.5512E+02
      8.041  0.3372E+01  0.5549E+02
      8.148  0.3556E+01  0.5587E+02
      8.255  0.3720E+01  0.5627E+02
      8.362  0.3522E+01  0.5664E+02
      8.469  0.4039E+01  0.5708E+02
      8.577  0.4330E+01  0.5754E+02
      8.684  0.4080E+01  0.5798E+02
      8.791  0.4643E+01  0.5848E+02
      8.898  0.5219E+01  0.5904E+02
      9.005  0.5216E+01  0.5959E+02
      9.113  0.5521E+01  0.6019E+02
      9.220  0.5125E+01  0.6074E+02
      9.327  0.4735E+01  0.6124E+02
      9.434  0.4794E+01  0.6176E+02
      9.542  0.4928E+01  0.6229E+02
      9.649  0.5447E+01  0.6287E+02
      9.756  0.5063E+01  0.6341E+02
      9.863  0.5329E+01  0.6398E+02
      9.970  0.4917E+01  0.6451E+02
     10.078  0.3661E+01  0.6490E+02
     10.185  0.4029E+01  0.6534E+02
     10.292  0.5022E+01  0.6587E+02
     10.399  0.5457E+01  0.6646E+02
     10.506  0.5114E+01  0.6701E+02
     10.614  0.4655E+01  0.6751E+02
     10.721  0.4308E+01  0.6797E+02
     10.828  0.4178E+01  0.6842E+02
     10.935  0.3592E+01  0.6880E+02
     11.042  0.4198E+01  0.6925E+02
     11.150  0.5088E+01  0.6980E+02
     11.257  0.5369E+01  0.7037E+02
     11.364  0.5794E+01  0.7099E+02
     11.471  0.5347E+01  0.7157E+02
     11.579  0.5015E+01  0.7211E+02
     11.686  0.4941E+01  0.7263E+02
     11.793  0.4909E+01  0.7316E+02
     11.900  0.5295E+01  0.7373E+02
     12.007  0.5619E+01  0.7433E+02
     12.115  0.5869E+01  0.7496E+02
     12.222  0.5729E+01  0.7557E+02
     12.329  0.5503E+01  0.7616E+02
     12.436  0.5870E+01  0.7679E+02
     12.543  0.6081E+01  0.7745E+02
     12.651  0.5963E+01  0.7809E+02
     12.758  0.5590E+01  0.7868E+02
     12.865  0.5290E+01  0.7925E+02
     12.972  0.5696E+01  0.7986E+02
     13.080  0.6086E+01  0.8051E+02
     13.187  0.5951E+01  0.8115E+02
     13.294  0.5743E+01  0.8177E+02
     13.401  0.5540E+01  0.8236E+02
     13.508  0.5703E+01  0.8297E+02
     13.616  0.5771E+01  0.8359E+02
     13.723  0.5774E+01  0.8421E+02
     13.830  0.5885E+01  0.8484E+02
     13.937  0.5729E+01  0.8546E+02
     14.044  0.5371E+01  0.8603E+02
     14.152  0.5060E+01  0.8658E+02
     14.259  0.4861E+01  0.8710E+02
     14.366  0.4840E+01  0.8762E+02
     14.473  0.5461E+01  0.8820E+02
     14.580  0.5424E+01  0.8878E+02
     14.688  0.4415E+01  0.8926E+02
     14.795  0.4144E+01  0.8970E+02
     14.902  0.4940E+01  0.9023E+02
     15.009  0.5782E+01  0.9085E+02
     15.117  0.6071E+01  0.9150E+02
     15.224  0.5562E+01  0.9210E+02
     15.331  0.5487E+01  0.9269E+02
     15.438  0.6325E+01  0.9336E+02
     15.545  0.6333E+01  0.9404E+02
     15.653  0.4876E+01  0.9456E+02
     15.760  0.3484E+01  0.9494E+02
     15.867  0.2789E+01  0.9524E+02
     15.974  0.2152E+01  0.9547E+02
     16.081  0.1608E+01  0.9564E+02
     16.189  0.1189E+01  0.9577E+02
     16.296  0.9385E+00  0.9587E+02
     16.403  0.6845E+00  0.9594E+02
     16.510  0.3980E+00  0.9598E+02
     16.617  0.1264E+00  0.9600E+02
     16.725  0.1515E-01  0.9600E+02
     16.832  0.4398E-03  0.9600E+02
     16.939  0.1962E-05  0.9600E+02
     17.046  0.1051E-08  0.9600E+02
     17.154  0.6144E-13  0.9600E+02
     17.261  0.0000E+00  0.9600E+02
     17.368  0.0000E+00  0.9600E+02
     17.475  0.0000E+00  0.9600E+02
     17.582  0.0000E+00  0.9600E+02
     17.690  0.0000E+00  0.9600E+02
     17.797  0.0000E+00  0.9600E+02
     17.904  0.0000E+00  0.9600E+02
     18.011  0.0000E+00  0.9600E+02
