   14   14    1    1
  0.1021318E+02  0.4044058E-09  0.5700971E-09  0.6201871E-09  0.5000000E-15
  1.000000000000000E-004
  CAR 
 SC                                      
     42    175     48
 
  0.5000000E-01  0.3571429E-01  0.0000000E+00  0.3174603E-02
      1        -12.690245   1.000000
      2        -11.517332   1.000000
      3         -8.652201   1.000000
      4         -8.359183   1.000000
      5         -6.039688   1.000000
      6         -5.121841   1.000000
      7         -4.686814   1.000000
      8         -4.343957   1.000000
      9         -4.067049   1.000000
     10         -3.491051   1.000000
     11         -2.694785   1.000000
     12         -2.232826   1.000000
     13         -1.620865   1.000000
     14         -1.082788   1.000000
     15         -0.120429   1.000000
     16         -0.031426   1.000000
     17          0.068002   1.000000
     18          0.103561   1.000000
     19          0.698965   1.000000
     20          2.045787   0.019346
     21          2.051967   0.015587
     22          2.273483   0.000000
     23          5.574787   0.000000
     24          5.661849   0.000000
     25          5.802528   0.000000
     26          5.938955   0.000000
     27          6.794736   0.000000
     28          7.658299   0.000000
     29          7.899177   0.000000
     30          8.436893   0.000000
     31          8.881673   0.000000
     32          8.964132   0.000000
     33          9.069612   0.000000
     34         10.179257   0.000000
     35         11.259081   0.000000
     36         11.357366   0.000000
     37         11.538689   0.000000
     38         11.715583   0.000000
     39         11.999919   0.000000
     40         12.370038   0.000000
     41         12.947236   0.000000
     42         13.323122   0.000000
     43         13.415944   0.000000
     44         15.471707   0.000000
     45         15.489897   0.000000
     46         15.990995   0.000000
     47         16.283813   0.000000
     48         16.346769   0.000000
 
  0.1500000E+00  0.3571429E-01  0.0000000E+00  0.3174603E-02
      1        -12.643963   1.000000
      2        -11.475620   1.000000
      3         -8.616203   1.000000
      4         -8.314458   1.000000
      5         -5.989088   1.000000
      6         -5.057725   1.000000
      7         -4.867742   1.000000
      8         -4.644621   1.000000
      9         -4.237671   1.000000
     10         -3.632163   1.000000
     11         -3.438501   1.000000
     12         -1.399261   1.000000
     13         -1.073891   1.000000
     14         -0.567577   1.000000
     15         -0.417857   1.000000
     16         -0.402055   1.000000
     17          0.126866   1.000000
     18          0.144427   1.000000
     19          0.823899   1.000000
     20          1.596964   0.999991
     21          1.597919   0.999990
     22          2.334476   0.000000
     23          5.384527   0.000000
     24          5.549885   0.000000
     25          6.021166   0.000000
     26          6.051956   0.000000
     27          7.290560   0.000000
     28          7.783986   0.000000
     29          8.160052   0.000000
     30          8.532751   0.000000
     31          8.886052   0.000000
     32          9.178417   0.000000
     33          9.242781   0.000000
     34         10.851183   0.000000
     35         11.286323   0.000000
     36         11.589613   0.000000
     37         11.644106   0.000000
     38         11.776118   0.000000
     39         12.202304   0.000000
     40         12.790249   0.000000
     41         12.828386   0.000000
     42         12.993313   0.000000
     43         13.073973   0.000000
     44         14.993795   0.000000
     45         15.364253   0.000000
     46         15.555654   0.000000
     47         15.580453   0.000000
     48         16.048118   0.000000
 
  0.2500000E+00  0.3571429E-01  0.0000000E+00  0.3174603E-02
      1        -12.565534   1.000000
      2        -11.405146   1.000000
      3         -8.556206   1.000000
      4         -8.238762   1.000000
      5         -5.903232   1.000000
      6         -5.591125   1.000000
      7         -4.929843   1.000000
      8         -4.569616   1.000000
      9         -4.392781   1.000000
     10         -4.194473   1.000000
     11         -3.352024   1.000000
     12         -1.184349   1.000000
     13         -1.056784   1.000000
     14         -1.024638   1.000000
     15         -0.144601   1.000000
     16          0.166521   1.000000
     17          0.198465   1.000000
     18          0.671561   1.000000
     19          0.923852   1.000000
     20          0.990698   1.000000
     21          1.028877   1.000000
     22          2.381504   0.000000
     23          4.963753   0.000000
     24          5.079259   0.000000
     25          6.295537   0.000000
     26          6.645758   0.000000
     27          7.262895   0.000000
     28          7.895184   0.000000
     29          8.811465   0.000000
     30          9.065311   0.000000
     31          9.434789   0.000000
     32          9.596148   0.000000
     33          9.615020   0.000000
     34         10.774713   0.000000
     35         11.337199   0.000000
     36         11.945123   0.000000
     37         12.095626   0.000000
     38         12.164518   0.000000
     39         12.410101   0.000000
     40         12.463451   0.000000
     41         12.527946   0.000000
     42         12.999441   0.000000
     43         13.778296   0.000000
     44         13.836153   0.000000
     45         14.481378   0.000000
     46         15.070025   0.000000
     47         15.410478   0.000000
     48         15.916732   0.000000
 
  0.3500000E+00  0.3571429E-01  0.0000000E+00  0.3174603E-02
      1        -12.482099   1.000000
      2        -11.330525   1.000000
      3         -8.493871   1.000000
      4         -8.158162   1.000000
      5         -6.132081   1.000000
      6         -5.811208   1.000000
      7         -4.938436   1.000000
      8         -4.799391   1.000000
      9         -4.482631   1.000000
     10         -4.135956   1.000000
     11         -3.254692   1.000000
     12         -1.578669   1.000000
     13         -1.475987   1.000000
     14         -1.043366   1.000000
     15          0.187086   1.000000
     16          0.243821   1.000000
     17          0.438092   1.000000
     18          0.493971   1.000000
     19          0.682224   1.000000
     20          1.005567   1.000000
     21          1.715691   0.995350
     22          2.423588   0.000000
     23          4.545546   0.000000
     24          4.728114   0.000000
     25          6.450282   0.000000
     26          7.001433   0.000000
     27          7.183432   0.000000
     28          8.302122   0.000000
     29          8.770561   0.000000
     30          9.762305   0.000000
     31          9.860039   0.000000
     32          9.957292   0.000000
     33         10.618764   0.000000
     34         10.629857   0.000000
     35         11.176324   0.000000
     36         11.884840   0.000000
     37         12.240070   0.000000
     38         12.250090   0.000000
     39         12.357911   0.000000
     40         12.684708   0.000000
     41         12.784563   0.000000
     42         12.956385   0.000000
     43         13.274721   0.000000
     44         14.117826   0.000000
     45         14.716626   0.000000
     46         14.944766   0.000000
     47         15.744696   0.000000
     48         15.884922   0.000000
 
  0.4500000E+00  0.3571429E-01  0.0000000E+00  0.3174603E-02
      1        -12.427665   1.000000
      2        -11.282057   1.000000
      3         -8.454085   1.000000
      4         -8.105283   1.000000
      5         -6.422923   1.000000
      6         -5.749470   1.000000
      7         -5.226798   1.000000
      8         -4.711342   1.000000
      9         -4.420945   1.000000
     10         -4.093667   1.000000
     11         -3.187986   1.000000
     12         -1.829672   1.000000
     13         -1.742833   1.000000
     14         -1.034043   1.000000
     15          0.144442   1.000000
     16          0.202302   1.000000
     17          0.211324   1.000000
     18          0.271339   1.000000
     19          0.983672   1.000000
     20          1.216302   1.000000
     21          2.356895   0.000000
     22          2.449838   0.000000
     23          4.302291   0.000000
     24          4.536564   0.000000
     25          6.524895   0.000000
     26          6.987386   0.000000
     27          7.469499   0.000000
     28          8.481038   0.000000
     29          8.685899   0.000000
     30          9.745176   0.000000
     31         10.054781   0.000000
     32         10.346850   0.000000
     33         10.650159   0.000000
     34         11.049373   0.000000
     35         11.171440   0.000000
     36         11.181406   0.000000
     37         11.948104   0.000000
     38         12.260074   0.000000
     39         12.503495   0.000000
     40         13.165490   0.000000
     41         13.235923   0.000000
     42         13.870024   0.000000
     43         13.873151   0.000000
     44         14.286746   0.000000
     45         14.816830   0.000000
     46         15.168189   0.000000
     47         15.352520   0.000000
     48         15.458574   0.000000
 
  0.5000000E-01  0.1071429E+00  0.0000000E+00  0.3174603E-02
      1        -12.667579   1.000000
      2        -11.557167   1.000000
      3         -8.638793   1.000000
      4         -8.352837   1.000000
      5         -5.998314   1.000000
      6         -5.342489   1.000000
      7         -4.769711   1.000000
      8         -4.130434   1.000000
      9         -3.975586   1.000000
     10         -3.303398   1.000000
     11         -2.729445   1.000000
     12         -2.222433   1.000000
     13         -1.671291   1.000000
     14         -1.245897   1.000000
     15         -0.116106   1.000000
     16         -0.010832   1.000000
     17          0.045147   1.000000
     18          0.130536   1.000000
     19          0.645266   1.000000
     20          2.001970   0.073840
     21          2.003978   0.069949
     22          2.207296   0.000007
     23          5.619450   0.000000
     24          5.692873   0.000000
     25          5.790313   0.000000
     26          6.119338   0.000000
     27          6.752053   0.000000
     28          7.397932   0.000000
     29          8.076652   0.000000
     30          8.513202   0.000000
     31          9.055726   0.000000
     32          9.079994   0.000000
     33          9.105665   0.000000
     34         10.200203   0.000000
     35         11.141992   0.000000
     36         11.295712   0.000000
     37         11.378786   0.000000
     38         11.535167   0.000000
     39         12.117186   0.000000
     40         12.415021   0.000000
     41         13.108550   0.000000
     42         13.222702   0.000000
     43         13.666051   0.000000
     44         15.074009   0.000000
     45         15.599627   0.000000
     46         16.034677   0.000000
     47         16.119148   0.000000
     48         16.405711   0.000000
 
  0.1500000E+00  0.1071429E+00  0.0000000E+00  0.3174603E-02
      1        -12.621392   1.000000
      2        -11.515312   1.000000
      3         -8.602626   1.000000
      4         -8.308498   1.000000
      5         -5.945945   1.000000
      6         -5.286041   1.000000
      7         -4.824990   1.000000
      8         -4.729390   1.000000
      9         -3.969658   1.000000
     10         -3.666787   1.000000
     11         -3.250690   1.000000
     12         -1.388927   1.000000
     13         -1.235547   1.000000
     14         -0.708431   1.000000
     15         -0.379695   1.000000
     16         -0.292876   1.000000
     17          0.087879   1.000000
     18          0.155735   1.000000
     19          0.764632   1.000000
     20          1.551188   1.000000
     21          1.557739   0.999999
     22          2.262355   0.000000
     23          5.409385   0.000000
     24          5.747025   0.000000
     25          6.024730   0.000000
     26          6.076808   0.000000
     27          7.249893   0.000000
     28          7.865053   0.000000
     29          7.959852   0.000000
     30          8.626513   0.000000
     31          9.101852   0.000000
     32          9.191530   0.000000
     33          9.395532   0.000000
     34         10.692090   0.000000
     35         11.027767   0.000000
     36         11.310975   0.000000
     37         11.663358   0.000000
     38         11.855864   0.000000
     39         12.319609   0.000000
     40         12.709572   0.000000
     41         12.965260   0.000000
     42         13.068513   0.000000
     43         13.323471   0.000000
     44         15.022717   0.000000
     45         15.081464   0.000000
     46         15.521946   0.000000
     47         15.569552   0.000000
     48         16.068252   0.000000
 
  0.2500000E+00  0.1071429E+00  0.0000000E+00  0.3174603E-02
      1        -12.543121   1.000000
      2        -11.444606   1.000000
      3         -8.542334   1.000000
      4         -8.233488   1.000000
      5         -5.856966   1.000000
      6         -5.571732   1.000000
      7         -5.154699   1.000000
      8         -4.658562   1.000000
      9         -4.426773   1.000000
     10         -3.906239   1.000000
     11         -3.164848   1.000000
     12         -1.240401   1.000000
     13         -1.138335   1.000000
     14         -1.030919   1.000000
     15         -0.144115   1.000000
     16          0.131138   1.000000
     17          0.196575   1.000000
     18          0.664486   1.000000
     19          0.855645   1.000000
     20          0.971354   1.000000
     21          0.986529   1.000000
     22          2.307792   0.000000
     23          4.973666   0.000000
     24          5.292107   0.000000
     25          6.266539   0.000000
     26          6.717126   0.000000
     27          7.336225   0.000000
     28          7.871138   0.000000
     29          8.738666   0.000000
     30          9.150149   0.000000
     31          9.423283   0.000000
     32          9.718086   0.000000
     33          9.746574   0.000000
     34         10.540660   0.000000
     35         10.956427   0.000000
     36         11.790659   0.000000
     37         12.036841   0.000000
     38         12.299051   0.000000
     39         12.329345   0.000000
     40         12.568518   0.000000
     41         12.771753   0.000000
     42         13.253260   0.000000
     43         13.763496   0.000000
     44         13.881570   0.000000
     45         14.364143   0.000000
     46         15.089179   0.000000
     47         15.431110   0.000000
     48         15.695105   0.000000
 
  0.3500000E+00  0.1071429E+00  0.0000000E+00  0.3174603E-02
      1        -12.459868   1.000000
      2        -11.369717   1.000000
      3         -8.479643   1.000000
      4         -8.153689   1.000000
      5         -6.107728   1.000000
      6         -5.761343   1.000000
      7         -5.044705   1.000000
      8         -4.973771   1.000000
      9         -4.575359   1.000000
     10         -3.830555   1.000000
     11         -3.066755   1.000000
     12         -1.559572   1.000000
     13         -1.469972   1.000000
     14         -1.194489   1.000000
     15          0.172617   1.000000
     16          0.212807   1.000000
     17          0.319593   1.000000
     18          0.445013   1.000000
     19          0.753161   1.000000
     20          0.971405   1.000000
     21          1.702075   0.997392
     22          2.349478   0.000000
     23          4.575519   0.000000
     24          4.920467   0.000000
     25          6.422032   0.000000
     26          7.066626   0.000000
     27          7.270960   0.000000
     28          8.291157   0.000000
     29          8.867272   0.000000
     30          9.626063   0.000000
     31          9.923473   0.000000
     32          9.943845   0.000000
     33         10.396806   0.000000
     34         10.682156   0.000000
     35         11.047894   0.000000
     36         12.020210   0.000000
     37         12.165330   0.000000
     38         12.301279   0.000000
     39         12.357362   0.000000
     40         12.693810   0.000000
     41         12.732521   0.000000
     42         12.978662   0.000000
     43         13.428094   0.000000
     44         14.031931   0.000000
     45         14.665993   0.000000
     46         15.066978   0.000000
     47         15.616123   0.000000
     48         15.664913   0.000000
 
  0.4500000E+00  0.1071429E+00  0.0000000E+00  0.3174603E-02
      1        -12.405563   1.000000
      2        -11.321075   1.000000
      3         -8.439619   1.000000
      4         -8.101400   1.000000
      5         -6.397892   1.000000
      6         -5.696718   1.000000
      7         -5.262591   1.000000
      8         -4.967861   1.000000
      9         -4.518047   1.000000
     10         -3.775804   1.000000
     11         -2.997550   1.000000
     12         -1.808338   1.000000
     13         -1.734707   1.000000
     14         -1.185992   1.000000
     15          0.065729   1.000000
     16          0.151361   1.000000
     17          0.200391   1.000000
     18          0.241239   1.000000
     19          0.913792   1.000000
     20          1.283138   1.000000
     21          2.336296   0.000000
     22          2.377104   0.000000
     23          4.345267   0.000000
     24          4.716240   0.000000
     25          6.496306   0.000000
     26          7.043006   0.000000
     27          7.568460   0.000000
     28          8.478720   0.000000
     29          8.804381   0.000000
     30          9.512485   0.000000
     31         10.108666   0.000000
     32         10.315283   0.000000
     33         10.318246   0.000000
     34         11.084168   0.000000
     35         11.231446   0.000000
     36         11.439487   0.000000
     37         11.980699   0.000000
     38         12.269550   0.000000
     39         12.520322   0.000000
     40         13.175663   0.000000
     41         13.233392   0.000000
     42         13.804275   0.000000
     43         13.900857   0.000000
     44         14.081248   0.000000
     45         14.634195   0.000000
     46         15.114857   0.000000
     47         15.125644   0.000000
     48         15.427967   0.000000
 
  0.5000000E-01  0.1785714E+00  0.0000000E+00  0.3174603E-02
      1        -12.622704   1.000000
      2        -11.632420   1.000000
      3         -8.611718   1.000000
      4         -8.342517   1.000000
      5         -5.951842   1.000000
      6         -5.596410   1.000000
      7         -4.828008   1.000000
      8         -4.021709   1.000000
      9         -3.664812   1.000000
     10         -3.010412   1.000000
     11         -2.796439   1.000000
     12         -2.201365   1.000000
     13         -1.755143   1.000000
     14         -1.539472   1.000000
     15         -0.192728   1.000000
     16          0.023348   1.000000
     17          0.076345   1.000000
     18          0.173065   1.000000
     19          0.548697   1.000000
     20          1.909708   0.443148
     21          1.926838   0.350025
     22          2.077584   0.005916
     23          5.691336   0.000000
     24          5.706046   0.000000
     25          5.888203   0.000000
     26          6.403120   0.000000
     27          6.679461   0.000000
     28          7.163965   0.000000
     29          8.203351   0.000000
     30          8.641594   0.000000
     31          9.086949   0.000000
     32          9.330885   0.000000
     33          9.354621   0.000000
     34         10.269986   0.000000
     35         10.758875   0.000000
     36         10.939138   0.000000
     37         11.369047   0.000000
     38         11.612198   0.000000
     39         12.302159   0.000000
     40         12.527854   0.000000
     41         12.896265   0.000000
     42         13.208194   0.000000
     43         14.125218   0.000000
     44         14.802082   0.000000
     45         15.624802   0.000000
     46         15.797090   0.000000
     47         16.110589   0.000000
     48         16.549261   0.000000
 
  0.1500000E+00  0.1785714E+00  0.0000000E+00  0.3174603E-02
      1        -12.576709   1.000000
      2        -11.590306   1.000000
      3         -8.575283   1.000000
      4         -8.298934   1.000000
      5         -5.895841   1.000000
      6         -5.539888   1.000000
      7         -4.791783   1.000000
      8         -4.769330   1.000000
      9         -3.734093   1.000000
     10         -3.609343   1.000000
     11         -2.953953   1.000000
     12         -1.528199   1.000000
     13         -1.365653   1.000000
     14         -0.848120   1.000000
     15         -0.342643   1.000000
     16         -0.206774   1.000000
     17          0.003002   1.000000
     18          0.205666   1.000000
     19          0.654331   1.000000
     20          1.465110   1.000000
     21          1.485437   1.000000
     22          2.121714   0.000841
     23          5.548916   0.000000
     24          5.981999   0.000000
     25          6.041147   0.000000
     26          6.161961   0.000000
     27          7.183479   0.000000
     28          7.770108   0.000000
     29          8.010407   0.000000
     30          8.711495   0.000000
     31          9.219319   0.000000
     32          9.402249   0.000000
     33          9.663665   0.000000
     34         10.407913   0.000000
     35         10.642873   0.000000
     36         10.979677   0.000000
     37         11.691144   0.000000
     38         12.059851   0.000000
     39         12.428086   0.000000
     40         12.522536   0.000000
     41         13.029785   0.000000
     42         13.247547   0.000000
     43         13.693533   0.000000
     44         14.862817   0.000000
     45         15.004159   0.000000
     46         15.458291   0.000000
     47         15.608203   0.000000
     48         16.198892   0.000000
 
  0.2500000E+00  0.1785714E+00  0.0000000E+00  0.3174603E-02
      1        -12.498754   1.000000
      2        -11.519128   1.000000
      3         -8.514491   1.000000
      4         -8.225263   1.000000
      5         -5.800244   1.000000
      6         -5.557169   1.000000
      7         -5.376947   1.000000
      8         -4.728811   1.000000
      9         -4.493475   1.000000
     10         -3.535944   1.000000
     11         -2.869204   1.000000
     12         -1.511000   1.000000
     13         -1.115985   1.000000
     14         -1.040458   1.000000
     15         -0.145866   1.000000
     16          0.002530   1.000000
     17          0.251192   1.000000
     18          0.643260   1.000000
     19          0.731509   1.000000
     20          0.914059   1.000000
     21          0.933589   1.000000
     22          2.164003   0.000092
     23          5.109852   0.000000
     24          5.586006   0.000000
     25          6.233338   0.000000
     26          6.812612   0.000000
     27          7.459808   0.000000
     28          7.856196   0.000000
     29          8.658515   0.000000
     30          9.287044   0.000000
     31          9.411262   0.000000
     32          9.890500   0.000000
     33          9.911424   0.000000
     34         10.184102   0.000000
     35         10.599215   0.000000
     36         11.492349   0.000000
     37         11.782488   0.000000
     38         12.271236   0.000000
     39         12.586569   0.000000
     40         12.756216   0.000000
     41         13.123858   0.000000
     42         13.446466   0.000000
     43         13.758361   0.000000
     44         13.924915   0.000000
     45         14.229660   0.000000
     46         15.083775   0.000000
     47         15.448218   0.000000
     48         15.744880   0.000000
 
  0.3500000E+00  0.1785714E+00  0.0000000E+00  0.3174603E-02
      1        -12.415866   1.000000
      2        -11.443746   1.000000
      3         -8.451236   1.000000
      4         -8.147044   1.000000
      5         -6.060067   1.000000
      6         -5.696846   1.000000
      7         -5.305747   1.000000
      8         -5.040811   1.000000
      9         -4.655455   1.000000
     10         -3.451240   1.000000
     11         -2.770071   1.000000
     12         -1.547264   1.000000
     13         -1.455512   1.000000
     14         -1.445219   1.000000
     15          0.035655   1.000000
     16          0.161620   1.000000
     17          0.276502   1.000000
     18          0.353819   1.000000
     19          0.715238   1.000000
     20          0.996596   1.000000
     21          1.675060   0.999252
     22          2.204451   0.000008
     23          4.716786   0.000000
     24          5.209355   0.000000
     25          6.394769   0.000000
     26          7.174674   0.000000
     27          7.371828   0.000000
     28          8.323195   0.000000
     29          9.035143   0.000000
     30          9.383792   0.000000
     31          9.837856   0.000000
     32          9.936307   0.000000
     33         10.204492   0.000000
     34         10.747871   0.000000
     35         10.990931   0.000000
     36         11.886529   0.000000
     37         12.122616   0.000000
     38         12.260679   0.000000
     39         12.400246   0.000000
     40         12.775781   0.000000
     41         12.874393   0.000000
     42         13.018527   0.000000
     43         13.531436   0.000000
     44         13.995192   0.000000
     45         14.592842   0.000000
     46         15.027795   0.000000
     47         15.569864   0.000000
     48         15.756631   0.000000
 
  0.4500000E+00  0.1785714E+00  0.0000000E+00  0.3174603E-02
      1        -12.361808   1.000000
      2        -11.394755   1.000000
      3         -8.410796   1.000000
      4         -8.095897   1.000000
      5         -6.348526   1.000000
      6         -5.625605   1.000000
      7         -5.331057   1.000000
      8         -5.233776   1.000000
      9         -4.605836   1.000000
     10         -3.389094   1.000000
     11         -2.696449   1.000000
     12         -1.768188   1.000000
     13         -1.716806   1.000000
     14         -1.462575   1.000000
     15         -0.060526   1.000000
     16          0.049620   1.000000
     17          0.070632   1.000000
     18          0.293745   1.000000
     19          0.777959   1.000000
     20          1.393516   1.000000
     21          2.228275   0.000002
     22          2.302451   0.000000
     23          4.492067   0.000000
     24          5.000404   0.000000
     25          6.471555   0.000000
     26          7.135630   0.000000
     27          7.659643   0.000000
     28          8.564413   0.000000
     29          9.013451   0.000000
     30          9.145555   0.000000
     31          9.838529   0.000000
     32         10.258542   0.000000
     33         10.273030   0.000000
     34         11.148241   0.000000
     35         11.292677   0.000000
     36         11.701460   0.000000
     37         12.018748   0.000000
     38         12.277550   0.000000
     39         12.539659   0.000000
     40         13.087639   0.000000
     41         13.243688   0.000000
     42         13.684246   0.000000
     43         13.792452   0.000000
     44         14.102523   0.000000
     45         14.448809   0.000000
     46         14.885098   0.000000
     47         14.996748   0.000000
     48         15.354599   0.000000
 
  0.5000000E-01  0.2500000E+00  0.0000000E+00  0.3174603E-02
      1        -12.556607   1.000000
      2        -11.735492   1.000000
      3         -8.571578   1.000000
      4         -8.332847   1.000000
      5         -5.954454   1.000000
      6         -5.822128   1.000000
      7         -4.762467   1.000000
      8         -3.928233   1.000000
      9         -3.296008   1.000000
     10         -2.914379   1.000000
     11         -2.653138   1.000000
     12         -2.170541   1.000000
     13         -1.913324   1.000000
     14         -1.851508   1.000000
     15         -0.352644   1.000000
     16          0.032734   1.000000
     17          0.156004   1.000000
     18          0.190828   1.000000
     19          0.484357   1.000000
     20          1.788309   0.942238
     21          1.826036   0.850902
     22          1.894649   0.527894
     23          5.683243   0.000000
     24          5.763878   0.000000
     25          6.143207   0.000000
     26          6.598748   0.000000
     27          6.729739   0.000000
     28          7.002360   0.000000
     29          8.302306   0.000000
     30          8.756475   0.000000
     31          9.034553   0.000000
     32          9.644252   0.000000
     33          9.688915   0.000000
     34         10.237775   0.000000
     35         10.431858   0.000000
     36         10.605763   0.000000
     37         11.457633   0.000000
     38         11.805441   0.000000
     39         12.412763   0.000000
     40         12.489800   0.000000
     41         12.816352   0.000000
     42         12.992670   0.000000
     43         14.549178   0.000000
     44         14.922758   0.000000
     45         15.231303   0.000000
     46         15.894614   0.000000
     47         15.916282   0.000000
     48         16.282371   0.000000
 
  0.1500000E+00  0.2500000E+00  0.0000000E+00  0.3174603E-02
      1        -12.510880   1.000000
      2        -11.692997   1.000000
      3         -8.534832   1.000000
      4         -8.290333   1.000000
      5         -5.894622   1.000000
      6         -5.764478   1.000000
      7         -4.730888   1.000000
      8         -4.692950   1.000000