 running   24 mpi-ranks, with    1 threads/rank, on    1 nodes
 distrk:  each k-point on   24 cores,    1 groups
 distr:  one band on    1 cores,   24 groups
 vasp.6.4.3 19Mar24 (build May 31 2024 16:31:43) complex                        
  
 POSCAR found type information on POSCAR B 
 POSCAR found :  1 types and      14 ions
 Reading from existing POTCAR
 scaLAPACK will be used
 Reading from existing POTCAR
 LDA part: xc-table for (Slater+PW92), standard interpolation
 POSCAR, INCAR and KPOINTS ok, starting setup
 FFT: planning ... GRIDC
 FFT: planning ... GRID_SOFT
 FFT: planning ... GRID
 WAVECAR not read
 entering main loop
       N       E                     dE             d eps       ncg     rms          rms(c)
DAV:   1     0.798687481736E+02    0.79869E+02   -0.20094E+04 16800   0.864E+02
DAV:   2    -0.916724345887E+02   -0.17154E+03   -0.16060E+03 22632   0.168E+02
DAV:   3    -0.975397342971E+02   -0.58673E+01   -0.58315E+01 24864   0.275E+01
DAV:   4    -0.975740577226E+02   -0.34323E-01   -0.34322E-01 19584   0.245E+00
DAV:   5    -0.975744338590E+02   -0.37614E-03   -0.37613E-03 24960   0.244E-01    0.123E+01
DAV:   6    -0.922559656078E+02    0.53185E+01   -0.38122E+00 24408   0.644E+00    0.679E+00
DAV:   7    -0.906100671040E+02    0.16459E+01   -0.31855E+00 25128   0.582E+00    0.168E+00
DAV:   8    -0.906223017807E+02   -0.12235E-01   -0.22578E-01 18552   0.164E+00    0.734E-01
DAV:   9    -0.906369187739E+02   -0.14617E-01   -0.17009E-02 23544   0.451E-01    0.207E-01
DAV:  10    -0.906413053898E+02   -0.43866E-02   -0.26855E-03 18384   0.183E-01    0.655E-02
DAV:  11    -0.906424475953E+02   -0.11422E-02   -0.65540E-04 22176   0.897E-02    0.338E-02
DAV:  12    -0.906425549977E+02   -0.10740E-03   -0.79017E-05 20784   0.344E-02    0.618E-03
DAV:  13    -0.906425631617E+02   -0.81640E-05   -0.71662E-06 23280   0.109E-02    0.197E-03
DAV:  14    -0.906425640531E+02   -0.89141E-06   -0.55450E-07 20688   0.331E-03
   1 F= -.92604860E+02 E0= -.92598439E+02  d E =-.128422E-01
 writing wavefunctions
