   14   14    1    1
  0.1021960E+02  0.5697000E-09  0.4047900E-09  0.6204200E-09  0.5000000E-15
  1.000000000000000E-004
  CAR 
 Kpoints                                 
     42    175     48
 
  0.5000000E-01  0.3571429E-01  0.0000000E+00  0.3174603E-02
      1        -12.750063   1.000000
      2        -11.592002   1.000000
      3         -8.663653   1.000000
      4         -8.430621   1.000000
      5         -6.062875   1.000000
      6         -5.118609   1.000000
      7         -4.649465   1.000000
      8         -4.251329   1.000000
      9         -3.997338   1.000000
     10         -3.523250   1.000000
     11         -2.575969   1.000000
     12         -2.304941   1.000000
     13         -1.809448   1.000000
     14         -1.055795   1.000000
     15         -0.003515   1.000000
     16          0.018100   1.000000
     17          0.197594   1.000000
     18          0.218521   1.000000
     19          0.612854   1.000000
     20          2.096553   0.000013
     21          2.149250   0.000000
     22          2.269778   0.000000
     23          5.499203   0.000000
     24          5.826318   0.000000
     25          5.918466   0.000000
     26          6.035508   0.000000
     27          6.885435   0.000000
     28          7.604136   0.000000
     29          7.947713   0.000000
     30          8.572215   0.000000
     31          8.796403   0.000000
     32          8.950410   0.000000
     33          9.038839   0.000000
     34         10.139961   0.000000
     35         11.217474   0.000000
     36         11.448526   0.000000
     37         11.804098   0.000000
     38         11.835616   0.000000
     39         11.984778   0.000000
     40         12.448654   0.000000
     41         12.915861   0.000000
     42         13.564912   0.000000
     43         13.592330   0.000000
     44         15.457432   0.000000
     45         15.646009   0.000000
     46         16.163854   0.000000
     47         16.438514   0.000000
     48         16.494559   0.000000
 
  0.1500000E+00  0.3571429E-01  0.0000000E+00  0.3174603E-02
      1        -12.705477   1.000000
      2        -11.666910   1.000000
      3         -8.643096   1.000000
      4         -8.418775   1.000000
      5         -5.993254   1.000000
      6         -5.455642   1.000000
      7         -4.766824   1.000000
      8         -3.974969   1.000000
      9         -3.766167   1.000000
     10         -3.182848   1.000000
     11         -2.644443   1.000000
     12         -2.286896   1.000000
     13         -1.889685   1.000000
     14         -1.360756   1.000000
     15          0.027745   1.000000
     16          0.031835   1.000000
     17          0.146369   1.000000
     18          0.246870   1.000000
     19          0.520112   1.000000
     20          2.006927   0.046541
     21          2.072203   0.000211
     22          2.151781   0.000000
     23          5.598757   0.000000
     24          5.840273   0.000000
     25          5.941130   0.000000
     26          6.388113   0.000000
     27          6.802261   0.000000
     28          7.241265   0.000000
     29          8.159656   0.000000
     30          8.710558   0.000000
     31          9.057376   0.000000
     32          9.134531   0.000000
     33          9.209344   0.000000
     34         10.252105   0.000000
     35         11.053652   0.000000
     36         11.251831   0.000000
     37         11.297529   0.000000
     38         11.742496   0.000000
     39         12.214333   0.000000
     40         12.540394   0.000000
     41         13.191616   0.000000
     42         13.222845   0.000000
     43         14.138888   0.000000
     44         14.929513   0.000000
     45         15.835479   0.000000
     46         15.921489   0.000000
     47         16.328247   0.000000
     48         16.638935   0.000000
 
  0.2500000E+00  0.3571429E-01  0.0000000E+00  0.3174603E-02
      1        -12.618281   1.000000
      2        -11.801970   1.000000
      3         -8.600583   1.000000
      4         -8.403076   1.000000
      5         -5.971852   1.000000
      6         -5.787560   1.000000
      7         -4.719241   1.000000
      8         -3.851159   1.000000
      9         -3.252291   1.000000
     10         -2.815214   1.000000
     11         -2.687265   1.000000
     12         -2.249556   1.000000
     13         -1.999964   1.000000
     14         -1.858739   1.000000
     15         -0.184496   1.000000
     16          0.068375   1.000000
     17          0.195437   1.000000
     18          0.215966   1.000000
     19          0.488205   1.000000
     20          1.852457   0.996424
     21          1.925722   0.731538
     22          1.941127   0.572114
     23          5.726801   0.000000
     24          5.794666   0.000000
     25          6.252832   0.000000
     26          6.663797   0.000000
     27          6.838564   0.000000
     28          6.990219   0.000000
     29          8.301478   0.000000
     30          8.857014   0.000000
     31          9.022722   0.000000
     32          9.579850   0.000000
     33          9.668276   0.000000
     34         10.381865   0.000000
     35         10.536667   0.000000
     36         10.690989   0.000000
     37         11.433163   0.000000
     38         11.882105   0.000000
     39         12.446677   0.000000
     40         12.658707   0.000000
     41         12.853933   0.000000
     42         12.982037   0.000000
     43         14.747895   0.000000
     44         15.013626   0.000000
     45         15.312689   0.000000
     46         16.077935   0.000000
     47         16.095186   0.000000
     48         16.395244   0.000000
 
  0.3500000E+00  0.3571429E-01  0.0000000E+00  0.3174603E-02
      1        -12.493318   1.000000
      2        -11.973240   1.000000
      3         -8.538562   1.000000
      4         -8.398741   1.000000
      5         -6.052461   1.000000
      6         -6.023841   1.000000
      7         -4.396396   1.000000
      8         -3.685906   1.000000
      9         -3.006610   1.000000
     10         -2.863296   1.000000
     11         -2.403312   1.000000
     12         -2.226997   1.000000
     13         -2.126305   1.000000
     14         -2.097071   1.000000
     15         -0.488766   1.000000
     16         -0.206018   1.000000
     17          0.230580   1.000000
     18          0.309629   1.000000
     19          0.662990   1.000000
     20          1.581155   1.000000
     21          1.731384   1.000000
     22          1.786820   0.999997
     23          5.771733   0.000000
     24          5.818320   0.000000
     25          6.559699   0.000000
     26          6.718150   0.000000
     27          6.774862   0.000000
     28          7.500805   0.000000
     29          8.409690   0.000000
     30          8.747612   0.000000
     31          8.837686   0.000000
     32          9.641047   0.000000
     33         10.066710   0.000000
     34         10.164125   0.000000
     35         10.461517   0.000000
     36         11.166954   0.000000
     37         11.466578   0.000000
     38         12.024615   0.000000
     39         12.239874   0.000000
     40         12.335396   0.000000
     41         12.561698   0.000000
     42         13.327799   0.000000
     43         14.787460   0.000000
     44         15.061167   0.000000
     45         15.349433   0.000000
     46         15.471906   0.000000
     47         15.704894   0.000000
     48         16.480557   0.000000
 
  0.4500000E+00  0.3571429E-01  0.0000000E+00  0.3174603E-02
      1        -12.336608   1.000000
      2        -12.158450   1.000000
      3         -8.472239   1.000000
      4         -8.420862   1.000000
      5         -6.139550   1.000000
      6         -6.136652   1.000000
      7         -3.874110   1.000000
      8         -3.478183   1.000000
      9         -3.268775   1.000000
     10         -3.242452   1.000000
     11         -2.331095   1.000000
     12         -2.207605   1.000000
     13         -1.938538   1.000000
     14         -1.881969   1.000000
     15         -0.713223   1.000000
     16         -0.571918   1.000000
     17          0.315011   1.000000
     18          0.348154   1.000000
     19          0.923771   1.000000
     20          1.240700   1.000000
     21          1.651434   1.000000
     22          1.674213   1.000000
     23          5.791393   0.000000
     24          5.830138   0.000000
     25          6.527077   0.000000
     26          6.587289   0.000000
     27          7.449145   0.000000
     28          8.167208   0.000000
     29          8.176993   0.000000
     30          8.511348   0.000000
     31          8.640760   0.000000
     32          8.891971   0.000000
     33         10.543492   0.000000
     34         10.550133   0.000000
     35         10.815428   0.000000
     36         11.279318   0.000000
     37         11.460215   0.000000
     38         11.636702   0.000000
     39         11.962693   0.000000
     40         12.518826   0.000000
     41         12.769505   0.000000
     42         13.318899   0.000000
     43         14.650924   0.000000
     44         14.818877   0.000000
     45         14.937833   0.000000
     46         15.003911   0.000000
     47         16.267451   0.000000
     48         16.594439   0.000000
 
  0.5000000E-01  0.1071429E+00  0.0000000E+00  0.3174603E-02
      1        -12.725677   1.000000
      2        -11.569843   1.000000
      3         -8.643252   1.000000
      4         -8.407566   1.000000
      5         -6.035585   1.000000
      6         -5.083374   1.000000
      7         -4.627544   1.000000
      8         -4.558546   1.000000
      9         -4.161795   1.000000
     10         -3.502339   1.000000
     11         -3.271341   1.000000
     12         -1.762543   1.000000
     13         -1.046070   1.000000
     14         -1.007274   1.000000
     15         -0.244495   1.000000
     16         -0.214237   1.000000
     17          0.215789   1.000000
     18          0.290156   1.000000
     19          0.689453   1.000000
     20          1.825487   0.999722
     21          1.901163   0.905257
     22          2.323355   0.000000
     23          5.648917   0.000000
     24          5.750887   0.000000
     25          5.814576   0.000000
     26          6.093316   0.000000
     27          7.175915   0.000000
     28          7.901158   0.000000
     29          8.096642   0.000000
     30          8.261722   0.000000
     31          8.804866   0.000000
     32          9.091658   0.000000
     33          9.145594   0.000000
     34         10.612443   0.000000
     35         11.379150   0.000000
     36         11.436710   0.000000
     37         11.729032   0.000000
     38         11.937236   0.000000
     39         12.099118   0.000000
     40         12.733652   0.000000
     41         12.922888   0.000000
     42         13.293330   0.000000
     43         13.298133   0.000000
     44         15.402594   0.000000
     45         15.458236   0.000000
     46         15.961818   0.000000
     47         15.963418   0.000000
     48         16.345355   0.000000
 
  0.1500000E+00  0.1071429E+00  0.0000000E+00  0.3174603E-02
      1        -12.681357   1.000000
      2        -11.644806   1.000000
      3         -8.624794   1.000000
      4         -8.396794   1.000000
      5         -5.964533   1.000000
      6         -5.426676   1.000000
      7         -4.746290   1.000000
      8         -4.473976   1.000000
      9         -3.732273   1.000000
     10         -3.352994   1.000000
     11         -3.144204   1.000000
     12         -1.740622   1.000000
     13         -1.358307   1.000000
     14         -1.121646   1.000000
     15         -0.205666   1.000000
     16         -0.140049   1.000000
     17          0.184128   1.000000
     18          0.264260   1.000000
     19          0.585035   1.000000
     20          1.743649   1.000000
     21          1.823385   0.999778
     22          2.189253   0.000000
     23          5.726208   0.000000
     24          5.861177   0.000000
     25          6.022826   0.000000
     26          6.189722   0.000000
     27          7.088047   0.000000
     28          7.559429   0.000000
     29          8.249207   0.000000
     30          8.422319   0.000000
     31          9.131920   0.000000
     32          9.171520   0.000000
     33          9.418598   0.000000
     34         10.550099   0.000000
     35         10.971057   0.000000
     36         11.187199   0.000000
     37         11.498832   0.000000
     38         11.919139   0.000000
     39         12.325401   0.000000
     40         12.799068   0.000000
     41         12.954656   0.000000
     42         13.220987   0.000000
     43         13.848253   0.000000
     44         15.018655   0.000000
     45         15.490893   0.000000
     46         15.850288   0.000000
     47         15.880362   0.000000
     48         16.529667   0.000000
 
  0.2500000E+00  0.1071429E+00  0.0000000E+00  0.3174603E-02
      1        -12.594384   1.000000
      2        -11.778991   1.000000
      3         -8.579848   1.000000
      4         -8.381659   1.000000
      5         -5.939956   1.000000
      6         -5.756917   1.000000
      7         -4.702038   1.000000
      8         -4.358731   1.000000
      9         -3.475796   1.000000
     10         -3.202641   1.000000
     11         -2.674927   1.000000
     12         -1.856342   1.000000
     13         -1.696036   1.000000
     14         -1.281677   1.000000
     15         -0.185639   1.000000
     16         -0.159255   1.000000
     17          0.110815   1.000000
     18          0.256615   1.000000
     19          0.511377   1.000000
     20          1.605047   1.000000
     21          1.693339   1.000000
     22          1.944036   0.539618
     23          5.938721   0.000000
     24          5.997440   0.000000
     25          6.084221   0.000000
     26          6.640558   0.000000
     27          6.965018   0.000000
     28          7.330705   0.000000
     29          8.469686   0.000000
     30          8.556059   0.000000
     31          9.122916   0.000000
     32          9.623900   0.000000
     33          9.899127   0.000000
     34         10.219957   0.000000
     35         10.447927   0.000000
     36         10.853388   0.000000
     37         11.579878   0.000000
     38         12.157663   0.000000
     39         12.396527   0.000000
     40         12.612269   0.000000
     41         13.025402   0.000000
     42         13.083105   0.000000
     43         14.430607   0.000000
     44         15.164321   0.000000
     45         15.272287   0.000000
     46         15.727692   0.000000
     47         15.802967   0.000000
     48         16.511491   0.000000
 
  0.3500000E+00  0.1071429E+00  0.0000000E+00  0.3174603E-02
      1        -12.469605   1.000000
      2        -11.951089   1.000000
      3         -8.519952   1.000000
      4         -8.378699   1.000000
      5         -6.019729   1.000000
      6         -5.993221   1.000000
      7         -4.376842   1.000000
      8         -4.213297   1.000000
      9         -3.643622   1.000000
     10         -2.818770   1.000000
     11         -2.319409   1.000000
     12         -2.192732   1.000000
     13         -1.634652   1.000000
     14         -1.444843   1.000000
     15         -0.450343   1.000000
     16         -0.266304   1.000000
     17          0.138191   1.000000
     18          0.169776   1.000000
     19          0.672083   1.000000
     20          1.463398   1.000000
     21          1.541238   1.000000
     22          1.617249   1.000000
     23          5.945438   0.000000
     24          6.074198   0.000000
     25          6.594403   0.000000
     26          6.864191   0.000000
     27          6.942611   0.000000
     28          7.443763   0.000000
     29          8.481524   0.000000
     30          8.653711   0.000000
     31          8.965925   0.000000
     32          9.469496   0.000000
     33         10.110513   0.000000
     34         10.137306   0.000000
     35         10.479659   0.000000
     36         11.246556   0.000000
     37         11.433054   0.000000
     38         11.908915   0.000000
     39         12.333230   0.000000
     40         12.613210   0.000000
     41         12.769864   0.000000
     42         13.533621   0.000000
     43         14.865689   0.000000
     44         14.884603   0.000000
     45         15.249567   0.000000
     46         15.373247   0.000000
     47         15.760622   0.000000
     48         16.499787   0.000000
 
  0.4500000E+00  0.1071429E+00  0.0000000E+00  0.3174603E-02
      1        -12.313380   1.000000
      2        -12.135738   1.000000
      3         -8.454315   1.000000
      4         -8.401508   1.000000
      5         -6.108974   1.000000
      6         -6.104681   1.000000
      7         -4.037904   1.000000
      8         -3.871472   1.000000
      9         -3.832555   1.000000
     10         -3.258678   1.000000
     11         -2.075108   1.000000
     12         -1.887919   1.000000
     13         -1.567595   1.000000
     14         -1.561112   1.000000
     15         -0.675698   1.000000
     16         -0.569783   1.000000
     17          0.171839   1.000000
     18          0.203050   1.000000
     19          0.932047   1.000000
     20          1.247366   1.000000
     21          1.405041   1.000000
     22          1.426504   1.000000
     23          5.986840   0.000000
     24          6.051863   0.000000
     25          6.845784   0.000000
     26          6.896716   0.000000
     27          7.260818   0.000000
     28          7.974052   0.000000
     29          8.024936   0.000000
     30          8.706152   0.000000
     31          8.729588   0.000000
     32          8.837880   0.000000
     33         10.379463   0.000000
     34         10.596334   0.000000
     35         10.847125   0.000000
     36         10.966410   0.000000
     37         11.600105   0.000000
     38         11.695350   0.000000
     39         12.038962   0.000000
     40         12.688988   0.000000
     41         13.091055   0.000000
     42         13.560219   0.000000
     43         14.619398   0.000000
     44         14.814786   0.000000
     45         14.917216   0.000000
     46         15.125366   0.000000
     47         16.263991   0.000000
     48         16.562364   0.000000
 
  0.5000000E-01  0.1785714E+00  0.0000000E+00  0.3174603E-02
      1        -12.680498   1.000000
      2        -11.531582   1.000000
      3         -8.609456   1.000000
      4         -8.364967   1.000000
      5         -5.986849   1.000000
      6         -5.120403   1.000000
      7         -4.997865   1.000000
      8         -4.587997   1.000000
      9         -4.144469   1.000000
     10         -3.907888   1.000000
     11         -3.449793   1.000000
     12         -1.160792   1.000000
     13         -1.036023   1.000000
     14         -0.599194   1.000000
     15         -0.504342   1.000000
     16         -0.146468   1.000000
     17          0.237501   1.000000
     18          0.335957   1.000000
     19          0.768948   1.000000
     20          1.438706   1.000000
     21          1.501941   1.000000
     22          2.359360   0.000000
     23          5.350080   0.000000
     24          5.523035   0.000000
     25          6.166851   0.000000
     26          6.280627   0.000000
     27          7.601048   0.000000
     28          7.638651   0.000000
     29          8.380351   0.000000
     30          8.749617   0.000000
     31          8.937640   0.000000
     32          9.238728   0.000000
     33          9.371427   0.000000
     34         10.984395   0.000000
     35         11.391684   0.000000
     36         11.668832   0.000000
     37         11.742784   0.000000
     38         12.141608   0.000000
     39         12.318418   0.000000
     40         12.824633   0.000000
     41         12.847701   0.000000
     42         13.068419   0.000000
     43         13.277840   0.000000
     44         14.725319   0.000000
     45         15.221794   0.000000
     46         15.413843   0.000000
     47         15.507921   0.000000
     48         16.064042   0.000000
 
  0.1500000E+00  0.1785714E+00  0.0000000E+00  0.3174603E-02
      1        -12.636679   1.000000
      2        -11.605539   1.000000
      3         -8.589796   1.000000
      4         -8.353672   1.000000
      5         -5.912710   1.000000
      6         -5.378929   1.000000
      7         -5.026187   1.000000
      8         -4.713107   1.000000
      9         -3.972786   1.000000
     10         -3.692791   1.000000
     11         -3.108377   1.000000
     12         -1.341556   1.000000
     13         -1.138970   1.000000
     14         -0.709330   1.000000
     15         -0.463567   1.000000
     16         -0.063599   1.000000
     17          0.208468   1.000000
     18          0.291742   1.000000
     19          0.654876   1.000000
     20          1.357104   1.000000
     21          1.429588   1.000000
     22          2.223474   0.000000
     23          5.431668   0.000000
     24          5.866101   0.000000
     25          6.227614   0.000000
     26          6.292443   0.000000
     27          7.520201   0.000000
     28          7.796278   0.000000
     29          8.101003   0.000000
     30          8.863887   0.000000
     31          9.265445   0.000000
     32          9.328791   0.000000
     33          9.663157   0.000000
     34         10.619443   0.000000
     35         10.864790   0.000000
     36         11.324009   0.000000
     37         11.768148   0.000000
     38         12.254719   0.000000
     39         12.507292   0.000000
     40         12.563038   0.000000
     41         13.233412   0.000000
     42         13.327974   0.000000
     43         13.539623   0.000000
     44         14.742089   0.000000
     45         14.882670   0.000000
     46         15.338969   0.000000
     47         15.575968   0.000000
     48         16.091139   0.000000
 
  0.2500000E+00  0.1785714E+00  0.0000000E+00  0.3174603E-02
      1        -12.551009   1.000000
      2        -11.738593   1.000000
      3         -8.546440   1.000000
      4         -8.340979   1.000000
      5         -5.880895   1.000000
      6         -5.703146   1.000000
      7         -4.930514   1.000000
      8         -4.673951   1.000000
      9         -4.093974   1.000000
     10         -3.157855   1.000000
     11         -2.638313   1.000000
     12         -1.843110   1.000000
     13         -1.096971   1.000000
     14         -0.848506   1.000000
     15         -0.408382   1.000000
     16         -0.053792   1.000000
     17          0.057356   1.000000
     18          0.303512   1.000000
     19          0.535980   1.000000
     20          1.220475   1.000000
     21          1.304657   1.000000
     22          1.969319   0.269063
     23          5.757781   0.000000
     24          6.168177   0.000000
     25          6.351328   0.000000
     26          6.433619   0.000000
     27          7.417446   0.000000
     28          7.915082   0.000000
     29          8.047775   0.000000
     30          9.006877   0.000000
     31          9.275597   0.000000
     32          9.741379   0.000000
     33          9.947953   0.000000
     34         10.171568   0.000000
     35         10.322962   0.000000
     36         11.089578   0.000000
     37         11.653682   0.000000
     38         12.173846   0.000000
     39         12.568367   0.000000
     40         12.862322   0.000000
     41         13.114921   0.000000
     42         13.509082   0.000000
     43         14.079399   0.000000
     44         14.684474   0.000000
     45         14.932707   0.000000
     46         15.369542   0.000000
     47         15.607574   0.000000
     48         16.300280   0.000000
 
  0.3500000E+00  0.1785714E+00  0.0000000E+00  0.3174603E-02
      1        -12.425930   1.000000
      2        -11.909369   1.000000
      3         -8.483259   1.000000
      4         -8.339260   1.000000
      5         -5.958348   1.000000
      6         -5.935341   1.000000
      7         -4.791421   1.000000
      8         -4.350311   1.000000
      9         -4.255913   1.000000
     10         -2.780068   1.000000
     11         -2.277595   1.000000
     12         -2.151233   1.000000
     13         -1.040300   1.000000
     14         -0.986045   1.000000
     15         -0.414180   1.000000
     16         -0.340552   1.000000
     17          0.100612   1.000000
     18          0.104433   1.000000
     19          0.690899   1.000000
     20          1.092116   1.000000
     21          1.168541   1.000000
     22          1.634084   1.000000
     23          6.179744   0.000000
     24          6.297591   0.000000
     25          6.468503   0.000000
     26          6.882472   0.000000
     27          7.362974   0.000000
     28          7.839011   0.000000
     29          8.131837   0.000000
     30          9.109547   0.000000
     31          9.167042   0.000000
     32          9.243851   0.000000
     33          9.953720   0.000000
     34         10.203639   0.000000
     35         10.736109   0.000000
     36         11.147301   0.000000
     37         11.348189   0.000000
     38         12.014000   0.000000
     39         12.399575   0.000000
     40         13.074272   0.000000
     41         13.092009   0.000000
     42         13.868405   0.000000
     43         14.474857   0.000000
     44         14.512720   0.000000
     45         15.107924   0.000000
     46         15.232266   0.000000
     47         15.711854   0.000000
     48         16.467585   0.000000
 
  0.4500000E+00  0.1785714E+00  0.0000000E+00  0.3174603E-02
      1        -12.270053   1.000000
      2        -12.093045   1.000000
      3         -8.416914   1.000000
      4         -8.364405   1.000000
      5         -6.048644   1.000000
      6         -6.043671   1.000000
      7         -4.625197   1.000000
      8         -4.440634   1.000000
      9         -3.835694   1.000000
     10         -3.239149   1.000000
     11         -2.005810   1.000000
     12         -1.845716   1.000000
     13         -1.063402   1.000000
     14         -1.002017   1.000000
     15         -0.596893   1.000000
     16         -0.593435   1.000000
     17          0.049766   1.000000
     18          0.093946   1.000000
     19          0.950221   1.000000
     20          1.027544   1.000000
     21          1.061618   1.000000
     22          1.279118   1.000000
     23          6.263660   0.000000
     24          6.380621   0.000000
     25          6.955936   0.000000
     26          7.287395   0.000000
     27          7.339730   0.000000
     28          7.700428   0.000000
     29          7.993944   0.000000
     30          8.518904   0.000000
     31          9.151626   0.000000
     32          9.170578   0.000000
     33         10.067660   0.000000
     34         10.540339   0.000000
     35         10.735646   0.000000
     36         11.021720   0.000000
     37         11.777530   0.000000
     38         11.787260   0.000000
     39         12.159089   0.000000
     40         12.953521   0.000000
     41         13.509833   0.000000
     42         13.852664   0.000000
     43         14.308541   0.000000
     44         14.464462   0.000000
     45         15.095930   0.000000
     46         15.235017   0.000000
     47         16.105027   0.000000
     48         16.422915   0.000000
 
  0.5000000E-01  0.2500000E+00  0.0000000E+00  0.3174603E-02
      1        -12.622966   1.000000
      2        -11.478986   1.000000
      3         -8.565511   1.000000
      4         -8.308872   1.000000
      5         -5.922361   1.000000
      6         -5.607658   1.000000
      7         -4.925960   1.000000
      8         -4.533002   1.000000
      9         -4.430559   1.000000
     10         -4.105463   1.000000
     11         -3.387042   1.000000
     12         -1.173933   1.000000
     13         -1.014481   1.000000
     14         -0.954566   1.000000
     15         -0.156721   1.000000
     16          0.258784   1.000000
     17          0.380548   1.000000
     18          0.633609   1.000000
     19          0.834935   1.000000
     20          1.042979   1.000000
     21          1.061107   1.000000
     22          2.395880   0.000000
     23          5.000899   0.000000
     24          5.215640   0.000000
     25          6.446032   0.000000
     26          6.624769   0.000000
     27          7.270975   0.000000
     28          8.030711   0.000000
     29          8.707040   0.000000
     30          9.129428   0.000000
     31          9.478276   0.000000
     32          9.668197   0.000000
     33          9.671099   0.000000
     34         10.860707   0.000000
     35         11.371242   0.000000
     36         12.028709   0.000000
     37         12.064954   0.000000
     38         12.366268   0.000000
     39         12.495184   0.000000
     40         12.518433   0.000000
     41         12.635829   0.000000
     42         13.049336   0.000000
     43         13.828226   0.000000
     44         13.941473   0.000000
     45         14.442731   0.000000
     46         15.183312   0.000000
     47         15.479965   0.000000
     48         15.936832   0.000000
 
  0.1500000E+00  0.2500000E+00  0.0000000E+00  0.3174603E-02
      1        -12.579169   1.000000
      2        -11.552726   1.000000
      3         -8.544205   1.000000
      4         -8.299133   1.000000
      5         -5.843977   1.000000
      6         -5.571251   1.000000
      7         -5.262982   1.000000
      8         -4.662351   1.000000