       N       E                     dE             d eps       ncg     rms          rms(c)
DAV:   1    -0.794479257611E+01   -0.79448E+01   -0.11157E+04 16848   0.391E+02
