   14   14    1    1
  0.1021960E+02  0.5697000E-09  0.4047900E-09  0.6204200E-09  0.5000000E-15
  1.000000000000000E-004
  CAR 
 Kpoints                                 
     42   1260     48
 
  0.0000000E+00  0.0000000E+00  0.0000000E+00  0.1146657E-03
      1        -12.733345   1.000000
      2        -11.576211   1.000000
      3         -8.661967   1.000000
      4         -8.424691   1.000000
      5         -6.077178   1.000000
      6         -5.059079   1.000000
      7         -4.638015   1.000000
      8         -4.349227   1.000000
      9         -3.973111   1.000000
     10         -3.598233   1.000000
     11         -2.421608   1.000000
     12         -2.242120   1.000000
     13         -2.182829   1.000000
     14         -1.052112   1.000000
     15         -0.036626   1.000000
     16         -0.002723   1.000000
     17          0.150176   1.000000
     18          0.173605   1.000000
     19          0.565444   1.000000
     20          2.080496   0.000000
     21          2.126670   0.000000
     22          2.215500   0.000000
     23          5.412301   0.000000
     24          5.802668   0.000000
     25          5.818113   0.000000
     26          5.911453   0.000000
     27          6.786639   0.000000
     28          7.673675   0.000000
     29          7.702101   0.000000
     30          8.634966   0.000000
     31          8.753415   0.000000
     32          8.853670   0.000000
     33          9.041557   0.000000
     34         10.029909   0.000000
     35         11.144704   0.000000
     36         11.400580   0.000000
     37         11.770433   0.000000
     38         11.802909   0.000000
     39         11.899947   0.000000
     40         12.355260   0.000000
     41         12.805320   0.000000
     42         13.395808   0.000000
     43         13.574769   0.000000
     44         15.555388   0.000000
     45         15.568422   0.000000
     46         15.942735   0.000000
     47         16.359638   0.000000
     48         16.599998   0.000000
 
  0.5263158E-01  0.0000000E+00  0.0000000E+00  0.2293315E-03
      1        -12.727243   1.000000
      2        -11.586854   1.000000
      3         -8.659145   1.000000
      4         -8.422881   1.000000
      5         -6.064321   1.000000
      6         -5.141077   1.000000
      7         -4.669831   1.000000
      8         -4.252452   1.000000
      9         -3.964563   1.000000
     10         -3.539051   1.000000
     11         -2.418984   1.000000
     12         -2.243835   1.000000
     13         -2.202801   1.000000
     14         -1.098261   1.000000
     15         -0.030516   1.000000
     16          0.007467   1.000000
     17          0.154838   1.000000
     18          0.157301   1.000000
     19          0.551394   1.000000
     20          2.067536   0.000000
     21          2.115232   0.000000
     22          2.199027   0.000000
     23          5.426181   0.000000
     24          5.794700   0.000000
     25          5.798001   0.000000
     26          5.992755   0.000000
     27          6.773370   0.000000
     28          7.497984   0.000000
     29          7.847771   0.000000
     30          8.655282   0.000000
     31          8.809133   0.000000
     32          8.890528   0.000000
     33          9.044498   0.000000
     34         10.048243   0.000000
     35         11.155016   0.000000
     36         11.340789   0.000000
     37         11.665816   0.000000
     38         11.767265   0.000000
     39         11.932734   0.000000
     40         12.367440   0.000000
     41         12.875027   0.000000
     42         13.504704   0.000000
     43         13.517465   0.000000
     44         15.363754   0.000000
     45         15.603084   0.000000
     46         16.080963   0.000000
     47         16.346036   0.000000
     48         16.375554   0.000000
 
  0.1052632E+00  0.0000000E+00  0.0000000E+00  0.2293315E-03
      1        -12.708996   1.000000
      2        -11.618130   1.000000
      3         -8.650508   1.000000
      4         -8.417761   1.000000
      5         -6.030949   1.000000
      6         -5.313411   1.000000
      7         -4.738705   1.000000
      8         -4.036147   1.000000
      9         -3.938982   1.000000
     10         -3.384265   1.000000
     11         -2.411026   1.000000
     12         -2.260633   1.000000
     13         -2.248916   1.000000
     14         -1.230946   1.000000
     15         -0.012419   1.000000
     16          0.036457   1.000000
     17          0.099410   1.000000
     18          0.176685   1.000000
     19          0.509878   1.000000
     20          2.029901   0.000010
     21          2.081891   0.000000
     22          2.149507   0.000000
     23          5.465033   0.000000
     24          5.772856   0.000000
     25          5.815264   0.000000
     26          6.157087   0.000000
     27          6.735735   0.000000
     28          7.300694   0.000000
     29          7.970117   0.000000
     30          8.713194   0.000000
     31          8.958359   0.000000
     32          8.995804   0.000000
     33          9.051594   0.000000
     34         10.104525   0.000000
     35         11.169897   0.000000
     36         11.186369   0.000000
     37         11.411292   0.000000
     38         11.704394   0.000000
     39         12.027903   0.000000
     40         12.403568   0.000000
     41         13.025292   0.000000
     42         13.358260   0.000000
     43         13.772512   0.000000
     44         15.059921   0.000000
     45         15.696551   0.000000
     46         16.064465   0.000000
     47         16.247035   0.000000
     48         16.421604   0.000000
 
  0.1578947E+00  0.0000000E+00  0.0000000E+00  0.2293315E-03
      1        -12.678811   1.000000
      2        -11.668207   1.000000
      3         -8.635715   1.000000
      4         -8.410307   1.000000
      5         -5.992515   1.000000
      6         -5.502170   1.000000
      7         -4.794662   1.000000
      8         -3.896569   1.000000
      9         -3.775717   1.000000
     10         -3.172208   1.000000
     11         -2.397412   1.000000
     12         -2.350874   1.000000
     13         -2.257212   1.000000
     14         -1.435479   1.000000
     15          0.009791   1.000000
     16          0.016947   1.000000
     17          0.080117   1.000000
     18          0.197009   1.000000
     19          0.449571   1.000000
     20          1.971255   0.004489
     21          2.029481   0.000010
     22          2.067015   0.000000
     23          5.521350   0.000000
     24          5.742705   0.000000
     25          5.897974   0.000000
     26          6.370604   0.000000
     27          6.679583   0.000000
     28          7.114643   0.000000
     29          8.067053   0.000000
     30          8.798362   0.000000
     31          9.031861   0.000000
     32          9.163163   0.000000
     33          9.180928   0.000000
     34         10.204693   0.000000
     35         10.909884   0.000000
     36         11.093810   0.000000
     37         11.238558   0.000000
     38         11.679043   0.000000
     39         12.168604   0.000000
     40         12.469929   0.000000
     41         13.124304   0.000000
     42         13.134810   0.000000
     43         14.115657   0.000000
     44         14.820513   0.000000
     45         15.758814   0.000000
     46         15.827813   0.000000
     47         16.321928   0.000000
     48         16.493847   0.000000
 
  0.2105263E+00  0.0000000E+00  0.0000000E+00  0.2293315E-03
      1        -12.637050   1.000000
      2        -11.734368   1.000000
      3         -8.614584   1.000000
      4         -8.402103   1.000000
      5         -5.971253   1.000000
      6         -5.680545   1.000000
      7         -4.794734   1.000000
      8         -3.837727   1.000000
      9         -3.501539   1.000000
     10         -2.929807   1.000000
     11         -2.466276   1.000000
     12         -2.377646   1.000000
     13         -2.268382   1.000000
     14         -1.692622   1.000000
     15         -0.110082   1.000000
     16          0.056231   1.000000
     17          0.132812   1.000000
     18          0.173307   1.000000
     19          0.414782   1.000000
     20          1.897586   0.298338
     21          1.953006   0.018010
     22          1.962307   0.009143
     23          5.585131   0.000000
     24          5.711804   0.000000
     25          6.047223   0.000000
     26          6.613157   0.000000
     27          6.623067   0.000000
     28          6.950785   0.000000
     29          8.150241   0.000000
     30          8.888127   0.000000
     31          8.996684   0.000000
     32          9.392961   0.000000
     33          9.408237   0.000000
     34         10.361428   0.000000
     35         10.584994   0.000000
     36         10.774710   0.000000
     37         11.305785   0.000000
     38         11.723617   0.000000
     39         12.304083   0.000000
     40         12.601906   0.000000
     41         12.841010   0.000000
     42         13.080829   0.000000
     43         14.488784   0.000000
     44         14.747869   0.000000
     45         15.442695   0.000000
     46         15.979084   0.000000
     47         16.217401   0.000000
     48         16.491728   0.000000
 
  0.2631579E+00  0.0000000E+00  0.0000000E+00  0.2293315E-03
      1        -12.584248   1.000000
      2        -11.813282   1.000000
      3         -8.587483   1.000000
      4         -8.395291   1.000000
      5         -5.982885   1.000000
      6         -5.837459   1.000000
      7         -4.714285   1.000000
      8         -3.762979   1.000000
      9         -3.233257   1.000000
     10         -2.675296   1.000000
     11         -2.599297   1.000000
     12         -2.352848   1.000000
     13         -2.281068   1.000000
     14         -1.977910   1.000000
     15         -0.254489   1.000000
     16          0.059065   1.000000
     17          0.103399   1.000000
     18          0.188341   1.000000
     19          0.454992   1.000000
     20          1.811297   0.972025
     21          1.816881   0.960240
     22          1.885886   0.421418
     23          5.646228   0.000000
     24          5.687538   0.000000
     25          6.258874   0.000000
     26          6.545991   0.000000
     27          6.812431   0.000000
     28          6.907210   0.000000
     29          8.224739   0.000000
     30          8.930700   0.000000
     31          8.936387   0.000000
     32          9.634195   0.000000
     33          9.668905   0.000000
     34         10.214418   0.000000
     35         10.518395   0.000000
     36         10.589896   0.000000
     37         11.370502   0.000000
     38         11.842027   0.000000
     39         12.391212   0.000000
     40         12.527091   0.000000
     41         12.824835   0.000000
     42         12.842871   0.000000
     43         14.832950   0.000000
     44         14.869652   0.000000
     45         15.129973   0.000000
     46         15.967918   0.000000
     47         16.096435   0.000000
     48         16.137600   0.000000
 
  0.3157895E+00  0.0000000E+00  0.0000000E+00  0.2293315E-03
      1        -12.521101   1.000000
      2        -11.901387   1.000000
      3         -8.555494   1.000000
      4         -8.392246   1.000000
      5         -6.023634   1.000000
      6         -5.966643   1.000000
      7         -4.553930   1.000000
      8         -3.673051   1.000000
      9         -3.002271   1.000000
     10         -2.743076   1.000000
     11         -2.434016   1.000000
     12         -2.371580   1.000000
     13         -2.284215   1.000000
     14         -2.206901   1.000000
     15         -0.414599   1.000000
     16         -0.111630   1.000000
     17          0.155437   1.000000
     18          0.240223   1.000000
     19          0.542854   1.000000
     20          1.648341   1.000000
     21          1.738533   0.999964
     22          1.806659   0.979455
     23          5.675026   0.000000
     24          5.695613   0.000000
     25          6.488052   0.000000
     26          6.525976   0.000000
     27          6.698592   0.000000
     28          7.217292   0.000000
     29          8.292370   0.000000
     30          8.842592   0.000000
     31          8.871095   0.000000
     32          9.820141   0.000000
     33          9.884880   0.000000
     34          9.937534   0.000000
     35         10.398870   0.000000
     36         10.898106   0.000000
     37         11.404679   0.000000
     38         12.022922   0.000000
     39         12.195877   0.000000
     40         12.456727   0.000000
     41         12.503882   0.000000
     42         13.083391   0.000000
     43         14.841449   0.000000
     44         14.955331   0.000000
     45         15.244830   0.000000
     46         15.603673   0.000000
     47         15.659986   0.000000
     48         16.289790   0.000000
 
  0.3684211E+00  0.0000000E+00  0.0000000E+00  0.2293315E-03
      1        -12.448517   1.000000
      2        -11.995172   1.000000
      3         -8.520572   1.000000
      4         -8.395347   1.000000
      5         -6.076420   1.000000
      6         -6.064011   1.000000
      7         -4.330137   1.000000
      8         -3.568922   1.000000
      9         -2.919666   1.000000
     10         -2.891733   1.000000
     11         -2.525145   1.000000
     12         -2.348690   1.000000
     13         -2.176874   1.000000
     14         -2.153785   1.000000
     15         -0.574570   1.000000
     16         -0.307464   1.000000
     17          0.208104   1.000000
     18          0.281712   1.000000
     19          0.657835   1.000000
     20          1.472281   1.000000
     21          1.672524   1.000000
     22          1.731863   0.999984
     23          5.675946   0.000000
     24          5.726309   0.000000
     25          6.448565   0.000000
     26          6.606536   0.000000
     27          6.839884   0.000000
     28          7.548681   0.000000
     29          8.355429   0.000000
     30          8.654072   0.000000
     31          8.745161   0.000000
     32          9.420388   0.000000
     33         10.143961   0.000000
     34         10.193128   0.000000
     35         10.451991   0.000000
     36         11.276526   0.000000
     37         11.387484   0.000000
     38         11.857595   0.000000
     39         12.130887   0.000000
     40         12.254209   0.000000
     41         12.510743   0.000000
     42         13.289618   0.000000
     43         14.618912   0.000000
     44         15.014093   0.000000
     45         15.137881   0.000000
     46         15.334926   0.000000
     47         15.603265   0.000000
     48         16.413425   0.000000
 
  0.4210526E+00  0.0000000E+00  0.0000000E+00  0.2293315E-03
      1        -12.367658   1.000000
      2        -12.091404   1.000000
      3         -8.485332   1.000000
      4         -8.406312   1.000000
      5         -6.127288   1.000000
      6         -6.123962   1.000000
      7         -4.060901   1.000000
      8         -3.451803   1.000000
      9         -3.133366   1.000000
     10         -3.040453   1.000000
     11         -2.503251   1.000000
     12         -2.367253   1.000000
     13         -2.057820   1.000000
     14         -1.974539   1.000000
     15         -0.702954   1.000000
     16         -0.504747   1.000000
     17          0.255791   1.000000
     18          0.306447   1.000000
     19          0.793670   1.000000
     20          1.291806   1.000000
     21          1.628282   1.000000
     22          1.669406   1.000000
     23          5.688567   0.000000
     24          5.735623   0.000000
     25          6.433904   0.000000
     26          6.533866   0.000000
     27          7.190751   0.000000
     28          7.897727   0.000000
     29          8.328582   0.000000
     30          8.418199   0.000000
     31          8.649502   0.000000
     32          9.024895   0.000000
     33         10.396272   0.000000
     34         10.417545   0.000000
     35         10.635837   0.000000
     36         11.332575   0.000000
     37         11.521317   0.000000
     38         11.683503   0.000000
     39         11.784518   0.000000
     40         12.510420   0.000000
     41         12.514724   0.000000
     42         13.312379   0.000000
     43         14.541011   0.000000
     44         14.817184   0.000000
     45         14.973074   0.000000
     46         15.028233   0.000000
     47         15.932419   0.000000
     48         16.468815   0.000000
 
  0.4736842E+00  0.0000000E+00  0.0000000E+00  0.2293315E-03
      1        -12.279960   1.000000
      2        -12.187169   1.000000
      3         -8.452763   1.000000
      4         -8.425725   1.000000
      5         -6.156311   1.000000
      6         -6.153450   1.000000
      7         -3.761052   1.000000
      8         -3.444493   1.000000
      9         -3.323288   1.000000
     10         -3.185345   1.000000
     11         -2.443590   1.000000
     12         -2.399380   1.000000
     13         -1.934483   1.000000
     14         -1.889985   1.000000
     15         -0.746296   1.000000
     16         -0.668900   1.000000
     17          0.291874   1.000000
     18          0.310014   1.000000
     19          0.947096   1.000000
     20          1.114662   1.000000
     21          1.612569   1.000000
     22          1.627371   1.000000
     23          5.708063   0.000000
     24          5.726828   0.000000
     25          6.445235   0.000000
     26          6.479659   0.000000
     27          7.566998   0.000000
     28          7.953687   0.000000
     29          8.261554   0.000000
     30          8.485780   0.000000
     31          8.562345   0.000000
     32          8.637898   0.000000
     33         10.574846   0.000000
     34         10.577648   0.000000
     35         10.895129   0.000000
     36         11.196489   0.000000
     37         11.317853   0.000000
     38         11.470717   0.000000
     39         12.093804   0.000000
     40         12.382583   0.000000
     41         12.803566   0.000000
     42         13.102517   0.000000
     43         14.622319   0.000000
     44         14.738439   0.000000
     45         14.780439   0.000000
     46         14.852742   0.000000
     47         16.212024   0.000000
     48         16.404896   0.000000
 
  0.0000000E+00  0.3703704E-01  0.0000000E+00  0.2293315E-03
      1        -12.730030   1.000000
      2        -11.573233   1.000000
      3         -8.659362   1.000000
      4         -8.421490   1.000000
      5         -6.073505   1.000000
      6         -5.053955   1.000000
      7         -4.634956   1.000000
      8         -4.358712   1.000000
      9         -4.049079   1.000000
     10         -3.594796   1.000000
     11         -2.600579   1.000000
     12         -2.323630   1.000000
     13         -1.809371   1.000000
     14         -1.051493   1.000000
     15         -0.076906   1.000000
     16         -0.050265   1.000000
     17          0.152601   1.000000
     18          0.196211   1.000000
     19          0.581587   1.000000
     20          2.027984   0.000012
     21          2.089415   0.000000
     22          2.236272   0.000000
     23          5.448223   0.000000
     24          5.760446   0.000000
     25          5.861827   0.000000
     26          5.878434   0.000000
     27          6.829379   0.000000
     28          7.729263   0.000000
     29          7.730177   0.000000
     30          8.509838   0.000000
     31          8.753184   0.000000
     32          8.921525   0.000000
     33          9.049779   0.000000
     34         10.115796   0.000000
     35         11.178374   0.000000
     36         11.388963   0.000000
     37         11.759254   0.000000
     38         11.818274   0.000000
     39         11.914089   0.000000
     40         12.395174   0.000000
     41         12.806884   0.000000
     42         13.350029   0.000000
     43         13.527451   0.000000
     44         15.539505   0.000000
     45         15.550174   0.000000
     46         15.954227   0.000000
     47         16.333150   0.000000
     48         16.484830   0.000000
 
  0.5263158E-01  0.3703704E-01  0.0000000E+00  0.4586630E-03
      1        -12.723924   1.000000
      2        -11.583869   1.000000
      3         -8.656538   1.000000
      4         -8.419680   1.000000
      5         -6.060614   1.000000
      6         -5.136346   1.000000
      7         -4.666810   1.000000
      8         -4.266296   1.000000
      9         -4.035905   1.000000
     10         -3.535670   1.000000
     11         -2.610084   1.000000
     12         -2.320875   1.000000
     13         -1.822007   1.000000
     14         -1.097621   1.000000
     15         -0.070964   1.000000
     16         -0.041519   1.000000
     17          0.159949   1.000000
     18          0.179356   1.000000
     19          0.567489   1.000000
     20          2.015359   0.000057
     21          2.077995   0.000000
     22          2.219388   0.000000
     23          5.462371   0.000000
     24          5.747893   0.000000
     25          5.840330   0.000000
     26          5.965463   0.000000
     27          6.816165   0.000000
     28          7.541628   0.000000
     29          7.887730   0.000000
     30          8.531199   0.000000
     31          8.809608   0.000000
     32          8.957851   0.000000
     33          9.053991   0.000000
     34         10.130362   0.000000
     35         11.188317   0.000000
     36         11.329227   0.000000
     37         11.655600   0.000000
     38         11.781319   0.000000
     39         11.946980   0.000000
     40         12.407197   0.000000
     41         12.876817   0.000000
     42         13.459597   0.000000
     43         13.470423   0.000000
     44         15.369189   0.000000
     45         15.572848   0.000000
     46         16.068709   0.000000
     47         16.317440   0.000000
     48         16.357578   0.000000
 
  0.1052632E+00  0.3703704E-01  0.0000000E+00  0.4586630E-03
      1        -12.705684   1.000000
      2        -11.615140   1.000000
      3         -8.647892   1.000000
      4         -8.414584   1.000000
      5         -6.027151   1.000000
      6         -5.309065   1.000000
      7         -4.735797   1.000000
      8         -4.092903   1.000000
      9         -3.967464   1.000000
     10         -3.381125   1.000000
     11         -2.638901   1.000000
     12         -2.312548   1.000000
     13         -1.857292   1.000000
     14         -1.230264   1.000000
     15         -0.053672   1.000000
     16         -0.020867   1.000000
     17          0.133461   1.000000
     18          0.180239   1.000000
     19          0.525792   1.000000
     20          1.978500   0.002418
     21          2.044672   0.000001
     22          2.168779   0.000000
     23          5.501893   0.000000
     24          5.755044   0.000000
     25          5.829887   0.000000
     26          6.127548   0.000000
     27          6.778628   0.000000
     28          7.346147   0.000000
     29          8.008572   0.000000
     30          8.591755   0.000000
     31          8.960361   0.000000
     32          9.058639   0.000000
     33          9.068351   0.000000
     34         10.175016   0.000000
     35         11.158510   0.000000
     36         11.218578   0.000000
     37         11.399627   0.000000
     38         11.721560   0.000000
     39         12.042329   0.000000
     40         12.442834   0.000000
     41         13.027903   0.000000
     42         13.311955   0.000000
     43         13.725965   0.000000
     44         15.074465   0.000000
     45         15.661539   0.000000
     46         16.057223   0.000000
     47         16.186255   0.000000
     48         16.432546   0.000000
 
  0.1578947E+00  0.3703704E-01  0.0000000E+00  0.4586630E-03
      1        -12.675506   1.000000
      2        -11.665203   1.000000
      3         -8.633088   1.000000
      4         -8.407165   1.000000
      5         -5.988544   1.000000
      6         -5.497958   1.000000
      7         -4.791949   1.000000
      8         -4.006781   1.000000
      9         -3.751218   1.000000
     10         -3.169896   1.000000
     11         -2.687321   1.000000
     12         -2.298455   1.000000
     13         -1.908434   1.000000
     14         -1.434708   1.000000
     15         -0.026852   1.000000
     16         -0.025685   1.000000
     17          0.093840   1.000000
     18          0.204117   1.000000
     19          0.464344   1.000000
     20          1.920604   0.118953
     21          1.992320   0.000667
     22          2.085071   0.000000
     23          5.559093   0.000000
     24          5.757143   0.000000
     25          5.881113   0.000000
     26          6.338133   0.000000
     27          6.722624   0.000000
     28          7.163849   0.000000
     29          8.103926   0.000000
     30          8.679931   0.000000
     31          9.059887   0.000000
     32          9.166556   0.000000
     33          9.238666   0.000000
     34         10.254909   0.000000
     35         10.899000   0.000000
     36         11.081858   0.000000
     37         11.268922   0.000000
     38         11.702940   0.000000
     39         12.183737   0.000000
     40         12.507869   0.000000
     41         13.079213   0.000000
     42         13.138798   0.000000
     43         14.059760   0.000000
     44         14.847941   0.000000
     45         15.736997   0.000000
     46         15.814882   0.000000
     47         16.220899   0.000000
     48         16.528540   0.000000
 
  0.2105263E+00  0.3703704E-01  0.0000000E+00  0.4586630E-03
      1        -12.633760   1.000000
      2        -11.731346   1.000000
      3         -8.611945   1.000000
      4         -8.399016   1.000000
      5         -5.967071   1.000000
      6         -5.676351   1.000000
      7         -4.792274   1.000000
      8         -3.943136   1.000000
      9         -3.482274   1.000000
     10         -2.933370   1.000000
     11         -2.750997   1.000000
     12         -2.278413   1.000000
     13         -1.967302   1.000000
     14         -1.691678   1.000000
     15         -0.116878   1.000000
     16          0.003855   1.000000
     17          0.119337   1.000000
     18          0.194703   1.000000
     19          0.423739   1.000000
     20          1.846623   0.819184
     21          1.925238   0.094875
     22          1.970821   0.004653
     23          5.623686   0.000000
     24          5.733917   0.000000
     25          6.023365   0.000000
     26          6.583101   0.000000
     27          6.656424   0.000000
     28          7.008935   0.000000
     29          8.185841   0.000000
     30          8.771396   0.000000
     31          9.037051   0.000000
     32          9.397222   0.000000
     33          9.463679   0.000000
     34         10.373330   0.000000
     35         10.581928   0.000000
     36         10.769654   0.000000
     37         11.333220   0.000000
     38         11.755725   0.000000
     39         12.323140   0.000000
     40         12.633376   0.000000
     41         12.799766   0.000000
     42         13.085780   0.000000
     43         14.402730   0.000000
     44         14.808501   0.000000
     45         15.454385   0.000000
     46         15.925406   0.000000
     47         16.145417   0.000000
     48         16.502576   0.000000
 
  0.2631579E+00  0.3703704E-01  0.0000000E+00  0.4586630E-03
      1        -12.580971   1.000000
      2        -11.810235   1.000000
      3         -8.584821   1.000000
      4         -8.392248   1.000000
      5         -5.978525   1.000000
      6         -5.833224   1.000000
      7         -4.712038   1.000000
      8         -3.869539   1.000000
      9         -3.212654   1.000000
     10         -2.862046   1.000000
     11         -2.655338   1.000000
     12         -2.254693   1.000000
     13         -2.027131   1.000000
     14         -1.976097   1.000000
     15         -0.254271   1.000000
     16          0.002431   1.000000
     17          0.134390   1.000000
     18          0.169094   1.000000
     19          0.458600   1.000000
     20          1.760325   0.999600
     21          1.834161   0.897018
     22          1.848959   0.801279
     23          5.685174   0.000000
     24          5.712367   0.000000
     25          6.233141   0.000000
     26          6.589614   0.000000
     27          6.791224   0.000000
     28          6.948195   0.000000
     29          8.259217   0.000000
     30          8.820596   0.000000
     31          8.988201   0.000000
     32          9.639043   0.000000
     33          9.716937   0.000000
     34         10.188661   0.000000
     35         10.462420   0.000000
     36         10.654052   0.000000
     37         11.393212   0.000000
     38         11.881822   0.000000
     39         12.414337   0.000000
     40         12.485043   0.000000
     41         12.848423   0.000000
     42         12.856232   0.000000
     43         14.697076   0.000000
     44         14.983460   0.000000
     45         15.151312   0.000000
     46         15.938727   0.000000
     47         15.950926   0.000000
     48         16.251986   0.000000
 
  0.3157895E+00  0.3703704E-01  0.0000000E+00  0.4586630E-03
      1        -12.517840   1.000000
      2        -11.898313   1.000000
      3         -8.552824   1.000000
      4         -8.389270   1.000000
      5         -6.019183   1.000000
      6         -5.962355   1.000000
      7         -4.551849   1.000000
      8         -3.783306   1.000000