  14  14   0   0
  0.1021960E+02  0.5697000E-09  0.4047900E-09  0.6204200E-09  0.5000000E-15
  1.000000000000000E-004
  CAR 
 Kpoints                                 
     18.02191295    -14.19590113  301      1.88322430      1.00000000
    -14.196  0.0000E+00  0.0000E+00
    -14.089  0.0000E+00  0.0000E+00
    -13.981  0.0000E+00  0.0000E+00
    -13.874  0.0000E+00  0.0000E+00
    -13.766  0.0000E+00  0.0000E+00
    -13.659  0.0000E+00  0.0000E+00
    -13.552  0.0000E+00  0.0000E+00
    -13.444  0.0000E+00  0.0000E+00
    -13.337  0.0000E+00  0.0000E+00
    -13.229  0.0000E+00  0.0000E+00
    -13.122  0.0000E+00  0.0000E+00
    -13.015  0.1198E-16  0.1286E-17
    -12.907  0.1153E-07  0.1239E-08
    -12.800  0.2284E-02  0.2453E-03
    -12.692  0.4283E+00  0.4624E-01
    -12.585  0.2281E+01  0.2912E+00
    -12.478  0.3524E+01  0.6697E+00
    -12.370  0.4343E+01  0.1136E+01
    -12.263  0.3560E+01  0.1518E+01
    -12.155  0.2866E+01  0.1826E+01
    -12.048  0.2633E+01  0.2109E+01
    -11.941  0.2591E+01  0.2387E+01
    -11.833  0.2742E+01  0.2682E+01
    -11.726  0.3325E+01  0.3039E+01
    -11.618  0.3622E+01  0.3428E+01
    -11.511  0.3126E+01  0.3763E+01
    -11.404  0.1729E+01  0.3949E+01
    -11.296  0.4634E+00  0.3999E+01
    -11.189  0.9376E-02  0.4000E+01
    -11.082  0.3914E-06  0.4000E+01
    -10.974  0.4369E-14  0.4000E+01
    -10.867  0.0000E+00  0.4000E+01
    -10.759  0.0000E+00  0.4000E+01
    -10.652  0.0000E+00  0.4000E+01
    -10.545  0.0000E+00  0.4000E+01
    -10.437  0.0000E+00  0.4000E+01
    -10.330  0.0000E+00  0.4000E+01
    -10.222  0.0000E+00  0.4000E+01
    -10.115  0.0000E+00  0.4000E+01
    -10.008  0.0000E+00  0.4000E+01
     -9.900  0.0000E+00  0.4000E+01
     -9.793  0.0000E+00  0.4000E+01
     -9.685  0.0000E+00  0.4000E+01
     -9.578  0.0000E+00  0.4000E+01
     -9.471  0.0000E+00  0.4000E+01
     -9.363  0.0000E+00  0.4000E+01
     -9.256  0.0000E+00  0.4000E+01
     -9.148  0.0000E+00  0.4000E+01
     -9.041  0.6878E-09  0.4000E+01
     -8.934  0.5508E-03  0.4000E+01
     -8.826  0.2749E+00  0.4030E+01
     -8.719  0.2097E+01  0.4255E+01
     -8.611  0.5312E+01  0.4825E+01
     -8.504  0.7010E+01  0.5578E+01
     -8.397  0.6265E+01  0.6251E+01
     -8.289  0.5311E+01  0.6821E+01
     -8.182  0.4880E+01  0.7345E+01
     -8.075  0.3806E+01  0.7754E+01
     -7.967  0.1673E+01  0.7934E+01
     -7.860  0.5703E+00  0.7995E+01
     -7.752  0.4721E-01  0.8000E+01
     -7.645  0.3653E-04  0.8000E+01
     -7.538  0.1358E-10  0.8000E+01
     -7.430  0.0000E+00  0.8000E+01
     -7.323  0.0000E+00  0.8000E+01
     -7.215  0.3615E-14  0.8000E+01
     -7.108  0.2299E-06  0.8000E+01
     -7.001  0.3161E-02  0.8000E+01
     -6.893  0.1016E+00  0.8011E+01
     -6.786  0.2821E+00  0.8042E+01
     -6.678  0.4573E+00  0.8091E+01
     -6.571  0.7019E+00  0.8166E+01
     -6.464  0.9075E+00  0.8263E+01
     -6.356  0.1426E+01  0.8417E+01
     -6.249  0.2106E+01  0.8643E+01
     -6.141  0.2971E+01  0.8962E+01
     -6.034  0.3908E+01  0.9382E+01
     -5.927  0.4015E+01  0.9813E+01
     -5.819  0.3991E+01  0.1024E+02
     -5.712  0.4143E+01  0.1069E+02
     -5.604  0.3999E+01  0.1112E+02
     -5.497  0.4117E+01  0.1156E+02
     -5.390  0.4426E+01  0.1203E+02
     -5.282  0.4817E+01  0.1255E+02
     -5.175  0.4361E+01  0.1302E+02
     -5.068  0.3960E+01  0.1344E+02
     -4.960  0.3348E+01  0.1380E+02
     -4.853  0.2487E+01  0.1407E+02
     -4.745  0.2421E+01  0.1433E+02
     -4.638  0.2984E+01  0.1465E+02
     -4.531  0.3596E+01  0.1504E+02
     -4.423  0.3458E+01  0.1541E+02
     -4.316  0.3142E+01  0.1575E+02
     -4.208  0.2927E+01  0.1606E+02
     -4.101  0.2862E+01  0.1637E+02
     -3.994  0.3003E+01  0.1669E+02
     -3.886  0.3000E+01  0.1701E+02
     -3.779  0.3000E+01  0.1733E+02
     -3.671  0.2891E+01  0.1765E+02
     -3.564  0.2830E+01  0.1795E+02
     -3.457  0.2822E+01  0.1825E+02
     -3.349  0.2748E+01  0.1855E+02
     -3.242  0.2763E+01  0.1884E+02
     -3.134  0.2768E+01  0.1914E+02
     -3.027  0.2892E+01  0.1945E+02
     -2.920  0.3109E+01  0.1979E+02
     -2.812  0.2771E+01  0.2008E+02
     -2.705  0.2494E+01  0.2035E+02
     -2.597  0.2507E+01  0.2062E+02
     -2.490  0.3017E+01  0.2094E+02
     -2.383  0.3195E+01  0.2129E+02
     -2.275  0.3702E+01  0.2168E+02
     -2.168  0.3466E+01  0.2206E+02
     -2.061  0.3301E+01  0.2241E+02
     -1.953  0.4151E+01  0.2286E+02
     -1.846  0.4619E+01  0.2335E+02
     -1.738  0.5916E+01  0.2399E+02
     -1.631  0.5551E+01  0.2458E+02
     -1.524  0.6141E+01  0.2524E+02
     -1.416  0.6144E+01  0.2590E+02
     -1.309  0.5601E+01  0.2651E+02
     -1.201  0.5215E+01  0.2707E+02
     -1.094  0.5290E+01  0.2763E+02
     -0.987  0.3964E+01  0.2806E+02
     -0.879  0.2734E+01  0.2835E+02
     -0.772  0.2388E+01  0.2861E+02
     -0.664  0.3328E+01  0.2897E+02
     -0.557  0.5051E+01  0.2951E+02
     -0.450  0.5979E+01  0.3015E+02
     -0.342  0.6356E+01  0.3083E+02
     -0.235  0.6205E+01  0.3150E+02
     -0.127  0.6755E+01  0.3223E+02
     -0.020  0.6948E+01  0.3297E+02
      0.087  0.6302E+01  0.3365E+02
      0.195  0.6718E+01  0.3437E+02
      0.302  0.8585E+01  0.3529E+02
      0.410  0.8343E+01  0.3619E+02
      0.517  0.8532E+01  0.3710E+02
      0.624  0.4665E+01  0.3761E+02
      0.732  0.2932E+01  0.3792E+02
      0.839  0.3081E+01  0.3825E+02
      0.946  0.3248E+01  0.3860E+02
      1.054  0.3618E+01  0.3899E+02
      1.161  0.3529E+01  0.3937E+02
      1.269  0.3839E+01  0.3978E+02
      1.376  0.3635E+01  0.4017E+02
      1.483  0.3876E+01  0.4059E+02
      1.591  0.4050E+01  0.4102E+02
      1.698  0.3719E+01  0.4142E+02
      1.806  0.3220E+01  0.4177E+02
      1.913  0.2970E+01  0.4209E+02
      2.020  0.2622E+01  0.4237E+02
      2.128  0.2632E+01  0.4265E+02
      2.235  0.2423E+01  0.4291E+02
      2.343  0.1826E+01  0.4311E+02
      2.450  0.1472E+01  0.4326E+02
      2.557  0.1032E+01  0.4338E+02
      2.665  0.6311E+00  0.4344E+02
      2.772  0.6279E+00  0.4351E+02
      2.880  0.6219E+00  0.4358E+02
      2.987  0.5310E+00  0.4363E+02
      3.094  0.4453E+00  0.4368E+02
      3.202  0.5151E+00  0.4374E+02
      3.309  0.4204E+00  0.4378E+02
      3.417  0.3620E+00  0.4382E+02
      3.524  0.3938E+00  0.4386E+02
      3.631  0.3406E+00  0.4390E+02
      3.739  0.2906E+00  0.4393E+02
      3.846  0.2947E+00  0.4396E+02
      3.953  0.2286E+00  0.4399E+02
      4.061  0.1104E+00  0.4400E+02
      4.168  0.4356E-02  0.4400E+02
      4.276  0.5495E-01  0.4401E+02
      4.383  0.2407E+00  0.4403E+02
      4.490  0.3683E+00  0.4407E+02
      4.598  0.5253E+00  0.4413E+02
      4.705  0.7377E+00  0.4421E+02
      4.813  0.8065E+00  0.4429E+02
      4.920  0.8886E+00  0.4439E+02
      5.027  0.9773E+00  0.4449E+02
      5.135  0.1160E+01  0.4462E+02
      5.242  0.1331E+01  0.4476E+02
      5.350  0.1754E+01  0.4495E+02
      5.457  0.2141E+01  0.4518E+02
      5.564  0.2580E+01  0.4546E+02
      5.672  0.2938E+01  0.4577E+02
      5.779  0.3334E+01  0.4613E+02
      5.887  0.3682E+01  0.4653E+02
      5.994  0.4135E+01  0.4697E+02
      6.101  0.4596E+01  0.4746E+02
      6.209  0.4502E+01  0.4795E+02
      6.316  0.4209E+01  0.4840E+02
      6.423  0.4158E+01  0.4885E+02
      6.531  0.4392E+01  0.4932E+02
      6.638  0.3931E+01  0.4974E+02
      6.746  0.3516E+01  0.5012E+02
      6.853  0.4012E+01  0.5055E+02
      6.960  0.4388E+01  0.5102E+02
      7.068  0.4869E+01  0.5154E+02
      7.175  0.5031E+01  0.5208E+02
      7.283  0.5060E+01  0.5263E+02
      7.390  0.4591E+01  0.5312E+02
      7.497  0.4439E+01  0.5360E+02
      7.605  0.4125E+01  0.5404E+02
      7.712  0.3437E+01  0.5441E+02
      7.820  0.3070E+01  0.5474E+02
      7.927  0.3241E+01  0.5509E+02
      8.034  0.3295E+01  0.5544E+02
      8.142  0.3599E+01  0.5583E+02
      8.249  0.3959E+01  0.5625E+02
      8.357  0.4015E+01  0.5668E+02
      8.464  0.4119E+01  0.5712E+02
      8.571  0.3980E+01  0.5755E+02
      8.679  0.4344E+01  0.5802E+02
      8.786  0.4842E+01  0.5854E+02
      8.894  0.5201E+01  0.5910E+02
      9.001  0.4974E+01  0.5963E+02
      9.108  0.5104E+01  0.6018E+02
      9.216  0.5141E+01  0.6073E+02
      9.323  0.4944E+01  0.6126E+02
      9.430  0.4810E+01  0.6178E+02
      9.538  0.4504E+01  0.6226E+02
      9.645  0.4843E+01  0.6278E+02
      9.753  0.4981E+01  0.6332E+02
      9.860  0.5177E+01  0.6387E+02
      9.967  0.5006E+01  0.6441E+02
     10.075  0.4013E+01  0.6484E+02
     10.182  0.4039E+01  0.6528E+02
     10.290  0.4426E+01  0.6575E+02
     10.397  0.5132E+01  0.6630E+02
     10.504  0.5603E+01  0.6690E+02
     10.612  0.4998E+01  0.6744E+02
     10.719  0.4296E+01  0.6790E+02
     10.827  0.3941E+01  0.6833E+02
     10.934  0.3392E+01  0.6869E+02
     11.041  0.4784E+01  0.6920E+02
     11.149  0.5494E+01  0.6979E+02
     11.256  0.6308E+01  0.7047E+02
     11.364  0.5687E+01  0.7108E+02
     11.471  0.4900E+01  0.7161E+02
     11.578  0.4754E+01  0.7212E+02
     11.686  0.4605E+01  0.7261E+02
     11.793  0.4813E+01  0.7313E+02
     11.901  0.5130E+01  0.7368E+02
     12.008  0.6223E+01  0.7435E+02
     12.115  0.5895E+01  0.7498E+02
     12.223  0.5554E+01  0.7558E+02
     12.330  0.5193E+01  0.7614E+02
     12.437  0.5598E+01  0.7674E+02
     12.545  0.5955E+01  0.7738E+02
     12.652  0.5907E+01  0.7801E+02
     12.760  0.5833E+01  0.7864E+02
     12.867  0.5863E+01  0.7927E+02
     12.974  0.5996E+01  0.7991E+02
     13.082  0.5985E+01  0.8055E+02
     13.189  0.6332E+01  0.8123E+02
     13.297  0.5906E+01  0.8187E+02
     13.404  0.5465E+01  0.8245E+02
     13.511  0.5613E+01  0.8306E+02
     13.619  0.5260E+01  0.8362E+02
     13.726  0.5456E+01  0.8421E+02
     13.834  0.5786E+01  0.8483E+02
     13.941  0.5525E+01  0.8542E+02
     14.048  0.5471E+01  0.8601E+02
     14.156  0.5054E+01  0.8655E+02
     14.263  0.5030E+01  0.8709E+02
     14.371  0.4908E+01  0.8762E+02
     14.478  0.4730E+01  0.8813E+02
     14.585  0.5413E+01  0.8871E+02
     14.693  0.5190E+01  0.8927E+02
     14.800  0.4365E+01  0.8974E+02
     14.908  0.4422E+01  0.9021E+02
     15.015  0.5536E+01  0.9081E+02
     15.122  0.6160E+01  0.9147E+02
     15.230  0.5746E+01  0.9208E+02
     15.337  0.5874E+01  0.9272E+02
     15.444  0.5818E+01  0.9334E+02
     15.552  0.6051E+01  0.9399E+02
     15.659  0.5179E+01  0.9455E+02
     15.767  0.3798E+01  0.9495E+02
     15.874  0.2696E+01  0.9524E+02
     15.981  0.2117E+01  0.9547E+02
     16.089  0.1511E+01  0.9563E+02
     16.196  0.1086E+01  0.9575E+02
     16.304  0.9964E+00  0.9586E+02
     16.411  0.8056E+00  0.9594E+02
     16.518  0.4569E+00  0.9599E+02
     16.626  0.7313E-01  0.9600E+02
     16.733  0.4589E-03  0.9600E+02
     16.841  0.3625E-08  0.9600E+02
     16.948  0.4607E-17  0.9600E+02
     17.055  0.0000E+00  0.9600E+02
     17.163  0.0000E+00  0.9600E+02
     17.270  0.0000E+00  0.9600E+02
     17.378  0.0000E+00  0.9600E+02
     17.485  0.0000E+00  0.9600E+02
     17.592  0.0000E+00  0.9600E+02
     17.700  0.0000E+00  0.9600E+02
     17.807  0.0000E+00  0.9600E+02
     17.915  0.0000E+00  0.9600E+02
     18.022  0.0000E+00  0.9600E+02
