   14   14    1    1
  0.1021960E+02  0.5697000E-09  0.4047900E-09  0.6204200E-09  0.5000000E-15
  1.000000000000000E-004
  CAR 
 Kpoints                                 
     42   2244     48
 
  0.2083333E-01  0.1470588E-01  0.2272727E-01  0.4456328E-03
      1        -12.731455   1.000000
      2        -11.578129   1.000000
      3         -8.661482   1.000000
      4         -8.422924   1.000000
      5         -6.081015   1.000000
      6         -5.083880   1.000000
      7         -4.631601   1.000000
      8         -4.328629   1.000000
      9         -3.983137   1.000000
     10         -3.584590   1.000000
     11         -2.402234   1.000000
     12         -2.371714   1.000000
     13         -2.054073   1.000000
     14         -1.062885   1.000000
     15         -0.038906   1.000000
     16         -0.006794   1.000000
     17          0.140331   1.000000
     18          0.175280   1.000000
     19          0.553766   1.000000
     20          2.067143   0.000000
     21          2.116860   0.000000
     22          2.229988   0.000000
     23          5.420232   0.000000
     24          5.784743   0.000000
     25          5.825978   0.000000
     26          5.922746   0.000000
     27          6.797151   0.000000
     28          7.619142   0.000000
     29          7.761954   0.000000
     30          8.618229   0.000000
     31          8.756253   0.000000
     32          8.890215   0.000000
     33          9.046089   0.000000
     34         10.051472   0.000000
     35         11.151526   0.000000
     36         11.387343   0.000000
     37         11.730410   0.000000
     38         11.800445   0.000000
     39         11.902986   0.000000
     40         12.367069   0.000000
     41         12.825479   0.000000
     42         13.397430   0.000000
     43         13.578539   0.000000
     44         15.504121   0.000000
     45         15.572835   0.000000
     46         15.951804   0.000000
     47         16.359540   0.000000
     48         16.477588   0.000000
 
  0.6250000E-01  0.1470588E-01  0.2272727E-01  0.4456328E-03
      1        -12.723809   1.000000
      2        -11.591389   1.000000
      3         -8.658232   1.000000
      4         -8.420478   1.000000
      5         -6.065596   1.000000
      6         -5.174831   1.000000
      7         -4.674429   1.000000
      8         -4.215051   1.000000
      9         -3.971690   1.000000
     10         -3.511708   1.000000
     11         -2.398910   1.000000
     12         -2.383277   1.000000
     13         -2.069453   1.000000
     14         -1.120283   1.000000
     15         -0.037458   1.000000
     16          0.011027   1.000000
     17          0.141115   1.000000
     18          0.160990   1.000000
     19          0.536426   1.000000
     20          2.044700   0.000002
     21          2.109256   0.000000
     22          2.208831   0.000000
     23          5.436861   0.000000
     24          5.775460   0.000000
     25          5.809763   0.000000
     26          6.015774   0.000000
     27          6.780421   0.000000
     28          7.466495   0.000000
     29          7.878314   0.000000
     30          8.644342   0.000000
     31          8.820138   0.000000
     32          8.937863   0.000000
     33          9.052509   0.000000
     34         10.073265   0.000000
     35         11.164093   0.000000
     36         11.313050   0.000000
     37         11.605362   0.000000
     38         11.758890   0.000000
     39         11.943660   0.000000
     40         12.382273   0.000000
     41         12.909386   0.000000
     42         13.482143   0.000000
     43         13.553371   0.000000
     44         15.296960   0.000000
     45         15.613725   0.000000
     46         16.090111   0.000000
     47         16.290275   0.000000
     48         16.381203   0.000000
 
  0.1041667E+00  0.1470588E-01  0.2272727E-01  0.4456328E-03
      1        -12.708567   1.000000
      2        -11.617412   1.000000
      3         -8.651552   1.000000
      4         -8.415908   1.000000
      5         -6.038962   1.000000
      6         -5.308780   1.000000
      7         -4.733981   1.000000
      8         -4.044817   1.000000
      9         -3.945783   1.000000
     10         -3.383379   1.000000
     11         -2.408043   1.000000
     12         -2.392183   1.000000
     13         -2.096972   1.000000
     14         -1.230663   1.000000
     15         -0.029136   1.000000
     16          0.037125   1.000000
     17          0.105627   1.000000
     18          0.171382   1.000000
     19          0.502010   1.000000
     20          2.005400   0.000274
     21          2.090059   0.000000
     22          2.166519   0.000000
     23          5.467728   0.000000
     24          5.767879   0.000000
     25          5.818893   0.000000
     26          6.149463   0.000000
     27          6.748593   0.000000
     28          7.310800   0.000000
     29          7.972987   0.000000
     30          8.693702   0.000000
     31          8.931150   0.000000
     32          9.021047   0.000000
     33          9.075263   0.000000
     34         10.117985   0.000000
     35         11.170344   0.000000
     36         11.190206   0.000000
     37         11.398180   0.000000
     38         11.709207   0.000000
     39         12.021961   0.000000
     40         12.412508   0.000000
     41         13.032804   0.000000
     42         13.366852   0.000000
     43         13.754390   0.000000
     44         15.057584   0.000000
     45         15.687493   0.000000
     46         16.060999   0.000000
     47         16.222922   0.000000
     48         16.424671   0.000000
 
  0.1458333E+00  0.1470588E-01  0.2272727E-01  0.4456328E-03
      1        -12.685842   1.000000
      2        -11.655258   1.000000
      3         -8.641172   1.000000
      4         -8.409830   1.000000
      5         -6.009486   1.000000
      6         -5.452917   1.000000
      7         -4.784732   1.000000
      8         -3.929301   1.000000
      9         -3.827355   1.000000
     10         -3.219163   1.000000
     11         -2.448682   1.000000
     12         -2.381921   1.000000
     13         -2.131005   1.000000
     14         -1.386341   1.000000
     15         -0.013440   1.000000
     16          0.023285   1.000000
     17          0.090967   1.000000
     18          0.190678   1.000000
     19          0.454207   1.000000
     20          1.953955   0.022720
     21          2.057581   0.000000
     22          2.103472   0.000000
     23          5.508396   0.000000
     24          5.752687   0.000000
     25          5.873519   0.000000
     26          6.313277   0.000000
     27          6.704703   0.000000
     28          7.162402   0.000000
     29          8.051599   0.000000
     30          8.760417   0.000000
     31          9.025935   0.000000
     32          9.093730   0.000000
     33          9.194084   0.000000
     34         10.188974   0.000000
     35         10.972259   0.000000
     36         11.151525   0.000000
     37         11.228025   0.000000
     38         11.683275   0.000000
     39         12.128961   0.000000
     40         12.461041   0.000000
     41         13.134221   0.000000
     42         13.188726   0.000000
     43         14.017477   0.000000
     44         14.857593   0.000000
     45         15.780512   0.000000
     46         15.831844   0.000000
     47         16.285902   0.000000
     48         16.486581   0.000000
 
  0.1875000E+00  0.1470588E-01  0.2272727E-01  0.4456328E-03
      1        -12.655801   1.000000
      2        -11.703611   1.000000
      3         -8.626861   1.000000
      4         -8.403092   1.000000
      5         -5.988704   1.000000
      6         -5.592445   1.000000
      7         -4.804806   1.000000
      8         -3.882664   1.000000
      9         -3.617790   1.000000
     10         -3.033387   1.000000
     11         -2.507310   1.000000
     12         -2.367872   1.000000
     13         -2.165657   1.000000
     14         -1.577846   1.000000
     15         -0.061459   1.000000
     16          0.013074   1.000000
     17          0.128250   1.000000
     18          0.196063   1.000000
     19          0.410139   1.000000
     20          1.894230   0.377792
     21          2.008347   0.000201
     22          2.024851   0.000031
     23          5.552934   0.000000
     24          5.736115   0.000000
     25          5.972750   0.000000
     26          6.501994   0.000000
     27          6.652783   0.000000
     28          7.027569   0.000000
     29          8.120451   0.000000
     30          8.833722   0.000000
     31          9.020340   0.000000
     32          9.249440   0.000000
     33          9.370563   0.000000
     34         10.292225   0.000000
     35         10.729498   0.000000
     36         10.896587   0.000000
     37         11.276828   0.000000
     38         11.698917   0.000000
     39         12.242187   0.000000
     40         12.542448   0.000000
     41         12.975567   0.000000
     42         13.148718   0.000000
     43         14.302644   0.000000
     44         14.753117   0.000000
     45         15.583694   0.000000
     46         15.894543   0.000000
     47         16.262600   0.000000
     48         16.514606   0.000000
 
  0.2291667E+00  0.1470588E-01  0.2272727E-01  0.4456328E-03
      1        -12.618682   1.000000
      2        -11.760901   1.000000
      3         -8.608582   1.000000
      4         -8.396775   1.000000
      5         -5.987287   1.000000
      6         -5.720133   1.000000
      7         -4.778163   1.000000
      8         -3.829719   1.000000
      9         -3.402181   1.000000
     10         -2.836730   1.000000
     11         -2.582838   1.000000
     12         -2.349957   1.000000
     13         -2.197212   1.000000
     14         -1.794367   1.000000
     15         -0.164882   1.000000
     16          0.041586   1.000000
     17          0.148741   1.000000
     18          0.174309   1.000000
     19          0.407731   1.000000
     20          1.830031   0.933778
     21          1.913827   0.193361
     22          1.963210   0.011838
     23          5.594052   0.000000
     24          5.725812   0.000000
     25          6.113260   0.000000
     26          6.597357   0.000000
     27          6.710037   0.000000
     28          6.910925   0.000000
     29          8.183011   0.000000
     30          8.892869   0.000000
     31          8.990158   0.000000
     32          9.425490   0.000000
     33          9.571712   0.000000
     34         10.420882   0.000000
     35         10.465579   0.000000
     36         10.665006   0.000000
     37         11.329440   0.000000
     38         11.761605   0.000000
     39         12.329937   0.000000
     40         12.677242   0.000000
     41         12.739756   0.000000
     42         13.042161   0.000000
     43         14.588610   0.000000
     44         14.772534   0.000000
     45         15.340025   0.000000
     46         16.006214   0.000000
     47         16.127211   0.000000
     48         16.353189   0.000000
 
  0.2708333E+00  0.1470588E-01  0.2272727E-01  0.4456328E-03
      1        -12.574783   1.000000
      2        -11.825402   1.000000
      3         -8.586579   1.000000
      4         -8.392076   1.000000
      5         -6.008897   1.000000
      6         -5.831993   1.000000
      7         -4.698375   1.000000
      8         -3.767677   1.000000
      9         -3.193838   1.000000
     10         -2.690424   1.000000
     11         -2.619431   1.000000
     12         -2.330780   1.000000
     13         -2.224643   1.000000
     14         -2.019853   1.000000
     15         -0.283045   1.000000
     16          0.028982   1.000000
     17          0.096533   1.000000
     18          0.215709   1.000000
     19          0.452973   1.000000
     20          1.764012   0.999627
     21          1.797599   0.992279
     22          1.902251   0.295233
     23          5.624156   0.000000
     24          5.727874   0.000000
     25          6.291802   0.000000
     26          6.543816   0.000000
     27          6.796292   0.000000
     28          6.950406   0.000000
     29          8.240616   0.000000
     30          8.896984   0.000000
     31          8.954966   0.000000
     32          9.609926   0.000000
     33          9.786255   0.000000
     34         10.147901   0.000000
     35         10.476314   0.000000
     36         10.640427   0.000000
     37         11.373680   0.000000
     38         11.868546   0.000000
     39         12.386040   0.000000
     40         12.485133   0.000000
     41         12.809268   0.000000
     42         12.895663   0.000000
     43         14.795956   0.000000
     44         14.936574   0.000000
     45         15.113450   0.000000
     46         15.912620   0.000000
     47         15.995665   0.000000
     48         16.163941   0.000000
 
  0.3125000E+00  0.1470588E-01  0.2272727E-01  0.4456328E-03
      1        -12.524472   1.000000
      2        -11.895337   1.000000
      3         -8.561429   1.000000
      4         -8.390252   1.000000
      5         -6.047651   1.000000
      6         -5.926439   1.000000
      7         -4.569068   1.000000
      8         -3.696559   1.000000
      9         -3.011593   1.000000
     10         -2.782604   1.000000
     11         -2.437687   1.000000
     12         -2.352213   1.000000
     13         -2.248014   1.000000
     14         -2.187168   1.000000
     15         -0.410095   1.000000
     16         -0.097769   1.000000
     17          0.129509   1.000000
     18          0.254283   1.000000
     19          0.524983   1.000000
     20          1.659777   1.000000
     21          1.711225   0.999999
     22          1.838538   0.896872
     23          5.642249   0.000000
     24          5.740971   0.000000
     25          6.497308   0.000000
     26          6.504531   0.000000
     27          6.712372   0.000000
     28          7.190821   0.000000
     29          8.293981   0.000000
     30          8.838818   0.000000
     31          8.889868   0.000000
     32          9.797778   0.000000
     33          9.835325   0.000000
     34         10.004742   0.000000
     35         10.394734   0.000000
     36         10.879975   0.000000
     37         11.394639   0.000000
     38         12.012561   0.000000
     39         12.221869   0.000000
     40         12.405577   0.000000
     41         12.601450   0.000000
     42         13.077786   0.000000
     43         14.805399   0.000000
     44         14.991067   0.000000
     45         15.215882   0.000000
     46         15.611911   0.000000
     47         15.688020   0.000000
     48         16.263449   0.000000
 
  0.3541667E+00  0.1470588E-01  0.2272727E-01  0.4456328E-03
      1        -12.468207   1.000000
      2        -11.968972   1.000000
      3         -8.534076   1.000000
      4         -8.392454   1.000000
      5         -6.091724   1.000000
      6         -6.004240   1.000000
      7         -4.399114   1.000000
      8         -3.616786   1.000000
      9         -2.911064   1.000000
     10         -2.890798   1.000000
     11         -2.490317   1.000000
     12         -2.312335   1.000000
     13         -2.224810   1.000000
     14         -2.161306   1.000000
     15         -0.537762   1.000000
     16         -0.248489   1.000000
     17          0.171560   1.000000
     18          0.285185   1.000000
     19          0.614153   1.000000
     20          1.520861   1.000000
     21          1.660557   1.000000
     22          1.775432   0.998851
     23          5.656354   0.000000
     24          5.754255   0.000000
     25          6.462784   0.000000
     26          6.638380   0.000000
     27          6.747095   0.000000
     28          7.447967   0.000000
     29          8.344293   0.000000
     30          8.720826   0.000000
     31          8.780296   0.000000
     32          9.517161   0.000000
     33          9.993083   0.000000
     34         10.213240   0.000000
     35         10.421532   0.000000
     36         11.168205   0.000000
     37         11.383136   0.000000
     38         11.954541   0.000000
     39         12.179201   0.000000
     40         12.244977   0.000000
     41         12.535425   0.000000
     42         13.253271   0.000000
     43         14.651251   0.000000
     44         15.018716   0.000000
     45         15.244278   0.000000
     46         15.408407   0.000000
     47         15.517629   0.000000
     48         16.363035   0.000000
 
  0.3958333E+00  0.1470588E-01  0.2272727E-01  0.4456328E-03
      1        -12.406544   1.000000
      2        -12.044665   1.000000
      3         -8.505756   1.000000
      4         -8.399571   1.000000
      5         -6.129369   1.000000
      6         -6.066839   1.000000
      7         -4.197825   1.000000
      8         -3.528971   1.000000
      9         -3.007332   1.000000
     10         -3.002480   1.000000
     11         -2.515478   1.000000
     12         -2.318328   1.000000
     13         -2.126906   1.000000
     14         -2.037325   1.000000
     15         -0.652000   1.000000
     16         -0.405722   1.000000
     17          0.213707   1.000000
     18          0.305157   1.000000
     19          0.717077   1.000000
     20          1.376717   1.000000
     21          1.625115   1.000000
     22          1.716857   0.999999
     23          5.672833   0.000000
     24          5.758900   0.000000
     25          6.443917   0.000000
     26          6.576064   0.000000
     27          7.014528   0.000000
     28          7.716132   0.000000
     29          8.393566   0.000000
     30          8.494748   0.000000
     31          8.699587   0.000000
     32          9.202783   0.000000
     33         10.186864   0.000000
     34         10.402212   0.000000
     35         10.540523   0.000000
     36         11.336657   0.000000
     37         11.495027   0.000000
     38         11.687934   0.000000
     39         11.970368   0.000000
     40         12.377865   0.000000
     41         12.553022   0.000000
     42         13.339847   0.000000
     43         14.543375   0.000000
     44         14.910382   0.000000
     45         15.038186   0.000000
     46         15.176662   0.000000
     47         15.768589   0.000000
     48         16.430988   0.000000
 
  0.4375000E+00  0.1470588E-01  0.2272727E-01  0.4456328E-03
      1        -12.340143   1.000000
      2        -12.120909   1.000000
      3         -8.477925   1.000000
      4         -8.412046   1.000000
      5         -6.152811   1.000000
      6         -6.114296   1.000000
      7         -3.973158   1.000000
      8         -3.433981   1.000000
      9         -3.230359   1.000000
     10         -3.115042   1.000000
     11         -2.462784   1.000000
     12         -2.343367   1.000000
     13         -2.020642   1.000000
     14         -1.927624   1.000000
     15         -0.729401   1.000000
     16         -0.555348   1.000000
     17          0.252255   1.000000
     18          0.311816   1.000000
     19          0.832001   1.000000
     20          1.232414   1.000000
     21          1.607489   1.000000
     22          1.666964   1.000000
     23          5.693028   0.000000
     24          5.752350   0.000000
     25          6.442070   0.000000
     26          6.524767   0.000000
     27          7.301387   0.000000
     28          7.985402   0.000000
     29          8.227007   0.000000
     30          8.444266   0.000000
     31          8.626004   0.000000
     32          8.893423   0.000000
     33         10.371591   0.000000
     34         10.550221   0.000000
     35         10.715721   0.000000
     36         11.297121   0.000000
     37         11.429999   0.000000
     38         11.702718   0.000000
     39         11.834623   0.000000
     40         12.476981   0.000000
     41         12.630851   0.000000
     42         13.274644   0.000000
     43         14.538189   0.000000
     44         14.733357   0.000000
     45         14.954820   0.000000
     46         14.975043   0.000000
     47         16.011084   0.000000
     48         16.440413   0.000000
 
  0.4791667E+00  0.1470588E-01  0.2272727E-01  0.4456328E-03
      1        -12.269773   1.000000
      2        -12.196346   1.000000
      3         -8.452122   1.000000
      4         -8.429783   1.000000
      5         -6.158414   1.000000
      6         -6.145325   1.000000
      7         -3.731985   1.000000
      8         -3.481416   1.000000
      9         -3.331838   1.000000
     10         -3.225410   1.000000
     11         -2.413247   1.000000
     12         -2.374524   1.000000
     13         -1.927494   1.000000
     14         -1.887438   1.000000
     15         -0.741238   1.000000
     16         -0.676630   1.000000
     17          0.283595   1.000000
     18          0.304301   1.000000
     19          0.957442   1.000000
     20          1.091672   1.000000
     21          1.609251   1.000000
     22          1.629887   1.000000
     23          5.715338   0.000000
     24          5.736509   0.000000
     25          6.456304   0.000000
     26          6.484517   0.000000
     27          7.600897   0.000000
     28          7.901792   0.000000
     29          8.298743   0.000000
     30          8.498984   0.000000
     31          8.557312   0.000000
     32          8.592381   0.000000
     33         10.524760   0.000000
     34         10.600545   0.000000
     35         10.926582   0.000000
     36         11.159985   0.000000
     37         11.348381   0.000000
     38         11.488934   0.000000
     39         12.131849   0.000000
     40         12.360867   0.000000
     41         12.848197   0.000000
     42         13.082208   0.000000
     43         14.602172   0.000000
     44         14.671202   0.000000
     45         14.830076   0.000000
     46         14.875621   0.000000
     47         16.218184   0.000000
     48         16.368723   0.000000
 
  0.2083333E-01  0.4411765E-01  0.2272727E-01  0.4456328E-03
      1        -12.727280   1.000000
      2        -11.574375   1.000000
      3         -8.658206   1.000000
      4         -8.418890   1.000000
      5         -6.076389   1.000000
      6         -5.077577   1.000000
      7         -4.627744   1.000000
      8         -4.343203   1.000000
      9         -4.072496   1.000000
     10         -3.580233   1.000000
     11         -2.673561   1.000000
     12         -2.282504   1.000000
     13         -1.733523   1.000000
     14         -1.062078   1.000000
     15         -0.088902   1.000000
     16         -0.063438   1.000000
     17          0.143340   1.000000
     18          0.200821   1.000000
     19          0.573593   1.000000
     20          2.006269   0.000250
     21          2.069957   0.000000
     22          2.251453   0.000000
     23          5.465328   0.000000
     24          5.747225   0.000000
     25          5.854141   0.000000
     26          5.892458   0.000000
     27          6.850763   0.000000
     28          7.673771   0.000000
     29          7.812439   0.000000
     30          8.478623   0.000000
     31          8.760677   0.000000
     32          8.955670   0.000000
     33          9.056621   0.000000
     34         10.156386   0.000000
     35         11.192498   0.000000
     36         11.373421   0.000000
     37         11.717613   0.000000
     38         11.817973   0.000000
     39         11.921167   0.000000
     40         12.417193   0.000000
     41         12.827190   0.000000
     42         13.341210   0.000000
     43         13.520083   0.000000
     44         15.501869   0.000000
     45         15.535565   0.000000
     46         15.957606   0.000000
     47         16.327292   0.000000
     48         16.398742   0.000000
 
  0.6250000E-01  0.4411765E-01  0.2272727E-01  0.4456328E-03
      1        -12.719636   1.000000
      2        -11.587630   1.000000
      3         -8.654949   1.000000
      4         -8.416459   1.000000
      5         -6.060923   1.000000
      6         -5.169008   1.000000
      7         -4.670690   1.000000
      8         -4.239991   1.000000
      9         -4.050363   1.000000
     10         -3.507444   1.000000
     11         -2.685435   1.000000
     12         -2.278993   1.000000
     13         -1.749333   1.000000
     14         -1.119468   1.000000
     15         -0.088309   1.000000
     16         -0.046600   1.000000
     17          0.150279   1.000000
     18          0.182964   1.000000
     19          0.556193   1.000000
     20          1.985699   0.001875
     21          2.060817   0.000000
     22          2.229802   0.000000
     23          5.482278   0.000000
     24          5.736790   0.000000
     25          5.841859   0.000000
     26          5.982355   0.000000
     27          6.834087   0.000000
     28          7.521497   0.000000
     29          7.928263   0.000000
     30          8.505552   0.000000
     31          8.826510   0.000000
     32          9.002828   0.000000
     33          9.064394   0.000000
     34         10.172426   0.000000
     35         11.203991   0.000000
     36         11.299654   0.000000
     37         11.592210   0.000000
     38         11.776801   0.000000
     39         11.961982   0.000000
     40         12.432084   0.000000
     41         12.911511   0.000000
     42         13.424110   0.000000
     43         13.497762   0.000000
     44         15.306124   0.000000
     45         15.574075   0.000000
     46         16.064977   0.000000
     47         16.253851   0.000000
     48         16.361867   0.000000
 
  0.1041667E+00  0.4411765E-01  0.2272727E-01  0.4456328E-03
      1        -12.704399   1.000000
      2        -11.613647   1.000000
      3         -8.648257   1.000000
      4         -8.411912   1.000000
      5         -6.034180   1.000000
      6         -5.303300   1.000000
      7         -4.730344   1.000000
      8         -4.121521   1.000000
      9         -3.972784   1.000000
     10         -3.379369   1.000000
     11         -2.709231   1.000000
     12         -2.271930   1.000000
     13         -1.779015   1.000000
     14         -1.229800   1.000000
     15         -0.081018   1.000000
     16         -0.024684   1.000000
     17          0.137259   1.000000
     18          0.177423   1.000000
     19          0.521646   1.000000
     20          1.948334   0.032769
     21          2.040299   0.000004
     22          2.186606   0.000000
     23          5.513667   0.000000
     24          5.746702   0.000000
     25          5.835740   0.000000
     26          6.113081   0.000000
     27          6.802371   0.000000
     28          7.367714   0.000000
     29          8.021313   0.000000
     30          8.556517   0.000000
     31          8.939348   0.000000
     32          9.079954   0.000000
     33          9.096680   0.000000
     34         10.205250   0.000000
     35         11.155261   0.000000
     36         11.230717   0.000000
     37         11.383682   0.000000
     38         11.730837   0.000000
     39         12.040499   0.000000
     40         12.461760   0.000000
     41         13.035898   0.000000
     42         13.309205   0.000000
     43         13.697436   0.000000
     44         15.075246   0.000000
     45         15.642132   0.000000
     46         16.044787   0.000000
     47         16.159910   0.000000
     48         16.428023   0.000000
 
  0.1458333E+00  0.4411765E-01  0.2272727E-01  0.4456328E-03
      1        -12.681681   1.000000
      2        -11.651479   1.000000
      3         -8.637862   1.000000
      4         -8.405871   1.000000
      5         -6.004540   1.000000
      6         -5.447588   1.000000
      7         -4.781259   1.000000
      8         -4.057355   1.000000
      9         -3.803430   1.000000
     10         -3.215886   1.000000
     11         -2.744756   1.000000
     12         -2.261241   1.000000
     13         -1.819243   1.000000
     14         -1.385367   1.000000
     15         -0.067865   1.000000
     16         -0.018337   1.000000
     17          0.106530   1.000000
     18          0.197191   1.000000
     19          0.473222   1.000000
     20          1.898368   0.334203
     21          2.007179   0.000227
     22          2.122339   0.000000
     23          5.554826   0.000000
     24          5.763798   0.000000
     25          5.859527   0.000000
     26          6.274132   0.000000
     27          6.758657   0.000000
     28          7.222551   0.000000
     29          8.098306   0.000000
     30          8.625536   0.000000
     31          9.037784   0.000000
     32          9.136805   0.000000
     33          9.234991   0.000000
     34         10.257593   0.000000
     35         10.957882   0.000000
     36         11.136848   0.000000
     37         11.266268   0.000000
     38         11.711302   0.000000
     39         12.148045   0.000000
     40         12.509173   0.000000
     41         13.132252   0.000000
     42         13.138792   0.000000
     43         13.953224   0.000000
     44         14.886094   0.000000
     45         15.716394   0.000000
     46         15.846343   0.000000
     47         16.185944   0.000000
     48         16.506636   0.000000
 
  0.1875000E+00  0.4411765E-01  0.2272727E-01  0.4456328E-03
      1        -12.651649   1.000000
      2        -11.699813   1.000000
      3         -8.623533   1.000000
      4         -8.399177   1.000000
      5         -5.983550   1.000000
      6         -5.587156   1.000000
      7         -4.801560   1.000000
      8         -4.008404   1.000000