   14   14    1    1
  0.1021960E+02  0.5697000E-09  0.4047900E-09  0.6204200E-09  0.5000000E-15
  1.000000000000000E-004
  CAR 
 Convergence                             
     42   1260     48
 
  0.2500000E-01  0.1785714E-01  0.2777778E-01  0.7936508E-03
      1        -12.730240   1.000000
      2        -11.578838   1.000000
      3         -8.660500   1.000000
      4         -8.421502   1.000000
      5         -6.082071   1.000000
      6         -5.093791   1.000000
      7         -4.627964   1.000000
      8         -4.318282   1.000000
      9         -3.988203   1.000000
     10         -3.577024   1.000000
     11         -2.406200   1.000000
     12         -2.394904   1.000000
     13         -2.022622   1.000000
     14         -1.066035   1.000000
     15         -0.041139   1.000000
     16         -0.008262   1.000000
     17          0.136964   1.000000
     18          0.176951   1.000000
     19          0.549085   1.000000
     20          2.060079   0.000000
     21          2.112217   0.000000
     22          2.238319   0.000000
     23          5.423491   0.000000
     24          5.779627   0.000000
     25          5.827724   0.000000
     26          5.927872   0.000000
     27          6.801968   0.000000
     28          7.606337   0.000000
     29          7.776647   0.000000
     30          8.611203   0.000000
     31          8.759317   0.000000
     32          8.905648   0.000000
     33          9.048849   0.000000
     34         10.060944   0.000000
     35         11.154364   0.000000
     36         11.381668   0.000000
     37         11.712203   0.000000
     38         11.800166   0.000000
     39         11.905052   0.000000
     40         12.371882   0.000000
     41         12.835514   0.000000
     42         13.395986   0.000000
     43         13.580315   0.000000
     44         15.483380   0.000000
     45         15.574756   0.000000
     46         15.952802   0.000000
     47         16.359081   0.000000
     48         16.449622   0.000000
 
  0.7500000E-01  0.1785714E-01  0.2777778E-01  0.7936508E-03
      1        -12.719239   1.000000
      2        -11.597839   1.000000
      3         -8.656005   1.000000
      4         -8.417898   1.000000
      5         -6.060742   1.000000
      6         -5.213462   1.000000
      7         -4.687894   1.000000
      8         -4.165580   1.000000
      9         -3.970813   1.000000
     10         -3.474554   1.000000
     11         -2.423258   1.000000
     12         -2.390082   1.000000
     13         -2.044072   1.000000
     14         -1.148081   1.000000
     15         -0.041172   1.000000
     16          0.018333   1.000000
     17          0.133078   1.000000
     18          0.162280   1.000000
     19          0.524331   1.000000
     20          2.025590   0.000019
     21          2.103894   0.000000
     22          2.207529   0.000000
     23          5.446626   0.000000
     24          5.770122   0.000000
     25          5.811848   0.000000
     26          6.051079   0.000000
     27          6.777918   0.000000
     28          7.421676   0.000000
     29          7.910903   0.000000
     30          8.648866   0.000000
     31          8.846518   0.000000
     32          8.973545   0.000000
     33          9.060909   0.000000
     34         10.091711   0.000000
     35         11.172178   0.000000
     36         11.275698   0.000000
     37         11.539634   0.000000
     38         11.745446   0.000000
     39         11.962997   0.000000
     40         12.393717   0.000000
     41         12.950323   0.000000
     42         13.458115   0.000000
     43         13.597710   0.000000
     44         15.220001   0.000000
     45         15.631112   0.000000
     46         16.113127   0.000000
     47         16.229335   0.000000
     48         16.391517   0.000000
 
  0.1250000E+00  0.1785714E-01  0.2777778E-01  0.7936508E-03
      1        -12.697344   1.000000
      2        -11.634832   1.000000
      3         -8.646611   1.000000
      4         -8.411406   1.000000
      5         -6.026908   1.000000
      6         -5.378357   1.000000
      7         -4.759736   1.000000
      8         -3.973075   1.000000
      9         -3.908369   1.000000
     10         -3.301089   1.000000
     11         -2.459776   1.000000
     12         -2.380289   1.000000
     13         -2.081308   1.000000
     14         -1.303317   1.000000
     15         -0.030183   1.000000
     16          0.040763   1.000000
     17          0.092620   1.000000
     18          0.180529   1.000000
     19          0.475910   1.000000
     20          1.969283   0.005769
     21          2.077768   0.000000
     22          2.146155   0.000000
     23          5.487870   0.000000
     24          5.761315   0.000000
     25          5.841712   0.000000
     26          6.226214   0.000000
     27          6.733121   0.000000
     28          7.237626   0.000000
     29          8.016031   0.000000
     30          8.717943   0.000000
     31          8.982920   0.000000
     32          9.057388   0.000000
     33          9.138241   0.000000
     34         10.156005   0.000000
     35         11.076103   0.000000
     36         11.208939   0.000000
     37         11.268819   0.000000
     38         11.694077   0.000000
     39         12.071621   0.000000
     40         12.438046   0.000000
     41         13.097134   0.000000
     42         13.284670   0.000000
     43         13.874634   0.000000
     44         14.945727   0.000000
     45         15.728603   0.000000
     46         15.944240   0.000000
     47         16.250220   0.000000
     48         16.456012   0.000000
 
  0.1750000E+00  0.1785714E-01  0.2777778E-01  0.7936508E-03
      1        -12.664792   1.000000
      2        -11.687925   1.000000
      3         -8.631773   1.000000
      4         -8.403346   1.000000
      5         -5.997650   1.000000
      6         -5.545896   1.000000
      7         -4.801992   1.000000
      8         -3.905394   1.000000
      9         -3.679015   1.000000
     10         -3.087140   1.000000
     11         -2.519059   1.000000
     12         -2.365207   1.000000
     13         -2.125309   1.000000
     14         -1.517053   1.000000
     15         -0.038188   1.000000
     16         -0.002768   1.000000
     17          0.122396   1.000000
     18          0.199069   1.000000
     19          0.416998   1.000000
     20          1.899253   0.292794
     21          2.030083   0.000011
     22          2.057224   0.000000
     23          5.538096   0.000000
     24          5.745423   0.000000
     25          5.938671   0.000000
     26          6.440413   0.000000
     27          6.673519   0.000000
     28          7.069264   0.000000
     29          8.102873   0.000000
     30          8.804942   0.000000
     31          9.025210   0.000000
     32          9.196587   0.000000
     33          9.332856   0.000000
     34         10.261625   0.000000
     35         10.804259   0.000000
     36         10.964988   0.000000
     37         11.262122   0.000000
     38         11.691503   0.000000
     39         12.206906   0.000000
     40         12.517344   0.000000
     41         13.044531   0.000000
     42         13.165934   0.000000
     43         14.206266   0.000000
     44         14.769907   0.000000
     45         15.655874   0.000000
     46         15.854233   0.000000
     47         16.269744   0.000000
     48         16.526514   0.000000
 
  0.2250000E+00  0.1785714E-01  0.2777778E-01  0.7936508E-03
      1        -12.621943   1.000000
      2        -11.754577   1.000000
      3         -8.611189   1.000000
      4         -8.395508   1.000000
      5         -5.992642   1.000000
      6         -5.699034   1.000000
      7         -4.782692   1.000000
      8         -3.843589   1.000000
      9         -3.421634   1.000000
     10         -2.853824   1.000000
     11         -2.601236   1.000000
     12         -2.344546   1.000000
     13         -2.168088   1.000000
     14         -1.771489   1.000000
     15         -0.155945   1.000000
     16          0.027194   1.000000
     17          0.157295   1.000000
     18          0.178976   1.000000
     19          0.400693   1.000000
     20          1.822258   0.948714
     21          1.929580   0.080308
     22          1.977275   0.002961
     23          5.585392   0.000000
     24          5.736240   0.000000
     25          6.097044   0.000000
     26          6.606481   0.000000
     27          6.684508   0.000000
     28          6.925851   0.000000
     29          8.179434   0.000000
     30          8.881314   0.000000
     31          8.997654   0.000000
     32          9.398839   0.000000
     33          9.571490   0.000000
     34         10.411838   0.000000
     35         10.485631   0.000000
     36         10.682106   0.000000
     37         11.323832   0.000000
     38         11.755184   0.000000
     39         12.318582   0.000000
     40         12.664667   0.000000
     41         12.766245   0.000000
     42         13.071360   0.000000
     43         14.546057   0.000000
     44         14.766438   0.000000
     45         15.366988   0.000000
     46         15.982349   0.000000
     47         16.138933   0.000000
     48         16.369280   0.000000
 
  0.2750000E+00  0.1785714E-01  0.2777778E-01  0.7936508E-03
      1        -12.569288   1.000000
      2        -11.831859   1.000000
      3         -8.585107   1.000000
      4         -8.389993   1.000000
      5         -6.020163   1.000000
      6         -5.830537   1.000000
      7         -4.687318   1.000000
      8         -3.769286   1.000000
      9         -3.172306   1.000000
     10         -2.719488   1.000000
     11         -2.600035   1.000000
     12         -2.322179   1.000000
     13         -2.206139   1.000000
     14         -2.039987   1.000000
     15         -0.297495   1.000000
     16          0.015732   1.000000
     17          0.093464   1.000000
     18          0.226489   1.000000
     19          0.454958   1.000000
     20          1.744237   0.999938
     21          1.788760   0.995060
     22          1.904443   0.244460
     23          5.618878   0.000000
     24          5.742821   0.000000
     25          6.310854   0.000000
     26          6.541608   0.000000
     27          6.788500   0.000000
     28          6.972245   0.000000
     29          8.248697   0.000000
     30          8.887784   0.000000
     31          8.955738   0.000000
     32          9.615145   0.000000
     33          9.831150   0.000000
     34         10.111971   0.000000
     35         10.458278   0.000000
     36         10.666038   0.000000
     37         11.374608   0.000000
     38         11.882871   0.000000
     39         12.383204   0.000000
     40         12.461656   0.000000
     41         12.804631   0.000000
     42         12.919527   0.000000
     43         14.786222   0.000000
     44         14.959947   0.000000
     45         15.106850   0.000000
     46         15.879843   0.000000
     47         15.956524   0.000000
     48         16.169122   0.000000
 
  0.3250000E+00  0.1785714E-01  0.2777778E-01  0.7936508E-03
      1        -12.507471   1.000000
      2        -11.916720   1.000000
      3         -8.554486   1.000000
      4         -8.388968   1.000000
      5         -6.068830   1.000000
      6         -5.939102   1.000000
      7         -4.521792   1.000000
      8         -3.682193   1.000000
      9         -2.966298   1.000000
     10         -2.834055   1.000000
     11         -2.400463   1.000000
     12         -2.368788   1.000000
     13         -2.239145   1.000000
     14         -2.186869   1.000000
     15         -0.450698   1.000000
     16         -0.139302   1.000000
     17          0.132517   1.000000
     18          0.269875   1.000000
     19          0.546592   1.000000
     20          1.621098   1.000000
     21          1.683148   1.000000
     22          1.827556   0.930916
     23          5.640328   0.000000
     24          5.759224   0.000000
     25          6.487739   0.000000
     26          6.573326   0.000000
     27          6.691839   0.000000
     28          7.262943   0.000000
     29          8.311981   0.000000
     30          8.811309   0.000000
     31          8.860717   0.000000
     32          9.732207   0.000000
     33          9.840131   0.000000
     34         10.093426   0.000000
     35         10.389243   0.000000
     36         10.963945   0.000000
     37         11.389534   0.000000
     38         12.061707   0.000000
     39         12.144136   0.000000
     40         12.372543   0.000000
     41         12.582655   0.000000
     42         13.139742   0.000000
     43         14.747262   0.000000
     44         15.008087   0.000000
     45         15.293083   0.000000
     46         15.490941   0.000000
     47         15.615216   0.000000
     48         16.286409   0.000000
 
  0.3750000E+00  0.1785714E-01  0.2777778E-01  0.7936508E-03
      1        -12.437316   1.000000
      2        -12.006195   1.000000
      3         -8.521028   1.000000
      4         -8.394318   1.000000
      5         -6.117581   1.000000
      6         -6.026754   1.000000
      7         -4.301801   1.000000
      8         -3.583062   1.000000
      9         -2.963034   1.000000
     10         -2.931562   1.000000
     11         -2.518285   1.000000
     12         -2.294291   1.000000
     13         -2.179546   1.000000
     14         -2.094444   1.000000
     15         -0.599092   1.000000
     16         -0.323588   1.000000
     17          0.183664   1.000000
     18          0.299910   1.000000
     19          0.661153   1.000000
     20          1.450569   1.000000
     21          1.631473   1.000000
     22          1.752316   0.999847
     23          5.660983   0.000000
     24          5.769272   0.000000
     25          6.453404   0.000000
     26          6.609379   0.000000
     27          6.876730   0.000000
     28          7.575633   0.000000
     29          8.371640   0.000000
     30          8.616424   0.000000
     31          8.741434   0.000000
     32          9.353778   0.000000
     33         10.068613   0.000000
     34         10.333347   0.000000
     35         10.473934   0.000000
     36         11.313083   0.000000
     37         11.371288   0.000000
     38         11.822619   0.000000
     39         12.111994   0.000000
     40         12.283148   0.000000
     41         12.558286   0.000000
     42         13.315833   0.000000
     43         14.579033   0.000000
     44         14.999291   0.000000
     45         15.101268   0.000000
     46         15.296410   0.000000
     47         15.635606   0.000000
     48         16.391892   0.000000
 
  0.4250000E+00  0.1785714E-01  0.2777778E-01  0.7936508E-03
      1        -12.359851   1.000000
      2        -12.097535   1.000000
      3         -8.487022   1.000000
      4         -8.407228   1.000000
      5         -6.149863   1.000000
      6         -6.093964   1.000000
      7         -4.042601   1.000000
      8         -3.473143   1.000000
      9         -3.158274   1.000000
     10         -3.095403   1.000000
     11         -2.472151   1.000000
     12         -2.321637   1.000000
     13         -2.054377   1.000000
     14         -1.949863   1.000000
     15         -0.711826   1.000000
     16         -0.508335   1.000000
     17          0.233392   1.000000
     18          0.311634   1.000000
     19          0.794201   1.000000
     20          1.275976   1.000000
     21          1.604960   1.000000
     22          1.685640   1.000000
     23          5.686506   0.000000
     24          5.763873   0.000000
     25          6.443413   0.000000
     26          6.542779   0.000000
     27          7.212037   0.000000
     28          7.898272   0.000000
     29          8.310548   0.000000
     30          8.431533   0.000000
     31          8.649993   0.000000
     32          8.980398   0.000000
     33         10.295187   0.000000
     34         10.528292   0.000000
     35         10.662024   0.000000
     36         11.299856   0.000000
     37         11.507373   0.000000
     38         11.719390   0.000000
     39         11.814251   0.000000
     40         12.470374   0.000000
     41         12.599540   0.000000
     42         13.314148   0.000000
     43         14.522235   0.000000
     44         14.760957   0.000000
     45         14.999444   0.000000
     46         15.030704   0.000000
     47         15.933736   0.000000
     48         16.434151   0.000000
 
  0.4750000E+00  0.1785714E-01  0.2777778E-01  0.7936508E-03
      1        -12.276337   1.000000
      2        -12.188293   1.000000
      3         -8.455101   1.000000
      4         -8.427832   1.000000
      5         -6.157542   1.000000
      6         -6.138489   1.000000
      7         -3.756736   1.000000
      8         -3.456590   1.000000
      9         -3.352775   1.000000
     10         -3.226697   1.000000
     11         -2.407959   1.000000
     12         -2.359564   1.000000
     13         -1.935819   1.000000
     14         -1.886146   1.000000
     15         -0.741565   1.000000
     16         -0.662964   1.000000
     17          0.275195   1.000000
     18          0.302863   1.000000
     19          0.943113   1.000000
     20          1.105020   1.000000
     21          1.606317   1.000000
     22          1.634742   1.000000
     23          5.715798   0.000000
     24          5.743939   0.000000
     25          6.457360   0.000000
     26          6.491630   0.000000
     27          7.568287   0.000000
     28          7.924872   0.000000
     29          8.270928   0.000000
     30          8.496062   0.000000
     31          8.566469   0.000000
     32          8.618049   0.000000
     33         10.493804   0.000000
     34         10.599827   0.000000
     35         10.904558   0.000000
     36         11.181875   0.000000
     37         11.352424   0.000000
     38         11.528216   0.000000
     39         12.105571   0.000000
     40         12.378907   0.000000
     41         12.831079   0.000000
     42         13.108640   0.000000
     43         14.581553   0.000000
     44         14.657753   0.000000
     45         14.851357   0.000000
     46         14.899494   0.000000
     47         16.190120   0.000000
     48         16.368858   0.000000
 
  0.2500000E-01  0.5357143E-01  0.2777778E-01  0.7936508E-03
      1        -12.724095   1.000000
      2        -11.573313   1.000000
      3         -8.655681   1.000000
      4         -8.415569   1.000000
      5         -6.075263   1.000000
      6         -5.084601   1.000000
      7         -4.622305   1.000000
      8         -4.345223   1.000000
      9         -4.108333   1.000000
     10         -3.570617   1.000000
     11         -2.770452   1.000000
     12         -2.224607   1.000000
     13         -1.630959   1.000000
     14         -1.064846   1.000000
     15         -0.113138   1.000000
     16         -0.086908   1.000000
     17          0.141224   1.000000
     18          0.210285   1.000000
     19          0.577106   1.000000
     20          1.975780   0.003367
     21          2.043511   0.000002
     22          2.265239   0.000000
     23          5.489575   0.000000
     24          5.731013   0.000000
     25          5.848916   0.000000
     26          5.897227   0.000000
     27          6.880370   0.000000
     28          7.685450   0.000000
     29          7.851751   0.000000
     30          8.426207   0.000000
     31          8.765664   0.000000
     32          8.986131   0.000000
     33          9.064493   0.000000
     34         10.210469   0.000000
     35         11.212949   0.000000
     36         11.362170   0.000000
     37         11.693687   0.000000
     38         11.825424   0.000000
     39         11.932185   0.000000
     40         12.445430   0.000000
     41         12.837624   0.000000
     42         13.315406   0.000000
     43         13.495966   0.000000
     44         15.481592   0.000000
     45         15.519133   0.000000
     46         15.954138   0.000000
     47         16.311600   0.000000
     48         16.333724   0.000000
 
  0.7500000E-01  0.5357143E-01  0.2777778E-01  0.7936508E-03
      1        -12.713098   1.000000
      2        -11.592305   1.000000
      3         -8.651172   1.000000
      4         -8.411996   1.000000
      5         -6.053830   1.000000
      6         -5.205086   1.000000
      7         -4.682469   1.000000
      8         -4.226781   1.000000
      9         -4.056181   1.000000
     10         -3.468374   1.000000
     11         -2.787338   1.000000
     12         -2.219449   1.000000
     13         -1.654130   1.000000
     14         -1.146860   1.000000
     15         -0.114316   1.000000
     16         -0.061453   1.000000
     17          0.150061   1.000000
     18          0.186802   1.000000
     19          0.552202   1.000000
     20          1.944517   0.033962
     21          2.032650   0.000008
     22          2.233449   0.000000
     23          5.513250   0.000000
     24          5.722065   0.000000
     25          5.849857   0.000000
     26          6.002498   0.000000
     27          6.856428   0.000000
     28          7.502696   0.000000
     29          7.983740   0.000000
     30          8.464854   0.000000
     31          8.856499   0.000000
     32          9.054055   0.000000
     33          9.079056   0.000000
     34         10.229362   0.000000
     35         11.223833   0.000000
     36         11.261897   0.000000
     37         11.519803   0.000000
     38         11.773025   0.000000
     39         11.990401   0.000000
     40         12.466562   0.000000
     41         12.953432   0.000000
     42         13.373808   0.000000
     43         13.518549   0.000000
     44         15.236506   0.000000
     45         15.569985   0.000000
     46         16.058575   0.000000
     47         16.177568   0.000000
     48         16.370660   0.000000
 
  0.1250000E+00  0.5357143E-01  0.2777778E-01  0.7936508E-03
      1        -12.691216   1.000000
      2        -11.629282   1.000000
      3         -8.641750   1.000000
      4         -8.405559   1.000000
      5         -6.019762   1.000000
      6         -5.370436   1.000000
      7         -4.754511   1.000000
      8         -4.137196   1.000000
      9         -3.891205   1.000000
     10         -3.295695   1.000000
     11         -2.820733   1.000000
     12         -2.209068   1.000000
     13         -1.696667   1.000000
     14         -1.301949   1.000000
     15         -0.104743   1.000000
     16         -0.035966   1.000000
     17          0.127127   1.000000
     18          0.188706   1.000000
     19          0.503350   1.000000
     20          1.890873   0.378954
     21          2.005187   0.000199
     22          2.170183   0.000000
     23          5.555152   0.000000
     24          5.749261   0.000000
     25          5.848359   0.000000
     26          6.171818   0.000000
     27          6.811867   0.000000
     28          7.322793   0.000000
     29          8.085768   0.000000
     30          8.536263   0.000000
     31          8.992604   0.000000
     32          9.114842   0.000000
     33          9.190668   0.000000
     34         10.268689   0.000000
     35         11.054317   0.000000
     36         11.247602   0.000000
     37         11.266089   0.000000
     38         11.730395   0.000000
     39         12.099530   0.000000
     40         12.509558   0.000000
     41         13.102507   0.000000
     42         13.201990   0.000000
     43         13.789570   0.000000
     44         14.976970   0.000000
     45         15.651862   0.000000
     46         15.934411   0.000000
     47         16.136646   0.000000
     48         16.464146   0.000000
 
  0.1750000E+00  0.5357143E-01  0.2777778E-01  0.7936508E-03
      1        -12.658681   1.000000
      2        -11.682348   1.000000
      3         -8.626878   1.000000
      4         -8.397573   1.000000
      5         -5.990161   1.000000
      6         -5.538109   1.000000
      7         -4.797116   1.000000
      8         -4.079427   1.000000
      9         -3.652776   1.000000
     10         -3.086150   1.000000
     11         -2.867185   1.000000
     12         -2.193369   1.000000
     13         -1.752549   1.000000
     14         -1.515344   1.000000
     15         -0.092023   1.000000
     16         -0.050844   1.000000
     17          0.108168   1.000000
     18          0.212316   1.000000
     19          0.441387   1.000000
     20          1.822712   0.947347
     21          1.959243   0.012480
     22          2.076942   0.000000
     23          5.605249   0.000000
     24          5.777256   0.000000
     25          5.904780   0.000000
     26          6.380266   0.000000
     27          6.752703   0.000000
     28          7.161617   0.000000
     29          8.170030   0.000000
     30          8.627829   0.000000
     31          9.053271   0.000000
     32          9.247978   0.000000
     33          9.386541   0.000000
     34         10.333041   0.000000
     35         10.783905   0.000000
     36         10.948193   0.000000
     37         11.314897   0.000000
     38         11.740877   0.000000
     39         12.237138   0.000000
     40         12.584836   0.000000
     41         12.965022   0.000000
     42         13.174047   0.000000
     43         14.101346   0.000000
     44         14.825779   0.000000
     45         15.631928   0.000000
     46         15.802151   0.000000
     47         16.131044   0.000000
     48         16.557976   0.000000
 
  0.2250000E+00  0.5357143E-01  0.2777778E-01  0.7936508E-03
      1        -12.615857   1.000000
      2        -11.748964   1.000000
      3         -8.606258   1.000000
      4         -8.389831   1.000000
      5         -5.984793   1.000000
      6         -5.691237   1.000000
      7         -4.778247   1.000000
      8         -4.018495   1.000000
      9         -3.395224   1.000000
     10         -2.963078   1.000000
     11         -2.822227   1.000000
     12         -2.172638   1.000000
     13         -1.816801   1.000000
     14         -1.767900   1.000000
     15         -0.162875   1.000000
     16         -0.053115   1.000000
     17          0.134711   1.000000
     18          0.199937   1.000000
     19          0.413529   1.000000
     20          1.746894   0.999916
     21          1.894645   0.339109
     22          1.959148   0.012568
     23          5.649859   0.000000
     24          5.784105   0.000000
     25          6.052374   0.000000
     26          6.610054   0.000000
     27          6.688070   0.000000
     28          7.033082   0.000000
     29          8.244569   0.000000
     30          8.715850   0.000000
     31          9.040735   0.000000
     32          9.444073   0.000000
     33          9.625651   0.000000
     34         10.372330   0.000000
     35         10.502265   0.000000
     36         10.699526   0.000000
     37         11.370454   0.000000
     38         11.818511   0.000000
     39         12.356045   0.000000
     40         12.668159   0.000000
     41         12.746829   0.000000
     42         13.081002   0.000000
     43         14.401896   0.000000
     44         14.867600   0.000000
     45         15.382108   0.000000
     46         15.861435   0.000000
     47         16.055333   0.000000
     48         16.417336   0.000000
 
  0.2750000E+00  0.5357143E-01  0.2777778E-01  0.7936508E-03
      1        -12.563232   1.000000
      2        -11.826205   1.000000
      3         -8.580139   1.000000
      4         -8.384422   1.000000
      5         -6.012073   1.000000
      6         -5.822639   1.000000
      7         -4.683239   1.000000
      8         -3.947779   1.000000
      9         -3.142295   1.000000
     10         -3.034650   1.000000
     11         -2.590287   1.000000
     12         -2.157332   1.000000
     13         -2.033281   1.000000
     14         -1.878796   1.000000
     15         -0.294936   1.000000
     16         -0.059051   1.000000
     17          0.119021   1.000000
     18          0.193823   1.000000
     19          0.460423   1.000000
     20          1.669857   1.000000
     21          1.792767   0.993181
     22          1.845677   0.834006
     23          5.678118   0.000000
     24          5.800714   0.000000
     25          6.263342   0.000000
     26          6.620974   0.000000
     27          6.787016   0.000000
     28          7.012009   0.000000
     29          8.311909   0.000000
     30          8.760623   0.000000
     31          8.989838   0.000000
     32          9.652574   0.000000
     33          9.878167   0.000000
     34         10.072212   0.000000
     35         10.389686   0.000000
     36         10.738260   0.000000
     37         11.411643   0.000000
     38         11.957772   0.000000
     39         12.375604   0.000000
     40         12.439037   0.000000
     41         12.830520   0.000000
     42         12.963548   0.000000
     43         14.654562   0.000000
     44         15.044851   0.000000
     45         15.149528   0.000000
     46         15.763432   0.000000
     47         15.889372   0.000000
     48         16.257008   0.000000
 
  0.3250000E+00  0.5357143E-01  0.2777778E-01  0.7936508E-03
      1        -12.501449   1.000000
      2        -11.911023   1.000000
      3         -8.549493   1.000000
      4         -8.383509   1.000000
      5         -6.060636   1.000000
      6         -5.931077   1.000000
      7         -4.517975   1.000000
      8         -3.866487   1.000000