 running   24 mpi-ranks, with    1 threads/rank, on    1 nodes
 distrk:  each k-point on   24 cores,    1 groups
 distr:  one band on    1 cores,   24 groups
 vasp.6.4.3 19Mar24 (build May 31 2024 16:31:43) complex                        
  
 POSCAR found type information on POSCAR B 
 POSCAR found :  1 types and      14 ions
 Reading from existing POTCAR
 scaLAPACK will be used
 Reading from existing POTCAR
 LDA part: xc-table for (Slater+PW92), standard interpolation
 POSCAR, INCAR and KPOINTS ok, starting setup
 FFT: planning ... GRIDC
 FFT: planning ... GRID_SOFT
 FFT: planning ... GRID
 WAVECAR not read
 entering main loop
       N       E                     dE             d eps       ncg     rms          rms(c)
DAV:   1     0.539908100936E+02    0.53991E+02   -0.17651E+04120960   0.724E+02
DAV:   2    -0.928907012532E+02   -0.14688E+03   -0.13823E+03168576   0.150E+02
DAV:   3    -0.975891836296E+02   -0.46985E+01   -0.46745E+01176376   0.241E+01
DAV:   4    -0.976164114183E+02   -0.27228E-01   -0.27226E-01149256   0.210E+00
DAV:   5    -0.976167232569E+02   -0.31184E-03   -0.31183E-03175680   0.216E-01    0.123E+01
DAV:   6    -0.922025397659E+02    0.54142E+01   -0.39484E+00176064   0.658E+00    0.678E+00
DAV:   7    -0.905527475526E+02    0.16498E+01   -0.31966E+00180696   0.583E+00    0.172E+00
DAV:   8    -0.905635904111E+02   -0.10843E-01   -0.22899E-01132840   0.163E+00    0.741E-01
DAV:   9    -0.905781923034E+02   -0.14602E-01   -0.17121E-02170688   0.448E-01    0.203E-01
DAV:  10    -0.905824978020E+02   -0.43055E-02   -0.24710E-03133776   0.175E-01    0.645E-02
DAV:  11    -0.905836479928E+02   -0.11502E-02   -0.67210E-04160176   0.891E-02    0.332E-02
DAV:  12    -0.905837513922E+02   -0.10340E-03   -0.76814E-05149640   0.332E-02    0.529E-03
DAV:  13    -0.905837577939E+02   -0.64017E-05   -0.50978E-06169104   0.900E-03    0.183E-03
DAV:  14    -0.905837586036E+02   -0.80968E-06   -0.42348E-07149904   0.276E-03
   1 F= -.90583759E+02 E0= -.90582120E+02  d E =-.327669E-02
