   14   14    1    1
  0.1026873E+02  0.5706115E-09  0.4054377E-09  0.6214127E-09  0.5000000E-15
  1.000000000000000E-004
  CAR 
 Convergence                             
     42    175     48
 
  0.5000000E-01  0.3571429E-01  0.0000000E+00  0.3174603E-02
      1        -12.719352   1.000000
      2        -11.577971   1.000000
      3         -8.664789   1.000000
      4         -8.428731   1.000000
      5         -6.077052   1.000000
      6         -5.143866   1.000000
      7         -4.681013   1.000000
      8         -4.283328   1.000000
      9         -4.045534   1.000000
     10         -3.558253   1.000000
     11         -2.614662   1.000000
     12         -2.346138   1.000000
     13         -1.856335   1.000000
     14         -1.116508   1.000000
     15         -0.088604   1.000000
     16         -0.058145   1.000000
     17          0.131233   1.000000
     18          0.151166   1.000000
     19          0.540682   1.000000
     20          1.992801   0.000056
     21          2.055163   0.000000
     22          2.186646   0.000000
     23          5.420516   0.000000
     24          5.711031   0.000000
     25          5.797580   0.000000
     26          5.921466   0.000000
     27          6.771710   0.000000
     28          7.505836   0.000000
     29          7.832449   0.000000
     30          8.480132   0.000000
     31          8.737506   0.000000
     32          8.892026   0.000000
     33          8.978379   0.000000
     34         10.076585   0.000000
     35         11.140617   0.000000
     36         11.272469   0.000000
     37         11.599935   0.000000
     38         11.722240   0.000000
     39         11.888070   0.000000
     40         12.354138   0.000000
     41         12.802183   0.000000
     42         13.384275   0.000000
     43         13.411685   0.000000
     44         15.297184   0.000000
     45         15.492876   0.000000
     46         15.978494   0.000000
     47         16.259490   0.000000
     48         16.279567   0.000000
 
  0.1500000E+00  0.3571429E-01  0.0000000E+00  0.3174603E-02
      1        -12.675656   1.000000
      2        -11.651803   1.000000
      3         -8.643570   1.000000
      4         -8.417230   1.000000
      5         -6.009139   1.000000
      6         -5.482716   1.000000
      7         -4.802102   1.000000
      8         -4.021046   1.000000
      9         -3.804163   1.000000
     10         -3.222377   1.000000
     11         -2.684483   1.000000
     12         -2.326351   1.000000
     13         -1.933828   1.000000
     14         -1.422922   1.000000
     15         -0.048599   1.000000
     16         -0.042145   1.000000
     17          0.071708   1.000000
     18          0.172833   1.000000
     19          0.445474   1.000000
     20          1.906835   0.076265
     21          1.977477   0.000303
     22          2.066010   0.000000
     23          5.509923   0.000000
     24          5.716384   0.000000
     25          5.828931   0.000000
     26          6.265089   0.000000
     27          6.686817   0.000000
     28          7.145513   0.000000
     29          8.038717   0.000000
     30          8.616596   0.000000
     31          8.988742   0.000000
     32          9.068372   0.000000
     33          9.146953   0.000000
     34         10.183085   0.000000
     35         10.882008   0.000000
     36         11.068635   0.000000
     37         11.212853   0.000000
     38         11.640378   0.000000
     39         12.104900   0.000000
     40         12.441648   0.000000
     41         13.052521   0.000000
     42         13.060910   0.000000
     43         13.939832   0.000000
     44         14.788251   0.000000
     45         15.675868   0.000000
     46         15.759401   0.000000
     47         16.147360   0.000000
     48         16.435403   0.000000
 
  0.2500000E+00  0.3571429E-01  0.0000000E+00  0.3174603E-02
      1        -12.590134   1.000000
      2        -11.784805   1.000000
      3         -8.599871   1.000000
      4         -8.402476   1.000000
      5         -5.987324   1.000000
      6         -5.808267   1.000000
      7         -4.755688   1.000000
      8         -3.894783   1.000000
      9         -3.293877   1.000000
     10         -2.851883   1.000000
     11         -2.732164   1.000000
     12         -2.286550   1.000000
     13         -2.043047   1.000000
     14         -1.926405   1.000000
     15         -0.246200   1.000000
     16         -0.007660   1.000000
     17          0.119839   1.000000
     18          0.137179   1.000000
     19          0.415369   1.000000
     20          1.759111   0.996999
     21          1.837833   0.698824
     22          1.845167   0.623080
     23          5.631226   0.000000
     24          5.672739   0.000000
     25          6.137716   0.000000
     26          6.561706   0.000000
     27          6.721799   0.000000
     28          6.891498   0.000000
     29          8.187389   0.000000
     30          8.765572   0.000000
     31          8.936713   0.000000
     32          9.512932   0.000000
     33          9.592048   0.000000
     34         10.223643   0.000000
     35         10.424896   0.000000
     36         10.563518   0.000000
     37         11.330338   0.000000
     38         11.784121   0.000000
     39         12.339394   0.000000
     40         12.497728   0.000000
     41         12.738179   0.000000
     42         12.848657   0.000000
     43         14.563564   0.000000
     44         14.841524   0.000000
     45         15.160828   0.000000
     46         15.906207   0.000000
     47         15.927677   0.000000
     48         16.208709   0.000000
 
  0.3500000E+00  0.3571429E-01  0.0000000E+00  0.3174603E-02
      1        -12.466758   1.000000
      2        -11.954151   1.000000
      3         -8.538081   1.000000
      4         -8.399134   1.000000
      5         -6.066993   1.000000
      6         -6.040971   1.000000
      7         -4.429039   1.000000
      8         -3.726819   1.000000
      9         -3.044846   1.000000
     10         -2.910909   1.000000
     11         -2.460773   1.000000
     12         -2.272089   1.000000
     13         -2.169413   1.000000
     14         -2.142517   1.000000
     15         -0.545310   1.000000
     16         -0.271063   1.000000
     17          0.152570   1.000000
     18          0.227524   1.000000
     19          0.588001   1.000000
     20          1.502386   1.000000
     21          1.637577   1.000000
     22          1.697443   0.999996
     23          5.658226   0.000000
     24          5.716081   0.000000
     25          6.461469   0.000000
     26          6.634155   0.000000
     27          6.659667   0.000000
     28          7.368219   0.000000
     29          8.310250   0.000000
     30          8.638144   0.000000
     31          8.751090   0.000000
     32          9.481217   0.000000
     33          9.994285   0.000000
     34         10.063168   0.000000
     35         10.337179   0.000000
     36         11.078780   0.000000
     37         11.351326   0.000000
     38         11.878878   0.000000
     39         12.142662   0.000000
     40         12.210990   0.000000
     41         12.465657   0.000000
     42         13.199690   0.000000
     43         14.651933   0.000000
     44         14.907876   0.000000
     45         15.182748   0.000000
     46         15.304004   0.000000
     47         15.498217   0.000000
     48         16.301611   0.000000
 
  0.4500000E+00  0.3571429E-01  0.0000000E+00  0.3174603E-02
      1        -12.312166   1.000000
      2        -12.136450   1.000000
      3         -8.472167   1.000000
      4         -8.421488   1.000000
      5         -6.154832   1.000000
      6         -6.151170   1.000000
      7         -3.914867   1.000000
      8         -3.518783   1.000000
      9         -3.316651   1.000000
     10         -3.282289   1.000000
     11         -2.376764   1.000000
     12         -2.250748   1.000000
     13         -1.984319   1.000000
     14         -1.928465   1.000000
     15         -0.765917   1.000000
     16         -0.629772   1.000000
     17          0.235367   1.000000
     18          0.268654   1.000000
     19          0.848026   1.000000
     20          1.164516   1.000000
     21          1.557187   1.000000
     22          1.584223   1.000000
     23          5.687293   0.000000
     24          5.726053   0.000000
     25          6.441088   0.000000
     26          6.505425   0.000000
     27          7.325941   0.000000
     28          8.026204   0.000000
     29          8.049783   0.000000
     30          8.426558   0.000000
     31          8.563451   0.000000
     32          8.738858   0.000000
     33         10.446167   0.000000
     34         10.459670   0.000000
     35         10.698484   0.000000
     36         11.155431   0.000000
     37         11.339387   0.000000
     38         11.530294   0.000000
     39         11.862335   0.000000
     40         12.419666   0.000000
     41         12.660405   0.000000
     42         13.193353   0.000000
     43         14.530534   0.000000
     44         14.663340   0.000000
     45         14.804321   0.000000
     46         14.864045   0.000000
     47         16.021224   0.000000
     48         16.366885   0.000000
 
  0.5000000E-01  0.1071429E+00  0.0000000E+00  0.3174603E-02
      1        -12.695437   1.000000
      2        -11.556421   1.000000
      3         -8.646152   1.000000
      4         -8.405742   1.000000
      5         -6.050482   1.000000
      6         -5.110210   1.000000
      7         -4.659114   1.000000
      8         -4.582237   1.000000
      9         -4.188985   1.000000
     10         -3.535602   1.000000
     11         -3.306514   1.000000
     12         -1.815220   1.000000
     13         -1.111960   1.000000
     14         -1.058868   1.000000
     15         -0.321441   1.000000
     16         -0.293459   1.000000
     17          0.144751   1.000000
     18          0.221416   1.000000
     19          0.618680   1.000000
     20          1.726253   0.999882
     21          1.805459   0.924597
     22          2.238637   0.000000
     23          5.540808   0.000000
     24          5.668859   0.000000
     25          5.705218   0.000000
     26          5.963974   0.000000
     27          7.055927   0.000000
     28          7.790837   0.000000
     29          8.026157   0.000000
     30          8.140921   0.000000
     31          8.742430   0.000000
     32          9.030176   0.000000
     33          9.087045   0.000000
     34         10.525253   0.000000
     35         11.205144   0.000000
     36         11.352973   0.000000
     37         11.534398   0.000000
     38         11.824583   0.000000
     39         11.999043   0.000000
     40         12.632157   0.000000
     41         12.803558   0.000000
     42         13.123902   0.000000
     43         13.127699   0.000000
     44         15.252466   0.000000
     45         15.298819   0.000000
     46         15.783236   0.000000
     47         15.783793   0.000000
     48         16.140808   0.000000
 
  0.1500000E+00  0.1071429E+00  0.0000000E+00  0.3174603E-02
      1        -12.651835   1.000000
      2        -11.630113   1.000000
      3         -8.624781   1.000000
      4         -8.394614   1.000000
      5         -5.980798   1.000000
      6         -5.452694   1.000000
      7         -4.782211   1.000000
      8         -4.501152   1.000000
      9         -3.765799   1.000000
     10         -3.386547   1.000000
     11         -3.184669   1.000000
     12         -1.793668   1.000000
     13         -1.417525   1.000000
     14         -1.176269   1.000000
     15         -0.282866   1.000000
     16         -0.215556   1.000000
     17          0.111860   1.000000
     18          0.194373   1.000000
     19          0.515843   1.000000
     20          1.646035   1.000000
     21          1.729232   0.999836
     22          2.108352   0.000000
     23          5.616952   0.000000
     24          5.768191   0.000000
     25          5.892590   0.000000
     26          6.072934   0.000000
     27          6.973027   0.000000
     28          7.466399   0.000000
     29          8.172014   0.000000
     30          8.308138   0.000000
     31          9.059478   0.000000
     32          9.098772   0.000000
     33          9.356492   0.000000
     34         10.445773   0.000000
     35         10.814371   0.000000
     36         11.021835   0.000000
     37         11.406987   0.000000
     38         11.813161   0.000000
     39         12.218064   0.000000
     40         12.682187   0.000000
     41         12.803949   0.000000
     42         13.084821   0.000000
     43         13.659345   0.000000
     44         14.872788   0.000000
     45         15.321219   0.000000
     46         15.679388   0.000000
     47         15.716349   0.000000
     48         16.320820   0.000000
 
  0.2500000E+00  0.1071429E+00  0.0000000E+00  0.3174603E-02
      1        -12.566506   1.000000
      2        -11.762858   1.000000
      3         -8.580870   1.000000
      4         -8.380557   1.000000
      5         -5.956234   1.000000
      6         -5.778000   1.000000
      7         -4.739160   1.000000
      8         -4.393433   1.000000
      9         -3.507738   1.000000
     10         -3.241165   1.000000
     11         -2.719649   1.000000
     12         -1.921799   1.000000
     13         -1.749696   1.000000
     14         -1.337743   1.000000
     15         -0.248199   1.000000
     16         -0.236961   1.000000
     17          0.031851   1.000000
     18          0.181472   1.000000
     19          0.439720   1.000000
     20          1.511501   1.000000
     21          1.599555   1.000000
     22          1.861049   0.446065
     23          5.814144   0.000000
     24          5.896321   0.000000
     25          5.974855   0.000000
     26          6.519659   0.000000
     27          6.853155   0.000000
     28          7.239439   0.000000
     29          8.378714   0.000000
     30          8.439488   0.000000
     31          9.034699   0.000000
     32          9.551375   0.000000
     33          9.816571   0.000000
     34         10.068683   0.000000
     35         10.293907   0.000000
     36         10.759258   0.000000
     37         11.469888   0.000000
     38         12.048334   0.000000
     39         12.243034   0.000000
     40         12.500696   0.000000
     41         12.888272   0.000000
     42         12.966429   0.000000
     43         14.235033   0.000000
     44         15.006803   0.000000
     45         15.089725   0.000000
     46         15.569286   0.000000
     47         15.636506   0.000000
     48         16.341350   0.000000
 
  0.3500000E+00  0.1071429E+00  0.0000000E+00  0.3174603E-02
      1        -12.443390   1.000000
      2        -11.931858   1.000000
      3         -8.518828   1.000000
      4         -8.378100   1.000000
      5         -6.034704   1.000000
      6         -6.009867   1.000000
      7         -4.414646   1.000000
      8         -4.247222   1.000000
      9         -3.678095   1.000000
     10         -2.863066   1.000000
     11         -2.379738   1.000000
     12         -2.237612   1.000000
     13         -1.685903   1.000000
     14         -1.499659   1.000000
     15         -0.507427   1.000000
     16         -0.331892   1.000000
     17          0.062934   1.000000
     18          0.093996   1.000000
     19          0.598578   1.000000
     20          1.372126   1.000000
     21          1.454715   1.000000
     22          1.538334   1.000000
     23          5.831637   0.000000
     24          5.969329   0.000000
     25          6.479267   0.000000
     26          6.764735   0.000000
     27          6.838298   0.000000
     28          7.328852   0.000000
     29          8.369673   0.000000
     30          8.546248   0.000000
     31          8.879987   0.000000
     32          9.317994   0.000000
     33         10.013127   0.000000
     34         10.036857   0.000000
     35         10.384649   0.000000
     36         11.155072   0.000000
     37         11.306377   0.000000
     38         11.779183   0.000000
     39         12.220552   0.000000
     40         12.489286   0.000000
     41         12.664477   0.000000
     42         13.400393   0.000000
     43         14.695248   0.000000
     44         14.704661   0.000000
     45         15.078523   0.000000
     46         15.236784   0.000000
     47         15.573957   0.000000
     48         16.315624   0.000000
 
  0.4500000E+00  0.1071429E+00  0.0000000E+00  0.3174603E-02
      1        -12.289125   1.000000
      2        -12.113778   1.000000
      3         -8.452564   1.000000
      4         -8.401294   1.000000
      5         -6.122928   1.000000
      6         -6.118832   1.000000
      7         -4.069284   1.000000
      8         -3.907354   1.000000
      9         -3.866834   1.000000
     10         -3.303950   1.000000
     11         -2.124487   1.000000
     12         -1.932530   1.000000
     13         -1.617796   1.000000
     14         -1.612481   1.000000
     15         -0.728054   1.000000
     16         -0.625678   1.000000
     17          0.097057   1.000000
     18          0.128098   1.000000
     19          0.857358   1.000000
     20          1.170981   1.000000
     21          1.318970   1.000000
     22          1.342857   1.000000
     23          5.883685   0.000000
     24          5.950752   0.000000
     25          6.754867   0.000000
     26          6.805630   0.000000
     27          7.144189   0.000000
     28          7.853167   0.000000
     29          7.895961   0.000000
     30          8.575038   0.000000
     31          8.637692   0.000000
     32          8.749297   0.000000
     33         10.260659   0.000000
     34         10.509966   0.000000
     35         10.748471   0.000000
     36         10.847025   0.000000
     37         11.486732   0.000000
     38         11.588961   0.000000
     39         11.940031   0.000000
     40         12.586615   0.000000
     41         12.966806   0.000000
     42         13.422914   0.000000
     43         14.480180   0.000000
     44         14.665541   0.000000
     45         14.764614   0.000000
     46         14.982461   0.000000
     47         16.046965   0.000000
     48         16.341795   0.000000
 
  0.5000000E-01  0.1785714E+00  0.0000000E+00  0.3174603E-02
      1        -12.651259   1.000000
      2        -11.516681   1.000000
      3         -8.612036   1.000000
      4         -8.363334   1.000000
      5         -6.001371   1.000000
      6         -5.138651   1.000000
      7         -5.020102   1.000000
      8         -4.617619   1.000000
      9         -4.172364   1.000000
     10         -3.927444   1.000000
     11         -3.482635   1.000000
     12         -1.224921   1.000000
     13         -1.102743   1.000000
     14         -0.663420   1.000000
     15         -0.559875   1.000000
     16         -0.202051   1.000000
     17          0.165814   1.000000
     18          0.273687   1.000000
     19          0.696634   1.000000
     20          1.345354   1.000000
     21          1.408177   1.000000
     22          2.276374   0.000000
     23          5.254161   0.000000
     24          5.417921   0.000000
     25          6.080946   0.000000
     26          6.150537   0.000000
     27          7.487924   0.000000
     28          7.576849   0.000000
     29          8.270975   0.000000
     30          8.669496   0.000000
     31          8.827063   0.000000
     32          9.170294   0.000000
     33          9.309850   0.000000
     34         10.824488   0.000000
     35         11.259311   0.000000
     36         11.510646   0.000000
     37         11.650384   0.000000
     38         12.024034   0.000000
     39         12.214875   0.000000
     40         12.684877   0.000000
     41         12.697199   0.000000
     42         12.934955   0.000000
     43         13.168096   0.000000
     44         14.592019   0.000000
     45         15.083710   0.000000
     46         15.259986   0.000000
     47         15.362944   0.000000
     48         15.879459   0.000000
 
  0.1500000E+00  0.1785714E+00  0.0000000E+00  0.3174603E-02
      1        -12.607841   1.000000
      2        -11.590109   1.000000
      3         -8.590358   1.000000
      4         -8.352899   1.000000
      5         -5.928302   1.000000
      6         -5.404208   1.000000
      7         -5.041951   1.000000
      8         -4.744771   1.000000
      9         -3.993038   1.000000
     10         -3.724141   1.000000
     11         -3.145325   1.000000
     12         -1.409231   1.000000
     13         -1.198959   1.000000
     14         -0.771525   1.000000
     15         -0.522017   1.000000
     16         -0.120390   1.000000
     17          0.144696   1.000000
     18          0.219402   1.000000
     19          0.584061   1.000000
     20          1.266517   1.000000
     21          1.338642   1.000000
     22          2.141119   0.000000
     23          5.334633   0.000000
     24          5.761862   0.000000
     25          6.096654   0.000000
     26          6.196296   0.000000
     27          7.407560   0.000000
     28          7.733364   0.000000
     29          8.003363   0.000000
     30          8.761842   0.000000
     31          9.184204   0.000000
     32          9.228628   0.000000
     33          9.593260   0.000000
     34         10.460205   0.000000
     35         10.720402   0.000000
     36         11.215629   0.000000
     37         11.668164   0.000000
     38         12.137754   0.000000
     39         12.369899   0.000000
     40         12.443769   0.000000
     41         13.095253   0.000000
     42         13.214501   0.000000
     43         13.368677   0.000000
     44         14.604663   0.000000
     45         14.747368   0.000000
     46         15.194375   0.000000
     47         15.427092   0.000000
     48         15.911995   0.000000
 
  0.2500000E+00  0.1785714E+00  0.0000000E+00  0.3174603E-02
      1        -12.522846   1.000000
      2        -11.722361   1.000000
      3         -8.546015   1.000000
      4         -8.340162   1.000000
      5         -5.898377   1.000000
      6         -5.723342   1.000000
      7         -4.950472   1.000000
      8         -4.708303   1.000000
      9         -4.115680   1.000000
     10         -3.191631   1.000000
     11         -2.675901   1.000000
     12         -1.905516   1.000000
     13         -1.158630   1.000000
     14         -0.910833   1.000000
     15         -0.469542   1.000000
     16         -0.114658   1.000000
     17         -0.008988   1.000000
     18          0.230638   1.000000
     19          0.469364   1.000000
     20          1.135501   1.000000
     21          1.220665   1.000000
     22          1.885523   0.203876
     23          5.654868   0.000000
     24          6.051744   0.000000
     25          6.235754   0.000000
     26          6.326781   0.000000
     27          7.306026   0.000000
     28          7.815280   0.000000
     29          7.967502   0.000000
     30          8.890809   0.000000
     31          9.182098   0.000000
     32          9.659288   0.000000
     33          9.797386   0.000000
     34         10.075605   0.000000
     35         10.196562   0.000000
     36         10.998681   0.000000
     37         11.531054   0.000000
     38         12.044999   0.000000
     39         12.447239   0.000000
     40         12.745106   0.000000
     41         12.975492   0.000000
     42         13.385065   0.000000
     43         13.890450   0.000000
     44         14.516095   0.000000
     45         14.796399   0.000000
     46         15.218854   0.000000
     47         15.443867   0.000000
     48         16.122825   0.000000
 
  0.3500000E+00  0.1785714E+00  0.0000000E+00  0.3174603E-02
      1        -12.400229   1.000000
      2        -11.890725   1.000000
      3         -8.483511   1.000000
      4         -8.339395   1.000000
      5         -5.974525   1.000000
      6         -5.952486   1.000000
      7         -4.815346   1.000000
      8         -4.388113   1.000000
      9         -4.279022   1.000000
     10         -2.825046   1.000000
     11         -2.339271   1.000000
     12         -2.196560   1.000000
     13         -1.102436   1.000000
     14         -1.048081   1.000000
     15         -0.476813   1.000000
     16         -0.399289   1.000000
     17          0.034553   1.000000
     18          0.036665   1.000000
     19          0.616049   1.000000
     20          1.006291   1.000000
     21          1.088360   1.000000
     22          1.551680   1.000000
     23          6.063790   0.000000
     24          6.187685   0.000000
     25          6.357674   0.000000
     26          6.760180   0.000000
     27          7.251556   0.000000
     28          7.737359   0.000000
     29          8.024769   0.000000
     30          8.990260   0.000000
     31          9.051223   0.000000
     32          9.119910   0.000000
     33          9.827188   0.000000
     34         10.125530   0.000000
     35         10.645249   0.000000
     36         11.018531   0.000000
     37         11.253742   0.000000
     38         11.890688   0.000000
     39         12.282588   0.000000
     40         12.926240   0.000000
     41         12.977244   0.000000
     42         13.726376   0.000000
     43         14.305019   0.000000
     44         14.324032   0.000000
     45         14.956146   0.000000
     46         15.050963   0.000000
     47         15.535819   0.000000
     48         16.301615   0.000000
 
  0.4500000E+00  0.1785714E+00  0.0000000E+00  0.3174603E-02
      1        -12.246587   1.000000
      2        -12.071934   1.000000
      3         -8.416582   1.000000
      4         -8.364186   1.000000
      5         -6.063712   1.000000
      6         -6.058621   1.000000
      7         -4.648553   1.000000
      8         -4.464068   1.000000
      9         -3.876705   1.000000
     10         -3.281557   1.000000
     11         -2.056998   1.000000
     12         -1.892470   1.000000
     13         -1.121291   1.000000
     14         -1.061635   1.000000
     15         -0.653757   1.000000
     16         -0.649164   1.000000
     17         -0.014513   1.000000
     18          0.028975   1.000000
     19          0.872970   1.000000
     20          0.943894   1.000000
     21          0.984227   1.000000
     22          1.199286   1.000000
     23          6.155755   0.000000
     24          6.275007   0.000000
     25          6.837700   0.000000
     26          7.173065   0.000000
     27          7.230546   0.000000
     28          7.579664   0.000000
     29          7.883658   0.000000
     30          8.391984   0.000000
     31          9.045623   0.000000
     32          9.077177   0.000000
     33          9.951933   0.000000
     34         10.424629   0.000000
     35         10.647239   0.000000
     36         10.922495   0.000000
     37         11.666426   0.000000
     38         11.678959   0.000000
     39         12.058916   0.000000
     40         12.840253   0.000000
     41         13.353932   0.000000
     42         13.698710   0.000000
     43         14.156579   0.000000
     44         14.310695   0.000000
     45         14.924715   0.000000
     46         15.063390   0.000000
     47         15.913755   0.000000
     48         16.216155   0.000000
 
  0.5000000E-01  0.2500000E+00  0.0000000E+00  0.3174603E-02
      1        -12.594028   1.000000
      2        -11.465333   1.000000
      3         -8.568451   1.000000
      4         -8.308469   1.000000
      5         -5.937635   1.000000
      6         -5.618696   1.000000
      7         -4.950439   1.000000
      8         -4.561811   1.000000
      9         -4.446672   1.000000
     10         -4.133222   1.000000
     11         -3.421022   1.000000
     12         -1.234449   1.000000
     13         -1.088488   1.000000
     14         -1.015772   1.000000
     15         -0.218001   1.000000
     16          0.193859   1.000000
     17          0.316606   1.000000
     18          0.567597   1.000000
     19          0.759970   1.000000
     20          0.961541   1.000000
     21          0.975494   1.000000
     22          2.310264   0.000000
     23          4.913091   0.000000
     24          5.126107   0.000000
     25          6.309827   0.000000
     26          6.539626   0.000000
     27          7.220395   0.000000
     28          7.914201   0.000000
     29          8.639938   0.000000
     30          9.008729   0.000000
     31          9.395359   0.000000
     32          9.526209   0.000000
     33          9.590928   0.000000
     34         10.685865   0.000000
     35         11.207069   0.000000
     36         11.907806   0.000000
     37         11.964193   0.000000
     38         12.230144   0.000000
     39         12.363979   0.000000
     40         12.391026   0.000000
     41         12.503439   0.000000
     42         12.919742   0.000000
     43         13.711551   0.000000
     44         13.817312   0.000000
     45         14.340872   0.000000
     46         15.034370   0.000000
     47         15.336642   0.000000
     48         15.771062   0.000000
 
  0.1500000E+00  0.2500000E+00  0.0000000E+00  0.3174603E-02
      1        -12.550838   1.000000
      2        -11.538417   1.000000
      3         -8.546362   1.000000
      4         -8.298986   1.000000
      5         -5.859972   1.000000
      6         -5.583921   1.000000
      7         -5.286091   1.000000
      8         -4.695242   1.000000