  14  14   0   0
  0.8597751E+02  0.5700971E-09  0.6201871E-09  0.3404406E-08  0.5000000E-15
  1.000000000000000E-004
  CAR 
 Convergence                             
      5.21231815    -20.80399445  301     -5.01472483      1.00000000
    -20.804  0.0000E+00  0.0000E+00
    -20.717  0.0000E+00  0.0000E+00
    -20.631  0.0000E+00  0.0000E+00
    -20.544  0.0000E+00  0.0000E+00
    -20.457  0.0000E+00  0.0000E+00
    -20.370  0.0000E+00  0.0000E+00
    -20.284  0.0000E+00  0.0000E+00
    -20.197  0.0000E+00  0.0000E+00
    -20.110  0.0000E+00  0.0000E+00
    -20.024  0.0000E+00  0.0000E+00
    -19.937  0.0000E+00  0.0000E+00
    -19.850  0.3274E-10  0.2839E-11
    -19.763  0.2400E-04  0.2081E-05
    -19.677  0.7007E-01  0.6079E-02
    -19.590  0.2268E+01  0.2028E+00
    -19.503  0.5865E+01  0.7114E+00
    -19.416  0.4800E+01  0.1128E+01
    -19.330  0.3684E+01  0.1447E+01
    -19.243  0.2516E+01  0.1665E+01
    -19.156  0.3409E+01  0.1961E+01
    -19.070  0.1997E+01  0.2134E+01
    -18.983  0.3042E+01  0.2398E+01
    -18.896  0.2651E+01  0.2628E+01
    -18.809  0.2900E+01  0.2879E+01
    -18.723  0.4041E+01  0.3230E+01
    -18.636  0.4525E+01  0.3622E+01
    -18.549  0.3270E+01  0.3906E+01
    -18.463  0.1062E+01  0.3998E+01
    -18.376  0.2480E-01  0.4000E+01
    -18.289  0.4771E-05  0.4000E+01
    -18.202  0.3540E-11  0.4000E+01
    -18.116  0.0000E+00  0.4000E+01
    -18.029  0.0000E+00  0.4000E+01
    -17.942  0.0000E+00  0.4000E+01
    -17.855  0.0000E+00  0.4000E+01
    -17.769  0.0000E+00  0.4000E+01
    -17.682  0.0000E+00  0.4000E+01
    -17.595  0.0000E+00  0.4000E+01
    -17.509  0.0000E+00  0.4000E+01
    -17.422  0.0000E+00  0.4000E+01
    -17.335  0.0000E+00  0.4000E+01
    -17.248  0.0000E+00  0.4000E+01
    -17.162  0.0000E+00  0.4000E+01
    -17.075  0.0000E+00  0.4000E+01
    -16.988  0.0000E+00  0.4000E+01
    -16.902  0.0000E+00  0.4000E+01
    -16.815  0.0000E+00  0.4000E+01
    -16.728  0.0000E+00  0.4000E+01
    -16.641  0.0000E+00  0.4000E+01
    -16.555  0.0000E+00  0.4000E+01
    -16.468  0.0000E+00  0.4000E+01
    -16.381  0.0000E+00  0.4000E+01
    -16.295  0.0000E+00  0.4000E+01
    -16.208  0.0000E+00  0.4000E+01
    -16.121  0.0000E+00  0.4000E+01
    -16.034  0.0000E+00  0.4000E+01
    -15.948  0.3502E-10  0.4000E+01
    -15.861  0.2451E-04  0.4000E+01
    -15.774  0.6689E-01  0.4006E+01
    -15.687  0.2310E+01  0.4206E+01
    -15.601  0.6218E+01  0.4745E+01
    -15.514  0.1007E+02  0.5619E+01
    -15.427  0.5455E+01  0.6092E+01
    -15.341  0.4072E+01  0.6445E+01
    -15.254  0.6153E+01  0.6979E+01
    -15.167  0.6340E+01  0.7528E+01
    -15.080  0.2902E+01  0.7780E+01
    -14.994  0.1891E+01  0.7944E+01
    -14.907  0.6308E+00  0.7999E+01
    -14.820  0.1415E-01  0.8000E+01
    -14.734  0.1655E-05  0.8000E+01
    -14.647  0.6013E-12  0.8000E+01
    -14.560  0.0000E+00  0.8000E+01
    -14.473  0.0000E+00  0.8000E+01
    -14.387  0.0000E+00  0.8000E+01
    -14.300  0.0000E+00  0.8000E+01
    -14.213  0.0000E+00  0.8000E+01
    -14.126  0.0000E+00  0.8000E+01
    -14.040  0.2048E-14  0.8000E+01
    -13.953  0.3371E-07  0.8000E+01
    -13.866  0.1631E-02  0.8000E+01
    -13.780  0.3158E+00  0.8028E+01
    -13.693  0.6837E+00  0.8087E+01
    -13.606  0.3698E+00  0.8119E+01
    -13.519  0.1051E+01  0.8210E+01
    -13.433  0.1108E+01  0.8306E+01
    -13.346  0.8023E+00  0.8376E+01
    -13.259  0.1240E+01  0.8483E+01
    -13.173  0.1081E+01  0.8577E+01
    -13.086  0.2328E+01  0.8779E+01
    -12.999  0.5312E+01  0.9240E+01
    -12.912  0.2978E+01  0.9498E+01
    -12.826  0.2641E+01  0.9727E+01
    -12.739  0.2168E+01  0.9915E+01
    -12.652  0.1631E+01  0.1006E+02
    -12.565  0.3079E+01  0.1032E+02
    -12.479  0.2821E+01  0.1057E+02
    -12.392  0.2973E+01  0.1083E+02
    -12.305  0.2668E+01  0.1106E+02
    -12.219  0.2903E+01  0.1131E+02
    -12.132  0.3383E+01  0.1160E+02
    -12.045  0.2261E+01  0.1180E+02
    -11.958  0.2636E+01  0.1203E+02
    -11.872  0.3548E+01  0.1233E+02
    -11.785  0.4660E+01  0.1274E+02
    -11.698  0.5858E+01  0.1325E+02
    -11.612  0.6570E+01  0.1382E+02
    -11.525  0.3821E+01  0.1415E+02
    -11.438  0.3546E+01  0.1446E+02
    -11.351  0.6182E+01  0.1499E+02
    -11.265  0.3188E+01  0.1527E+02
    -11.178  0.3998E+01  0.1561E+02
    -11.091  0.3131E+01  0.1589E+02
    -11.005  0.5990E+01  0.1641E+02
    -10.918  0.5362E+01  0.1687E+02
    -10.831  0.3713E+01  0.1719E+02
    -10.744  0.5424E+01  0.1766E+02
    -10.658  0.4705E+01  0.1807E+02
    -10.571  0.2234E+01  0.1826E+02
    -10.484  0.3968E+01  0.1861E+02
    -10.397  0.2254E+01  0.1880E+02
    -10.311  0.1698E+01  0.1895E+02
    -10.224  0.3018E+01  0.1921E+02
    -10.137  0.3279E+01  0.1950E+02
    -10.051  0.8945E+00  0.1958E+02
     -9.964  0.2287E+01  0.1977E+02
     -9.877  0.3918E+01  0.2011E+02
     -9.790  0.2363E+01  0.2032E+02
     -9.704  0.4656E+00  0.2036E+02
     -9.617  0.1638E+01  0.2050E+02
     -9.530  0.3131E+01  0.2077E+02
     -9.444  0.4090E+01  0.2113E+02
     -9.357  0.3740E+01  0.2145E+02
     -9.270  0.6763E+00  0.2151E+02
     -9.183  0.1879E+01  0.2167E+02
     -9.097  0.2675E+01  0.2190E+02
     -9.010  0.1297E+01  0.2202E+02
     -8.923  0.1039E+01  0.2211E+02
     -8.836  0.3865E+01  0.2244E+02
     -8.750  0.3377E+01  0.2274E+02
     -8.663  0.2745E+01  0.2297E+02
     -8.576  0.3338E+01  0.2326E+02
     -8.490  0.3263E+01  0.2355E+02
     -8.403  0.2861E+01  0.2379E+02
     -8.316  0.2605E+01  0.2402E+02
     -8.229  0.5124E+01  0.2446E+02
     -8.143  0.5559E+01  0.2495E+02
     -8.056  0.5351E+01  0.2541E+02
     -7.969  0.6026E+01  0.2593E+02
     -7.883  0.7295E+01  0.2657E+02
     -7.796  0.7314E+01  0.2720E+02
     -7.709  0.6078E+01  0.2773E+02
     -7.622  0.8800E+01  0.2849E+02
     -7.536  0.9476E+01  0.2931E+02
     -7.449  0.5586E+01  0.2980E+02
     -7.362  0.5168E+01  0.3024E+02
     -7.276  0.4916E+01  0.3067E+02
     -7.189  0.3391E+01  0.3097E+02
     -7.102  0.4412E+01  0.3135E+02
     -7.015  0.1931E+01  0.3152E+02
     -6.929  0.2233E+01  0.3171E+02
     -6.842  0.5881E+01  0.3222E+02
     -6.755  0.1012E+02  0.3310E+02
     -6.668  0.3259E+01  0.3338E+02
     -6.582  0.3264E+01  0.3366E+02
     -6.495  0.6867E+01  0.3426E+02
     -6.408  0.5467E+01  0.3473E+02
     -6.322  0.5080E+01  0.3517E+02
     -6.235  0.4538E+01  0.3557E+02
     -6.148  0.4265E+01  0.3594E+02
     -6.061  0.4724E+01  0.3635E+02
     -5.975  0.3895E+01  0.3668E+02
     -5.888  0.4522E+01  0.3708E+02
     -5.801  0.6098E+01  0.3760E+02
     -5.715  0.3370E+01  0.3790E+02
     -5.628  0.3087E+01  0.3816E+02
     -5.541  0.3409E+01  0.3846E+02
     -5.454  0.2069E+01  0.3864E+02
     -5.368  0.6219E+01  0.3918E+02
     -5.281  0.8026E+01  0.3987E+02
     -5.194  0.6234E+01  0.4041E+02
     -5.107  0.6756E+01  0.4100E+02
     -5.021  0.1063E+02  0.4192E+02
     -4.934  0.1018E+02  0.4281E+02
     -4.847  0.1583E+01  0.4294E+02
     -4.761  0.1022E+01  0.4303E+02
     -4.674  0.2167E+01  0.4322E+02
     -4.587  0.1332E+01  0.4333E+02
     -4.500  0.4923E+00  0.4338E+02
     -4.414  0.2203E+00  0.4340E+02
     -4.327  0.7595E+00  0.4346E+02
     -4.240  0.2324E+00  0.4348E+02
     -4.154  0.7785E+00  0.4355E+02
     -4.067  0.6580E-01  0.4356E+02
     -3.980  0.2363E+00  0.4358E+02
     -3.893  0.9943E+00  0.4366E+02
     -3.807  0.1630E+01  0.4380E+02
     -3.720  0.2131E+00  0.4382E+02
     -3.633  0.2356E-03  0.4382E+02
     -3.547  0.1500E-05  0.4382E+02
     -3.460  0.1343E-01  0.4382E+02
     -3.373  0.5922E+00  0.4387E+02
     -3.286  0.4157E+00  0.4391E+02
     -3.200  0.2816E-01  0.4391E+02
     -3.113  0.6743E+00  0.4397E+02
     -3.026  0.3247E+00  0.4400E+02
     -2.939  0.1410E+00  0.4401E+02
     -2.853  0.1918E+01  0.4418E+02
     -2.766  0.3470E+01  0.4448E+02
     -2.679  0.4368E+01  0.4486E+02
     -2.593  0.6281E+01  0.4540E+02
     -2.506  0.4723E+01  0.4581E+02
     -2.419  0.3636E+01  0.4613E+02
     -2.332  0.3842E+01  0.4646E+02
     -2.246  0.4764E+01  0.4687E+02
     -2.159  0.4728E+01  0.4728E+02
     -2.072  0.3652E+01  0.4760E+02
     -1.986  0.3257E+01  0.4788E+02
     -1.899  0.2157E+01  0.4807E+02
     -1.812  0.1926E+01  0.4824E+02
     -1.725  0.2411E+01  0.4845E+02
     -1.639  0.3200E+01  0.4872E+02
     -1.552  0.2381E+01  0.4893E+02
     -1.465  0.3145E+01  0.4920E+02
     -1.378  0.2033E+01  0.4938E+02
     -1.292  0.2228E+01  0.4957E+02
     -1.205  0.2912E+01  0.4983E+02
     -1.118  0.2577E+01  0.5005E+02
     -1.032  0.1428E+01  0.5017E+02
     -0.945  0.5459E+01  0.5065E+02
     -0.858  0.4656E+01  0.5105E+02
     -0.771  0.4484E+01  0.5144E+02
     -0.685  0.4453E+01  0.5182E+02
     -0.598  0.4411E+01  0.5221E+02
     -0.511  0.4610E+01  0.5261E+02
     -0.425  0.6146E+01  0.5314E+02
     -0.338  0.7406E+01  0.5378E+02
     -0.251  0.5242E+01  0.5424E+02
     -0.164  0.2872E+01  0.5449E+02
     -0.078  0.4090E+01  0.5484E+02
      0.009  0.3795E+01  0.5517E+02
      0.096  0.3035E+01  0.5543E+02
      0.182  0.4469E+01  0.5582E+02
      0.269  0.3790E+01  0.5615E+02
      0.356  0.3017E+01  0.5641E+02
      0.443  0.4241E+01  0.5678E+02
      0.529  0.4152E+01  0.5714E+02
      0.616  0.5237E+01  0.5759E+02
      0.703  0.9871E+01  0.5845E+02
      0.790  0.5518E+01  0.5893E+02
      0.876  0.8753E+01  0.5969E+02
      0.963  0.1028E+02  0.6058E+02
      1.050  0.8697E+01  0.6133E+02
      1.136  0.7322E+01  0.6197E+02
      1.223  0.5831E+01  0.6247E+02
      1.310  0.6658E+01  0.6305E+02
      1.397  0.9560E+01  0.6388E+02
      1.483  0.8581E+01  0.6462E+02
      1.570  0.1002E+02  0.6549E+02
      1.657  0.1126E+02  0.6647E+02
      1.743  0.1294E+02  0.6759E+02
      1.830  0.1302E+02  0.6872E+02
      1.917  0.1302E+02  0.6985E+02
      2.004  0.1460E+02  0.7112E+02
      2.090  0.1488E+02  0.7241E+02
      2.177  0.1296E+02  0.7353E+02
      2.264  0.1591E+02  0.7491E+02
      2.351  0.1698E+02  0.7638E+02
      2.437  0.1896E+02  0.7803E+02
      2.524  0.1499E+02  0.7933E+02
      2.611  0.1686E+02  0.8079E+02
      2.697  0.1463E+02  0.8206E+02
      2.784  0.1442E+02  0.8331E+02
      2.871  0.1558E+02  0.8466E+02
      2.958  0.1825E+02  0.8624E+02
      3.044  0.1492E+02  0.8754E+02
      3.131  0.1437E+02  0.8878E+02
      3.218  0.1725E+02  0.9028E+02
      3.304  0.1844E+02  0.9188E+02
      3.391  0.1457E+02  0.9314E+02
      3.478  0.9340E+01  0.9395E+02
      3.565  0.7804E+01  0.9463E+02
      3.651  0.6585E+01  0.9520E+02
      3.738  0.4601E+01  0.9560E+02
      3.825  0.1545E+01  0.9573E+02
      3.912  0.1619E+01  0.9587E+02
      3.998  0.1014E+01  0.9596E+02
      4.085  0.4203E+00  0.9600E+02
      4.172  0.3037E-01  0.9600E+02
      4.258  0.1531E-04  0.9600E+02
      4.345  0.2569E-10  0.9600E+02
      4.432  0.0000E+00  0.9600E+02
      4.519  0.0000E+00  0.9600E+02
      4.605  0.0000E+00  0.9600E+02
      4.692  0.0000E+00  0.9600E+02
      4.779  0.0000E+00  0.9600E+02
      4.865  0.0000E+00  0.9600E+02
      4.952  0.0000E+00  0.9600E+02
      5.039  0.0000E+00  0.9600E+02
      5.126  0.0000E+00  0.9600E+02
      5.212  0.0000E+00  0.9600E+02
