   14   14    1    1
  0.8597751E+02  0.5700971E-09  0.6201871E-09  0.3404406E-08  0.5000000E-15
  1.000000000000000E-004
  CAR 
 Convergence                             
     42     25     48
 
  0.5000000E-01  0.0000000E+00  0.0000000E+00  0.2222222E-01
      1        -19.621435   1.000000
      2        -18.528302   1.000000
      3        -15.549177   1.000000
      4        -15.291046   1.000000
      5        -12.903237   1.000000
      6        -12.026612   1.000000
      7        -12.006194   1.000000
      8        -11.620464   1.000000
      9        -11.216982   1.000000
     10        -10.425152   1.000000
     11        -10.369447   1.000000
     12         -8.082423   1.000000
     13         -7.936538   1.000000
     14         -7.920932   1.000000
     15         -6.949924   1.000000
     16         -6.889381   1.000000
     17         -6.300326   1.000000
     18         -5.967944   1.000000
     19         -5.888319   1.000000
     20         -5.398941   1.000000
     21         -4.965967   0.083937
     22         -4.674637   0.000000
     23         -2.904572   0.000000
     24         -1.959240   0.000000
     25         -1.940421   0.000000
     26         -1.800436   0.000000
     27         -0.782290   0.000000
     28         -0.423021   0.000000
     29          0.098252   0.000000
     30          0.728438   0.000000
     31          0.785876   0.000000
     32          1.042780   0.000000
     33          1.052102   0.000000
     34          1.458528   0.000000
     35          1.606863   0.000000
     36          1.730029   0.000000
     37          1.937938   0.000000
     38          2.229181   0.000000
     39          2.286942   0.000000
     40          2.444291   0.000000
     41          2.456434   0.000000
     42          2.546305   0.000000
     43          3.280679   0.000000
     44          3.519584   0.000000
     45          3.630651   0.000000
     46          3.926275   0.000000
     47          3.937765   0.000000
     48          4.029758   0.000000
 
  0.1500000E+00  0.0000000E+00  0.0000000E+00  0.2222222E-01
      1        -19.579142   1.000000
      2        -18.597959   1.000000
      3        -15.528803   1.000000
      4        -15.281381   1.000000
      5        -12.834825   1.000000
      6        -12.376943   1.000000
      7        -11.948354   1.000000
      8        -11.734874   1.000000
      9        -10.750383   1.000000
     10        -10.535773   1.000000
     11        -10.038451   1.000000
     12         -8.378363   1.000000
     13         -7.890724   1.000000
     14         -7.866413   1.000000
     15         -7.091189   1.000000
     16         -6.843570   1.000000
     17         -6.413598   1.000000
     18         -6.056664   1.000000
     19         -5.991449   1.000000
     20         -5.375479   1.000000
     21         -4.975042   0.130847
     22         -4.816919   0.000000
     23         -2.852631   0.000000
     24         -2.005524   0.000000
     25         -1.845538   0.000000
     26         -1.454550   0.000000
     27         -0.825164   0.000000
     28         -0.308180   0.000000
     29          0.246042   0.000000
     30          0.676936   0.000000
     31          0.872426   0.000000
     32          1.135088   0.000000
     33          1.142733   0.000000
     34          1.494087   0.000000
     35          1.543313   0.000000
     36          1.693217   0.000000
     37          2.124418   0.000000
     38          2.303662   0.000000
     39          2.453987   0.000000
     40          2.519521   0.000000
     41          2.595257   0.000000
     42          2.708740   0.000000
     43          3.142713   0.000000
     44          3.313807   0.000000
     45          3.493847   0.000000
     46          3.631549   0.000000
     47          3.653422   0.000000
     48          3.889191   0.000000
 
  0.2500000E+00  0.0000000E+00  0.0000000E+00  0.2222222E-01
      1        -19.496426   1.000000
      2        -18.723940   1.000000
      3        -15.486076   1.000000
      4        -15.270365   1.000000
      5        -12.821139   1.000000
      6        -12.700958   1.000000
      7        -11.834818   1.000000
      8        -11.681737   1.000000
      9        -10.730018   1.000000
     10        -10.204192   1.000000
     11         -9.564429   1.000000
     12         -8.871817   1.000000
     13         -7.806578   1.000000
     14         -7.773691   1.000000
     15         -7.350897   1.000000
     16         -6.871790   1.000000
     17         -6.524043   1.000000
     18         -6.205108   1.000000
     19         -6.163759   1.000000
     20         -5.328880   1.000000
     21         -5.087818   0.980651
     22         -4.995528   0.293576
     23         -2.757175   0.000000
     24         -2.084991   0.000000
     25         -1.516344   0.000000
     26         -0.965935   0.000000
     27         -0.845542   0.000000
     28         -0.230707   0.000000
     29          0.490414   0.000000
     30          0.676680   0.000000
     31          1.039280   0.000000
     32          1.287401   0.000000
     33          1.309445   0.000000
     34          1.317023   0.000000
     35          1.696676   0.000000
     36          1.858242   0.000000
     37          2.342287   0.000000
     38          2.402026   0.000000
     39          2.501288   0.000000
     40          2.558786   0.000000
     41          2.632854   0.000000
     42          2.776024   0.000000
     43          2.933748   0.000000
     44          3.009317   0.000000
     45          3.042460   0.000000
     46          3.528503   0.000000
     47          3.566290   0.000000
     48          3.701838   0.000000
 
  0.3500000E+00  0.0000000E+00  0.0000000E+00  0.2222222E-01
      1        -19.377276   1.000000
      2        -18.885153   1.000000
      3        -15.424190   1.000000
      4        -15.272420   1.000000
      5        -12.926339   1.000000
      6        -12.916634   1.000000
      7        -11.670204   1.000000
      8        -11.347116   1.000000
      9        -10.970398   1.000000
     10         -9.799443   1.000000
     11         -9.319528   1.000000
     12         -9.069330   1.000000
     13         -7.703216   1.000000
     14         -7.679265   1.000000
     15         -7.672034   1.000000
     16         -7.193189   1.000000
     17         -6.387146   1.000000
     18         -6.365014   1.000000
     19         -6.347282   1.000000
     20         -5.431263   1.000000
     21         -5.262914   1.000000
     22         -5.043366   0.791054
     23         -2.630482   0.000000
     24         -2.199119   0.000000
     25         -0.985621   0.000000
     26         -0.793213   0.000000
     27         -0.380086   0.000000
     28         -0.313046   0.000000
     29          0.659126   0.000000
     30          0.783914   0.000000
     31          1.135282   0.000000
     32          1.286426   0.000000
     33          1.468168   0.000000
     34          1.587914   0.000000
     35          1.728760   0.000000
     36          1.875639   0.000000
     37          2.086051   0.000000
     38          2.284193   0.000000
     39          2.421370   0.000000
     40          2.518567   0.000000
     41          2.611156   0.000000
     42          2.677312   0.000000
     43          2.856522   0.000000
     44          2.956285   0.000000
     45          3.095580   0.000000
     46          3.180460   0.000000
     47          3.268619   0.000000
     48          3.496011   0.000000
 
  0.4500000E+00  0.0000000E+00  0.0000000E+00  0.2222222E-01
      1        -19.228316   1.000000
      2        -19.059537   1.000000
      3        -15.356036   1.000000
      4        -15.300704   1.000000
      5        -13.029860   1.000000
      6        -13.014427   1.000000
      7        -11.462266   1.000000
      8        -11.223025   1.000000
      9        -10.831311   1.000000
     10        -10.236355   1.000000
     11         -9.006532   1.000000
     12         -8.765055   1.000000
     13         -7.886811   1.000000
     14         -7.620400   1.000000
     15         -7.619400   1.000000
     16         -7.605916   1.000000
     17         -6.474312   1.000000
     18         -6.470761   1.000000
     19         -6.124554   1.000000
     20         -5.794375   1.000000
     21         -5.185972   0.999999
     22         -5.109100   0.996200
     23         -2.485809   0.000000
     24         -2.337189   0.000000
     25         -0.664776   0.000000
     26         -0.487684   0.000000
     27         -0.323410   0.000000
     28          0.271469   0.000000
     29          0.339468   0.000000
     30          0.914787   0.000000
     31          0.974617   0.000000
     32          1.023307   0.000000
     33          1.604149   0.000000
     34          1.668175   0.000000
     35          1.946971   0.000000
     36          1.962153   0.000000
     37          2.055273   0.000000
     38          2.186711   0.000000
     39          2.340206   0.000000
     40          2.385029   0.000000
     41          2.591045   0.000000
     42          2.640168   0.000000
     43          2.688472   0.000000
     44          2.747787   0.000000
     45          3.026186   0.000000
     46          3.125423   0.000000
     47          3.175807   0.000000
     48          3.404947   0.000000
 
  0.5000000E-01  0.1111111E+00  0.0000000E+00  0.4444444E-01
      1        -19.611028   1.000000
      2        -18.547112   1.000000
      3        -15.547491   1.000000
      4        -15.258891   1.000000
      5        -13.039952   1.000000
      6        -12.164871   1.000000
      7        -11.984373   1.000000
      8        -11.438008   1.000000
      9        -11.073378   1.000000
     10        -10.482905   1.000000
     11        -10.252202   1.000000
     12         -8.136147   1.000000
     13         -7.941143   1.000000
     14         -7.811901   1.000000
     15         -7.111633   1.000000
     16         -6.927990   1.000000
     17         -6.526923   1.000000
     18         -6.089784   1.000000
     19         -5.901366   1.000000
     20         -5.407196   1.000000
     21         -4.954489   0.044217
     22         -4.385122   0.000000
     23         -2.881066   0.000000
     24         -1.974149   0.000000
     25         -1.885395   0.000000
     26         -1.696756   0.000000
     27         -0.966520   0.000000
     28         -0.425567   0.000000
     29          0.201668   0.000000
     30          0.777146   0.000000
     31          0.970492   0.000000
     32          1.089220   0.000000
     33          1.103372   0.000000
     34          1.506646   0.000000
     35          1.627336   0.000000
     36          1.763669   0.000000
     37          1.942806   0.000000
     38          2.179208   0.000000
     39          2.272593   0.000000
     40          2.504512   0.000000
     41          2.569996   0.000000
     42          2.641783   0.000000
     43          3.285853   0.000000
     44          3.374414   0.000000
     45          3.454481   0.000000
     46          3.680018   0.000000
     47          3.713982   0.000000
     48          3.861797   0.000000
 
  0.1500000E+00  0.1111111E+00  0.0000000E+00  0.4444444E-01
      1        -19.569185   1.000000
      2        -18.613012   1.000000
      3        -15.551580   1.000000
      4        -15.240915   1.000000
      5        -13.010973   1.000000
      6        -12.271041   1.000000
      7        -11.927242   1.000000
      8        -11.684486   1.000000
      9        -10.690067   1.000000
     10        -10.579337   1.000000
     11         -9.912136   1.000000
     12         -8.428458   1.000000
     13         -8.008080   1.000000
     14         -7.669144   1.000000
     15         -7.172421   1.000000
     16         -6.950202   1.000000
     17         -6.601726   1.000000
     18         -6.282650   1.000000
     19         -5.852489   1.000000
     20         -5.380077   1.000000
     21         -4.968771   0.096839
     22         -4.588900   0.000000
     23         -2.838125   0.000000
     24         -2.019142   0.000000
     25         -1.784928   0.000000
     26         -1.411849   0.000000
     27         -0.976113   0.000000
     28         -0.236701   0.000000
     29          0.367862   0.000000
     30          0.753793   0.000000
     31          0.956413   0.000000
     32          1.181122   0.000000
     33          1.195559   0.000000
     34          1.467553   0.000000
     35          1.591336   0.000000
     36          1.742774   0.000000
     37          2.012405   0.000000
     38          2.343348   0.000000
     39          2.355293   0.000000
     40          2.681235   0.000000
     41          2.704579   0.000000
     42          2.862306   0.000000
     43          2.899613   0.000000
     44          3.247349   0.000000
     45          3.334000   0.000000
     46          3.546204   0.000000
     47          3.706569   0.000000
     48          3.791392   0.000000
 
  0.2500000E+00  0.1111111E+00  0.0000000E+00  0.4444444E-01
      1        -19.487436   1.000000
      2        -18.733219   1.000000
      3        -15.535532   1.000000
      4        -15.234480   1.000000
      5        -13.025694   1.000000
      6        -12.412347   1.000000
      7        -11.815297   1.000000
      8        -11.717741   1.000000
      9        -10.754259   1.000000
     10        -10.207369   1.000000
     11         -9.467875   1.000000
     12         -8.892068   1.000000
     13         -8.003141   1.000000
     14         -7.557139   1.000000
     15         -7.425518   1.000000
     16         -6.839748   1.000000
     17         -6.769049   1.000000
     18         -6.455314   1.000000
     19         -5.911438   1.000000
     20         -5.332359   1.000000
     21         -4.999732   0.335762
     22         -4.947373   0.028389
     23         -2.751860   0.000000
     24         -2.099625   0.000000
     25         -1.467974   0.000000
     26         -0.996586   0.000000
     27         -0.919586   0.000000
     28         -0.069986   0.000000
     29          0.642599   0.000000
     30          0.670201   0.000000
     31          1.058698   0.000000
     32          1.268771   0.000000
     33          1.362877   0.000000
     34          1.378635   0.000000
     35          1.739065   0.000000
     36          1.910672   0.000000
     37          2.170960   0.000000
     38          2.243921   0.000000
     39          2.395816   0.000000
     40          2.472225   0.000000
     41          2.778034   0.000000
     42          2.900942   0.000000
     43          2.967277   0.000000
     44          3.088866   0.000000
     45          3.102593   0.000000
     46          3.557211   0.000000
     47          3.584485   0.000000
     48          3.656765   0.000000
 
  0.3500000E+00  0.1111111E+00  0.0000000E+00  0.4444444E-01
      1        -19.369898   1.000000
      2        -18.888603   1.000000
      3        -15.486285   1.000000
      4        -15.262560   1.000000
      5        -13.047891   1.000000
      6        -12.640990   1.000000
      7        -11.653514   1.000000
      8        -11.398617   1.000000
      9        -10.977913   1.000000
     10         -9.840943   1.000000
     11         -9.429223   1.000000
     12         -8.916511   1.000000
     13         -7.926777   1.000000
     14         -7.731601   1.000000
     15         -7.545109   1.000000
     16         -7.117678   1.000000
     17         -6.571158   1.000000
     18         -6.512670   1.000000
     19         -6.059524   1.000000
     20         -5.413399   1.000000
     21         -5.244893   1.000000
     22         -5.044841   0.802843
     23         -2.630582   0.000000
     24         -2.210460   0.000000
     25         -0.956571   0.000000
     26         -0.782130   0.000000
     27         -0.500899   0.000000
     28         -0.129402   0.000000
     29          0.715225   0.000000
     30          0.844091   0.000000
     31          1.035907   0.000000
     32          1.387027   0.000000
     33          1.479984   0.000000
     34          1.585845   0.000000
     35          1.641287   0.000000
     36          1.914553   0.000000
     37          2.121413   0.000000
     38          2.311113   0.000000
     39          2.398020   0.000000
     40          2.443340   0.000000
     41          2.538731   0.000000
     42          2.779824   0.000000
     43          2.879982   0.000000
     44          2.974349   0.000000
     45          3.095426   0.000000
     46          3.213498   0.000000
     47          3.344479   0.000000
     48          3.601210   0.000000
 
  0.4500000E+00  0.1111111E+00  0.0000000E+00  0.4444444E-01
      1        -19.223398   1.000000
      2        -19.058176   1.000000
      3        -15.410109   1.000000
      4        -15.327046   1.000000
      5        -12.998286   1.000000
      6        -12.856085   1.000000
      7        -11.450303   1.000000
      8        -11.218703   1.000000
      9        -10.886456   1.000000
     10        -10.295394   1.000000
     11         -9.085060   1.000000
     12         -8.767434   1.000000
     13         -7.825002   1.000000
     14         -7.796710   1.000000
     15         -7.648190   1.000000
     16         -7.509653   1.000000
     17         -6.422963   1.000000
     18         -6.249322   1.000000
     19         -6.248682   1.000000
     20         -5.851048   1.000000
     21         -5.180544   0.999999
     22         -5.107880   0.995791
     23         -2.489468   0.000000
     24         -2.344480   0.000000
     25         -0.579878   0.000000
     26         -0.343392   0.000000
     27         -0.332980   0.000000
     28         -0.038911   0.000000
     29          0.612022   0.000000
     30          0.831475   0.000000
     31          0.883399   0.000000
     32          0.936995   0.000000
     33          1.684427   0.000000
     34          1.710555   0.000000
     35          1.989420   0.000000
     36          2.021560   0.000000
     37          2.100683   0.000000
     38          2.236234   0.000000
     39          2.401580   0.000000
     40          2.433558   0.000000
     41          2.590070   0.000000
     42          2.688466   0.000000
     43          2.708234   0.000000
     44          2.755586   0.000000
     45          2.999002   0.000000
     46          3.150839   0.000000
     47          3.265455   0.000000
     48          3.267756   0.000000
 
  0.5000000E-01  0.2222222E+00  0.0000000E+00  0.4444444E-01
      1        -19.583149   1.000000
      2        -18.595962   1.000000
      3        -15.539804   1.000000
      4        -15.174559   1.000000
      5        -13.319906   1.000000
      6        -12.390498   1.000000
      7        -11.923178   1.000000
      8        -11.084419   1.000000
      9        -10.755505   1.000000
     10        -10.628166   1.000000
     11         -9.928157   1.000000
     12         -8.277711   1.000000
     13         -7.873460   1.000000
     14         -7.653257   1.000000
     15         -7.597740   1.000000
     16         -7.015617   1.000000
     17         -6.845623   1.000000
     18         -6.324727   1.000000
     19         -6.022860   1.000000
     20         -5.392118   1.000000
     21         -4.961454   0.065942
     22         -3.846168   0.000000
     23         -2.812809   0.000000
     24         -2.049623   0.000000
     25         -1.799961   0.000000
     26         -1.306272   0.000000
     27         -1.287444   0.000000
     28         -0.459184   0.000000
     29          0.481714   0.000000
     30          0.868734   0.000000
     31          1.220360   0.000000
     32          1.258485   0.000000
     33          1.346462   0.000000
     34          1.592960   0.000000
     35          1.650563   0.000000
     36          1.848154   0.000000
     37          1.982816   0.000000
     38          2.227186   0.000000
     39          2.398411   0.000000
     40          2.607228   0.000000
     41          2.651962   0.000000
     42          2.697672   0.000000
     43          2.838785   0.000000
     44          2.883154   0.000000
     45          3.312566   0.000000
     46          3.405858   0.000000
     47          3.436861   0.000000
     48          3.477077   0.000000
 
  0.1500000E+00  0.2222222E+00  0.0000000E+00  0.4444444E-01
      1        -19.542547   1.000000
      2        -18.652561   1.000000
      3        -15.584287   1.000000
      4        -15.164700   1.000000
      5        -13.257301   1.000000
      6        -12.313873   1.000000
      7        -11.868138   1.000000
      8        -11.404237   1.000000
      9        -10.693621   1.000000
     10        -10.498672   1.000000
     11         -9.624329   1.000000
     12         -8.552534   1.000000
     13         -8.039279   1.000000
     14         -7.576118   1.000000
     15         -7.438767   1.000000
     16         -7.200060   1.000000
     17         -6.778207   1.000000
     18         -6.533460   1.000000
     19         -5.825246   1.000000
     20         -5.365067   1.000000
     21         -4.978295   0.151415
     22         -4.207505   0.000000
     23         -2.787385   0.000000
     24         -2.080179   0.000000
     25         -1.657369   0.000000
     26         -1.203578   0.000000
     27         -1.146736   0.000000
     28         -0.208128   0.000000
     29          0.682852   0.000000
     30          0.847750   0.000000
     31          1.217847   0.000000
     32          1.301492   0.000000
     33          1.356091   0.000000
     34          1.420895   0.000000
     35          1.730769   0.000000
     36          1.876302   0.000000
     37          1.954127   0.000000
     38          2.205873   0.000000
     39          2.298249   0.000000
     40          2.489689   0.000000
     41          2.745504   0.000000
     42          2.851957   0.000000
     43          2.956267   0.000000
     44          3.199057   0.000000
     45          3.252761   0.000000
     46          3.411051   0.000000
     47          3.535017   0.000000
     48          3.565849   0.000000
 
  0.2500000E+00  0.2222222E+00  0.0000000E+00  0.4444444E-01
      1        -19.463449   1.000000
      2        -18.758119   1.000000
      3        -15.612545   1.000000
      4        -15.199674   1.000000
      5        -13.149894   1.000000
      6        -12.156907   1.000000
      7        -11.760858   1.000000
      8        -11.699424   1.000000
      9        -10.822064   1.000000
     10        -10.135265   1.000000
     11         -9.412116   1.000000
     12         -8.827786   1.000000
     13         -8.134659   1.000000
     14         -7.577716   1.000000
     15         -7.452895   1.000000
     16         -7.292225   1.000000
     17         -6.787383   1.000000
     18         -6.554238   1.000000
     19         -5.736277   1.000000
     20         -5.318305   1.000000
     21         -5.013295   0.483869
     22         -4.765879   0.000000
     23         -2.727386   0.000000
     24         -2.147897   0.000000
     25         -1.346057   0.000000
     26         -0.988238   0.000000
     27         -0.916157   0.000000
     28          0.097353   0.000000
     29          0.686382   0.000000
     30          0.989949   0.000000
     31          1.088904   0.000000
     32          1.337292   0.000000
     33          1.477255   0.000000
     34          1.527285   0.000000
     35          1.701516   0.000000
     36          1.908584   0.000000
     37          1.945979   0.000000
     38          2.069485   0.000000
     39          2.403139   0.000000
     40          2.543830   0.000000
     41          2.788502   0.000000
     42          2.873065   0.000000
     43          2.958306   0.000000
     44          3.142897   0.000000
     45          3.346396   0.000000
     46          3.439456   0.000000
     47          3.622531   0.000000
     48          3.643273   0.000000
 
  0.3500000E+00  0.2222222E+00  0.0000000E+00  0.4444444E-01
      1        -19.350334   1.000000
      2        -18.898273   1.000000
      3        -15.591189   1.000000
      4        -15.290158   1.000000
      5        -12.999950   1.000000
      6        -12.264236   1.000000
      7        -11.607423   1.000000
      8        -11.546481   1.000000
      9        -11.001423   1.000000
     10         -9.957749   1.000000
     11         -9.549166   1.000000
     12         -8.712903   1.000000
     13         -8.130704   1.000000
     14         -7.740255   1.000000
     15         -7.639647   1.000000
     16         -7.161137   1.000000
     17         -6.815385   1.000000
     18         -6.381078   1.000000
     19         -5.781616   1.000000
     20         -5.435164   1.000000
     21         -5.221335   1.000000
     22         -5.046815   0.817969
     23         -2.628163   0.000000
     24         -2.246848   0.000000
     25         -0.876277   0.000000
     26         -0.675211   0.000000
     27         -0.642703   0.000000
     28          0.187456   0.000000
     29          0.567667   0.000000
     30          0.924503   0.000000
     31          0.999687   0.000000
     32          1.345685   0.000000
     33          1.552171   0.000000
     34          1.640699   0.000000
     35          1.793351   0.000000
     36          2.006676   0.000000
     37          2.033645   0.000000
     38          2.293531   0.000000
     39          2.418167   0.000000
     40          2.513882   0.000000
     41          2.555169   0.000000
     42          2.917239   0.000000
     43          2.964971   0.000000
     44          3.107864   0.000000
     45          3.169943   0.000000
     46          3.240623   0.000000
     47          3.351425   0.000000
     48          3.491757   0.000000
 
  0.4500000E+00  0.2222222E+00  0.0000000E+00  0.4444444E-01
      1        -19.210565   1.000000
      2        -19.054988   1.000000
      3        -15.517762   1.000000
      4        -15.408058   1.000000
      5        -12.798082   1.000000
      6        -12.544617   1.000000
      7        -11.418133   1.000000
      8        -11.208796   1.000000
      9        -11.056553   1.000000
     10        -10.478789   1.000000
     11         -9.175342   1.000000
     12         -8.815264   1.000000
     13         -8.031241   1.000000
     14         -7.856296   1.000000
     15         -7.623009   1.000000
     16         -7.329594   1.000000
     17         -6.514693   1.000000
     18         -6.150429   1.000000
     19         -6.012768   1.000000
     20         -5.934824   1.000000
     21         -5.168991   0.999994
     22         -5.104785   0.994572
     23         -2.501936   0.000000
     24         -2.368936   0.000000
     25         -0.374003   0.000000
     26         -0.345561   0.000000
     27         -0.341669   0.000000
     28         -0.044902   0.000000
     29          0.650002   0.000000
     30          0.656860   0.000000
     31          0.781962   0.000000
     32          0.881630   0.000000
     33          1.829158   0.000000
     34          1.854705   0.000000
     35          2.078167   0.000000
     36          2.155016   0.000000
     37          2.186442   0.000000
     38          2.357458   0.000000
     39          2.377405   0.000000
     40          2.507486   0.000000
     41          2.632259   0.000000
     42          2.667342   0.000000
     43          2.809298   0.000000
     44          2.943151   0.000000
     45          3.059024   0.000000
     46          3.198574   0.000000
     47          3.249783   0.000000
     48          3.335858   0.000000
 
  0.5000000E-01  0.3333333E+00  0.0000000E+00  0.4444444E-01
      1        -19.548232   1.000000
      2        -18.654224   1.000000
      3        -15.526990   1.000000
      4        -15.067285   1.000000
      5        -13.591051   1.000000
      6        -12.574976   1.000000
      7        -11.838711   1.000000
      8        -10.798614   1.000000
      9        -10.737337   1.000000
     10        -10.344688   1.000000
     11         -9.482178   1.000000
     12         -8.450821   1.000000
     13         -8.289224   1.000000
     14         -7.758658   1.000000
     15         -7.516449   1.000000
     16         -7.333801   1.000000
     17         -6.832980   1.000000
     18         -6.566365   1.000000
     19         -6.240734   1.000000
     20         -5.354921   1.000000
     21         -4.989600   0.238653
     22         -3.381186   0.000000
     23         -2.712715   0.000000
     24         -2.157087   0.000000
     25         -1.710919   0.000000
     26         -1.529282   0.000000
     27         -0.701470   0.000000
     28         -0.514559   0.000000
     29          0.866141   0.000000
     30          0.966058   0.000000
     31          1.422097   0.000000
     32          1.513685   0.000000
     33          1.543454   0.000000
     34          1.645418   0.000000
     35          1.767685   0.000000
     36          1.898644   0.000000
     37          2.039563   0.000000
     38          2.061081   0.000000
     39          2.291178   0.000000
     40          2.344296   0.000000
     41          2.565838   0.000000
     42          2.603864   0.000000
     43          2.745097   0.000000
     44          2.871461   0.000000
     45          2.929778   0.000000
     46          3.016309   0.000000
     47          3.213129   0.000000
     48          3.280256   0.000000
 
  0.1500000E+00  0.3333333E+00  0.0000000E+00  0.4444444E-01
      1        -19.509248   1.000000
      2        -18.700558   1.000000
      3        -15.599487   1.000000
      4        -15.103527   1.000000
      5        -13.429122   1.000000
      6        -12.465581   1.000000
      7        -11.786773   1.000000
      8        -11.012633   1.000000