       N       E                     dE             d eps       ncg     rms          rms(c)
DAV:   1     0.301299184253E+03    0.30130E+03   -0.12774E+04  2400   0.634E+02
DAV:   2    -0.588209071802E+02   -0.36012E+03   -0.34414E+03  4728   0.131E+02
DAV:   3    -0.935568881779E+02   -0.34736E+02   -0.34320E+02  3480   0.509E+01
DAV:   4    -0.941923297992E+02   -0.63544E+00   -0.63408E+00  3480   0.818E+00
DAV:   5    -0.942068632091E+02   -0.14533E-01   -0.14527E-01  3432   0.118E+00    0.132E+01
DAV:   6    -0.857382109575E+02    0.84687E+01   -0.13413E+01  3216   0.839E+00    0.644E+00
DAV:   7    -0.843386358436E+02    0.13996E+01   -0.57571E+00  3576   0.521E+00    0.278E+00
DAV:   8    -0.842580894990E+02    0.80546E-01   -0.17677E+00  3288   0.291E+00    0.174E+00
DAV:   9    -0.841089339582E+02    0.14916E+00   -0.94092E-01  3408   0.142E+00    0.480E-01
DAV:  10    -0.841048204573E+02    0.41135E-02   -0.56882E-02  3504   0.640E-01    0.411E-01
DAV:  11    -0.840965718579E+02    0.82486E-02   -0.34638E-02  3408   0.451E-01    0.145E-01
DAV:  12    -0.840951868244E+02    0.13850E-02   -0.65023E-03  3552   0.183E-01    0.923E-02
DAV:  13    -0.840968575683E+02   -0.16707E-02   -0.54506E-03  3528   0.152E-01    0.672E-02
DAV:  14    -0.840994122313E+02   -0.25547E-02   -0.12703E-03  3216   0.887E-02    0.283E-02
DAV:  15    -0.841012620262E+02   -0.18498E-02   -0.35079E-04  3096   0.466E-02    0.232E-02
DAV:  16    -0.841026540488E+02   -0.13920E-02   -0.16771E-04  2904   0.328E-02    0.762E-03
DAV:  17    -0.841035190572E+02   -0.86501E-03   -0.65758E-05  3024   0.162E-02    0.705E-03
DAV:  18    -0.841037977561E+02   -0.27870E-03   -0.11647E-05  3120   0.850E-03    0.287E-03
DAV:  19    -0.841040612680E+02   -0.26351E-03   -0.11268E-05  3168   0.489E-03    0.144E-03
DAV:  20    -0.841041599412E+02   -0.98673E-04   -0.38495E-06  3408   0.243E-03    0.654E-04
DAV:  21    -0.841041821046E+02   -0.22163E-04   -0.38310E-07  3480   0.102E-03    0.315E-04
DAV:  22    -0.841041911475E+02   -0.90430E-05   -0.12902E-07  3384   0.463E-04    0.150E-04
DAV:  23    -0.841041939035E+02   -0.27560E-05   -0.30198E-08  3288   0.238E-04    0.626E-05
DAV:  24    -0.841041949730E+02   -0.10694E-05   -0.99755E-09  2976   0.132E-04    0.293E-05
DAV:  25    -0.841041950868E+02   -0.11388E-06   -0.34297E-10  2832   0.491E-05
   1 F= -.84104195E+02 E0= -.84096182E+02  d E =-.160264E-01
