<?xml version="1.0" encoding="ISO-8859-1"?>
<modeling>
 <generator>
  <i name="program" type="string">vasp </i>
  <i name="version" type="string">6.4.3  </i>
  <i name="subversion" type="string">19Mar24 (build May 31 2024 16:31:43) complex                          parallel </i>
  <i name="platform" type="string">LinuxIFC </i>
  <i name="date" type="string">2025 02 13 </i>
  <i name="time" type="string">15:48:43 </i>
 </generator>
 <incar>
  <i type="string" name="SYSTEM">Convergence</i>
  <i type="int" name="ISTART">     0</i>
  <i type="string" name="PREC">Accurate</i>
  <i type="string" name="ALGO">Normal</i>
  <i type="int" name="ISPIN">     1</i>
  <i type="int" name="ICHARG">     2</i>
  <i type="int" name="NELM">   200</i>
  <i type="int" name="IBRION">    -1</i>
  <i name="EDIFF">      0.00000100</i>
  <i name="EDIFFG">     -0.00100000</i>
  <i type="int" name="NSW">     0</i>
  <i type="int" name="ISIF">     2</i>
  <i name="ENCUT">    600.00000000</i>
  <i name="POTIM">      0.50000000</i>
  <i type="int" name="ISMEAR">     0</i>
  <i name="SIGMA">      0.05000000</i>
  <i type="logical" name="LWAVE"> F  </i>
  <i type="logical" name="LCHARG"> F  </i>
  <i type="string" name="GGA">PE</i>
  <i type="logical" name="LDIPOL"> T  </i>
  <i type="int" name="IDIPOL">     3</i>
  <v name="DIPOL">      0.50000000      0.50000000      0.05939000</v>
 </incar>
 <primitive_cell>
  <structure name="primitive_cell" >
   <crystal>
    <varray name="basis" >
     <v>       5.70097065       0.00000000       0.00000000 </v>
     <v>       0.00000000       6.20187140       0.00000000 </v>
     <v>       0.00000000       0.00000000      34.04405832 </v>
    </varray>
    <i name="volume">   1203.68510741 </i>
    <varray name="rec_basis" >
     <v>       0.17540873       0.00000000       0.00000000 </v>
     <v>       0.00000000       0.16124165       0.00000000 </v>
     <v>       0.00000000       0.00000000       0.02937370 </v>
    </varray>
   </crystal>
   <varray name="positions" >
    <v>       0.52128989       0.63795769       0.05939448 </v>
    <v>       0.47871011       0.36204231       0.05939448 </v>
    <v>       0.97871011       0.63795769       0.05939448 </v>
    <v>       0.02128989       0.36204231       0.05939448 </v>
    <v>       0.59744966       0.89986831       0.05939448 </v>
    <v>       0.40255034       0.10013168       0.05939448 </v>
    <v>       0.90255034       0.89986831       0.05939448 </v>
    <v>       0.09744966       0.10013168       0.05939448 </v>
    <v>       0.75000000       0.72957939       0.09402918 </v>
    <v>       0.25000000       0.27042061       0.02475979 </v>
    <v>       0.75000000       0.72957939       0.02475979 </v>
    <v>       0.25000000       0.27042061       0.09402918 </v>
    <v>       0.25000000       0.52399302       0.05939448 </v>
    <v>       0.75000000       0.47600695       0.05939448 </v>
   </varray>
  </structure>
  <varray name="primitive_index" >
   <v type="int" >        1 </v>
   <v type="int" >        2 </v>
   <v type="int" >        3 </v>
   <v type="int" >        4 </v>
   <v type="int" >        5 </v>
   <v type="int" >        6 </v>
   <v type="int" >        7 </v>
   <v type="int" >        8 </v>
   <v type="int" >        9 </v>
   <v type="int" >       10 </v>
   <v type="int" >       11 </v>
   <v type="int" >       12 </v>
   <v type="int" >       13 </v>
   <v type="int" >       14 </v>
  </varray>
 </primitive_cell>
 <kpoints>
  <generation param="Monkhorst-Pack">
   <v type="int" name="divisions">      10        9        1 </v>
   <v name="usershift">      0.00000000       0.00000000       0.00000000 </v>
   <v name="genvec1">      0.10000000       0.00000000       0.00000000 </v>
   <v name="genvec2">      0.00000000       0.11111111       0.00000000 </v>
   <v name="genvec3">      0.00000000       0.00000000       1.00000000 </v>
   <v name="shift">      0.50000000       0.00000000       0.00000000 </v>
  </generation>
  <varray name="kpointlist" >
   <v>       0.05000000       0.00000000       0.00000000 </v>
   <v>       0.15000000       0.00000000       0.00000000 </v>
   <v>       0.25000000       0.00000000       0.00000000 </v>
   <v>       0.35000000       0.00000000       0.00000000 </v>
   <v>       0.45000000       0.00000000       0.00000000 </v>
   <v>       0.05000000       0.11111111       0.00000000 </v>
   <v>       0.15000000       0.11111111       0.00000000 </v>
   <v>       0.25000000       0.11111111       0.00000000 </v>
   <v>       0.35000000       0.11111111       0.00000000 </v>
   <v>       0.45000000       0.11111111       0.00000000 </v>
   <v>       0.05000000       0.22222222       0.00000000 </v>
   <v>       0.15000000       0.22222222       0.00000000 </v>
   <v>       0.25000000       0.22222222       0.00000000 </v>
   <v>       0.35000000       0.22222222       0.00000000 </v>
   <v>       0.45000000       0.22222222       0.00000000 </v>
   <v>       0.05000000       0.33333333       0.00000000 </v>
   <v>       0.15000000       0.33333333       0.00000000 </v>
   <v>       0.25000000       0.33333333       0.00000000 </v>
   <v>       0.35000000       0.33333333       0.00000000 </v>
   <v>       0.45000000       0.33333333       0.00000000 </v>
   <v>       0.05000000       0.44444444       0.00000000 </v>
   <v>       0.15000000       0.44444444       0.00000000 </v>
   <v>       0.25000000       0.44444444       0.00000000 </v>
   <v>       0.35000000       0.44444444       0.00000000 </v>
   <v>       0.45000000       0.44444444       0.00000000 </v>
  </varray>
  <varray name="weights" >
   <v>       0.02222222 </v>
   <v>       0.02222222 </v>
   <v>       0.02222222 </v>
   <v>       0.02222222 </v>
   <v>       0.02222222 </v>
   <v>       0.04444444 </v>
   <v>       0.04444444 </v>
   <v>       0.04444444 </v>
   <v>       0.04444444 </v>
   <v>       0.04444444 </v>
   <v>       0.04444444 </v>
   <v>       0.04444444 </v>
   <v>       0.04444444 </v>
   <v>       0.04444444 </v>
   <v>       0.04444444 </v>
   <v>       0.04444444 </v>
   <v>       0.04444444 </v>
   <v>       0.04444444 </v>
   <v>       0.04444444 </v>
   <v>       0.04444444 </v>
   <v>       0.04444444 </v>
   <v>       0.04444444 </v>
   <v>       0.04444444 </v>
   <v>       0.04444444 </v>
   <v>       0.04444444 </v>
  </varray>
 </kpoints>
 <parameters>
  <separator name="general" >
   <i type="string" name="SYSTEM">Convergence</i>
   <i type="logical" name="LCOMPAT"> F  </i>
  </separator>
  <separator name="electronic" >
   <i type="string" name="PREC">accura</i>
   <i name="ENMAX">    600.00000000</i>
   <i name="ENAUG">    535.51400000</i>
   <i name="EDIFF">      0.00000100</i>
   <i type="int" name="IALGO">    38</i>
   <i type="int" name="IWAVPR">    10</i>
   <i type="int" name="NBANDS">    48</i>
   <i type="int" name="NBANDSLOW">    -1</i>
   <i type="int" name="NBANDSHIGH">    -1</i>
   <i name="NELECT">     42.00000000</i>
   <i type="int" name="TURBO">     0</i>
   <i type="int" name="IRESTART">     0</i>
   <i type="int" name="NREBOOT">     0</i>
   <i type="int" name="NMIN">     0</i>
   <i name="EREF">      0.00000000</i>
   <separator name="electronic smearing" >
    <i type="int" name="ISMEAR">     0</i>
    <i name="SIGMA">      0.05000000</i>
    <i name="KSPACING">      0.50000000</i>
    <i type="logical" name="KGAMMA"> T  </i>
    <i type="logical" name="KBLOWUP"> T  </i>
   </separator>
   <separator name="electronic projectors" >
    <i type="logical" name="LREAL"> F  </i>
    <v name="ROPT">      0.00000000</v>
    <i type="int" name="LMAXPAW">  -100</i>
    <i type="int" name="LMAXMIX">     2</i>
    <i type="logical" name="NLSPLINE"> F  </i>
   </separator>
   <separator name="electronic startup" >
    <i type="int" name="ISTART">     0</i>
    <i type="int" name="ICHARG">     2</i>
    <i type="int" name="INIWAV">     1</i>
   </separator>
   <separator name="electronic spin" >
    <i type="int" name="ISPIN">     1</i>
    <i type="logical" name="LNONCOLLINEAR"> F  </i>
    <v name="MAGMOM">      1.00000000      1.00000000      1.00000000      1.00000000      1.00000000      1.00000000      1.00000000      1.00000000      1.00000000      1.00000000      1.00000000      1.00000000      1.00000000      1.00000000</v>
    <i name="NUPDOWN">     -1.00000000</i>
    <i type="logical" name="LSORBIT"> F  </i>
    <v name="SAXIS">      0.00000000      0.00000000      1.00000000</v>
    <i type="logical" name="LSPIRAL"> F  </i>
    <v name="QSPIRAL">      0.00000000      0.00000000      0.00000000</v>
    <i type="logical" name="LZEROZ"> F  </i>
   </separator>
   <separator name="electronic exchange-correlation" >
    <i type="logical" name="LASPH"> F  </i>
   </separator>
   <separator name="electronic convergence" >
    <i type="int" name="NELM">   200</i>
    <i type="int" name="NELMDL">    -5</i>
    <i type="int" name="NELMIN">     2</i>
    <i name="ENINI">    600.00000000</i>
    <separator name="electronic convergence detail" >
     <i type="logical" name="LDIAG"> T  </i>
     <i type="logical" name="LSUBROT"> F  </i>
     <i name="WEIMIN">      0.00000000</i>
     <i name="EBREAK">      0.00000001</i>
     <i name="DEPER">      0.30000000</i>
     <i type="int" name="NRMM">     4</i>
     <i name="TIME">      0.40000000</i>
    </separator>
   </separator>
   <separator name="electronic mixer" >
    <i name="AMIX">      0.40000000</i>
    <i name="BMIX">      1.00000000</i>
    <i name="AMIN">      0.10000000</i>
    <i name="AMIX_MAG">      1.60000000</i>
    <i name="BMIX_MAG">      1.00000000</i>
    <separator name="electronic mixer details" >
     <i type="int" name="IMIX">     4</i>
     <i type="logical" name="MIXFIRST"> F  </i>
     <i type="int" name="MAXMIX">   -45</i>
     <i name="WC">    100.00000000</i>
     <i type="int" name="INIMIX">     1</i>
     <i type="int" name="MIXPRE">     1</i>
     <i type="int" name="MREMOVE">     5</i>
    </separator>
   </separator>
   <separator name="electronic dipolcorrection" >
    <i type="logical" name="LDIPOL"> T  </i>
    <i type="logical" name="LMONO"> F  </i>
    <i type="int" name="IDIPOL">     3</i>
    <i name="EPSILON">      1.00000000</i>
    <v name="DIPOL">      0.50000000      0.50000000      0.05939000</v>
    <i name="EFIELD">      0.00000000</i>
    <i type="logical" name="LVACPOTAV"> F  </i>
   </separator>
  </separator>
  <separator name="grids" >
   <i type="int" name="NGX">    48</i>
   <i type="int" name="NGY">    50</i>
   <i type="int" name="NGZ">   280</i>
   <i type="int" name="NGXF">    96</i>
   <i type="int" name="NGYF">   100</i>
   <i type="int" name="NGZF">   560</i>
   <i type="logical" name="ADDGRID"> F  </i>
  </separator>
  <separator name="ionic" >
   <i type="int" name="NSW">     0</i>
   <i type="int" name="IBRION">    -1</i>
   <i type="int" name="MDALGO">     0</i>
   <i type="int" name="ISIF">     2</i>
   <i name="PSTRESS">      0.00000000</i>
   <i name="EDIFFG">     -0.00100000</i>
   <i type="int" name="NFREE">     0</i>
   <i name="POTIM">      0.50000000</i>
   <i name="SMASS">     -3.00000000</i>
   <i name="SCALEE">      1.00000000</i>
  </separator>
  <separator name="ionic md" >
   <i name="TEBEG">      0.00010000</i>
   <i name="TEEND">      0.00010000</i>
   <i type="int" name="NBLOCK">     1</i>
   <i type="int" name="KBLOCK">     1</i>
   <i type="int" name="NPACO">   256</i>
   <i name="APACO">     10.00000000</i>
  </separator>
  <separator name="symmetry" >
   <i type="int" name="ISYM">     2</i>
   <i name="SYMPREC">      0.00001000</i>
  </separator>
  <separator name="dos" >
   <i type="int" name="LORBIT">     0</i>
   <v name="RWIGS">     -1.00000000</v>
   <i type="int" name="NEDOS">   301</i>
   <i name="EMIN">     10.00000000</i>
   <i name="EMAX">    -10.00000000</i>
   <i name="EFERMI">      0.00000000</i>
  </separator>
  <separator name="writing" >
   <i type="int" name="NWRITE">     2</i>
   <i type="logical" name="LWAVE"> F  </i>
   <i type="logical" name="LDOWNSAMPLE"> F  </i>
   <i type="logical" name="LCHARG"> F  </i>
   <i type="logical" name="LPARD"> F  </i>
   <i type="logical" name="LVTOT"> F  </i>
   <i type="logical" name="LVHAR"> F  </i>
   <i type="logical" name="LELF"> F  </i>
   <i type="logical" name="LOPTICS"> F  </i>
   <v name="STM">      0.00000000      0.00000000      0.00000000      0.00000000      0.00000000      0.00000000      0.00000000</v>
  </separator>
  <separator name="performance" >
   <i type="int" name="NPAR">    24</i>
   <i type="int" name="NSIM">     4</i>
   <i type="int" name="NBLK">    -1</i>
   <i type="logical" name="LPLANE"> T  </i>
   <i type="logical" name="LSCALAPACK"> T  </i>
   <i type="logical" name="LSCAAWARE"> F  </i>
   <i type="logical" name="LSCALU"> F  </i>
   <i type="logical" name="LASYNC"> F  </i>
   <i type="logical" name="LORBITALREAL"> F  </i>
  </separator>
  <separator name="miscellaneous" >
   <i type="int" name="IDIOT">     3</i>
   <i type="int" name="PHON_NSTRUCT">    -1</i>
   <i type="logical" name="LMUSIC"> F  </i>
   <v name="POMASS">     10.81100000</v>
   <v name="DARWINR">      0.00000000</v>
   <v name="DARWINV">      1.00000000</v>
   <i type="logical" name="LCORR"> T  </i>
  </separator>
  <i type="logical" name="GGA_COMPAT"> T  </i>
  <i type="logical" name="LBERRY"> F  </i>
  <i type="int" name="ICORELEVEL">     0</i>
  <i type="logical" name="LDAU"> F  </i>
  <i type="int" name="I_CONSTRAINED_M">     0</i>
  <separator name="electronic exchange-correlation" >
   <i type="string" name="GGA    ">PE</i>
   <i type="string" name="XC_C">1</i>
   <i type="int" name="VOSKOWN">     0</i>
   <i type="logical" name="LHFCALC"> F  </i>
   <i type="string" name="PRECFOCK"></i>
   <i type="logical" name="LSYMGRAD"> F  </i>
   <i type="logical" name="LHFONE"> F  </i>
   <i type="logical" name="LRHFCALC"> F  </i>
   <i type="logical" name="LTHOMAS"> F  </i>
   <i type="logical" name="LMODELHF"> F  </i>
   <i type="logical" name="LFOCKACE"> F  </i>
   <i name="ENCUT4O">     -1.00000000</i>
   <i type="int" name="EXXOEP">     0</i>
   <i type="int" name="FOURORBIT">     0</i>
   <i name="AEXX">      0.00000000</i>
   <i name="HFALPHA">      0.00000000</i>
   <i name="MCALPHA">      0.00000000</i>
   <i name="ALDAX">      1.00000000</i>
   <i name="AGGAX">      1.00000000</i>
   <i name="AMGGAX">      1.00000000</i>
   <i name="ALDAC">      1.00000000</i>
   <i name="AGGAC">      1.00000000</i>
   <i name="AMGGAC">      1.00000000</i>
   <i type="int" name="NKREDX">     1</i>
   <i type="int" name="NKREDY">     1</i>
   <i type="int" name="NKREDZ">     1</i>
   <i type="logical" name="SHIFTRED"> F  </i>
   <i type="logical" name="ODDONLY"> F  </i>
   <i type="logical" name="EVENONLY"> F  </i>
   <i type="int" name="LMAXFOCK">     0</i>
   <i type="int" name="NMAXFOCKAE">     0</i>
   <i type="logical" name="LFOCKAEDFT"> F  </i>
   <i name="HFSCREEN">      0.00000000</i>
   <i name="HFSCREENC">      0.00000000</i>
   <i type="int" name="NBANDSGWLOW">     0</i>
  </separator>
  <separator name="vdW DFT" >
   <i type="logical" name="LUSE_VDW"> F  </i>
   <i type="int" name="IVDW_NL">    -1</i>
   <i type="logical" name="LSPIN_VDW"> F  </i>
   <i name="ZAB_VDW">     -0.84910000</i>
   <i name="GAMMA_VDW">      1.39626340</i>
   <i name="ALPHA_VDW">      0.00000000</i>
   <i name="PARAM1">      0.12340000</i>
   <i name="PARAM2">      1.00000000</i>
   <i name="BPARAM">      6.30000000</i>
   <i name="CPARAM">      0.00930000</i>
  </separator>
  <separator name="model GW" >
   <i type="int" name="MODEL_GW">     0</i>
   <i name="MODEL_EPS0">     51.58650460</i>
   <i name="MODEL_ALPHA">      1.00000000</i>
  </separator>
  <separator name="linear response parameters" >
   <i type="logical" name="LEPSILON"> F  </i>
   <i type="logical" name="LRPA"> F  </i>
   <i type="logical" name="LNABLA"> F  </i>
   <i type="logical" name="LVEL"> F  </i>
   <i name="CSHIFT">      0.10000000</i>
   <i name="OMEGAMAX">     -1.00000000</i>
   <i name="DEG_THRESHOLD">      0.00200000</i>
   <i name="RTIME">     -0.10000000</i>
   <i name="WPLASMAI">      0.00000000</i>
   <v name="DFIELD">      0.00000000      0.00000000      0.00000000</v>
   <v name="WPLASMA">      0.00000000      0.00000000      0.00000000      0.00000000      0.00000000      0.00000000      0.00000000      0.00000000      0.00000000</v>
  </separator>
  <separator name="orbital magnetization" >
   <i type="logical" name="NUCIND"> F  </i>
   <v name="MAGPOS">      0.00000000      0.00000000      0.00000000</v>
   <i type="logical" name="LNICSALL"> T  </i>
   <i type="logical" name="ORBITALMAG"> F  </i>
   <i type="logical" name="LMAGBLOCH"> F  </i>
   <i type="logical" name="LCHIMAG"> F  </i>
   <i type="logical" name="LGAUGE"> T  </i>
   <i type="int" name="MAGATOM">     0</i>
   <v name="MAGDIPOL">      0.00000000      0.00000000      0.00000000</v>
   <v name="AVECCONST">      0.00000000      0.00000000      0.00000000</v>
  </separator>
  <separator name="response functions" >
   <i type="logical" name="LALL_IN_ONE"> F  </i>
   <i type="int" name="IALL_IN_ONE">    -1</i>
   <i type="int" name="NBANDS_WAVE">    -1</i>
   <i type="logical" name="LFINITE_TEMPERATURE"> F  </i>
   <i type="logical" name="LADDER"> F  </i>
   <i type="logical" name="LRPAFORCE"> F  </i>
   <i type="logical" name="LFXC"> F  </i>
   <i type="logical" name="LHARTREE"> T  </i>
   <i type="int" name="IBSE">     0</i>
   <v type="int" name="KPOINT">    -1     0     0     0</v>
   <i type="logical" name="LTCTC"> F  </i>
   <i type="logical" name="LTCTE"> F  </i>
   <i type="logical" name="LTETE"> F  </i>
   <i type="logical" name="LTRIPLET"> F  </i>
   <i type="logical" name="LFXCEPS"> F  </i>
   <i type="logical" name="LFXHEG"> F  </i>
   <i type="int" name="NATURALO">     2</i>
   <i type="logical" name="LHOLEGF"> F  </i>
   <i type="logical" name="L2ORDER"> F  </i>
   <i type="logical" name="LDMP1"> F  </i>
   <i type="logical" name="LMP2LT"> F  </i>
   <i type="logical" name="LSMP2LT"> F  </i>
   <i type="logical" name="LGWLF"> F  </i>
   <i name="ENCUTGW">     -1.60000002</i>
   <i name="ENCUTGWSOFT">     -1.60000002</i>
   <i name="ENCUTLF">     -1.00000000</i>
   <i type="logical" name="ESF_SPLINES"> F  </i>
   <i name="ESF_CONV">      0.01000000</i>
   <i type="int" name="ESF_NINTER">    15</i>
   <i type="int" name="LMAXMP2">    -1</i>
   <i name="SCISSOR">      0.00000000</i>
   <i type="int" name="NOMEGA">     0</i>
   <i type="int" name="NOMEGAR">     0</i>
   <i type="int" name="NBANDSGW">    -1</i>
   <i type="int" name="NBANDSO">    -1</i>
   <i type="int" name="NBANDSV">    -1</i>
   <i type="int" name="NELMGW">     1</i>
   <i type="int" name="NELMHF">     1</i>
   <i type="int" name="DIM">     3</i>
   <i type="int" name="IESPILON">     4</i>
   <i type="int" name="ANTIRES">     0</i>
   <i name="OMEGAMAX">    -30.00000000</i>
   <i name="OMEGAMIN">    -30.00000000</i>
   <i name="OMEGATL">   -200.00000000</i>
   <i type="int" name="OMEGAGRID">     0</i>
   <i name="CSHIFT">     -0.10000000</i>
   <i type="logical" name="LSELFENERGY"> F  </i>
   <i type="logical" name="LSPECTRAL"> F  </i>
   <i type="logical" name="LSPECTRALGW"> F  </i>
   <i type="logical" name="LSINGLES"> F  </i>
   <i type="logical" name="LFERMIGW"> F  </i>
   <i type="logical" name="ODDONLYGW"> F  </i>
   <i type="logical" name="EVENONLYGW"> F  </i>
   <i type="int" name="NKREDLFX">     1</i>
   <i type="int" name="NKREDLFY">     1</i>
   <i type="int" name="NKREDLFZ">     1</i>
   <i type="int" name="MAXMEM">  2800</i>
   <i type="int" name="TELESCOPE">     0</i>
   <i type="int" name="NTAUPAR">    -1</i>
   <i type="int" name="NOMEGAPAR">    -1</i>
   <i name="DAMP_NEWTON">      0.80000001</i>
   <i name="LAMBDA">      1.00000000</i>
  </separator>
  <separator name="External order field" >
   <i name="OFIELD_KAPPA">      0.00000000</i>
   <v name="OFIELD_K">      0.00000000      0.00000000      0.00000000</v>
   <i name="OFIELD_Q6_NEAR">      0.00000000</i>
   <i name="OFIELD_Q6_FAR">      0.00000000</i>
   <i name="OFIELD_A">      0.00000000</i>
  </separator>
  <separator name="optional k-points parameters" >
   <i type="int" name="KPOINTS_OPT_MODE">     1</i>
   <i type="logical" name="LKPOINTS_OPT"> F  </i>
  </separator>
 </parameters>
 <atominfo>
  <atoms>      14 </atoms>
  <types>       1 </types>
  <array name="atoms" >
   <dimension dim="1">ion</dimension>
   <field type="string">element</field>
   <field type="int">atomtype</field>
   <set>
    <rc><c>B </c><c>   1</c></rc>
    <rc><c>B </c><c>   1</c></rc>
    <rc><c>B </c><c>   1</c></rc>
    <rc><c>B </c><c>   1</c></rc>
    <rc><c>B </c><c>   1</c></rc>
    <rc><c>B </c><c>   1</c></rc>
    <rc><c>B </c><c>   1</c></rc>
    <rc><c>B </c><c>   1</c></rc>
    <rc><c>B </c><c>   1</c></rc>
    <rc><c>B </c><c>   1</c></rc>
    <rc><c>B </c><c>   1</c></rc>
    <rc><c>B </c><c>   1</c></rc>
    <rc><c>B </c><c>   1</c></rc>
    <rc><c>B </c><c>   1</c></rc>
   </set>
  </array>
  <array name="atomtypes" >
   <dimension dim="1">type</dimension>
   <field type="int">atomspertype</field>
   <field type="string">element</field>
   <field>mass</field>
   <field>valence</field>
   <field type="string">pseudopotential</field>
   <set>
    <rc><c>  14</c><c>B </c><c>     10.81100000</c><c>      3.00000000</c><c>  PAW_PBE B 06Sep2000                   </c></rc>
   </set>
  </array>
 </atominfo>
 <structure name="initialpos" >
  <crystal>
   <varray name="basis" >
    <v>       5.70097065       0.00000000       0.00000000 </v>
    <v>       0.00000000       6.20187140       0.00000000 </v>
    <v>       0.00000000       0.00000000      34.04405832 </v>
   </varray>
   <i name="volume">   1203.68510741 </i>
   <varray name="rec_basis" >
    <v>       0.17540873       0.00000000       0.00000000 </v>
    <v>       0.00000000       0.16124165       0.00000000 </v>
    <v>       0.00000000       0.00000000       0.02937370 </v>
   </varray>
  </crystal>
  <varray name="positions" >
   <v>       0.52128989       0.63795769       0.05939448 </v>
   <v>       0.47871011       0.36204231       0.05939448 </v>
   <v>       0.97871011       0.63795769       0.05939448 </v>
   <v>       0.02128989       0.36204231       0.05939448 </v>
   <v>       0.59744966       0.89986831       0.05939448 </v>
   <v>       0.40255034       0.10013168       0.05939448 </v>
   <v>       0.90255034       0.89986831       0.05939448 </v>
   <v>       0.09744966       0.10013168       0.05939448 </v>
   <v>       0.75000000       0.72957939       0.09402918 </v>
   <v>       0.25000000       0.27042061       0.02475979 </v>
   <v>       0.75000000       0.72957939       0.02475979 </v>
   <v>       0.25000000       0.27042061       0.09402918 </v>
   <v>       0.25000000       0.52399302       0.05939448 </v>
   <v>       0.75000000       0.47600695       0.05939448 </v>
  </varray>
 </structure>
 <calculation>
  <scstep>
   <time name="dav">   11.46   11.53</time>
   <time name="total">   11.65   11.72</time>
   <dipole>
    <v name="dipole">      0.00000000       0.00000000      -0.00000051 </v>
    <i name="Tr[quadrupol]">   -255.55208227 </i>
    <i name="Echarged">      0.00000000 </i>
    <i name="Edipol_quadrupol">      0.00000000 </i>
    <i name="Eion">      0.00000000 </i>
   </dipole>
   <energy>
    <i name="alphaZ">     11.20213168 </i>
    <i name="ewald">  10060.02111360 </i>
    <i name="hartreedc"> -10653.79532796 </i>
    <i name="XCdc">     94.76450073 </i>
    <i name="pawpsdc">    608.99811708 </i>
    <i name="pawaedc">   -597.02363782 </i>
    <i name="eentropy">     -0.00937650 </i>
    <i name="bandstr">   -219.23274709 </i>
    <i name="atom">    996.37441054 </i>
    <i name="e_fr_energy">    301.29918425 </i>
    <i name="e_wo_entrp">    301.30856076 </i>
    <i name="e_0_energy">    301.30387250 </i>
   </energy>
  </scstep>
  <scstep>
   <time name="dav">   18.84   18.95</time>
   <time name="total">   18.84   18.95</time>
   <dipole>
    <v name="dipole">      0.00000000       0.00000000      -0.00000051 </v>
    <i name="Tr[quadrupol]">   -255.55208227 </i>
    <i name="Echarged">      0.00000000 </i>
    <i name="Edipol_quadrupol">      0.00000000 </i>
    <i name="Eion">      0.00000000 </i>
   </dipole>
   <energy>
    <i name="e_fr_energy">    -58.82090718 </i>
    <i name="e_wo_entrp">    -58.81495152 </i>
    <i name="e_0_energy">    -58.81792935 </i>
   </energy>
  </scstep>
  <scstep>
   <time name="dav">   14.92   15.00</time>
   <time name="total">   14.92   15.00</time>
   <dipole>
    <v name="dipole">      0.00000000       0.00000000      -0.00000051 </v>
    <i name="Tr[quadrupol]">   -255.55208227 </i>
    <i name="Echarged">      0.00000000 </i>
    <i name="Edipol_quadrupol">      0.00000000 </i>
    <i name="Eion">      0.00000000 </i>
   </dipole>
   <energy>
    <i name="e_fr_energy">    -93.55688818 </i>
    <i name="e_wo_entrp">    -93.54648483 </i>
    <i name="e_0_energy">    -93.55168650 </i>
   </energy>
  </scstep>
  <scstep>
   <time name="dav">   14.83   14.91</time>
   <time name="total">   14.83   14.91</time>
   <dipole>
    <v name="dipole">      0.00000000       0.00000000      -0.00000051 </v>
    <i name="Tr[quadrupol]">   -255.55208227 </i>
    <i name="Echarged">      0.00000000 </i>
    <i name="Edipol_quadrupol">      0.00000000 </i>
    <i name="Eion">      0.00000000 </i>
   </dipole>
   <energy>
    <i name="e_fr_energy">    -94.19232980 </i>
    <i name="e_wo_entrp">    -94.18139060 </i>
    <i name="e_0_energy">    -94.18686020 </i>
   </energy>
  </scstep>
  <scstep>
   <time name="dav">   14.73   14.81</time>
   <time name="total">   15.29   15.38</time>
   <dipole>
    <v name="dipole">      0.00000000       0.00000000      -0.00000051 </v>
    <i name="Tr[quadrupol]">   -255.55208227 </i>
    <i name="Echarged">      0.00000000 </i>
    <i name="Edipol_quadrupol">      0.00000000 </i>
    <i name="Eion">      0.00000000 </i>
   </dipole>
   <energy>
    <i name="e_fr_energy">    -94.20686321 </i>
    <i name="e_wo_entrp">    -94.19592578 </i>
    <i name="e_0_energy">    -94.20139449 </i>
   </energy>
  </scstep>
  <scstep>
   <time name="dav">   13.97   14.03</time>
   <time name="total">   14.66   14.72</time>
   <dipole>
    <v name="dipole">      0.00000000       0.00000000      -0.00040400 </v>
    <i name="Tr[quadrupol]">   -256.64870794 </i>
    <i name="Echarged">      0.00000000 </i>
    <i name="Edipol_quadrupol">      0.00000000 </i>
    <i name="Eion">      0.00000000 </i>
   </dipole>
   <energy>
    <i name="e_fr_energy">    -85.73821096 </i>
    <i name="e_wo_entrp">    -85.72226051 </i>
    <i name="e_0_energy">    -85.73023573 </i>
   </energy>
  </scstep>
  <scstep>
   <time name="dav">   15.27   15.33</time>
   <time name="total">   15.97   16.03</time>
   <dipole>
    <v name="dipole">      0.00000000       0.00000000      -0.00071340 </v>
    <i name="Tr[quadrupol]">   -257.55151530 </i>
    <i name="Echarged">      0.00000000 </i>
    <i name="Edipol_quadrupol">      0.00000000 </i>
    <i name="Eion">      0.00000000 </i>
   </dipole>
   <energy>
    <i name="e_fr_energy">    -84.33863584 </i>
    <i name="e_wo_entrp">    -84.32098026 </i>
    <i name="e_0_energy">    -84.32980805 </i>
   </energy>
  </scstep>
  <scstep>
   <time name="dav">   14.27   14.30</time>
   <time name="total">   14.96   14.99</time>
   <dipole>
    <v name="dipole">      0.00000000       0.00000000      -0.00079243 </v>
    <i name="Tr[quadrupol]">   -258.06891003 </i>
    <i name="Echarged">      0.00000000 </i>
    <i name="Edipol_quadrupol">      0.00000000 </i>
    <i name="Eion">      0.00000000 </i>
   </dipole>
   <energy>
    <i name="e_fr_energy">    -84.25808950 </i>
    <i name="e_wo_entrp">    -84.24455571 </i>
    <i name="e_0_energy">    -84.25132261 </i>
   </energy>
  </scstep>
  <scstep>
   <time name="dav">   14.61   14.66</time>
   <time name="total">   15.30   15.35</time>
   <dipole>
    <v name="dipole">      0.00000000       0.00000000      -0.00084901 </v>
    <i name="Tr[quadrupol]">   -258.31168792 </i>
    <i name="Echarged">      0.00000000 </i>
    <i name="Edipol_quadrupol">      0.00000000 </i>
    <i name="Eion">      0.00000000 </i>
   </dipole>
   <energy>
    <i name="e_fr_energy">    -84.10893396 </i>
    <i name="e_wo_entrp">    -84.09184382 </i>
    <i name="e_0_energy">    -84.10038889 </i>
   </energy>
  </scstep>
  <scstep>
   <time name="dav">   15.05   15.08</time>
   <time name="total">   15.73   15.77</time>
   <dipole>
    <v name="dipole">      0.00000000       0.00000000      -0.00087741 </v>
    <i name="Tr[quadrupol]">   -258.70739916 </i>
    <i name="Echarged">      0.00000000 </i>
    <i name="Edipol_quadrupol">      0.00000000 </i>
    <i name="Eion">      0.00000000 </i>
   </dipole>
   <energy>
    <i name="e_fr_energy">    -84.10482046 </i>
    <i name="e_wo_entrp">    -84.08793332 </i>
    <i name="e_0_energy">    -84.09637689 </i>
   </energy>
  </scstep>
  <scstep>
   <time name="dav">   14.66   14.73</time>
   <time name="total">   15.35   15.43</time>
   <dipole>
    <v name="dipole">      0.00000000       0.00000000      -0.00085314 </v>
    <i name="Tr[quadrupol]">   -258.93101512 </i>
    <i name="Echarged">      0.00000000 </i>
    <i name="Edipol_quadrupol">      0.00000000 </i>
    <i name="Eion">      0.00000000 </i>
   </dipole>
   <energy>
    <i name="e_fr_energy">    -84.09657186 </i>
    <i name="e_wo_entrp">    -84.07947792 </i>
    <i name="e_0_energy">    -84.08802489 </i>
   </energy>
  </scstep>
  <scstep>
   <time name="dav">   15.11   15.17</time>
   <time name="total">   15.80   15.86</time>
   <dipole>
    <v name="dipole">      0.00000000       0.00000000      -0.00080840 </v>
    <i name="Tr[quadrupol]">   -259.27426062 </i>
    <i name="Echarged">      0.00000000 </i>
    <i name="Edipol_quadrupol">      0.00000000 </i>
    <i name="Eion">      0.00000000 </i>
   </dipole>
   <energy>
    <i name="e_fr_energy">    -84.09518682 </i>
    <i name="e_wo_entrp">    -84.07854704 </i>
    <i name="e_0_energy">    -84.08686693 </i>
   </energy>
  </scstep>
  <scstep>
   <time name="dav">   15.07   15.15</time>
   <time name="total">   15.77   15.84</time>
   <dipole>
    <v name="dipole">      0.00000000       0.00000000      -0.00071882 </v>
    <i name="Tr[quadrupol]">   -259.62019950 </i>
    <i name="Echarged">      0.00000000 </i>
    <i name="Edipol_quadrupol">      0.00000000 </i>
    <i name="Eion">      0.00000000 </i>
   </dipole>
   <energy>
    <i name="e_fr_energy">    -84.09685757 </i>
    <i name="e_wo_entrp">    -84.08074646 </i>
    <i name="e_0_energy">    -84.08880201 </i>
   </energy>
  </scstep>
  <scstep>
   <time name="dav">   13.97   14.03</time>
   <time name="total">   14.64   14.69</time>
   <dipole>
    <v name="dipole">      0.00000000       0.00000000      -0.00056758 </v>
    <i name="Tr[quadrupol]">   -259.90258921 </i>
    <i name="Echarged">      0.00000000 </i>
    <i name="Edipol_quadrupol">      0.00000000 </i>
    <i name="Eion">      0.00000000 </i>
   </dipole>
   <energy>
    <i name="e_fr_energy">    -84.09941223 </i>
    <i name="e_wo_entrp">    -84.08331753 </i>
    <i name="e_0_energy">    -84.09136488 </i>
   </energy>
  </scstep>
  <scstep>
   <time name="dav">   13.49   13.56</time>
   <time name="total">   14.16   14.22</time>
   <dipole>
    <v name="dipole">      0.00000000       0.00000000      -0.00042606 </v>
    <i name="Tr[quadrupol]">   -260.05505740 </i>
    <i name="Echarged">      0.00000000 </i>
    <i name="Edipol_quadrupol">      0.00000000 </i>
    <i name="Eion">      0.00000000 </i>
   </dipole>
   <energy>
    <i name="e_fr_energy">    -84.10126203 </i>
    <i name="e_wo_entrp">    -84.08520636 </i>
    <i name="e_0_energy">    -84.09323419 </i>
   </energy>
  </scstep>
  <scstep>
   <time name="dav">   12.86   12.92</time>
   <time name="total">   13.57   13.62</time>
   <dipole>
    <v name="dipole">      0.00000000       0.00000000      -0.00029820 </v>
    <i name="Tr[quadrupol]">   -260.13790266 </i>
    <i name="Echarged">      0.00000000 </i>
    <i name="Edipol_quadrupol">      0.00000000 </i>
    <i name="Eion">      0.00000000 </i>
   </dipole>
   <energy>
    <i name="e_fr_energy">    -84.10265405 </i>
    <i name="e_wo_entrp">    -84.08661511 </i>
    <i name="e_0_energy">    -84.09463458 </i>
   </energy>
  </scstep>
  <scstep>
   <time name="dav">   13.47   13.53</time>
   <time name="total">   14.15   14.21</time>
   <dipole>
    <v name="dipole">      0.00000000       0.00000000      -0.00019726 </v>
    <i name="Tr[quadrupol]">   -260.17955974 </i>
    <i name="Echarged">      0.00000000 </i>
    <i name="Edipol_quadrupol">      0.00000000 </i>
    <i name="Eion">      0.00000000 </i>
   </dipole>
   <energy>
    <i name="e_fr_energy">    -84.10351906 </i>
    <i name="e_wo_entrp">    -84.08748905 </i>
    <i name="e_0_energy">    -84.09550406 </i>
   </energy>
  </scstep>
  <scstep>
   <time name="dav">   13.71   13.76</time>
   <time name="total">   14.39   14.44</time>
   <dipole>
    <v name="dipole">      0.00000000       0.00000000      -0.00014321 </v>
    <i name="Tr[quadrupol]">   -260.19838793 </i>
    <i name="Echarged">      0.00000000 </i>
    <i name="Edipol_quadrupol">      0.00000000 </i>
    <i name="Eion">      0.00000000 </i>
   </dipole>
   <energy>
    <i name="e_fr_energy">    -84.10379776 </i>
    <i name="e_wo_entrp">    -84.08777081 </i>
    <i name="e_0_energy">    -84.09578428 </i>
   </energy>
  </scstep>
  <scstep>
   <time name="dav">   13.86   13.92</time>
   <time name="total">   14.54   14.61</time>
   <dipole>
    <v name="dipole">      0.00000000       0.00000000      -0.00007830 </v>
    <i name="Tr[quadrupol]">   -260.21420019 </i>
    <i name="Echarged">      0.00000000 </i>
    <i name="Edipol_quadrupol">      0.00000000 </i>
    <i name="Eion">      0.00000000 </i>
   </dipole>
   <energy>
    <i name="e_fr_energy">    -84.10406127 </i>
    <i name="e_wo_entrp">    -84.08803504 </i>
    <i name="e_0_energy">    -84.09604816 </i>
   </energy>
  </scstep>
  <scstep>
   <time name="dav">   14.68   14.74</time>
   <time name="total">   15.37   15.43</time>
   <dipole>
    <v name="dipole">      0.00000000       0.00000000      -0.00003773 </v>
    <i name="Tr[quadrupol]">   -260.21992311 </i>
    <i name="Echarged">      0.00000000 </i>
    <i name="Edipol_quadrupol">      0.00000000 </i>
    <i name="Eion">      0.00000000 </i>
   </dipole>
   <energy>
    <i name="e_fr_energy">    -84.10415994 </i>
    <i name="e_wo_entrp">    -84.08813384 </i>
    <i name="e_0_energy">    -84.09614689 </i>
   </energy>
  </scstep>
  <scstep>
   <time name="dav">   14.87   14.92</time>
   <time name="total">   15.55   15.60</time>
   <dipole>
    <v name="dipole">      0.00000000       0.00000000      -0.00002010 </v>
    <i name="Tr[quadrupol]">   -260.22197601 </i>
    <i name="Echarged">      0.00000000 </i>
    <i name="Edipol_quadrupol">      0.00000000 </i>
    <i name="Eion">      0.00000000 </i>
   </dipole>
   <energy>
    <i name="e_fr_energy">    -84.10418210 </i>
    <i name="e_wo_entrp">    -84.08815566 </i>
    <i name="e_0_energy">    -84.09616888 </i>
   </energy>
  </scstep>
  <scstep>
   <time name="dav">   14.49   14.54</time>
   <time name="total">   15.17   15.23</time>
   <dipole>
    <v name="dipole">      0.00000000       0.00000000      -0.00001008 </v>
    <i name="Tr[quadrupol]">   -260.22271106 </i>
    <i name="Echarged">      0.00000000 </i>
    <i name="Edipol_quadrupol">      0.00000000 </i>
    <i name="Eion">      0.00000000 </i>
   </dipole>
   <energy>
    <i name="e_fr_energy">    -84.10419115 </i>
    <i name="e_wo_entrp">    -84.08816467 </i>
    <i name="e_0_energy">    -84.09617791 </i>
   </energy>
  </scstep>
  <scstep>
   <time name="dav">   14.40   14.44</time>
   <time name="total">   15.09   15.13</time>
   <dipole>
    <v name="dipole">      0.00000000       0.00000000      -0.00000533 </v>
    <i name="Tr[quadrupol]">   -260.22293884 </i>
    <i name="Echarged">      0.00000000 </i>
    <i name="Edipol_quadrupol">      0.00000000 </i>
    <i name="Eion">      0.00000000 </i>
   </dipole>
   <energy>
    <i name="e_fr_energy">    -84.10419390 </i>
    <i name="e_wo_entrp">    -84.08816743 </i>
    <i name="e_0_energy">    -84.09618067 </i>
   </energy>
  </scstep>
  <scstep>
   <time name="dav">   13.26   13.30</time>
   <time name="total">   13.95   14.00</time>
   <dipole>
    <v name="dipole">      0.00000000       0.00000000      -0.00000207 </v>
    <i name="Tr[quadrupol]">   -260.22304257 </i>
    <i name="Echarged">      0.00000000 </i>
    <i name="Edipol_quadrupol">      0.00000000 </i>
    <i name="Eion">      0.00000000 </i>
   </dipole>
   <energy>
    <i name="e_fr_energy">    -84.10419497 </i>
    <i name="e_wo_entrp">    -84.08816855 </i>
    <i name="e_0_energy">    -84.09618176 </i>
   </energy>
  </scstep>
  <scstep>
   <time name="dav">   12.87   12.93</time>
   <time name="total">   13.02   13.08</time>
   <dipole>
    <v name="dipole">      0.00000000       0.00000000      -0.00000136 </v>
    <i name="Tr[quadrupol]">   -260.22301836 </i>
    <i name="Echarged">      0.00000000 </i>
    <i name="Edipol_quadrupol">      0.00000000 </i>
    <i name="Eion">      0.00000000 </i>
   </dipole>
   <energy>
    <i name="alphaZ">     11.20213176 </i>
    <i name="ewald">  10060.02111360 </i>
    <i name="hartreedc"> -10827.32422341 </i>
    <i name="XCdc">     98.83515636 </i>
    <i name="pawpsdc">   3416.33859130 </i>
    <i name="pawaedc">  -3405.39852371 </i>
    <i name="eentropy">     -0.01602642 </i>
    <i name="bandstr">   -434.13682512 </i>
    <i name="atom">    996.37441054 </i>
    <i name="e_fr_energy">    -84.10419509 </i>
    <i name="e_wo_entrp">    -84.08816867 </i>
    <i name="e_0_energy">    -84.09618188 </i>
   </energy>
  </scstep>
  <structure>
   <crystal>
    <varray name="basis" >
     <v>       5.70097065       0.00000000       0.00000000 </v>
     <v>       0.00000000       6.20187140       0.00000000 </v>
     <v>       0.00000000       0.00000000      34.04405832 </v>
    </varray>
    <i name="volume">   1203.68510741 </i>
    <varray name="rec_basis" >
     <v>       0.17540873       0.00000000       0.00000000 </v>
     <v>       0.00000000       0.16124165       0.00000000 </v>
     <v>       0.00000000       0.00000000       0.02937370 </v>
    </varray>
   </crystal>
   <varray name="positions" >
    <v>       0.52128989       0.63795769       0.05939448 </v>
    <v>       0.47871011       0.36204231       0.05939448 </v>
    <v>       0.97871011       0.63795769       0.05939448 </v>
    <v>       0.02128989       0.36204231       0.05939448 </v>
    <v>       0.59744966       0.89986831       0.05939448 </v>
    <v>       0.40255034       0.10013168       0.05939448 </v>
    <v>       0.90255034       0.89986831       0.05939448 </v>
    <v>       0.09744966       0.10013168       0.05939448 </v>
    <v>       0.75000000       0.72957939       0.09402918 </v>
    <v>       0.25000000       0.27042061       0.02475979 </v>
    <v>       0.75000000       0.72957939       0.02475979 </v>
    <v>       0.25000000       0.27042061       0.09402918 </v>
    <v>       0.25000000       0.52399302       0.05939448 </v>
    <v>       0.75000000       0.47600695       0.05939448 </v>
   </varray>
  </structure>
  <varray name="forces" >
   <v>      -0.03178990       0.03919563       0.00000000 </v>
   <v>       0.03178990      -0.03919563      -0.00000000 </v>
   <v>       0.03178990       0.03919563       0.00000000 </v>
   <v>      -0.03178990      -0.03919563      -0.00000000 </v>
   <v>      -0.17900915       0.19737266      -0.00000000 </v>
   <v>       0.17900915      -0.19737266      -0.00000000 </v>
   <v>       0.17900915       0.19737266      -0.00000000 </v>
   <v>      -0.17900915      -0.19737266       0.00000000 </v>
   <v>      -0.00000000      -0.18407748      -2.79697915 </v>
   <v>      -0.00000000       0.18407748       2.79697915 </v>
   <v>      -0.00000000      -0.18407748       2.79697915 </v>
   <v>      -0.00000000       0.18407748      -2.79697915 </v>
   <v>      -0.00000000      -0.10954236       0.00000000 </v>
   <v>      -0.00000000       0.10954236      -0.00000000 </v>
  </varray>
  <varray name="stress" >
   <v>       3.05997402       0.00000000       0.00000000 </v>
   <v>       0.00000000       3.25111351       0.00000000 </v>
   <v>       0.00000000       0.00000000     -17.67055664 </v>
  </varray>
  <energy>
   <i name="e_fr_energy">    -84.10419509 </i>
   <i name="e_wo_entrp">    -84.08816867 </i>
   <i name="e_0_energy">    -84.09618188 </i>
  </energy>
  <time name="totalsc">  383.21  384.76</time>
  <eigenvalues>
   <array>
    <dimension dim="1">band</dimension>
    <dimension dim="2">kpoint</dimension>
    <dimension dim="3">spin</dimension>
    <field>eigene</field>
    <field>occ</field>
    <set>
     <set comment="spin 1">
      <set comment="kpoint 1">
       <r>  -19.6214    1.0000 </r>
       <r>  -18.5283    1.0000 </r>
       <r>  -15.5492    1.0000 </r>
       <r>  -15.2910    1.0000 </r>
       <r>  -12.9032    1.0000 </r>
       <r>  -12.0266    1.0000 </r>
       <r>  -12.0062    1.0000 </r>
       <r>  -11.6205    1.0000 </r>
       <r>  -11.2170    1.0000 </r>
       <r>  -10.4252    1.0000 </r>
       <r>  -10.3694    1.0000 </r>
       <r>   -8.0824    1.0000 </r>
       <r>   -7.9365    1.0000 </r>
       <r>   -7.9209    1.0000 </r>
       <r>   -6.9499    1.0000 </r>
       <r>   -6.8894    1.0000 </r>
       <r>   -6.3003    1.0000 </r>
       <r>   -5.9679    1.0000 </r>
       <r>   -5.8883    1.0000 </r>
       <r>   -5.3989    1.0000 </r>
       <r>   -4.9660    0.0839 </r>
       <r>   -4.6746    0.0000 </r>
       <r>   -2.9046    0.0000 </r>
       <r>   -1.9592    0.0000 </r>
       <r>   -1.9404    0.0000 </r>
       <r>   -1.8004    0.0000 </r>
       <r>   -0.7823    0.0000 </r>
       <r>   -0.4230    0.0000 </r>
       <r>    0.0983    0.0000 </r>
       <r>    0.7284    0.0000 </r>
       <r>    0.7859    0.0000 </r>
       <r>    1.0428    0.0000 </r>
       <r>    1.0521    0.0000 </r>
       <r>    1.4585    0.0000 </r>
       <r>    1.6069    0.0000 </r>
       <r>    1.7300    0.0000 </r>
       <r>    1.9379    0.0000 </r>
       <r>    2.2292    0.0000 </r>
       <r>    2.2869    0.0000 </r>
       <r>    2.4443    0.0000 </r>
       <r>    2.4564    0.0000 </r>
       <r>    2.5463    0.0000 </r>
       <r>    3.2807    0.0000 </r>
       <r>    3.5196    0.0000 </r>
       <r>    3.6307    0.0000 </r>
       <r>    3.9263    0.0000 </r>
       <r>    3.9378    0.0000 </r>
       <r>    4.0298    0.0000 </r>
      </set>
      <set comment="kpoint 2">
       <r>  -19.5791    1.0000 </r>
       <r>  -18.5980    1.0000 </r>
       <r>  -15.5288    1.0000 </r>
       <r>  -15.2814    1.0000 </r>
       <r>  -12.8348    1.0000 </r>
       <r>  -12.3769    1.0000 </r>
       <r>  -11.9484    1.0000 </r>
       <r>  -11.7349    1.0000 </r>
       <r>  -10.7504    1.0000 </r>
       <r>  -10.5358    1.0000 </r>
       <r>  -10.0385    1.0000 </r>
       <r>   -8.3784    1.0000 </r>
       <r>   -7.8907    1.0000 </r>
       <r>   -7.8664    1.0000 </r>
       <r>   -7.0912    1.0000 </r>
       <r>   -6.8436    1.0000 </r>
       <r>   -6.4136    1.0000 </r>
       <r>   -6.0567    1.0000 </r>
       <r>   -5.9914    1.0000 </r>
       <r>   -5.3755    1.0000 </r>
       <r>   -4.9750    0.1308 </r>
       <r>   -4.8169    0.0000 </r>
       <r>   -2.8526    0.0000 </r>
       <r>   -2.0055    0.0000 </r>
       <r>   -1.8455    0.0000 </r>
       <r>   -1.4545    0.0000 </r>
       <r>   -0.8252    0.0000 </r>
       <r>   -0.3082    0.0000 </r>
       <r>    0.2460    0.0000 </r>
       <r>    0.6769    0.0000 </r>
       <r>    0.8724    0.0000 </r>
       <r>    1.1351    0.0000 </r>
       <r>    1.1427    0.0000 </r>
       <r>    1.4941    0.0000 </r>
       <r>    1.5433    0.0000 </r>
       <r>    1.6932    0.0000 </r>
       <r>    2.1244    0.0000 </r>
       <r>    2.3037    0.0000 </r>
       <r>    2.4540    0.0000 </r>
       <r>    2.5195    0.0000 </r>
       <r>    2.5953    0.0000 </r>
       <r>    2.7087    0.0000 </r>
       <r>    3.1427    0.0000 </r>
       <r>    3.3138    0.0000 </r>
       <r>    3.4938    0.0000 </r>
       <r>    3.6315    0.0000 </r>
       <r>    3.6534    0.0000 </r>
       <r>    3.8892    0.0000 </r>
      </set>
      <set comment="kpoint 3">
       <r>  -19.4964    1.0000 </r>
       <r>  -18.7239    1.0000 </r>
       <r>  -15.4861    1.0000 </r>
       <r>  -15.2704    1.0000 </r>
       <r>  -12.8211    1.0000 </r>
       <r>  -12.7010    1.0000 </r>
       <r>  -11.8348    1.0000 </r>
       <r>  -11.6817    1.0000 </r>
       <r>  -10.7300    1.0000 </r>
       <r>  -10.2042    1.0000 </r>
       <r>   -9.5644    1.0000 </r>
       <r>   -8.8718    1.0000 </r>
       <r>   -7.8066    1.0000 </r>
       <r>   -7.7737    1.0000 </r>
       <r>   -7.3509    1.0000 </r>
       <r>   -6.8718    1.0000 </r>
       <r>   -6.5240    1.0000 </r>
       <r>   -6.2051    1.0000 </r>
       <r>   -6.1638    1.0000 </r>
       <r>   -5.3289    1.0000 </r>
       <r>   -5.0878    0.9807 </r>
       <r>   -4.9955    0.2936 </r>
       <r>   -2.7572    0.0000 </r>
       <r>   -2.0850    0.0000 </r>
       <r>   -1.5163    0.0000 </r>
       <r>   -0.9659    0.0000 </r>
       <r>   -0.8455    0.0000 </r>
       <r>   -0.2307    0.0000 </r>
       <r>    0.4904    0.0000 </r>
       <r>    0.6767    0.0000 </r>
       <r>    1.0393    0.0000 </r>
       <r>    1.2874    0.0000 </r>
       <r>    1.3094    0.0000 </r>
       <r>    1.3170    0.0000 </r>
       <r>    1.6967    0.0000 </r>
       <r>    1.8582    0.0000 </r>
       <r>    2.3423    0.0000 </r>
       <r>    2.4020    0.0000 </r>
       <r>    2.5013    0.0000 </r>
       <r>    2.5588    0.0000 </r>
       <r>    2.6329    0.0000 </r>
       <r>    2.7760    0.0000 </r>
       <r>    2.9337    0.0000 </r>
       <r>    3.0093    0.0000 </r>
       <r>    3.0425    0.0000 </r>
       <r>    3.5285    0.0000 </r>
       <r>    3.5663    0.0000 </r>
       <r>    3.7018    0.0000 </r>
      </set>
      <set comment="kpoint 4">
       <r>  -19.3773    1.0000 </r>
       <r>  -18.8852    1.0000 </r>
       <r>  -15.4242    1.0000 </r>
       <r>  -15.2724    1.0000 </r>
       <r>  -12.9263    1.0000 </r>
       <r>  -12.9166    1.0000 </r>
       <r>  -11.6702    1.0000 </r>
       <r>  -11.3471    1.0000 </r>
       <r>  -10.9704    1.0000 </r>
       <r>   -9.7994    1.0000 </r>
       <r>   -9.3195    1.0000 </r>
       <r>   -9.0693    1.0000 </r>
       <r>   -7.7032    1.0000 </r>
       <r>   -7.6793    1.0000 </r>
       <r>   -7.6720    1.0000 </r>
       <r>   -7.1932    1.0000 </r>
       <r>   -6.3871    1.0000 </r>
       <r>   -6.3650    1.0000 </r>
       <r>   -6.3473    1.0000 </r>
       <r>   -5.4313    1.0000 </r>
       <r>   -5.2629    1.0000 </r>
       <r>   -5.0434    0.7911 </r>
       <r>   -2.6305    0.0000 </r>
       <r>   -2.1991    0.0000 </r>
       <r>   -0.9856    0.0000 </r>
       <r>   -0.7932    0.0000 </r>
       <r>   -0.3801    0.0000 </r>
       <r>   -0.3130    0.0000 </r>
       <r>    0.6591    0.0000 </r>
       <r>    0.7839    0.0000 </r>
       <r>    1.1353    0.0000 </r>
       <r>    1.2864    0.0000 </r>
       <r>    1.4682    0.0000 </r>
       <r>    1.5879    0.0000 </r>
       <r>    1.7288    0.0000 </r>
       <r>    1.8756    0.0000 </r>
       <r>    2.0861    0.0000 </r>
       <r>    2.2842    0.0000 </r>
       <r>    2.4214    0.0000 </r>
       <r>    2.5186    0.0000 </r>
       <r>    2.6112    0.0000 </r>
       <r>    2.6773    0.0000 </r>
       <r>    2.8565    0.0000 </r>
       <r>    2.9563    0.0000 </r>
       <r>    3.0956    0.0000 </r>
       <r>    3.1805    0.0000 </r>
       <r>    3.2686    0.0000 </r>
       <r>    3.4960    0.0000 </r>
      </set>
      <set comment="kpoint 5">
       <r>  -19.2283    1.0000 </r>
       <r>  -19.0595    1.0000 </r>
       <r>  -15.3560    1.0000 </r>
       <r>  -15.3007    1.0000 </r>
       <r>  -13.0299    1.0000 </r>
       <r>  -13.0144    1.0000 </r>
       <r>  -11.4623    1.0000 </r>
       <r>  -11.2230    1.0000 </r>
       <r>  -10.8313    1.0000 </r>
       <r>  -10.2364    1.0000 </r>
       <r>   -9.0065    1.0000 </r>
       <r>   -8.7651    1.0000 </r>
       <r>   -7.8868    1.0000 </r>
       <r>   -7.6204    1.0000 </r>
       <r>   -7.6194    1.0000 </r>
       <r>   -7.6059    1.0000 </r>
       <r>   -6.4743    1.0000 </r>
       <r>   -6.4708    1.0000 </r>
       <r>   -6.1246    1.0000 </r>
       <r>   -5.7944    1.0000 </r>
       <r>   -5.1860    1.0000 </r>
       <r>   -5.1091    0.9962 </r>
       <r>   -2.4858    0.0000 </r>
       <r>   -2.3372    0.0000 </r>
       <r>   -0.6648    0.0000 </r>
       <r>   -0.4877    0.0000 </r>
       <r>   -0.3234    0.0000 </r>
       <r>    0.2715    0.0000 </r>
       <r>    0.3395    0.0000 </r>
       <r>    0.9148    0.0000 </r>
       <r>    0.9746    0.0000 </r>
       <r>    1.0233    0.0000 </r>
       <r>    1.6041    0.0000 </r>
       <r>    1.6682    0.0000 </r>
       <r>    1.9470    0.0000 </r>
       <r>    1.9622    0.0000 </r>
       <r>    2.0553    0.0000 </r>
       <r>    2.1867    0.0000 </r>
       <r>    2.3402    0.0000 </r>
       <r>    2.3850    0.0000 </r>
       <r>    2.5910    0.0000 </r>
       <r>    2.6402    0.0000 </r>
       <r>    2.6885    0.0000 </r>
       <r>    2.7478    0.0000 </r>
       <r>    3.0262    0.0000 </r>
       <r>    3.1254    0.0000 </r>
       <r>    3.1758    0.0000 </r>
       <r>    3.4049    0.0000 </r>
      </set>
      <set comment="kpoint 6">
       <r>  -19.6110    1.0000 </r>
       <r>  -18.5471    1.0000 </r>
       <r>  -15.5475    1.0000 </r>
       <r>  -15.2589    1.0000 </r>
       <r>  -13.0400    1.0000 </r>
       <r>  -12.1649    1.0000 </r>
       <r>  -11.9844    1.0000 </r>
       <r>  -11.4380    1.0000 </r>
       <r>  -11.0734    1.0000 </r>
       <r>  -10.4829    1.0000 </r>
       <r>  -10.2522    1.0000 </r>
       <r>   -8.1361    1.0000 </r>
       <r>   -7.9411    1.0000 </r>
       <r>   -7.8119    1.0000 </r>
       <r>   -7.1116    1.0000 </r>
       <r>   -6.9280    1.0000 </r>
       <r>   -6.5269    1.0000 </r>
       <r>   -6.0898    1.0000 </r>
       <r>   -5.9014    1.0000 </r>
       <r>   -5.4072    1.0000 </r>
       <r>   -4.9545    0.0442 </r>
       <r>   -4.3851    0.0000 </r>
       <r>   -2.8811    0.0000 </r>
       <r>   -1.9741    0.0000 </r>
       <r>   -1.8854    0.0000 </r>
       <r>   -1.6968    0.0000 </r>
       <r>   -0.9665    0.0000 </r>
       <r>   -0.4256    0.0000 </r>
       <r>    0.2017    0.0000 </r>
       <r>    0.7771    0.0000 </r>
       <r>    0.9705    0.0000 </r>
       <r>    1.0892    0.0000 </r>
       <r>    1.1034    0.0000 </r>
       <r>    1.5066    0.0000 </r>
       <r>    1.6273    0.0000 </r>
       <r>    1.7637    0.0000 </r>
       <r>    1.9428    0.0000 </r>
       <r>    2.1792    0.0000 </r>
       <r>    2.2726    0.0000 </r>
       <r>    2.5045    0.0000 </r>
       <r>    2.5700    0.0000 </r>
       <r>    2.6418    0.0000 </r>
       <r>    3.2859    0.0000 </r>
       <r>    3.3744    0.0000 </r>
       <r>    3.4545    0.0000 </r>
       <r>    3.6800    0.0000 </r>
       <r>    3.7140    0.0000 </r>
       <r>    3.8618    0.0000 </r>
      </set>
      <set comment="kpoint 7">
       <r>  -19.5692    1.0000 </r>
       <r>  -18.6130    1.0000 </r>
       <r>  -15.5516    1.0000 </r>
       <r>  -15.2409    1.0000 </r>
       <r>  -13.0110    1.0000 </r>
       <r>  -12.2710    1.0000 </r>
       <r>  -11.9272    1.0000 </r>
       <r>  -11.6845    1.0000 </r>
       <r>  -10.6901    1.0000 </r>
       <r>  -10.5793    1.0000 </r>
       <r>   -9.9121    1.0000 </r>
       <r>   -8.4285    1.0000 </r>
       <r>   -8.0081    1.0000 </r>
       <r>   -7.6691    1.0000 </r>
       <r>   -7.1724    1.0000 </r>
       <r>   -6.9502    1.0000 </r>
       <r>   -6.6017    1.0000 </r>
       <r>   -6.2826    1.0000 </r>
       <r>   -5.8525    1.0000 </r>
       <r>   -5.3801    1.0000 </r>
       <r>   -4.9688    0.0968 </r>
       <r>   -4.5889    0.0000 </r>
       <r>   -2.8381    0.0000 </r>
       <r>   -2.0191    0.0000 </r>
       <r>   -1.7849    0.0000 </r>
       <r>   -1.4118    0.0000 </r>
       <r>   -0.9761    0.0000 </r>
       <r>   -0.2367    0.0000 </r>
       <r>    0.3679    0.0000 </r>
       <r>    0.7538    0.0000 </r>
       <r>    0.9564    0.0000 </r>
       <r>    1.1811    0.0000 </r>
       <r>    1.1956    0.0000 </r>
       <r>    1.4676    0.0000 </r>
       <r>    1.5913    0.0000 </r>
       <r>    1.7428    0.0000 </r>
       <r>    2.0124    0.0000 </r>
       <r>    2.3433    0.0000 </r>
       <r>    2.3553    0.0000 </r>
       <r>    2.6812    0.0000 </r>
       <r>    2.7046    0.0000 </r>
       <r>    2.8623    0.0000 </r>
       <r>    2.8996    0.0000 </r>
       <r>    3.2473    0.0000 </r>
       <r>    3.3340    0.0000 </r>
       <r>    3.5462    0.0000 </r>
       <r>    3.7066    0.0000 </r>
       <r>    3.7914    0.0000 </r>
      </set>
      <set comment="kpoint 8">
       <r>  -19.4874    1.0000 </r>
       <r>  -18.7332    1.0000 </r>
       <r>  -15.5355    1.0000 </r>
       <r>  -15.2345    1.0000 </r>
       <r>  -13.0257    1.0000 </r>
       <r>  -12.4123    1.0000 </r>
       <r>  -11.8153    1.0000 </r>
       <r>  -11.7177    1.0000 </r>
       <r>  -10.7543    1.0000 </r>
       <r>  -10.2074    1.0000 </r>
       <r>   -9.4679    1.0000 </r>
       <r>   -8.8921    1.0000 </r>
       <r>   -8.0031    1.0000 </r>
       <r>   -7.5571    1.0000 </r>
       <r>   -7.4255    1.0000 </r>
       <r>   -6.8397    1.0000 </r>
       <r>   -6.7690    1.0000 </r>
       <r>   -6.4553    1.0000 </r>
       <r>   -5.9114    1.0000 </r>
       <r>   -5.3324    1.0000 </r>
       <r>   -4.9997    0.3358 </r>
       <r>   -4.9474    0.0284 </r>
       <r>   -2.7519    0.0000 </r>
       <r>   -2.0996    0.0000 </r>
       <r>   -1.4680    0.0000 </r>
       <r>   -0.9966    0.0000 </r>
       <r>   -0.9196    0.0000 </r>
       <r>   -0.0700    0.0000 </r>
       <r>    0.6426    0.0000 </r>
       <r>    0.6702    0.0000 </r>
       <r>    1.0587    0.0000 </r>
       <r>    1.2688    0.0000 </r>
       <r>    1.3629    0.0000 </r>
       <r>    1.3786    0.0000 </r>
       <r>    1.7391    0.0000 </r>
       <r>    1.9107    0.0000 </r>
       <r>    2.1710    0.0000 </r>
       <r>    2.2439    0.0000 </r>
       <r>    2.3958    0.0000 </r>
       <r>    2.4722    0.0000 </r>
       <r>    2.7780    0.0000 </r>
       <r>    2.9009    0.0000 </r>
       <r>    2.9673    0.0000 </r>
       <r>    3.0889    0.0000 </r>
       <r>    3.1026    0.0000 </r>
       <r>    3.5572    0.0000 </r>
       <r>    3.5845    0.0000 </r>
       <r>    3.6568    0.0000 </r>
      </set>
      <set comment="kpoint 9">
       <r>  -19.3699    1.0000 </r>
       <r>  -18.8886    1.0000 </r>
       <r>  -15.4863    1.0000 </r>
       <r>  -15.2626    1.0000 </r>
       <r>  -13.0479    1.0000 </r>
       <r>  -12.6410    1.0000 </r>
       <r>  -11.6535    1.0000 </r>
       <r>  -11.3986    1.0000 </r>
       <r>  -10.9779    1.0000 </r>
       <r>   -9.8409    1.0000 </r>
       <r>   -9.4292    1.0000 </r>
       <r>   -8.9165    1.0000 </r>
       <r>   -7.9268    1.0000 </r>
       <r>   -7.7316    1.0000 </r>
       <r>   -7.5451    1.0000 </r>
       <r>   -7.1177    1.0000 </r>
       <r>   -6.5712    1.0000 </r>
       <r>   -6.5127    1.0000 </r>
       <r>   -6.0595    1.0000 </r>
       <r>   -5.4134    1.0000 </r>
       <r>   -5.2449    1.0000 </r>
       <r>   -5.0448    0.8028 </r>
       <r>   -2.6306    0.0000 </r>
       <r>   -2.2105    0.0000 </r>
       <r>   -0.9566    0.0000 </r>
       <r>   -0.7821    0.0000 </r>
       <r>   -0.5009    0.0000 </r>
       <r>   -0.1294    0.0000 </r>
       <r>    0.7152    0.0000 </r>
       <r>    0.8441    0.0000 </r>
       <r>    1.0359    0.0000 </r>
       <r>    1.3870    0.0000 </r>
       <r>    1.4800    0.0000 </r>
       <r>    1.5858    0.0000 </r>
       <r>    1.6413    0.0000 </r>
       <r>    1.9146    0.0000 </r>
       <r>    2.1214    0.0000 </r>
       <r>    2.3111    0.0000 </r>
       <r>    2.3980    0.0000 </r>
       <r>    2.4433    0.0000 </r>
       <r>    2.5387    0.0000 </r>
       <r>    2.7798    0.0000 </r>
       <r>    2.8800    0.0000 </r>
       <r>    2.9743    0.0000 </r>
       <r>    3.0954    0.0000 </r>
       <r>    3.2135    0.0000 </r>
       <r>    3.3445    0.0000 </r>
       <r>    3.6012    0.0000 </r>
      </set>
      <set comment="kpoint 10">
       <r>  -19.2234    1.0000 </r>
       <r>  -19.0582    1.0000 </r>
       <r>  -15.4101    1.0000 </r>
       <r>  -15.3270    1.0000 </r>
       <r>  -12.9983    1.0000 </r>
       <r>  -12.8561    1.0000 </r>
       <r>  -11.4503    1.0000 </r>
       <r>  -11.2187    1.0000 </r>
       <r>  -10.8865    1.0000 </r>
       <r>  -10.2954    1.0000 </r>
       <r>   -9.0851    1.0000 </r>
       <r>   -8.7674    1.0000 </r>
       <r>   -7.8250    1.0000 </r>
       <r>   -7.7967    1.0000 </r>
       <r>   -7.6482    1.0000 </r>
       <r>   -7.5097    1.0000 </r>
       <r>   -6.4230    1.0000 </r>
       <r>   -6.2493    1.0000 </r>
       <r>   -6.2487    1.0000 </r>
       <r>   -5.8510    1.0000 </r>
       <r>   -5.1805    1.0000 </r>
       <r>   -5.1079    0.9958 </r>
       <r>   -2.4895    0.0000 </r>
       <r>   -2.3445    0.0000 </r>
       <r>   -0.5799    0.0000 </r>
       <r>   -0.3434    0.0000 </r>
       <r>   -0.3330    0.0000 </r>
       <r>   -0.0389    0.0000 </r>
       <r>    0.6120    0.0000 </r>
       <r>    0.8315    0.0000 </r>
       <r>    0.8834    0.0000 </r>
       <r>    0.9370    0.0000 </r>
       <r>    1.6844    0.0000 </r>
       <r>    1.7106    0.0000 </r>
       <r>    1.9894    0.0000 </r>
       <r>    2.0216    0.0000 </r>
       <r>    2.1007    0.0000 </r>
       <r>    2.2362    0.0000 </r>
       <r>    2.4016    0.0000 </r>
       <r>    2.4336    0.0000 </r>
       <r>    2.5901    0.0000 </r>
       <r>    2.6885    0.0000 </r>
       <r>    2.7082    0.0000 </r>
       <r>    2.7556    0.0000 </r>
       <r>    2.9990    0.0000 </r>
       <r>    3.1508    0.0000 </r>
       <r>    3.2655    0.0000 </r>
       <r>    3.2678    0.0000 </r>
      </set>
      <set comment="kpoint 11">
       <r>  -19.5831    1.0000 </r>
       <r>  -18.5960    1.0000 </r>
       <r>  -15.5398    1.0000 </r>
       <r>  -15.1746    1.0000 </r>
       <r>  -13.3199    1.0000 </r>
       <r>  -12.3905    1.0000 </r>
       <r>  -11.9232    1.0000 </r>
       <r>  -11.0844    1.0000 </r>
       <r>  -10.7555    1.0000 </r>
       <r>  -10.6282    1.0000 </r>
       <r>   -9.9282    1.0000 </r>
       <r>   -8.2777    1.0000 </r>
       <r>   -7.8735    1.0000 </r>
       <r>   -7.6533    1.0000 </r>
       <r>   -7.5977    1.0000 </r>
       <r>   -7.0156    1.0000 </r>
       <r>   -6.8456    1.0000 </r>
       <r>   -6.3247    1.0000 </r>
       <r>   -6.0229    1.0000 </r>
       <r>   -5.3921    1.0000 </r>
       <r>   -4.9615    0.0659 </r>
       <r>   -3.8462    0.0000 </r>
       <r>   -2.8128    0.0000 </r>
       <r>   -2.0496    0.0000 </r>
       <r>   -1.8000    0.0000 </r>
       <r>   -1.3063    0.0000 </r>
       <r>   -1.2874    0.0000 </r>
       <r>   -0.4592    0.0000 </r>
       <r>    0.4817    0.0000 </r>
       <r>    0.8687    0.0000 </r>
       <r>    1.2204    0.0000 </r>
       <r>    1.2585    0.0000 </r>
       <r>    1.3465    0.0000 </r>
       <r>    1.5930    0.0000 </r>
       <r>    1.6506    0.0000 </r>
       <r>    1.8482    0.0000 </r>
       <r>    1.9828    0.0000 </r>
       <r>    2.2272    0.0000 </r>
       <r>    2.3984    0.0000 </r>
       <r>    2.6072    0.0000 </r>
       <r>    2.6520    0.0000 </r>
       <r>    2.6977    0.0000 </r>
       <r>    2.8388    0.0000 </r>
       <r>    2.8832    0.0000 </r>
       <r>    3.3126    0.0000 </r>
       <r>    3.4059    0.0000 </r>
       <r>    3.4369    0.0000 </r>
       <r>    3.4771    0.0000 </r>
      </set>
      <set comment="kpoint 12">
       <r>  -19.5425    1.0000 </r>
       <r>  -18.6526    1.0000 </r>
       <r>  -15.5843    1.0000 </r>
       <r>  -15.1647    1.0000 </r>
       <r>  -13.2573    1.0000 </r>
       <r>  -12.3139    1.0000 </r>
       <r>  -11.8681    1.0000 </r>
       <r>  -11.4042    1.0000 </r>
       <r>  -10.6936    1.0000 </r>
       <r>  -10.4987    1.0000 </r>
       <r>   -9.6243    1.0000 </r>
       <r>   -8.5525    1.0000 </r>
       <r>   -8.0393    1.0000 </r>
       <r>   -7.5761    1.0000 </r>
       <r>   -7.4388    1.0000 </r>
       <r>   -7.2001    1.0000 </r>
       <r>   -6.7782    1.0000 </r>
       <r>   -6.5335    1.0000 </r>
       <r>   -5.8252    1.0000 </r>
       <r>   -5.3651    1.0000 </r>
       <r>   -4.9783    0.1514 </r>
       <r>   -4.2075    0.0000 </r>
       <r>   -2.7874    0.0000 </r>
       <r>   -2.0802    0.0000 </r>
       <r>   -1.6574    0.0000 </r>
       <r>   -1.2036    0.0000 </r>
       <r>   -1.1467    0.0000 </r>
       <r>   -0.2081    0.0000 </r>
       <r>    0.6829    0.0000 </r>
       <r>    0.8477    0.0000 </r>
       <r>    1.2178    0.0000 </r>
       <r>    1.3015    0.0000 </r>
       <r>    1.3561    0.0000 </r>
       <r>    1.4209    0.0000 </r>
       <r>    1.7308    0.0000 </r>
       <r>    1.8763    0.0000 </r>
       <r>    1.9541    0.0000 </r>
       <r>    2.2059    0.0000 </r>
       <r>    2.2982    0.0000 </r>
       <r>    2.4897    0.0000 </r>
       <r>    2.7455    0.0000 </r>
       <r>    2.8520    0.0000 </r>
       <r>    2.9563    0.0000 </r>
       <r>    3.1991    0.0000 </r>
       <r>    3.2528    0.0000 </r>
       <r>    3.4111    0.0000 </r>
       <r>    3.5350    0.0000 </r>
       <r>    3.5658    0.0000 </r>
      </set>
      <set comment="kpoint 13">
       <r>  -19.4634    1.0000 </r>
       <r>  -18.7581    1.0000 </r>
       <r>  -15.6125    1.0000 </r>
       <r>  -15.1997    1.0000 </r>
       <r>  -13.1499    1.0000 </r>
       <r>  -12.1569    1.0000 </r>
       <r>  -11.7609    1.0000 </r>
       <r>  -11.6994    1.0000 </r>
       <r>  -10.8221    1.0000 </r>
       <r>  -10.1353    1.0000 </r>
       <r>   -9.4121    1.0000 </r>
       <r>   -8.8278    1.0000 </r>
       <r>   -8.1347    1.0000 </r>
       <r>   -7.5777    1.0000 </r>
       <r>   -7.4529    1.0000 </r>
       <r>   -7.2922    1.0000 </r>
       <r>   -6.7874    1.0000 </r>
       <r>   -6.5542    1.0000 </r>
       <r>   -5.7363    1.0000 </r>
       <r>   -5.3183    1.0000 </r>
       <r>   -5.0133    0.4839 </r>
       <r>   -4.7659    0.0000 </r>
       <r>   -2.7274    0.0000 </r>
       <r>   -2.1479    0.0000 </r>
       <r>   -1.3461    0.0000 </r>
       <r>   -0.9882    0.0000 </r>
       <r>   -0.9162    0.0000 </r>
       <r>    0.0974    0.0000 </r>
       <r>    0.6864    0.0000 </r>
       <r>    0.9899    0.0000 </r>
       <r>    1.0889    0.0000 </r>
       <r>    1.3373    0.0000 </r>
       <r>    1.4773    0.0000 </r>
       <r>    1.5273    0.0000 </r>
       <r>    1.7015    0.0000 </r>
       <r>    1.9086    0.0000 </r>
       <r>    1.9460    0.0000 </r>
       <r>    2.0695    0.0000 </r>
       <r>    2.4031    0.0000 </r>
       <r>    2.5438    0.0000 </r>
       <r>    2.7885    0.0000 </r>
       <r>    2.8731    0.0000 </r>
       <r>    2.9583    0.0000 </r>
       <r>    3.1429    0.0000 </r>
       <r>    3.3464    0.0000 </r>
       <r>    3.4395    0.0000 </r>
       <r>    3.6225    0.0000 </r>
       <r>    3.6433    0.0000 </r>
      </set>
      <set comment="kpoint 14">
       <r>  -19.3503    1.0000 </r>
       <r>  -18.8983    1.0000 </r>
       <r>  -15.5912    1.0000 </r>
       <r>  -15.2902    1.0000 </r>
       <r>  -12.9999    1.0000 </r>
       <r>  -12.2642    1.0000 </r>
       <r>  -11.6074    1.0000 </r>
       <r>  -11.5465    1.0000 </r>
       <r>  -11.0014    1.0000 </r>
       <r>   -9.9577    1.0000 </r>
       <r>   -9.5492    1.0000 </r>
       <r>   -8.7129    1.0000 </r>
       <r>   -8.1307    1.0000 </r>
       <r>   -7.7403    1.0000 </r>
       <r>   -7.6396    1.0000 </r>
       <r>   -7.1611    1.0000 </r>
       <r>   -6.8154    1.0000 </r>
       <r>   -6.3811    1.0000 </r>
       <r>   -5.7816    1.0000 </r>
       <r>   -5.4352    1.0000 </r>
       <r>   -5.2213    1.0000 </r>
       <r>   -5.0468    0.8180 </r>
       <r>   -2.6282    0.0000 </r>
       <r>   -2.2468    0.0000 </r>
       <r>   -0.8763    0.0000 </r>
       <r>   -0.6752    0.0000 </r>
       <r>   -0.6427    0.0000 </r>
       <r>    0.1875    0.0000 </r>
       <r>    0.5677    0.0000 </r>
       <r>    0.9245    0.0000 </r>
       <r>    0.9997    0.0000 </r>
       <r>    1.3457    0.0000 </r>
       <r>    1.5522    0.0000 </r>
       <r>    1.6407    0.0000 </r>
       <r>    1.7934    0.0000 </r>
       <r>    2.0067    0.0000 </r>
       <r>    2.0336    0.0000 </r>
       <r>    2.2935    0.0000 </r>
       <r>    2.4182    0.0000 </r>
       <r>    2.5139    0.0000 </r>
       <r>    2.5552    0.0000 </r>
       <r>    2.9172    0.0000 </r>
       <r>    2.9650    0.0000 </r>
       <r>    3.1079    0.0000 </r>
       <r>    3.1699    0.0000 </r>
       <r>    3.2406    0.0000 </r>
       <r>    3.3514    0.0000 </r>
       <r>    3.4918    0.0000 </r>
      </set>
      <set comment="kpoint 15">
       <r>  -19.2106    1.0000 </r>
       <r>  -19.0550    1.0000 </r>
       <r>  -15.5178    1.0000 </r>
       <r>  -15.4081    1.0000 </r>
       <r>  -12.7981    1.0000 </r>
       <r>  -12.5446    1.0000 </r>
       <r>  -11.4181    1.0000 </r>
       <r>  -11.2088    1.0000 </r>
       <r>  -11.0566    1.0000 </r>
       <r>  -10.4788    1.0000 </r>
       <r>   -9.1753    1.0000 </r>
       <r>   -8.8153    1.0000 </r>
       <r>   -8.0312    1.0000 </r>
       <r>   -7.8563    1.0000 </r>
       <r>   -7.6230    1.0000 </r>
       <r>   -7.3296    1.0000 </r>
       <r>   -6.5147    1.0000 </r>
       <r>   -6.1504    1.0000 </r>
       <r>   -6.0128    1.0000 </r>
       <r>   -5.9348    1.0000 </r>
       <r>   -5.1690    1.0000 </r>
       <r>   -5.1048    0.9946 </r>
       <r>   -2.5019    0.0000 </r>
       <r>   -2.3689    0.0000 </r>
       <r>   -0.3740    0.0000 </r>
       <r>   -0.3456    0.0000 </r>
       <r>   -0.3417    0.0000 </r>
       <r>   -0.0449    0.0000 </r>
       <r>    0.6500    0.0000 </r>
       <r>    0.6569    0.0000 </r>
       <r>    0.7820    0.0000 </r>
       <r>    0.8816    0.0000 </r>
       <r>    1.8292    0.0000 </r>
       <r>    1.8547    0.0000 </r>
       <r>    2.0782    0.0000 </r>
       <r>    2.1550    0.0000 </r>
       <r>    2.1864    0.0000 </r>
       <r>    2.3575    0.0000 </r>
       <r>    2.3774    0.0000 </r>
       <r>    2.5075    0.0000 </r>
       <r>    2.6323    0.0000 </r>
       <r>    2.6673    0.0000 </r>
       <r>    2.8093    0.0000 </r>
       <r>    2.9432    0.0000 </r>
       <r>    3.0590    0.0000 </r>
       <r>    3.1986    0.0000 </r>
       <r>    3.2498    0.0000 </r>
       <r>    3.3359    0.0000 </r>
      </set>
      <set comment="kpoint 16">
       <r>  -19.5482    1.0000 </r>
       <r>  -18.6542    1.0000 </r>
       <r>  -15.5270    1.0000 </r>
       <r>  -15.0673    1.0000 </r>
       <r>  -13.5911    1.0000 </r>
       <r>  -12.5750    1.0000 </r>
       <r>  -11.8387    1.0000 </r>
       <r>  -10.7986    1.0000 </r>
       <r>  -10.7373    1.0000 </r>
       <r>  -10.3447    1.0000 </r>
       <r>   -9.4822    1.0000 </r>
       <r>   -8.4508    1.0000 </r>
       <r>   -8.2892    1.0000 </r>
       <r>   -7.7587    1.0000 </r>
       <r>   -7.5164    1.0000 </r>
       <r>   -7.3338    1.0000 </r>
       <r>   -6.8330    1.0000 </r>
       <r>   -6.5664    1.0000 </r>
       <r>   -6.2407    1.0000 </r>
       <r>   -5.3549    1.0000 </r>
       <r>   -4.9896    0.2387 </r>
       <r>   -3.3812    0.0000 </r>
       <r>   -2.7127    0.0000 </r>
       <r>   -2.1571    0.0000 </r>
       <r>   -1.7109    0.0000 </r>
       <r>   -1.5293    0.0000 </r>
       <r>   -0.7015    0.0000 </r>
       <r>   -0.5146    0.0000 </r>
       <r>    0.8661    0.0000 </r>
       <r>    0.9661    0.0000 </r>
       <r>    1.4221    0.0000 </r>
       <r>    1.5137    0.0000 </r>
       <r>    1.5435    0.0000 </r>
       <r>    1.6454    0.0000 </r>
       <r>    1.7677    0.0000 </r>
       <r>    1.8986    0.0000 </r>
       <r>    2.0396    0.0000 </r>
       <r>    2.0611    0.0000 </r>
       <r>    2.2912    0.0000 </r>
       <r>    2.3443    0.0000 </r>
       <r>    2.5658    0.0000 </r>
       <r>    2.6039    0.0000 </r>
       <r>    2.7451    0.0000 </r>
       <r>    2.8715    0.0000 </r>
       <r>    2.9298    0.0000 </r>
       <r>    3.0163    0.0000 </r>
       <r>    3.2131    0.0000 </r>
       <r>    3.2803    0.0000 </r>
      </set>
      <set comment="kpoint 17">
       <r>  -19.5092    1.0000 </r>
       <r>  -18.7006    1.0000 </r>
       <r>  -15.5995    1.0000 </r>
       <r>  -15.1035    1.0000 </r>
       <r>  -13.4291    1.0000 </r>
       <r>  -12.4656    1.0000 </r>
       <r>  -11.7868    1.0000 </r>
       <r>  -11.0126    1.0000 </r>
       <r>  -10.8350    1.0000 </r>
       <r>  -10.1871    1.0000 </r>
       <r>   -9.3949    1.0000 </r>
       <r>   -8.6096    1.0000 </r>
       <r>   -8.1658    1.0000 </r>
       <r>   -7.9853    1.0000 </r>
       <r>   -7.5210    1.0000 </r>
       <r>   -7.3317    1.0000 </r>
       <r>   -6.8365    1.0000 </r>
       <r>   -6.6138    1.0000 </r>
       <r>   -5.9425    1.0000 </r>
       <r>   -5.3321    1.0000 </r>
       <r>   -5.0029    0.3693 </r>
       <r>   -3.9541    0.0000 </r>
       <r>   -2.7005    0.0000 </r>
       <r>   -2.1770    0.0000 </r>
       <r>   -1.5583    0.0000 </r>
       <r>   -1.1437    0.0000 </r>
       <r>   -0.7584    0.0000 </r>
       <r>   -0.2649    0.0000 </r>
       <r>    0.8688    0.0000 </r>
       <r>    1.0780    0.0000 </r>
       <r>    1.3523    0.0000 </r>
       <r>    1.3776    0.0000 </r>
       <r>    1.4947    0.0000 </r>
       <r>    1.6217    0.0000 </r>
       <r>    1.6686    0.0000 </r>
       <r>    1.9078    0.0000 </r>
       <r>    2.0066    0.0000 </r>
       <r>    2.1472    0.0000 </r>
       <r>    2.2839    0.0000 </r>
       <r>    2.3774    0.0000 </r>
       <r>    2.6805    0.0000 </r>
       <r>    2.6879    0.0000 </r>
       <r>    2.8561    0.0000 </r>
       <r>    2.9883    0.0000 </r>
       <r>    3.0705    0.0000 </r>
       <r>    3.1702    0.0000 </r>
       <r>    3.2572    0.0000 </r>
       <r>    3.5180    0.0000 </r>
      </set>
      <set comment="kpoint 18">
       <r>  -19.4336    1.0000 </r>
       <r>  -18.7893    1.0000 </r>
       <r>  -15.6650    1.0000 </r>
       <r>  -15.2071    1.0000 </r>
       <r>  -13.1466    1.0000 </r>
       <r>  -12.2428    1.0000 </r>
       <r>  -11.6865    1.0000 </r>
       <r>  -11.3663    1.0000 </r>
       <r>  -10.9139    1.0000 </r>
       <r>   -9.9655    1.0000 </r>
       <r>   -9.5997    1.0000 </r>
       <r>   -8.5779    1.0000 </r>
       <r>   -8.1698    1.0000 </r>
       <r>   -7.9243    1.0000 </r>
       <r>   -7.6175    1.0000 </r>
       <r>   -7.5711    1.0000 </r>
       <r>   -6.8017    1.0000 </r>
       <r>   -6.3794    1.0000 </r>
       <r>   -5.7157    1.0000 </r>
       <r>   -5.2910    1.0000 </r>
       <r>   -5.0371    0.7365 </r>
       <r>   -4.6967    0.0000 </r>
       <r>   -2.6706    0.0000 </r>
       <r>   -2.2272    0.0000 </r>
       <r>   -1.2515    0.0000 </r>
       <r>   -0.7667    0.0000 </r>
       <r>   -0.7307    0.0000 </r>
       <r>    0.0772    0.0000 </r>
       <r>    0.6554    0.0000 </r>
       <r>    0.9326    0.0000 </r>
       <r>    1.1624    0.0000 </r>
       <r>    1.3980    0.0000 </r>
       <r>    1.5715    0.0000 </r>
       <r>    1.7202    0.0000 </r>
       <r>    1.7825    0.0000 </r>
       <r>    1.8987    0.0000 </r>
       <r>    2.1725    0.0000 </r>
       <r>    2.2999    0.0000 </r>
       <r>    2.4217    0.0000 </r>
       <r>    2.4364    0.0000 </r>
       <r>    2.6745    0.0000 </r>
       <r>    2.8341    0.0000 </r>
       <r>    2.9164    0.0000 </r>
       <r>    3.0504    0.0000 </r>
       <r>    3.1712    0.0000 </r>
       <r>    3.2070    0.0000 </r>
       <r>    3.4121    0.0000 </r>
       <r>    3.4664    0.0000 </r>
      </set>
      <set comment="kpoint 19">
       <r>  -19.3263    1.0000 </r>
       <r>  -18.9112    1.0000 </r>
       <r>  -15.6745    1.0000 </r>
       <r>  -15.3544    1.0000 </r>
       <r>  -12.8156    1.0000 </r>
       <r>  -11.9624    1.0000 </r>
       <r>  -11.6520    1.0000 </r>
       <r>  -11.5456    1.0000 </r>
       <r>  -11.0389    1.0000 </r>
       <r>  -10.2195    1.0000 </r>
       <r>   -9.5258    1.0000 </r>
       <r>   -8.6000    1.0000 </r>
       <r>   -8.2496    1.0000 </r>
       <r>   -7.8442    1.0000 </r>
       <r>   -7.6193    1.0000 </r>
       <r>   -7.5388    1.0000 </r>
       <r>   -6.7975    1.0000 </r>
       <r>   -6.0925    1.0000 </r>
       <r>   -5.6207    1.0000 </r>
       <r>   -5.5134    1.0000 </r>
       <r>   -5.2143    1.0000 </r>
       <r>   -5.0462    0.8135 </r>
       <r>   -2.6116    0.0000 </r>
       <r>   -2.3087    0.0000 </r>
       <r>   -0.8444    0.0000 </r>
       <r>   -0.6537    0.0000 </r>
       <r>   -0.3833    0.0000 </r>
       <r>    0.3230    0.0000 </r>
       <r>    0.4233    0.0000 </r>
       <r>    0.5674    0.0000 </r>
       <r>    0.9115    0.0000 </r>
       <r>    1.6601    0.0000 </r>
       <r>    1.7683    0.0000 </r>
       <r>    1.7817    0.0000 </r>
       <r>    1.8235    0.0000 </r>
       <r>    2.0370    0.0000 </r>
       <r>    2.2455    0.0000 </r>
       <r>    2.3467    0.0000 </r>
       <r>    2.4158    0.0000 </r>
       <r>    2.5960    0.0000 </r>
       <r>    2.7534    0.0000 </r>
       <r>    3.0008    0.0000 </r>
       <r>    3.0493    0.0000 </r>
       <r>    3.0889    0.0000 </r>
       <r>    3.1481    0.0000 </r>
       <r>    3.3170    0.0000 </r>
       <r>    3.3268    0.0000 </r>
       <r>    3.3943    0.0000 </r>
      </set>
      <set comment="kpoint 20">
       <r>  -19.1952    1.0000 </r>
       <r>  -19.0519    1.0000 </r>
       <r>  -15.6169    1.0000 </r>
       <r>  -15.5025    1.0000 </r>
       <r>  -12.4817    1.0000 </r>
       <r>  -12.1527    1.0000 </r>
       <r>  -11.3772    1.0000 </r>
       <r>  -11.3300    1.0000 </r>
       <r>  -11.2004    1.0000 </r>
       <r>  -10.7803    1.0000 </r>
       <r>   -9.1888    1.0000 </r>
       <r>   -8.8519    1.0000 </r>
       <r>   -8.2122    1.0000 </r>
       <r>   -8.0692    1.0000 </r>
       <r>   -7.3854    1.0000 </r>
       <r>   -7.2718    1.0000 </r>
       <r>   -6.7122    1.0000 </r>
       <r>   -6.2061    1.0000 </r>
       <r>   -5.8417    1.0000 </r>
       <r>   -5.6711    1.0000 </r>
       <r>   -5.1585    1.0000 </r>
       <r>   -5.1004    0.9923 </r>
       <r>   -2.5205    0.0000 </r>
       <r>   -2.4121    0.0000 </r>
       <r>   -0.5543    0.0000 </r>
       <r>   -0.4504    0.0000 </r>
       <r>   -0.0860    0.0000 </r>
       <r>    0.1746    0.0000 </r>
       <r>    0.4912    0.0000 </r>
       <r>    0.5022    0.0000 </r>
       <r>    0.6659    0.0000 </r>
       <r>    1.0208    0.0000 </r>
       <r>    1.9889    0.0000 </r>
       <r>    2.0133    0.0000 </r>
       <r>    2.0954    0.0000 </r>
       <r>    2.2435    0.0000 </r>
       <r>    2.2762    0.0000 </r>
       <r>    2.3974    0.0000 </r>
       <r>    2.5509    0.0000 </r>
       <r>    2.5907    0.0000 </r>
       <r>    2.8501    0.0000 </r>
       <r>    2.9003    0.0000 </r>
       <r>    2.9516    0.0000 </r>
       <r>    3.1132    0.0000 </r>
       <r>    3.1799    0.0000 </r>
       <r>    3.2348    0.0000 </r>
       <r>    3.3271    0.0000 </r>
       <r>    3.3385    0.0000 </r>
      </set>
      <set comment="kpoint 21">
       <r>  -19.5231    1.0000 </r>
       <r>  -18.6943    1.0000 </r>
       <r>  -15.5169    1.0000 </r>
       <r>  -14.9848    1.0000 </r>
       <r>  -13.7620    1.0000 </r>
       <r>  -12.6758    1.0000 </r>
       <r>  -11.7692    1.0000 </r>
       <r>  -10.9198    1.0000 </r>
       <r>  -10.5158    1.0000 </r>
       <r>   -9.9052    1.0000 </r>
       <r>   -9.1899    1.0000 </r>
       <r>   -8.7121    1.0000 </r>
       <r>   -8.5102    1.0000 </r>
       <r>   -8.0643    1.0000 </r>
       <r>   -7.6522    1.0000 </r>
       <r>   -7.1274    1.0000 </r>
       <r>   -6.8119    1.0000 </r>
       <r>   -6.6717    1.0000 </r>
       <r>   -6.4989    1.0000 </r>
       <r>   -5.3205    1.0000 </r>
       <r>   -5.0193    0.5509 </r>
       <r>   -3.1296    0.0000 </r>
       <r>   -2.6182    0.0000 </r>
       <r>   -2.2560    0.0000 </r>
       <r>   -1.6457    0.0000 </r>
       <r>   -1.6316    0.0000 </r>
       <r>   -0.5627    0.0000 </r>
       <r>    0.0297    0.0000 </r>
       <r>    0.9017    0.0000 </r>
       <r>    1.0016    0.0000 </r>
       <r>    1.2741    0.0000 </r>
       <r>    1.5383    0.0000 </r>
       <r>    1.7523    0.0000 </r>
       <r>    1.7663    0.0000 </r>
       <r>    1.8283    0.0000 </r>
       <r>    1.9231    0.0000 </r>
       <r>    2.0646    0.0000 </r>
       <r>    2.1778    0.0000 </r>
       <r>    2.1831    0.0000 </r>
       <r>    2.2549    0.0000 </r>
       <r>    2.4223    0.0000 </r>
       <r>    2.4459    0.0000 </r>
       <r>    2.4958    0.0000 </r>
       <r>    2.7816    0.0000 </r>
       <r>    2.7913    0.0000 </r>
       <r>    2.9528    0.0000 </r>
       <r>    2.9754    0.0000 </r>
       <r>    3.2812    0.0000 </r>
      </set>
      <set comment="kpoint 22">
       <r>  -19.4853    1.0000 </r>
       <r>  -18.7341    1.0000 </r>
       <r>  -15.6013    1.0000 </r>
       <r>  -15.0748    1.0000 </r>
       <r>  -13.5085    1.0000 </r>
       <r>  -12.5729    1.0000 </r>
       <r>  -11.7200    1.0000 </r>
       <r>  -10.9394    1.0000 </r>
       <r>  -10.7144    1.0000 </r>
       <r>   -9.8282    1.0000 </r>
       <r>   -9.4556    1.0000 </r>
       <r>   -8.6635    1.0000 </r>
       <r>   -8.3501    1.0000 </r>
       <r>   -7.9058    1.0000 </r>
       <r>   -7.8974    1.0000 </r>
       <r>   -7.4075    1.0000 </r>
       <r>   -6.8529    1.0000 </r>
       <r>   -6.4330    1.0000 </r>
       <r>   -6.1630    1.0000 </r>
       <r>   -5.3019    1.0000 </r>
       <r>   -5.0280    0.6465 </r>
       <r>   -3.8573    0.0000 </r>
       <r>   -2.6125    0.0000 </r>
       <r>   -2.2691    0.0000 </r>
       <r>   -1.4981    0.0000 </r>
       <r>   -1.0314    0.0000 </r>
       <r>   -0.3586    0.0000 </r>
       <r>   -0.1552    0.0000 </r>
       <r>    0.6205    0.0000 </r>
       <r>    0.8437    0.0000 </r>
       <r>    1.4260    0.0000 </r>
       <r>    1.4936    0.0000 </r>
       <r>    1.7724    0.0000 </r>
       <r>    1.8951    0.0000 </r>
       <r>    1.9224    0.0000 </r>
       <r>    1.9530    0.0000 </r>
       <r>    2.0448    0.0000 </r>
       <r>    2.1117    0.0000 </r>
       <r>    2.2980    0.0000 </r>
       <r>    2.3218    0.0000 </r>
       <r>    2.4012    0.0000 </r>
       <r>    2.5431    0.0000 </r>
       <r>    2.6067    0.0000 </r>
[...]
       <r>   -9.4274    1.0000 </r>
       <r>   -8.5621    1.0000 </r>
       <r>   -8.2819    1.0000 </r>
       <r>   -8.0006    1.0000 </r>
       <r>   -7.8582    1.0000 </r>
       <r>   -7.4459    1.0000 </r>
       <r>   -6.7981    1.0000 </r>
       <r>   -5.8115    1.0000 </r>
       <r>   -5.6328    1.0000 </r>
       <r>   -5.5847    1.0000 </r>
       <r>   -5.2119    1.0000 </r>
       <r>   -5.0447    0.8014 </r>
       <r>   -2.5767    0.0000 </r>
       <r>   -2.3749    0.0000 </r>
       <r>   -0.8622    0.0000 </r>
       <r>   -0.4567    0.0000 </r>
       <r>   -0.0975    0.0000 </r>
       <r>    0.1585    0.0000 </r>
       <r>    0.1609    0.0000 </r>
       <r>    0.4201    0.0000 </r>
       <r>    0.8699    0.0000 </r>
       <r>    1.7807    0.0000 </r>
       <r>    1.8644    0.0000 </r>
       <r>    1.9604    0.0000 </r>
       <r>    2.1000    0.0000 </r>
       <r>    2.2208    0.0000 </r>
       <r>    2.2808    0.0000 </r>
       <r>    2.3817    0.0000 </r>
       <r>    2.5548    0.0000 </r>
       <r>    2.6128    0.0000 </r>
       <r>    2.8126    0.0000 </r>
       <r>    2.9086    0.0000 </r>
       <r>    2.9387    0.0000 </r>
       <r>    3.0408    0.0000 </r>
       <r>    3.1417    0.0000 </r>
       <r>    3.1968    0.0000 </r>
       <r>    3.2361    0.0000 </r>
       <r>    3.3571    0.0000 </r>
      </set>
      <set comment="kpoint 25">
       <r>  -19.1846    1.0000 </r>
       <r>  -19.0503    1.0000 </r>
       <r>  -15.6733    1.0000 </r>
       <r>  -15.5629    1.0000 </r>
       <r>  -12.1134    1.0000 </r>
       <r>  -11.8325    1.0000 </r>
       <r>  -11.5916    1.0000 </r>
       <r>  -11.3465    1.0000 </r>
       <r>  -11.1978    1.0000 </r>
       <r>  -11.1398    1.0000 </r>
       <r>   -9.1621    1.0000 </r>
       <r>   -8.8600    1.0000 </r>
       <r>   -8.3017    1.0000 </r>
       <r>   -8.2011    1.0000 </r>
       <r>   -7.3511    1.0000 </r>
       <r>   -7.2254    1.0000 </r>
       <r>   -6.7525    1.0000 </r>
       <r>   -6.3320    1.0000 </r>
       <r>   -5.6151    1.0000 </r>
       <r>   -5.5495    1.0000 </r>
       <r>   -5.1533    1.0000 </r>
       <r>   -5.0966    0.9897 </r>
       <r>   -2.5298    0.0000 </r>
       <r>   -2.4572    0.0000 </r>
       <r>   -0.6450    0.0000 </r>
       <r>   -0.5324    0.0000 </r>
       <r>    0.0829    0.0000 </r>
       <r>    0.2166    0.0000 </r>
       <r>    0.3950    0.0000 </r>
       <r>    0.4327    0.0000 </r>
       <r>    0.5948    0.0000 </r>
       <r>    1.0920    0.0000 </r>
       <r>    2.0425    0.0000 </r>
       <r>    2.1350    0.0000 </r>
       <r>    2.2093    0.0000 </r>
       <r>    2.2297    0.0000 </r>
       <r>    2.4341    0.0000 </r>
       <r>    2.7323    0.0000 </r>
       <r>    2.8009    0.0000 </r>
       <r>    2.8401    0.0000 </r>
       <r>    2.8428    0.0000 </r>
       <r>    2.9888    0.0000 </r>
       <r>    3.0893    0.0000 </r>
       <r>    3.1535    0.0000 </r>
       <r>    3.1593    0.0000 </r>
       <r>    3.1869    0.0000 </r>
       <r>    3.2899    0.0000 </r>
       <r>    3.3273    0.0000 </r>
      </set>
     </set>
    </set>
   </array>
  </eigenvalues>
  <separator name="orbital magnetization" >
   <v name="MAGDIPOLOUT">      0.00000000      0.00000000      0.00000000</v>
  </separator>
  <dos>
   <i name="efermi">     -5.01472483 </i>
   <total>
    <array>
     <dimension dim="1">gridpoints</dimension>
     <dimension dim="2">spin</dimension>
     <field>energy</field>
     <field>total</field>
     <field>integrated</field>
     <set>
      <set comment="spin 1">
       <r>   -20.8040     0.0000     0.0000 </r>
       <r>   -20.7173     0.0000     0.0000 </r>
       <r>   -20.6306     0.0000     0.0000 </r>
       <r>   -20.5438     0.0000     0.0000 </r>
       <r>   -20.4571     0.0000     0.0000 </r>
       <r>   -20.3704     0.0000     0.0000 </r>
       <r>   -20.2837     0.0000     0.0000 </r>
       <r>   -20.1969     0.0000     0.0000 </r>
       <r>   -20.1102     0.0000     0.0000 </r>
       <r>   -20.0235     0.0000     0.0000 </r>
       <r>   -19.9368     0.0000     0.0000 </r>
       <r>   -19.8501     0.0000     0.0000 </r>
       <r>   -19.7633     0.0000     0.0000 </r>
       <r>   -19.6766     0.0701     0.0061 </r>
       <r>   -19.5899     2.2681     0.2028 </r>
       <r>   -19.5032     5.8646     0.7114 </r>
       <r>   -19.4165     4.7998     1.1276 </r>
       <r>   -19.3297     3.6845     1.4471 </r>
       <r>   -19.2430     2.5155     1.6653 </r>
       <r>   -19.1563     3.4092     1.9609 </r>
       <r>   -19.0696     1.9971     2.1341 </r>
       <r>   -18.9829     3.0424     2.3979 </r>
       <r>   -18.8961     2.6509     2.6278 </r>
       <r>   -18.8094     2.9002     2.8793 </r>
       <r>   -18.7227     4.0408     3.2298 </r>
       <r>   -18.6360     4.5249     3.6222 </r>
       <r>   -18.5492     3.2705     3.9058 </r>
       <r>   -18.4625     1.0616     3.9978 </r>
       <r>   -18.3758     0.0248     4.0000 </r>
       <r>   -18.2891     0.0000     4.0000 </r>
       <r>   -18.2024     0.0000     4.0000 </r>
       <r>   -18.1156     0.0000     4.0000 </r>
       <r>   -18.0289     0.0000     4.0000 </r>
       <r>   -17.9422     0.0000     4.0000 </r>
       <r>   -17.8555     0.0000     4.0000 </r>
       <r>   -17.7688     0.0000     4.0000 </r>
       <r>   -17.6820     0.0000     4.0000 </r>
       <r>   -17.5953     0.0000     4.0000 </r>
       <r>   -17.5086     0.0000     4.0000 </r>
       <r>   -17.4219     0.0000     4.0000 </r>
       <r>   -17.3352     0.0000     4.0000 </r>
       <r>   -17.2484     0.0000     4.0000 </r>
       <r>   -17.1617     0.0000     4.0000 </r>
       <r>   -17.0750     0.0000     4.0000 </r>
       <r>   -16.9883     0.0000     4.0000 </r>
       <r>   -16.9015     0.0000     4.0000 </r>
       <r>   -16.8148     0.0000     4.0000 </r>
       <r>   -16.7281     0.0000     4.0000 </r>
       <r>   -16.6414     0.0000     4.0000 </r>
       <r>   -16.5547     0.0000     4.0000 </r>
       <r>   -16.4679     0.0000     4.0000 </r>
       <r>   -16.3812     0.0000     4.0000 </r>
       <r>   -16.2945     0.0000     4.0000 </r>
       <r>   -16.2078     0.0000     4.0000 </r>
       <r>   -16.1211     0.0000     4.0000 </r>
       <r>   -16.0343     0.0000     4.0000 </r>
       <r>   -15.9476     0.0000     4.0000 </r>
       <r>   -15.8609     0.0000     4.0000 </r>
       <r>   -15.7742     0.0669     4.0058 </r>
       <r>   -15.6875     2.3105     4.2062 </r>
       <r>   -15.6007     6.2183     4.7454 </r>
       <r>   -15.5140    10.0717     5.6189 </r>
       <r>   -15.4273     5.4549     6.0919 </r>
       <r>   -15.3406     4.0720     6.4450 </r>
       <r>   -15.2538     6.1535     6.9787 </r>
       <r>   -15.1671     6.3397     7.5285 </r>
       <r>   -15.0804     2.9015     7.7801 </r>
       <r>   -14.9937     1.8909     7.9441 </r>
       <r>   -14.9070     0.6308     7.9988 </r>
       <r>   -14.8202     0.0142     8.0000 </r>
       <r>   -14.7335     0.0000     8.0000 </r>
       <r>   -14.6468     0.0000     8.0000 </r>
       <r>   -14.5601     0.0000     8.0000 </r>
       <r>   -14.4734     0.0000     8.0000 </r>
       <r>   -14.3866     0.0000     8.0000 </r>
       <r>   -14.2999     0.0000     8.0000 </r>
       <r>   -14.2132     0.0000     8.0000 </r>
       <r>   -14.1265     0.0000     8.0000 </r>
       <r>   -14.0398     0.0000     8.0000 </r>
       <r>   -13.9530     0.0000     8.0000 </r>
       <r>   -13.8663     0.0016     8.0001 </r>
       <r>   -13.7796     0.3158     8.0275 </r>
       <r>   -13.6929     0.6837     8.0868 </r>
       <r>   -13.6061     0.3698     8.1189 </r>
       <r>   -13.5194     1.0510     8.2100 </r>
       <r>   -13.4327     1.1085     8.3062 </r>
       <r>   -13.3460     0.8023     8.3757 </r>
       <r>   -13.2593     1.2396     8.4832 </r>
       <r>   -13.1725     1.0806     8.5769 </r>
       <r>   -13.0858     2.3282     8.7789 </r>
       <r>   -12.9991     5.3121     9.2395 </r>
       <r>   -12.9124     2.9777     9.4977 </r>
       <r>   -12.8257     2.6405     9.7267 </r>
       <r>   -12.7389     2.1683     9.9148 </r>
       <r>   -12.6522     1.6310    10.0562 </r>
       <r>   -12.5655     3.0790    10.3232 </r>
       <r>   -12.4788     2.8210    10.5679 </r>
       <r>   -12.3921     2.9727    10.8257 </r>
       <r>   -12.3053     2.6678    11.0570 </r>
       <r>   -12.2186     2.9030    11.3088 </r>
       <r>   -12.1319     3.3832    11.6022 </r>
       <r>   -12.0452     2.2614    11.7983 </r>
       <r>   -11.9584     2.6365    12.0269 </r>
       <r>   -11.8717     3.5482    12.3346 </r>
       <r>   -11.7850     4.6598    12.7387 </r>
       <r>   -11.6983     5.8577    13.2467 </r>
       <r>   -11.6116     6.5704    13.8165 </r>
       <r>   -11.5248     3.8207    14.1478 </r>
       <r>   -11.4381     3.5457    14.4553 </r>
       <r>   -11.3514     6.1817    14.9914 </r>
       <r>   -11.2647     3.1875    15.2678 </r>
       <r>   -11.1780     3.9983    15.6146 </r>
       <r>   -11.0912     3.1309    15.8861 </r>
       <r>   -11.0045     5.9903    16.4056 </r>
       <r>   -10.9178     5.3621    16.8706 </r>
       <r>   -10.8311     3.7130    17.1926 </r>
       <r>   -10.7444     5.4235    17.6629 </r>
       <r>   -10.6576     4.7053    18.0709 </r>
       <r>   -10.5709     2.2337    18.2647 </r>
       <r>   -10.4842     3.9677    18.6087 </r>
       <r>   -10.3975     2.2538    18.8042 </r>
       <r>   -10.3107     1.6985    18.9515 </r>
       <r>   -10.2240     3.0183    19.2132 </r>
       <r>   -10.1373     3.2795    19.4976 </r>
       <r>   -10.0506     0.8945    19.5752 </r>
       <r>    -9.9639     2.2868    19.7735 </r>
       <r>    -9.8771     3.9184    20.1133 </r>
       <r>    -9.7904     2.3627    20.3182 </r>
       <r>    -9.7037     0.4656    20.3586 </r>
       <r>    -9.6170     1.6385    20.5007 </r>
       <r>    -9.5303     3.1310    20.7722 </r>
       <r>    -9.4435     4.0900    21.1269 </r>
       <r>    -9.3568     3.7402    21.4513 </r>
       <r>    -9.2701     0.6763    21.5099 </r>
       <r>    -9.1834     1.8794    21.6729 </r>
       <r>    -9.0967     2.6754    21.9049 </r>
       <r>    -9.0099     1.2969    22.0174 </r>
       <r>    -8.9232     1.0393    22.1075 </r>
       <r>    -8.8365     3.8651    22.4427 </r>
       <r>    -8.7498     3.3774    22.7356 </r>
       <r>    -8.6630     2.7451    22.9736 </r>
       <r>    -8.5763     3.3380    23.2631 </r>
       <r>    -8.4896     3.2625    23.5460 </r>
       <r>    -8.4029     2.8611    23.7942 </r>
       <r>    -8.3162     2.6050    24.0201 </r>
       <r>    -8.2294     5.1236    24.4644 </r>
       <r>    -8.1427     5.5594    24.9465 </r>
       <r>    -8.0560     5.3505    25.4105 </r>
       <r>    -7.9693     6.0258    25.9331 </r>
       <r>    -7.8826     7.2948    26.5657 </r>
       <r>    -7.7958     7.3139    27.1999 </r>
       <r>    -7.7091     6.0780    27.7270 </r>
       <r>    -7.6224     8.7999    28.4902 </r>
       <r>    -7.5357     9.4762    29.3120 </r>
       <r>    -7.4490     5.5860    29.7964 </r>
       <r>    -7.3622     5.1683    30.2446 </r>
       <r>    -7.2755     4.9159    30.6709 </r>
       <r>    -7.1888     3.3914    30.9650 </r>
       <r>    -7.1021     4.4122    31.3476 </r>
       <r>    -7.0153     1.9310    31.5151 </r>
       <r>    -6.9286     2.2334    31.7088 </r>
       <r>    -6.8419     5.8814    32.2188 </r>
       <r>    -6.7552    10.1173    33.0962 </r>
       <r>    -6.6685     3.2590    33.3788 </r>
       <r>    -6.5817     3.2639    33.6619 </r>
       <r>    -6.4950     6.8673    34.2574 </r>
       <r>    -6.4083     5.4665    34.7315 </r>
       <r>    -6.3216     5.0802    35.1720 </r>
       <r>    -6.2349     4.5382    35.5656 </r>
       <r>    -6.1481     4.2654    35.9355 </r>
       <r>    -6.0614     4.7239    36.3451 </r>
       <r>    -5.9747     3.8947    36.6829 </r>
       <r>    -5.8880     4.5223    37.0751 </r>
       <r>    -5.8013     6.0981    37.6039 </r>
       <r>    -5.7145     3.3697    37.8961 </r>
       <r>    -5.6278     3.0866    38.1638 </r>
       <r>    -5.5411     3.4089    38.4594 </r>
       <r>    -5.4544     2.0686    38.6388 </r>
       <r>    -5.3676     6.2191    39.1781 </r>
       <r>    -5.2809     8.0265    39.8742 </r>
       <r>    -5.1942     6.2337    40.4148 </r>
       <r>    -5.1075     6.7557    41.0007 </r>
       <r>    -5.0208    10.6292    41.9224 </r>
       <r>    -4.9340    10.1799    42.8053 </r>
       <r>    -4.8473     1.5827    42.9425 </r>
       <r>    -4.7606     1.0223    43.0312 </r>
       <r>    -4.6739     2.1667    43.2191 </r>
       <r>    -4.5872     1.3321    43.3346 </r>
       <r>    -4.5004     0.4923    43.3773 </r>
       <r>    -4.4137     0.2203    43.3964 </r>
       <r>    -4.3270     0.7595    43.4622 </r>
       <r>    -4.2403     0.2324    43.4824 </r>
       <r>    -4.1536     0.7785    43.5499 </r>
       <r>    -4.0668     0.0658    43.5556 </r>
       <r>    -3.9801     0.2363    43.5761 </r>
       <r>    -3.8934     0.9943    43.6623 </r>
       <r>    -3.8067     1.6303    43.8037 </r>
       <r>    -3.7199     0.2131    43.8222 </r>
       <r>    -3.6332     0.0002    43.8222 </r>
       <r>    -3.5465     0.0000    43.8222 </r>
       <r>    -3.4598     0.0134    43.8234 </r>
       <r>    -3.3731     0.5922    43.8747 </r>
       <r>    -3.2863     0.4157    43.9108 </r>
       <r>    -3.1996     0.0282    43.9132 </r>
       <r>    -3.1129     0.6743    43.9717 </r>
       <r>    -3.0262     0.3247    43.9999 </r>
       <r>    -2.9395     0.1410    44.0121 </r>
       <r>    -2.8527     1.9184    44.1785 </r>
       <r>    -2.7660     3.4701    44.4794 </r>
       <r>    -2.6793     4.3684    44.8582 </r>
       <r>    -2.5926     6.2807    45.4029 </r>
       <r>    -2.5059     4.7225    45.8124 </r>
       <r>    -2.4191     3.6356    46.1277 </r>
       <r>    -2.3324     3.8422    46.4609 </r>
       <r>    -2.2457     4.7644    46.8741 </r>
       <r>    -2.1590     4.7283    47.2841 </r>
       <r>    -2.0722     3.6518    47.6008 </r>
       <r>    -1.9855     3.2568    47.8833 </r>
       <r>    -1.8988     2.1566    48.0703 </r>
       <r>    -1.8121     1.9264    48.2373 </r>
       <r>    -1.7254     2.4107    48.4464 </r>
       <r>    -1.6386     3.1999    48.7239 </r>
       <r>    -1.5519     2.3815    48.9304 </r>
       <r>    -1.4652     3.1450    49.2032 </r>
       <r>    -1.3785     2.0328    49.3794 </r>
       <r>    -1.2918     2.2283    49.5727 </r>
       <r>    -1.2050     2.9122    49.8252 </r>
       <r>    -1.1183     2.5769    50.0487 </r>
       <r>    -1.0316     1.4284    50.1726 </r>
       <r>    -0.9449     5.4586    50.6459 </r>
       <r>    -0.8582     4.6558    51.0497 </r>
       <r>    -0.7714     4.4843    51.4386 </r>
       <r>    -0.6847     4.4533    51.8248 </r>
       <r>    -0.5980     4.4112    52.2073 </r>
       <r>    -0.5113     4.6098    52.6071 </r>
       <r>    -0.4245     6.1463    53.1401 </r>
       <r>    -0.3378     7.4055    53.7823 </r>
       <r>    -0.2511     5.2416    54.2369 </r>
       <r>    -0.1644     2.8724    54.4860 </r>
       <r>    -0.0777     4.0897    54.8406 </r>
       <r>     0.0091     3.7949    55.1697 </r>
       <r>     0.0958     3.0347    55.4329 </r>
       <r>     0.1825     4.4692    55.8205 </r>
       <r>     0.2692     3.7898    56.1491 </r>
       <r>     0.3559     3.0173    56.4108 </r>
       <r>     0.4427     4.2414    56.7786 </r>
       <r>     0.5294     4.1519    57.1387 </r>
       <r>     0.6161     5.2369    57.5928 </r>
       <r>     0.7028     9.8711    58.4488 </r>
       <r>     0.7895     5.5182    58.9274 </r>
       <r>     0.8763     8.7529    59.6865 </r>
       <r>     0.9630    10.2791    60.5779 </r>
       <r>     1.0497     8.6971    61.3321 </r>
       <r>     1.1364     7.3216    61.9670 </r>
       <r>     1.2232     5.8307    62.4727 </r>
       <r>     1.3099     6.6585    63.0501 </r>
       <r>     1.3966     9.5598    63.8791 </r>
       <r>     1.4833     8.5809    64.6233 </r>
       <r>     1.5700    10.0238    65.4926 </r>
       <r>     1.6568    11.2635    66.4693 </r>
       <r>     1.7435    12.9424    67.5917 </r>
       <r>     1.8302    13.0212    68.7209 </r>
       <r>     1.9169    13.0156    69.8496 </r>
       <r>     2.0036    14.6037    71.1161 </r>
       <r>     2.0904    14.8817    72.4067 </r>
       <r>     2.1771    12.9634    73.5308 </r>
       <r>     2.2638    15.9084    74.9104 </r>
       <r>     2.3505    16.9813    76.3831 </r>
       <r>     2.4372    18.9591    78.0272 </r>
       <r>     2.5240    14.9896    79.3271 </r>
       <r>     2.6107    16.8621    80.7894 </r>
       <r>     2.6974    14.6334    82.0585 </r>
       <r>     2.7841    14.4177    83.3088 </r>
       <r>     2.8709    15.5809    84.6600 </r>
       <r>     2.9576    18.2541    86.2430 </r>
       <r>     3.0443    14.9178    87.5367 </r>
       <r>     3.1310    14.3742    88.7832 </r>
       <r>     3.2177    17.2490    90.2791 </r>
       <r>     3.3045    18.4366    91.8779 </r>
       <r>     3.3912    14.5732    93.1417 </r>
       <r>     3.4779     9.3404    93.9517 </r>
       <r>     3.5646     7.8043    94.6285 </r>
       <r>     3.6513     6.5850    95.1996 </r>
       <r>     3.7381     4.6012    95.5986 </r>
       <r>     3.8248     1.5455    95.7326 </r>
       <r>     3.9115     1.6187    95.8730 </r>
       <r>     3.9982     1.0136    95.9609 </r>
       <r>     4.0849     0.4203    95.9974 </r>
       <r>     4.1717     0.0304    96.0000 </r>
       <r>     4.2584     0.0000    96.0000 </r>
       <r>     4.3451     0.0000    96.0000 </r>
       <r>     4.4318     0.0000    96.0000 </r>
       <r>     4.5185     0.0000    96.0000 </r>
       <r>     4.6053     0.0000    96.0000 </r>
       <r>     4.6920     0.0000    96.0000 </r>
       <r>     4.7787     0.0000    96.0000 </r>
       <r>     4.8654     0.0000    96.0000 </r>
       <r>     4.9522     0.0000    96.0000 </r>
       <r>     5.0389     0.0000    96.0000 </r>
       <r>     5.1256     0.0000    96.0000 </r>
       <r>     5.2123     0.0000    96.0000 </r>
      </set>
     </set>
    </array>
   </total>
  </dos>
 </calculation>
 <structure name="finalpos" >
  <crystal>
   <varray name="basis" >
    <v>       5.70097065       0.00000000       0.00000000 </v>
    <v>       0.00000000       6.20187140       0.00000000 </v>
    <v>       0.00000000       0.00000000      34.04405832 </v>
   </varray>
   <i name="volume">   1203.68510741 </i>
   <varray name="rec_basis" >
    <v>       0.17540873       0.00000000       0.00000000 </v>
    <v>       0.00000000       0.16124165       0.00000000 </v>
    <v>       0.00000000       0.00000000       0.02937370 </v>
   </varray>
  </crystal>
  <varray name="positions" >
   <v>       0.52128989       0.63795769       0.05939448 </v>
   <v>       0.47871011       0.36204231       0.05939448 </v>
   <v>       0.97871011       0.63795769       0.05939448 </v>
   <v>       0.02128989       0.36204231       0.05939448 </v>
   <v>       0.59744966       0.89986831       0.05939448 </v>
   <v>       0.40255034       0.10013168       0.05939448 </v>
   <v>       0.90255034       0.89986831       0.05939448 </v>
   <v>       0.09744966       0.10013168       0.05939448 </v>
   <v>       0.75000000       0.72957939       0.09402918 </v>
   <v>       0.25000000       0.27042061       0.02475979 </v>
   <v>       0.75000000       0.72957939       0.02475979 </v>
   <v>       0.25000000       0.27042061       0.09402918 </v>
   <v>       0.25000000       0.52399302       0.05939448 </v>
   <v>       0.75000000       0.47600695       0.05939448 </v>
  </varray>
 </structure>
</modeling>
