Convergence                             
           1
     5.700971    0.000000    0.000000
     0.000000    6.201871    0.000000
     0.000000    0.000000   34.044058
   B 
    14
Direct configuration=     1
   0.52128989  0.63795769  0.05939448
   0.47871011  0.36204231  0.05939448
   0.97871011  0.63795769  0.05939448
   0.02128989  0.36204231  0.05939448
   0.59744966  0.89986831  0.05939448
   0.40255034  0.10013168  0.05939448
   0.90255034  0.89986831  0.05939448
   0.09744966  0.10013168  0.05939448
   0.75000000  0.72957939  0.09402918
   0.25000000  0.27042061  0.02475979
   0.75000000  0.72957939  0.02475979
   0.25000000  0.27042061  0.09402918
   0.25000000  0.52399302  0.05939448
   0.75000000  0.47600695  0.05939448
