  14  14   0   0
  0.1021960E+02  0.5697000E-09  0.4047900E-09  0.6204200E-09  0.5000000E-15
  1.000000000000000E-004
  CAR 
 Kpoints                                 
     17.99042342    -14.19174202  301      1.89878614      1.00000000
    -14.192  0.0000E+00  0.0000E+00
    -14.084  0.0000E+00  0.0000E+00
    -13.977  0.0000E+00  0.0000E+00
    -13.870  0.0000E+00  0.0000E+00
    -13.763  0.0000E+00  0.0000E+00
    -13.655  0.0000E+00  0.0000E+00
    -13.548  0.0000E+00  0.0000E+00
    -13.441  0.0000E+00  0.0000E+00
    -13.334  0.0000E+00  0.0000E+00
    -13.226  0.0000E+00  0.0000E+00
    -13.119  0.0000E+00  0.0000E+00
    -13.012  0.4271E-16  0.4582E-17
    -12.904  0.2919E-07  0.3131E-08
    -12.797  0.3807E-02  0.4084E-03
    -12.690  0.5072E+00  0.5482E-01
    -12.583  0.2376E+01  0.3097E+00
    -12.475  0.3545E+01  0.6900E+00
    -12.368  0.4354E+01  0.1157E+01
    -12.261  0.3535E+01  0.1536E+01
    -12.154  0.2731E+01  0.1829E+01
    -12.046  0.2743E+01  0.2124E+01
    -11.939  0.2487E+01  0.2390E+01
    -11.832  0.2769E+01  0.2687E+01
    -11.724  0.3382E+01  0.3050E+01
    -11.617  0.3525E+01  0.3428E+01
    -11.510  0.3139E+01  0.3765E+01
    -11.403  0.1714E+01  0.3949E+01
    -11.295  0.4659E+00  0.3999E+01
    -11.188  0.1047E-01  0.4000E+01
    -11.081  0.3966E-06  0.4000E+01
    -10.974  0.3450E-14  0.4000E+01
    -10.866  0.0000E+00  0.4000E+01
    -10.759  0.0000E+00  0.4000E+01
    -10.652  0.0000E+00  0.4000E+01
    -10.544  0.0000E+00  0.4000E+01
    -10.437  0.0000E+00  0.4000E+01
    -10.330  0.0000E+00  0.4000E+01
    -10.223  0.0000E+00  0.4000E+01
    -10.115  0.0000E+00  0.4000E+01
    -10.008  0.0000E+00  0.4000E+01
     -9.901  0.0000E+00  0.4000E+01
     -9.794  0.0000E+00  0.4000E+01
     -9.686  0.0000E+00  0.4000E+01
     -9.579  0.0000E+00  0.4000E+01
     -9.472  0.0000E+00  0.4000E+01
     -9.364  0.0000E+00  0.4000E+01
     -9.257  0.0000E+00  0.4000E+01
     -9.150  0.0000E+00  0.4000E+01
     -9.043  0.7906E-09  0.4000E+01
     -8.935  0.5732E-03  0.4000E+01
     -8.828  0.2690E+00  0.4029E+01
     -8.721  0.2073E+01  0.4251E+01
     -8.614  0.5295E+01  0.4819E+01
     -8.506  0.6969E+01  0.5567E+01
     -8.399  0.6307E+01  0.6243E+01
     -8.292  0.5314E+01  0.6813E+01
     -8.184  0.4835E+01  0.7332E+01
     -8.077  0.3882E+01  0.7749E+01
     -7.970  0.1684E+01  0.7929E+01
     -7.863  0.6004E+00  0.7994E+01
     -7.755  0.5951E-01  0.8000E+01
     -7.648  0.3555E-04  0.8000E+01
     -7.541  0.5322E-11  0.8000E+01
     -7.433  0.0000E+00  0.8000E+01
     -7.326  0.0000E+00  0.8000E+01
     -7.219  0.0000E+00  0.8000E+01
     -7.112  0.4847E-09  0.8000E+01
     -7.004  0.3982E-03  0.8000E+01
     -6.897  0.1127E+00  0.8012E+01
     -6.790  0.2558E+00  0.8040E+01
     -6.683  0.4227E+00  0.8085E+01
     -6.575  0.7638E+00  0.8167E+01
     -6.468  0.8487E+00  0.8258E+01
     -6.361  0.1447E+01  0.8413E+01
     -6.253  0.1966E+01  0.8624E+01
     -6.146  0.3035E+01  0.8950E+01
     -6.039  0.3784E+01  0.9356E+01
     -5.932  0.4105E+01  0.9796E+01
     -5.824  0.4069E+01  0.1023E+02
     -5.717  0.3856E+01  0.1065E+02
     -5.610  0.4073E+01  0.1108E+02
     -5.503  0.4225E+01  0.1154E+02
     -5.395  0.4535E+01  0.1202E+02
     -5.288  0.4582E+01  0.1251E+02
     -5.181  0.4486E+01  0.1300E+02
     -5.073  0.3859E+01  0.1341E+02
     -4.966  0.3223E+01  0.1376E+02
     -4.859  0.2963E+01  0.1407E+02
     -4.752  0.2313E+01  0.1432E+02
     -4.644  0.2883E+01  0.1463E+02
     -4.537  0.3357E+01  0.1499E+02
     -4.430  0.3437E+01  0.1536E+02
     -4.323  0.3354E+01  0.1572E+02
     -4.215  0.2950E+01  0.1604E+02
     -4.108  0.2895E+01  0.1635E+02
     -4.001  0.2929E+01  0.1666E+02
     -3.893  0.2865E+01  0.1697E+02
     -3.786  0.3084E+01  0.1730E+02
     -3.679  0.2911E+01  0.1761E+02
     -3.572  0.2693E+01  0.1790E+02
     -3.464  0.3064E+01  0.1823E+02
     -3.357  0.2656E+01  0.1851E+02
     -3.250  0.2814E+01  0.1882E+02
     -3.143  0.2789E+01  0.1911E+02
     -3.035  0.2701E+01  0.1940E+02
     -2.928  0.3067E+01  0.1973E+02
     -2.821  0.2973E+01  0.2005E+02
     -2.713  0.2440E+01  0.2031E+02
     -2.606  0.2623E+01  0.2060E+02
     -2.499  0.2989E+01  0.2092E+02
     -2.392  0.3008E+01  0.2124E+02
     -2.284  0.3242E+01  0.2159E+02
     -2.177  0.3976E+01  0.2201E+02
     -2.070  0.3644E+01  0.2240E+02
     -1.963  0.3215E+01  0.2275E+02
     -1.855  0.5002E+01  0.2329E+02
     -1.748  0.5576E+01  0.2388E+02
     -1.641  0.5621E+01  0.2449E+02
     -1.533  0.6152E+01  0.2515E+02
     -1.426  0.6118E+01  0.2580E+02
     -1.319  0.5589E+01  0.2640E+02
     -1.212  0.4698E+01  0.2691E+02
     -1.104  0.6475E+01  0.2760E+02
     -0.997  0.4094E+01  0.2804E+02
     -0.890  0.2277E+01  0.2828E+02
     -0.783  0.2693E+01  0.2857E+02
     -0.675  0.2858E+01  0.2888E+02
     -0.568  0.4434E+01  0.2936E+02
     -0.461  0.6795E+01  0.3008E+02
     -0.353  0.5665E+01  0.3069E+02
     -0.246  0.6644E+01  0.3140E+02
     -0.139  0.6362E+01  0.3209E+02
     -0.032  0.6705E+01  0.3281E+02
      0.076  0.6807E+01  0.3354E+02
      0.183  0.6217E+01  0.3420E+02
      0.290  0.8786E+01  0.3515E+02
      0.398  0.8019E+01  0.3601E+02
      0.505  0.8641E+01  0.3693E+02
      0.612  0.5429E+01  0.3752E+02
      0.719  0.3006E+01  0.3784E+02
      0.827  0.3222E+01  0.3818E+02
      0.934  0.3593E+01  0.3857E+02
      1.041  0.3573E+01  0.3895E+02
      1.148  0.2796E+01  0.3925E+02
      1.256  0.3326E+01  0.3961E+02
      1.363  0.4432E+01  0.4008E+02
      1.470  0.3845E+01  0.4050E+02
      1.578  0.3667E+01  0.4089E+02
      1.685  0.4551E+01  0.4138E+02
      1.792  0.3360E+01  0.4174E+02
      1.899  0.2446E+01  0.4200E+02
      2.007  0.2665E+01  0.4229E+02
      2.114  0.2098E+01  0.4251E+02
      2.221  0.2638E+01  0.4280E+02
      2.328  0.2599E+01  0.4307E+02
      2.436  0.2023E+01  0.4329E+02
      2.543  0.9247E+00  0.4339E+02
      2.650  0.3798E+00  0.4343E+02
      2.758  0.5724E+00  0.4349E+02
      2.865  0.4205E+00  0.4354E+02
      2.972  0.3101E+00  0.4357E+02
      3.079  0.7137E+00  0.4365E+02
      3.187  0.1019E+01  0.4376E+02
      3.294  0.5906E+00  0.4382E+02
      3.401  0.1948E-01  0.4382E+02
      3.508  0.1126E+00  0.4383E+02
      3.616  0.3829E+00  0.4388E+02
      3.723  0.3500E+00  0.4391E+02
      3.830  0.3513E+00  0.4395E+02
      3.938  0.4220E+00  0.4400E+02
      4.045  0.3806E-01  0.4400E+02
      4.152  0.2095E-04  0.4400E+02
      4.259  0.2619E-01  0.4400E+02
      4.367  0.1712E+00  0.4402E+02
      4.474  0.3957E+00  0.4406E+02
      4.581  0.4590E+00  0.4411E+02
      4.688  0.6280E+00  0.4418E+02
      4.796  0.8796E+00  0.4427E+02
      4.903  0.8398E+00  0.4436E+02
      5.010  0.8577E+00  0.4446E+02
      5.118  0.1263E+01  0.4459E+02
      5.225  0.1161E+01  0.4472E+02
      5.332  0.1615E+01  0.4489E+02
      5.439  0.2173E+01  0.4512E+02
      5.547  0.2482E+01  0.4539E+02
      5.654  0.2786E+01  0.4569E+02
      5.761  0.3315E+01  0.4604E+02
      5.868  0.3246E+01  0.4639E+02
      5.976  0.4283E+01  0.4685E+02
      6.083  0.4770E+01  0.4736E+02
      6.190  0.4036E+01  0.4780E+02
      6.298  0.4630E+01  0.4829E+02
      6.405  0.4180E+01  0.4874E+02
      6.512  0.4021E+01  0.4917E+02
      6.619  0.4494E+01  0.4965E+02
      6.727  0.3240E+01  0.5000E+02
      6.834  0.4008E+01  0.5043E+02
      6.941  0.4619E+01  0.5093E+02
      7.048  0.4576E+01  0.5142E+02
      7.156  0.4339E+01  0.5188E+02
      7.263  0.5601E+01  0.5248E+02
      7.370  0.4904E+01  0.5301E+02
      7.478  0.4468E+01  0.5349E+02
      7.585  0.4179E+01  0.5394E+02
      7.692  0.3581E+01  0.5432E+02
      7.799  0.3118E+01  0.5466E+02
      7.907  0.3013E+01  0.5498E+02
      8.014  0.2982E+01  0.5530E+02
      8.121  0.4190E+01  0.5575E+02
      8.228  0.3909E+01  0.5617E+02
      8.336  0.3688E+01  0.5656E+02
      8.443  0.4031E+01  0.5700E+02
      8.550  0.4181E+01  0.5745E+02
      8.658  0.4510E+01  0.5793E+02
      8.765  0.4263E+01  0.5839E+02
      8.872  0.5330E+01  0.5896E+02
      8.979  0.4822E+01  0.5948E+02
      9.087  0.5327E+01  0.6005E+02
      9.194  0.5181E+01  0.6060E+02
      9.301  0.4956E+01  0.6113E+02
      9.409  0.4689E+01  0.6164E+02
      9.516  0.4380E+01  0.6211E+02
      9.623  0.5144E+01  0.6266E+02
      9.730  0.4990E+01  0.6319E+02
      9.838  0.5275E+01  0.6376E+02
      9.945  0.4418E+01  0.6423E+02
     10.052  0.3695E+01  0.6463E+02
     10.159  0.5272E+01  0.6520E+02
     10.267  0.4638E+01  0.6569E+02
     10.374  0.4144E+01  0.6614E+02
     10.481  0.5477E+01  0.6673E+02
     10.589  0.5685E+01  0.6734E+02
     10.696  0.4098E+01  0.6778E+02
     10.803  0.3845E+01  0.6819E+02
     10.910  0.3256E+01  0.6854E+02
     11.018  0.4785E+01  0.6905E+02
     11.125  0.5431E+01  0.6963E+02
     11.232  0.6287E+01  0.7031E+02
     11.339  0.5923E+01  0.7094E+02
     11.447  0.5233E+01  0.7150E+02
     11.554  0.4322E+01  0.7197E+02
     11.661  0.4467E+01  0.7245E+02
     11.769  0.4967E+01  0.7298E+02
     11.876  0.4837E+01  0.7350E+02
     11.983  0.6011E+01  0.7414E+02
     12.090  0.6034E+01  0.7479E+02
     12.198  0.5914E+01  0.7543E+02
     12.305  0.5634E+01  0.7603E+02
     12.412  0.4944E+01  0.7656E+02
     12.519  0.5656E+01  0.7717E+02
     12.627  0.6012E+01  0.7781E+02
     12.734  0.6003E+01  0.7846E+02
     12.841  0.5821E+01  0.7908E+02
     12.949  0.5863E+01  0.7971E+02
     13.056  0.5610E+01  0.8031E+02
     13.163  0.6322E+01  0.8099E+02
     13.270  0.6203E+01  0.8165E+02
     13.378  0.5467E+01  0.8224E+02
     13.485  0.6121E+01  0.8290E+02
     13.592  0.5302E+01  0.8347E+02
     13.699  0.4819E+01  0.8398E+02
     13.807  0.6200E+01  0.8465E+02
     13.914  0.5494E+01  0.8524E+02
     14.021  0.5343E+01  0.8581E+02
     14.129  0.5441E+01  0.8639E+02
     14.236  0.4621E+01  0.8689E+02
     14.343  0.4943E+01  0.8742E+02
     14.450  0.5031E+01  0.8796E+02
     14.558  0.4955E+01  0.8849E+02
     14.665  0.5245E+01  0.8905E+02
     14.772  0.5144E+01  0.8961E+02
     14.879  0.4071E+01  0.9004E+02
     14.987  0.5109E+01  0.9059E+02
     15.094  0.6197E+01  0.9126E+02
     15.201  0.5577E+01  0.9185E+02
     15.309  0.5744E+01  0.9247E+02
     15.416  0.6017E+01  0.9312E+02
     15.523  0.5693E+01  0.9373E+02
     15.630  0.5926E+01  0.9436E+02
     15.738  0.4560E+01  0.9485E+02
     15.845  0.2445E+01  0.9511E+02
     15.952  0.2713E+01  0.9540E+02
     16.059  0.1833E+01  0.9560E+02
     16.167  0.1131E+01  0.9572E+02
     16.274  0.8974E+00  0.9582E+02
     16.381  0.7020E+00  0.9589E+02
     16.489  0.8035E+00  0.9598E+02
     16.596  0.1830E+00  0.9600E+02
     16.703  0.1692E-02  0.9600E+02
     16.810  0.2036E-07  0.9600E+02
     16.918  0.3943E-16  0.9600E+02
     17.025  0.0000E+00  0.9600E+02
     17.132  0.0000E+00  0.9600E+02
     17.240  0.0000E+00  0.9600E+02
     17.347  0.0000E+00  0.9600E+02
     17.454  0.0000E+00  0.9600E+02
     17.561  0.0000E+00  0.9600E+02
     17.669  0.0000E+00  0.9600E+02
     17.776  0.0000E+00  0.9600E+02
     17.883  0.0000E+00  0.9600E+02
     17.990  0.0000E+00  0.9600E+02
