   1   1   0   0
  0.3375000E+04  0.1500000E-08  0.1250000E-08  0.1800000E-08  0.5000000E-15
  1.000000000000000E-004
  CAR 
 Convergence                             
      2.49363541     -9.97673022  301     -3.60675880      1.00000000
     -9.977  0.0000E+00  0.0000E+00
     -9.935  0.0000E+00  0.0000E+00
     -9.894  0.0000E+00  0.0000E+00
     -9.852  0.0000E+00  0.0000E+00
     -9.810  0.0000E+00  0.0000E+00
     -9.769  0.0000E+00  0.0000E+00
     -9.727  0.0000E+00  0.0000E+00
     -9.686  0.1469E-12  0.6106E-14
     -9.644  0.8251E-09  0.3431E-10
     -9.603  0.1204E-05  0.5007E-07
     -9.561  0.4579E-03  0.1908E-04
     -9.519  0.4615E-01  0.1938E-02
     -9.478  0.1261E+01  0.5436E-01
     -9.436  0.9622E+01  0.4543E+00
     -9.395  0.2109E+02  0.1331E+01
     -9.353  0.1347E+02  0.1891E+01
     -9.312  0.2488E+01  0.1995E+01
     -9.270  0.1294E+00  0.2000E+01
     -9.229  0.1837E-02  0.2000E+01
     -9.187  0.6949E-05  0.2000E+01
     -9.145  0.6882E-08  0.2000E+01
     -9.104  0.1763E-11  0.2000E+01
     -9.062  0.0000E+00  0.2000E+01
     -9.021  0.0000E+00  0.2000E+01
     -8.979  0.0000E+00  0.2000E+01
     -8.938  0.0000E+00  0.2000E+01
     -8.896  0.0000E+00  0.2000E+01
     -8.854  0.0000E+00  0.2000E+01
     -8.813  0.0000E+00  0.2000E+01
     -8.771  0.0000E+00  0.2000E+01
     -8.730  0.0000E+00  0.2000E+01
     -8.688  0.0000E+00  0.2000E+01
     -8.647  0.0000E+00  0.2000E+01
     -8.605  0.0000E+00  0.2000E+01
     -8.563  0.0000E+00  0.2000E+01
     -8.522  0.0000E+00  0.2000E+01
     -8.480  0.0000E+00  0.2000E+01
     -8.439  0.0000E+00  0.2000E+01
     -8.397  0.0000E+00  0.2000E+01
     -8.356  0.0000E+00  0.2000E+01
     -8.314  0.0000E+00  0.2000E+01
     -8.272  0.0000E+00  0.2000E+01
     -8.231  0.0000E+00  0.2000E+01
     -8.189  0.0000E+00  0.2000E+01
     -8.148  0.0000E+00  0.2000E+01
     -8.106  0.0000E+00  0.2000E+01
     -8.065  0.0000E+00  0.2000E+01
     -8.023  0.0000E+00  0.2000E+01
     -7.981  0.0000E+00  0.2000E+01
     -7.940  0.0000E+00  0.2000E+01
     -7.898  0.0000E+00  0.2000E+01
     -7.857  0.0000E+00  0.2000E+01
     -7.815  0.0000E+00  0.2000E+01
     -7.774  0.0000E+00  0.2000E+01
     -7.732  0.0000E+00  0.2000E+01
     -7.690  0.0000E+00  0.2000E+01
     -7.649  0.0000E+00  0.2000E+01
     -7.607  0.0000E+00  0.2000E+01
     -7.566  0.0000E+00  0.2000E+01
     -7.524  0.0000E+00  0.2000E+01
     -7.483  0.0000E+00  0.2000E+01
     -7.441  0.0000E+00  0.2000E+01
     -7.400  0.0000E+00  0.2000E+01
     -7.358  0.0000E+00  0.2000E+01
     -7.316  0.0000E+00  0.2000E+01
     -7.275  0.0000E+00  0.2000E+01
     -7.233  0.0000E+00  0.2000E+01
     -7.192  0.0000E+00  0.2000E+01
     -7.150  0.0000E+00  0.2000E+01
     -7.109  0.0000E+00  0.2000E+01
     -7.067  0.0000E+00  0.2000E+01
     -7.025  0.0000E+00  0.2000E+01
     -6.984  0.0000E+00  0.2000E+01
     -6.942  0.0000E+00  0.2000E+01
     -6.901  0.0000E+00  0.2000E+01
     -6.859  0.0000E+00  0.2000E+01
     -6.818  0.0000E+00  0.2000E+01
     -6.776  0.0000E+00  0.2000E+01
     -6.734  0.0000E+00  0.2000E+01
     -6.693  0.0000E+00  0.2000E+01
     -6.651  0.0000E+00  0.2000E+01
     -6.610  0.0000E+00  0.2000E+01
     -6.568  0.0000E+00  0.2000E+01
     -6.527  0.0000E+00  0.2000E+01
     -6.485  0.0000E+00  0.2000E+01
     -6.443  0.0000E+00  0.2000E+01
     -6.402  0.0000E+00  0.2000E+01
     -6.360  0.0000E+00  0.2000E+01
     -6.319  0.0000E+00  0.2000E+01
     -6.277  0.0000E+00  0.2000E+01
     -6.236  0.0000E+00  0.2000E+01
     -6.194  0.0000E+00  0.2000E+01
     -6.152  0.0000E+00  0.2000E+01
     -6.111  0.0000E+00  0.2000E+01
     -6.069  0.0000E+00  0.2000E+01
     -6.028  0.0000E+00  0.2000E+01
     -5.986  0.0000E+00  0.2000E+01
     -5.945  0.0000E+00  0.2000E+01
     -5.903  0.0000E+00  0.2000E+01
     -5.862  0.0000E+00  0.2000E+01
     -5.820  0.0000E+00  0.2000E+01
     -5.778  0.0000E+00  0.2000E+01
     -5.737  0.0000E+00  0.2000E+01
     -5.695  0.0000E+00  0.2000E+01
     -5.654  0.0000E+00  0.2000E+01
     -5.612  0.0000E+00  0.2000E+01
     -5.571  0.0000E+00  0.2000E+01
     -5.529  0.0000E+00  0.2000E+01
     -5.487  0.0000E+00  0.2000E+01
     -5.446  0.0000E+00  0.2000E+01
     -5.404  0.0000E+00  0.2000E+01
     -5.363  0.0000E+00  0.2000E+01
     -5.321  0.0000E+00  0.2000E+01
     -5.280  0.0000E+00  0.2000E+01
     -5.238  0.0000E+00  0.2000E+01
     -5.196  0.0000E+00  0.2000E+01
     -5.155  0.0000E+00  0.2000E+01
     -5.113  0.0000E+00  0.2000E+01
     -5.072  0.0000E+00  0.2000E+01
     -5.030  0.0000E+00  0.2000E+01
     -4.989  0.0000E+00  0.2000E+01
     -4.947  0.0000E+00  0.2000E+01
     -4.905  0.0000E+00  0.2000E+01
     -4.864  0.0000E+00  0.2000E+01
     -4.822  0.0000E+00  0.2000E+01
     -4.781  0.0000E+00  0.2000E+01
     -4.739  0.0000E+00  0.2000E+01
     -4.698  0.0000E+00  0.2000E+01
     -4.656  0.0000E+00  0.2000E+01
     -4.614  0.0000E+00  0.2000E+01
     -4.573  0.0000E+00  0.2000E+01
     -4.531  0.0000E+00  0.2000E+01
     -4.490  0.0000E+00  0.2000E+01
     -4.448  0.0000E+00  0.2000E+01
     -4.407  0.0000E+00  0.2000E+01
     -4.365  0.0000E+00  0.2000E+01
     -4.323  0.0000E+00  0.2000E+01
     -4.282  0.0000E+00  0.2000E+01
     -4.240  0.0000E+00  0.2000E+01
     -4.199  0.0000E+00  0.2000E+01
     -4.157  0.0000E+00  0.2000E+01
     -4.116  0.0000E+00  0.2000E+01
     -4.074  0.0000E+00  0.2000E+01
     -4.033  0.0000E+00  0.2000E+01
     -3.991  0.0000E+00  0.2000E+01
     -3.949  0.0000E+00  0.2000E+01
     -3.908  0.0000E+00  0.2000E+01
     -3.866  0.8013E-14  0.2000E+01
     -3.825  0.7178E-10  0.2000E+01
     -3.783  0.1870E-06  0.2000E+01
     -3.742  0.1264E-03  0.2000E+01
     -3.700  0.2248E-01  0.2001E+01
     -3.658  0.1072E+01  0.2045E+01
     -3.617  0.1408E+02  0.2631E+01
     -3.575  0.5256E+02  0.4816E+01
     -3.534  0.5698E+02  0.7184E+01
     -3.492  0.1797E+02  0.7931E+01
     -3.451  0.1615E+01  0.7998E+01
     -3.409  0.4016E-01  0.8000E+01
     -3.367  0.2687E-03  0.8000E+01
     -3.326  0.4738E-06  0.8000E+01
     -3.284  0.2171E-09  0.8000E+01
     -3.243  0.3205E-13  0.8000E+01
     -3.201  0.0000E+00  0.8000E+01
     -3.160  0.0000E+00  0.8000E+01
     -3.118  0.0000E+00  0.8000E+01
     -3.076  0.0000E+00  0.8000E+01
     -3.035  0.0000E+00  0.8000E+01
     -2.993  0.0000E+00  0.8000E+01
     -2.952  0.0000E+00  0.8000E+01
     -2.910  0.0000E+00  0.8000E+01
     -2.869  0.0000E+00  0.8000E+01
     -2.827  0.0000E+00  0.8000E+01
     -2.785  0.0000E+00  0.8000E+01
     -2.744  0.0000E+00  0.8000E+01
     -2.702  0.0000E+00  0.8000E+01
     -2.661  0.0000E+00  0.8000E+01
     -2.619  0.0000E+00  0.8000E+01
     -2.578  0.0000E+00  0.8000E+01
     -2.536  0.0000E+00  0.8000E+01
     -2.495  0.0000E+00  0.8000E+01
     -2.453  0.0000E+00  0.8000E+01
     -2.411  0.0000E+00  0.8000E+01
     -2.370  0.0000E+00  0.8000E+01
     -2.328  0.0000E+00  0.8000E+01
     -2.287  0.0000E+00  0.8000E+01
     -2.245  0.0000E+00  0.8000E+01
     -2.204  0.0000E+00  0.8000E+01
     -2.162  0.0000E+00  0.8000E+01
     -2.120  0.0000E+00  0.8000E+01
     -2.079  0.0000E+00  0.8000E+01
     -2.037  0.0000E+00  0.8000E+01
     -1.996  0.0000E+00  0.8000E+01
     -1.954  0.0000E+00  0.8000E+01
     -1.913  0.0000E+00  0.8000E+01
     -1.871  0.0000E+00  0.8000E+01
     -1.829  0.0000E+00  0.8000E+01
     -1.788  0.0000E+00  0.8000E+01
     -1.746  0.0000E+00  0.8000E+01
     -1.705  0.0000E+00  0.8000E+01
     -1.663  0.0000E+00  0.8000E+01
     -1.622  0.0000E+00  0.8000E+01
     -1.580  0.0000E+00  0.8000E+01
     -1.538  0.0000E+00  0.8000E+01
     -1.497  0.0000E+00  0.8000E+01
     -1.455  0.0000E+00  0.8000E+01
     -1.414  0.0000E+00  0.8000E+01
     -1.372  0.0000E+00  0.8000E+01
     -1.331  0.0000E+00  0.8000E+01
     -1.289  0.0000E+00  0.8000E+01
     -1.247  0.0000E+00  0.8000E+01
     -1.206  0.0000E+00  0.8000E+01
     -1.164  0.0000E+00  0.8000E+01
     -1.123  0.0000E+00  0.8000E+01
     -1.081  0.0000E+00  0.8000E+01
     -1.040  0.0000E+00  0.8000E+01
     -0.998  0.0000E+00  0.8000E+01
     -0.956  0.0000E+00  0.8000E+01
     -0.915  0.0000E+00  0.8000E+01
     -0.873  0.0000E+00  0.8000E+01
     -0.832  0.0000E+00  0.8000E+01
     -0.790  0.0000E+00  0.8000E+01
     -0.749  0.0000E+00  0.8000E+01
     -0.707  0.0000E+00  0.8000E+01
     -0.666  0.0000E+00  0.8000E+01
     -0.624  0.0000E+00  0.8000E+01
     -0.582  0.0000E+00  0.8000E+01
     -0.541  0.6020E-15  0.8000E+01
     -0.499  0.4525E-11  0.8000E+01
     -0.458  0.8870E-08  0.8000E+01
     -0.416  0.4787E-05  0.8000E+01
     -0.375  0.7387E-03  0.8000E+01
     -0.333  0.3449E-01  0.8001E+01
     -0.291  0.5300E+00  0.8023E+01
     -0.250  0.3031E+01  0.8150E+01
     -0.208  0.7683E+01  0.8469E+01
     -0.167  0.1071E+02  0.8914E+01
     -0.125  0.1042E+02  0.9347E+01
     -0.084  0.8510E+01  0.9701E+01
     -0.042  0.5160E+01  0.9916E+01
     -0.000  0.1786E+01  0.9990E+01
      0.041  0.6618E+00  0.1002E+02
      0.083  0.2086E+01  0.1010E+02
      0.124  0.5728E+01  0.1034E+02
      0.166  0.1034E+02  0.1077E+02
      0.207  0.1398E+02  0.1135E+02
      0.249  0.1561E+02  0.1200E+02
      0.291  0.1578E+02  0.1266E+02
      0.332  0.1592E+02  0.1332E+02
      0.374  0.1621E+02  0.1399E+02
      0.415  0.1652E+02  0.1468E+02
      0.457  0.1757E+02  0.1541E+02
      0.498  0.1849E+02  0.1618E+02
      0.540  0.1849E+02  0.1695E+02
      0.582  0.1898E+02  0.1774E+02
      0.623  0.1989E+02  0.1856E+02
      0.665  0.2037E+02  0.1941E+02
      0.706  0.2101E+02  0.2028E+02
      0.748  0.2241E+02  0.2122E+02
      0.789  0.2242E+02  0.2215E+02
      0.831  0.2187E+02  0.2306E+02
      0.872  0.2333E+02  0.2403E+02
      0.914  0.2453E+02  0.2505E+02
      0.956  0.2424E+02  0.2605E+02
      0.997  0.2486E+02  0.2709E+02
      1.039  0.2590E+02  0.2816E+02
      1.080  0.2601E+02  0.2924E+02
      1.122  0.2608E+02  0.3033E+02
      1.163  0.2683E+02  0.3144E+02
      1.205  0.2772E+02  0.3260E+02
      1.247  0.2733E+02  0.3373E+02
      1.288  0.2749E+02  0.3487E+02
      1.330  0.2856E+02  0.3606E+02
      1.371  0.2862E+02  0.3725E+02
      1.413  0.2832E+02  0.3843E+02
      1.454  0.2933E+02  0.3965E+02
      1.496  0.3090E+02  0.4093E+02
      1.538  0.3004E+02  0.4218E+02
      1.579  0.2958E+02  0.4341E+02
      1.621  0.3009E+02  0.4466E+02
      1.662  0.2773E+02  0.4581E+02
      1.704  0.2126E+02  0.4670E+02
      1.745  0.1408E+02  0.4728E+02
      1.787  0.8342E+01  0.4763E+02
      1.829  0.4808E+01  0.4783E+02
      1.870  0.2579E+01  0.4794E+02
      1.912  0.1093E+01  0.4798E+02
      1.953  0.3474E+00  0.4800E+02
      1.995  0.7332E-01  0.4800E+02
      2.036  0.7087E-02  0.4800E+02
      2.078  0.2264E-03  0.4800E+02
      2.120  0.2067E-05  0.4800E+02
      2.161  0.5103E-08  0.4800E+02
      2.203  0.3322E-11  0.4800E+02
      2.244  0.5766E-15  0.4800E+02
      2.286  0.0000E+00  0.4800E+02
      2.327  0.0000E+00  0.4800E+02
      2.369  0.0000E+00  0.4800E+02
      2.410  0.0000E+00  0.4800E+02
      2.452  0.0000E+00  0.4800E+02
      2.494  0.0000E+00  0.4800E+02
