  14  14   0   0
  0.1030568E+02  0.5712952E-09  0.4059234E-09  0.6221572E-09  0.5000000E-15
  1.000000000000000E-004
  CAR 
 Convergence                             
     17.83200722    -14.16982290  301      1.83546778      1.00000000
    -14.170  0.0000E+00  0.0000E+00
    -14.063  0.0000E+00  0.0000E+00
    -13.956  0.0000E+00  0.0000E+00
    -13.850  0.0000E+00  0.0000E+00
    -13.743  0.0000E+00  0.0000E+00
    -13.636  0.0000E+00  0.0000E+00
    -13.530  0.0000E+00  0.0000E+00
    -13.423  0.0000E+00  0.0000E+00
    -13.316  0.0000E+00  0.0000E+00
    -13.210  0.0000E+00  0.0000E+00
    -13.103  0.0000E+00  0.0000E+00
    -12.996  0.5947E-16  0.6344E-17
    -12.890  0.3400E-07  0.3627E-08
    -12.783  0.3949E-02  0.4213E-03
    -12.676  0.5118E+00  0.5502E-01
    -12.570  0.2400E+01  0.3110E+00
    -12.463  0.3584E+01  0.6933E+00
    -12.356  0.4386E+01  0.1161E+01
    -12.250  0.3539E+01  0.1539E+01
    -12.143  0.2740E+01  0.1831E+01
    -12.036  0.2760E+01  0.2125E+01
    -11.930  0.2492E+01  0.2391E+01
    -11.823  0.2773E+01  0.2687E+01
    -11.716  0.3395E+01  0.3049E+01
    -11.610  0.3539E+01  0.3427E+01
    -11.503  0.3163E+01  0.3764E+01
    -11.396  0.1731E+01  0.3949E+01
    -11.290  0.4692E+00  0.3999E+01
    -11.183  0.1044E-01  0.4000E+01
    -11.076  0.4137E-06  0.4000E+01
    -10.970  0.4150E-14  0.4000E+01
    -10.863  0.0000E+00  0.4000E+01
    -10.756  0.0000E+00  0.4000E+01
    -10.650  0.0000E+00  0.4000E+01
    -10.543  0.0000E+00  0.4000E+01
    -10.436  0.0000E+00  0.4000E+01
    -10.330  0.0000E+00  0.4000E+01
    -10.223  0.0000E+00  0.4000E+01
    -10.116  0.0000E+00  0.4000E+01
    -10.010  0.0000E+00  0.4000E+01
     -9.903  0.0000E+00  0.4000E+01
     -9.796  0.0000E+00  0.4000E+01
     -9.690  0.0000E+00  0.4000E+01
     -9.583  0.0000E+00  0.4000E+01
     -9.476  0.0000E+00  0.4000E+01
     -9.370  0.0000E+00  0.4000E+01
     -9.263  0.0000E+00  0.4000E+01
     -9.156  0.0000E+00  0.4000E+01
     -9.050  0.1288E-08  0.4000E+01
     -8.943  0.7072E-03  0.4000E+01
     -8.836  0.2882E+00  0.4031E+01
     -8.730  0.2135E+01  0.4259E+01
     -8.623  0.5428E+01  0.4838E+01
     -8.516  0.7044E+01  0.5589E+01
     -8.409  0.6267E+01  0.6257E+01
     -8.303  0.5335E+01  0.6827E+01
     -8.196  0.4860E+01  0.7345E+01
     -8.089  0.3852E+01  0.7756E+01
     -7.983  0.1658E+01  0.7933E+01
     -7.876  0.5766E+00  0.7994E+01
     -7.769  0.5259E-01  0.8000E+01
     -7.663  0.2595E-04  0.8000E+01
     -7.556  0.3393E-11  0.8000E+01
     -7.449  0.0000E+00  0.8000E+01
     -7.343  0.0000E+00  0.8000E+01
     -7.236  0.0000E+00  0.8000E+01
     -7.129  0.3574E-09  0.8000E+01
     -7.023  0.3245E-03  0.8000E+01
     -6.916  0.1065E+00  0.8011E+01
     -6.809  0.2617E+00  0.8039E+01
     -6.703  0.4223E+00  0.8084E+01
     -6.596  0.7667E+00  0.8166E+01
     -6.489  0.8400E+00  0.8256E+01
     -6.383  0.1418E+01  0.8407E+01
     -6.276  0.1905E+01  0.8610E+01
     -6.169  0.3045E+01  0.8935E+01
     -6.063  0.3820E+01  0.9342E+01
     -5.956  0.4132E+01  0.9783E+01
     -5.849  0.4063E+01  0.1022E+02
     -5.743  0.3915E+01  0.1063E+02
     -5.636  0.4081E+01  0.1107E+02
     -5.529  0.4211E+01  0.1152E+02
     -5.423  0.4594E+01  0.1201E+02
     -5.316  0.4654E+01  0.1251E+02
     -5.209  0.4508E+01  0.1299E+02
     -5.103  0.3901E+01  0.1340E+02
     -4.996  0.3217E+01  0.1375E+02
     -4.889  0.3000E+01  0.1407E+02
     -4.783  0.2275E+01  0.1431E+02
     -4.676  0.2901E+01  0.1462E+02
     -4.569  0.3374E+01  0.1498E+02
     -4.463  0.3417E+01  0.1534E+02
     -4.356  0.3399E+01  0.1570E+02
     -4.249  0.2977E+01  0.1602E+02
     -4.143  0.2916E+01  0.1633E+02
     -4.036  0.2913E+01  0.1664E+02
     -3.929  0.2915E+01  0.1695E+02
     -3.823  0.3088E+01  0.1728E+02
     -3.716  0.2925E+01  0.1760E+02
     -3.609  0.2715E+01  0.1789E+02
     -3.503  0.3090E+01  0.1822E+02
     -3.396  0.2690E+01  0.1850E+02
     -3.289  0.2792E+01  0.1880E+02
     -3.183  0.2856E+01  0.1911E+02
     -3.076  0.2674E+01  0.1939E+02
     -2.969  0.3130E+01  0.1972E+02
     -2.863  0.2999E+01  0.2004E+02
     -2.756  0.2469E+01  0.2031E+02
     -2.649  0.2610E+01  0.2059E+02
     -2.542  0.2996E+01  0.2091E+02
     -2.436  0.3034E+01  0.2123E+02
     -2.329  0.3165E+01  0.2157E+02
     -2.222  0.4004E+01  0.2199E+02
     -2.116  0.3644E+01  0.2238E+02
     -2.009  0.3112E+01  0.2271E+02
     -1.902  0.4838E+01  0.2323E+02
     -1.796  0.5501E+01  0.2382E+02
     -1.689  0.5688E+01  0.2442E+02
     -1.582  0.6139E+01  0.2508E+02
     -1.476  0.6200E+01  0.2574E+02
     -1.369  0.5667E+01  0.2634E+02
     -1.262  0.4714E+01  0.2685E+02
     -1.156  0.6434E+01  0.2753E+02
     -1.049  0.4438E+01  0.2801E+02
     -0.942  0.2321E+01  0.2826E+02
     -0.836  0.2717E+01  0.2854E+02
     -0.729  0.2899E+01  0.2885E+02
     -0.622  0.4323E+01  0.2932E+02
     -0.516  0.6728E+01  0.3003E+02
     -0.409  0.5726E+01  0.3064E+02
     -0.302  0.6533E+01  0.3134E+02
     -0.196  0.6437E+01  0.3203E+02
     -0.089  0.6716E+01  0.3274E+02
      0.018  0.6917E+01  0.3348E+02
      0.124  0.6170E+01  0.3414E+02
      0.231  0.8872E+01  0.3509E+02
      0.338  0.8241E+01  0.3597E+02
      0.444  0.8656E+01  0.3689E+02
      0.551  0.5600E+01  0.3749E+02
      0.658  0.3124E+01  0.3782E+02
      0.764  0.3146E+01  0.3815E+02
      0.871  0.3598E+01  0.3854E+02
      0.978  0.3598E+01  0.3892E+02
      1.084  0.2843E+01  0.3923E+02
      1.191  0.3333E+01  0.3958E+02
      1.298  0.4423E+01  0.4005E+02
      1.404  0.3889E+01  0.4047E+02
      1.511  0.3672E+01  0.4086E+02
      1.618  0.4599E+01  0.4135E+02
      1.724  0.3512E+01  0.4172E+02
      1.831  0.2475E+01  0.4199E+02
      1.938  0.2696E+01  0.4228E+02
      2.044  0.2116E+01  0.4250E+02
      2.151  0.2634E+01  0.4278E+02
      2.258  0.2660E+01  0.4307E+02
      2.364  0.2032E+01  0.4328E+02
      2.471  0.9819E+00  0.4339E+02
      2.578  0.3860E+00  0.4343E+02
      2.684  0.5777E+00  0.4349E+02
      2.791  0.4229E+00  0.4354E+02
      2.898  0.3081E+00  0.4357E+02
      3.004  0.6989E+00  0.4364E+02
      3.111  0.1038E+01  0.4375E+02
      3.218  0.6129E+00  0.4382E+02
      3.325  0.2325E-01  0.4382E+02
      3.431  0.1051E+00  0.4383E+02
      3.538  0.3870E+00  0.4387E+02
      3.645  0.3539E+00  0.4391E+02
      3.751  0.3526E+00  0.4395E+02
      3.858  0.4274E+00  0.4400E+02
      3.965  0.4016E-01  0.4400E+02
      4.071  0.8069E-05  0.4400E+02
      4.178  0.8917E-02  0.4400E+02
      4.285  0.1482E+00  0.4402E+02
      4.391  0.3481E+00  0.4405E+02
      4.498  0.4296E+00  0.4410E+02
      4.605  0.6086E+00  0.4416E+02
      4.711  0.8395E+00  0.4425E+02
      4.818  0.8464E+00  0.4434E+02
      4.925  0.8844E+00  0.4444E+02
      5.031  0.1207E+01  0.4457E+02
      5.138  0.1220E+01  0.4470E+02
      5.245  0.1535E+01  0.4486E+02
      5.351  0.2068E+01  0.4508E+02
      5.458  0.2530E+01  0.4535E+02
      5.565  0.2801E+01  0.4565E+02
      5.671  0.3216E+01  0.4599E+02
      5.778  0.3342E+01  0.4635E+02
      5.885  0.4118E+01  0.4679E+02
      5.991  0.4857E+01  0.4731E+02
      6.098  0.4168E+01  0.4775E+02
      6.205  0.4569E+01  0.4824E+02
      6.311  0.4416E+01  0.4871E+02
      6.418  0.3914E+01  0.4913E+02
      6.525  0.4555E+01  0.4961E+02
      6.631  0.3317E+01  0.4997E+02
      6.738  0.3917E+01  0.5039E+02
      6.845  0.4588E+01  0.5088E+02
      6.951  0.4639E+01  0.5137E+02
      7.058  0.4340E+01  0.5183E+02
      7.165  0.5545E+01  0.5242E+02
      7.271  0.5082E+01  0.5297E+02
      7.378  0.4520E+01  0.5345E+02
      7.485  0.4271E+01  0.5390E+02
      7.591  0.3630E+01  0.5429E+02
      7.698  0.3089E+01  0.5462E+02
      7.805  0.3049E+01  0.5495E+02
      7.911  0.2973E+01  0.5526E+02
      8.018  0.4134E+01  0.5570E+02
      8.125  0.3973E+01  0.5613E+02
      8.231  0.3805E+01  0.5653E+02
      8.338  0.4048E+01  0.5697E+02
      8.445  0.4286E+01  0.5742E+02
      8.551  0.4534E+01  0.5791E+02
      8.658  0.4380E+01  0.5837E+02
      8.765  0.5430E+01  0.5895E+02
      8.871  0.4666E+01  0.5945E+02
      8.978  0.5251E+01  0.6001E+02
      9.085  0.5231E+01  0.6057E+02
      9.192  0.5052E+01  0.6111E+02
      9.298  0.4646E+01  0.6160E+02
      9.405  0.4448E+01  0.6208E+02
      9.512  0.5068E+01  0.6262E+02
      9.618  0.5055E+01  0.6316E+02
      9.725  0.5265E+01  0.6372E+02
      9.832  0.4513E+01  0.6420E+02
      9.938  0.3755E+01  0.6460E+02
     10.045  0.5198E+01  0.6516E+02
     10.152  0.4734E+01  0.6566E+02
     10.258  0.4209E+01  0.6611E+02
     10.365  0.5256E+01  0.6667E+02
     10.472  0.5848E+01  0.6729E+02
     10.578  0.4107E+01  0.6773E+02
     10.685  0.3949E+01  0.6815E+02
     10.792  0.3325E+01  0.6851E+02
     10.898  0.4733E+01  0.6901E+02
     11.005  0.5321E+01  0.6958E+02
     11.112  0.6404E+01  0.7026E+02
     11.218  0.6005E+01  0.7091E+02
     11.325  0.5096E+01  0.7145E+02
     11.432  0.4551E+01  0.7193E+02
     11.538  0.4479E+01  0.7241E+02
     11.645  0.5038E+01  0.7295E+02
     11.752  0.4857E+01  0.7347E+02
     11.858  0.5930E+01  0.7410E+02
     11.965  0.6091E+01  0.7475E+02
     12.072  0.6105E+01  0.7540E+02
     12.178  0.5473E+01  0.7599E+02
     12.285  0.5024E+01  0.7652E+02
     12.392  0.5736E+01  0.7713E+02
     12.498  0.5959E+01  0.7777E+02
     12.605  0.5859E+01  0.7839E+02
     12.712  0.6017E+01  0.7904E+02
     12.818  0.5919E+01  0.7967E+02
     12.925  0.5655E+01  0.8027E+02
     13.032  0.6343E+01  0.8095E+02
     13.138  0.6381E+01  0.8163E+02
     13.245  0.5537E+01  0.8222E+02
     13.352  0.6114E+01  0.8287E+02
     13.458  0.5514E+01  0.8346E+02
     13.565  0.4888E+01  0.8398E+02
     13.672  0.6233E+01  0.8464E+02
     13.778  0.5512E+01  0.8523E+02
     13.885  0.5399E+01  0.8581E+02
     13.992  0.5477E+01  0.8639E+02
     14.098  0.4677E+01  0.8689E+02
     14.205  0.5016E+01  0.8743E+02
     14.312  0.4908E+01  0.8795E+02
     14.418  0.4922E+01  0.8848E+02
     14.525  0.5270E+01  0.8904E+02
     14.632  0.5238E+01  0.8960E+02
     14.738  0.4115E+01  0.9004E+02
     14.845  0.4945E+01  0.9056E+02
     14.952  0.6093E+01  0.9121E+02
     15.059  0.5775E+01  0.9183E+02
     15.165  0.5767E+01  0.9244E+02
     15.272  0.5969E+01  0.9308E+02
     15.379  0.5810E+01  0.9370E+02
     15.485  0.6078E+01  0.9435E+02
     15.592  0.4661E+01  0.9485E+02
     15.699  0.2568E+01  0.9512E+02
     15.805  0.2706E+01  0.9541E+02
     15.912  0.1826E+01  0.9560E+02
     16.019  0.1119E+01  0.9572E+02
     16.125  0.9037E+00  0.9582E+02
     16.232  0.6959E+00  0.9589E+02
     16.339  0.8185E+00  0.9598E+02
     16.445  0.1795E+00  0.9600E+02
     16.552  0.1741E-02  0.9600E+02
     16.659  0.2362E-07  0.9600E+02
     16.765  0.5286E-16  0.9600E+02
     16.872  0.0000E+00  0.9600E+02
     16.979  0.0000E+00  0.9600E+02
     17.085  0.0000E+00  0.9600E+02
     17.192  0.0000E+00  0.9600E+02
     17.299  0.0000E+00  0.9600E+02
     17.405  0.0000E+00  0.9600E+02
     17.512  0.0000E+00  0.9600E+02
     17.619  0.0000E+00  0.9600E+02
     17.725  0.0000E+00  0.9600E+02
     17.832  0.0000E+00  0.9600E+02
