 running   24 mpi-ranks, with    1 threads/rank, on    1 nodes
 distrk:  each k-point on   24 cores,    1 groups
 distr:  one band on    1 cores,   24 groups
 vasp.6.4.3 19Mar24 (build May 31 2024 16:31:43) complex                        
  
 POSCAR found type information on POSCAR B 
 POSCAR found :  1 types and      14 ions
 Reading from existing POTCAR
 scaLAPACK will be used
 Reading from existing POTCAR
 LDA part: xc-table for (Slater+PW92), standard interpolation
 POSCAR, INCAR and KPOINTS ok, starting setup
 FFT: planning ... GRIDC
 FFT: planning ... GRID_SOFT
 FFT: planning ... GRID
 WAVECAR not read
 entering main loop
       N       E                     dE             d eps       ncg     rms          rms(c)
DAV:   1     0.164206520295E+03    0.16421E+03   -0.28002E+04 16800   0.139E+03
DAV:   2    -0.874933990731E+02   -0.25170E+03   -0.23217E+03 22008   0.216E+02
DAV:   3    -0.975941268715E+02   -0.10101E+02   -0.10002E+02 25128   0.381E+01
DAV:   4    -0.976583680174E+02   -0.64241E-01   -0.64236E-01 18552   0.347E+00
DAV:   5    -0.976590060453E+02   -0.63803E-03   -0.63801E-03 25176   0.329E-01    0.123E+01
DAV:   6    -0.922425677356E+02    0.54164E+01   -0.39487E+00 24288   0.659E+00    0.680E+00
DAV:   7    -0.905910212219E+02    0.16515E+01   -0.32229E+00 25176   0.587E+00    0.171E+00
DAV:   8    -0.906034690005E+02   -0.12448E-01   -0.23555E-01 18624   0.169E+00    0.705E-01
DAV:   9    -0.906176404172E+02   -0.14171E-01   -0.16970E-02 23280   0.442E-01    0.198E-01
DAV:  10    -0.906216947594E+02   -0.40543E-02   -0.21045E-03 19128   0.163E-01    0.610E-02
DAV:  11    -0.906227667346E+02   -0.10720E-02   -0.63175E-04 21504   0.891E-02    0.321E-02
DAV:  12    -0.906228824328E+02   -0.11570E-03   -0.93497E-05 20880   0.389E-02    0.429E-03
DAV:  13    -0.906228873239E+02   -0.48911E-05   -0.41731E-06 23400   0.948E-03    0.182E-03
DAV:  14    -0.906228880184E+02   -0.69455E-06   -0.29668E-07 20472   0.255E-03
   1 F= -.90622888E+02 E0= -.90621281E+02  d E =-.321357E-02
