  14  14   0   0
  0.1021318E+02  0.5700971E-09  0.4044058E-09  0.6201871E-09  0.5000000E-15
  1.000000000000000E-004
  CAR 
 Dielectric                              
     50.86772124    -15.72394045 4000      1.91207488      1.00000000
    -15.724  0.0000E+00  0.0000E+00
    -15.707  0.0000E+00  0.0000E+00
    -15.691  0.0000E+00  0.0000E+00
    -15.674  0.0000E+00  0.0000E+00
    -15.657  0.0000E+00  0.0000E+00
    -15.641  0.0000E+00  0.0000E+00
    -15.624  0.0000E+00  0.0000E+00
    -15.607  0.0000E+00  0.0000E+00
    -15.591  0.0000E+00  0.0000E+00
    -15.574  0.0000E+00  0.0000E+00
    -15.557  0.0000E+00  0.0000E+00
    -15.541  0.0000E+00  0.0000E+00
    -15.524  0.0000E+00  0.0000E+00
    -15.507  0.0000E+00  0.0000E+00
    -15.491  0.0000E+00  0.0000E+00
    -15.474  0.0000E+00  0.0000E+00
    -15.458  0.0000E+00  0.0000E+00
    -15.441  0.0000E+00  0.0000E+00
    -15.424  0.0000E+00  0.0000E+00
    -15.408  0.0000E+00  0.0000E+00
    -15.391  0.0000E+00  0.0000E+00
    -15.374  0.0000E+00  0.0000E+00
    -15.358  0.0000E+00  0.0000E+00
    -15.341  0.0000E+00  0.0000E+00
    -15.324  0.0000E+00  0.0000E+00
    -15.308  0.0000E+00  0.0000E+00
    -15.291  0.0000E+00  0.0000E+00
    -15.274  0.0000E+00  0.0000E+00
    -15.258  0.0000E+00  0.0000E+00
    -15.241  0.0000E+00  0.0000E+00
    -15.224  0.0000E+00  0.0000E+00
    -15.208  0.0000E+00  0.0000E+00
    -15.191  0.0000E+00  0.0000E+00
    -15.174  0.0000E+00  0.0000E+00
    -15.158  0.0000E+00  0.0000E+00
    -15.141  0.0000E+00  0.0000E+00
    -15.124  0.0000E+00  0.0000E+00
    -15.108  0.0000E+00  0.0000E+00
    -15.091  0.0000E+00  0.0000E+00
    -15.075  0.0000E+00  0.0000E+00
    -15.058  0.0000E+00  0.0000E+00
    -15.041  0.0000E+00  0.0000E+00
    -15.025  0.0000E+00  0.0000E+00
    -15.008  0.0000E+00  0.0000E+00
    -14.991  0.0000E+00  0.0000E+00
    -14.975  0.0000E+00  0.0000E+00
    -14.958  0.0000E+00  0.0000E+00
    -14.941  0.0000E+00  0.0000E+00
    -14.925  0.0000E+00  0.0000E+00
    -14.908  0.0000E+00  0.0000E+00
    -14.891  0.0000E+00  0.0000E+00
    -14.875  0.0000E+00  0.0000E+00
    -14.858  0.0000E+00  0.0000E+00
    -14.841  0.0000E+00  0.0000E+00
    -14.825  0.0000E+00  0.0000E+00
    -14.808  0.0000E+00  0.0000E+00
    -14.791  0.0000E+00  0.0000E+00
    -14.775  0.0000E+00  0.0000E+00
    -14.758  0.0000E+00  0.0000E+00
    -14.741  0.0000E+00  0.0000E+00
    -14.725  0.0000E+00  0.0000E+00
    -14.708  0.0000E+00  0.0000E+00
    -14.692  0.0000E+00  0.0000E+00
    -14.675  0.0000E+00  0.0000E+00
    -14.658  0.0000E+00  0.0000E+00
    -14.642  0.0000E+00  0.0000E+00
    -14.625  0.0000E+00  0.0000E+00
    -14.608  0.0000E+00  0.0000E+00
    -14.592  0.0000E+00  0.0000E+00
    -14.575  0.0000E+00  0.0000E+00
    -14.558  0.0000E+00  0.0000E+00
    -14.542  0.0000E+00  0.0000E+00
    -14.525  0.0000E+00  0.0000E+00
    -14.508  0.0000E+00  0.0000E+00
    -14.492  0.0000E+00  0.0000E+00
    -14.475  0.0000E+00  0.0000E+00
    -14.458  0.0000E+00  0.0000E+00
    -14.442  0.0000E+00  0.0000E+00
    -14.425  0.0000E+00  0.0000E+00
    -14.408  0.0000E+00  0.0000E+00
    -14.392  0.0000E+00  0.0000E+00
    -14.375  0.0000E+00  0.0000E+00
    -14.358  0.0000E+00  0.0000E+00
    -14.342  0.0000E+00  0.0000E+00
    -14.325  0.0000E+00  0.0000E+00
    -14.309  0.0000E+00  0.0000E+00
    -14.292  0.0000E+00  0.0000E+00
    -14.275  0.0000E+00  0.0000E+00
    -14.259  0.0000E+00  0.0000E+00
    -14.242  0.0000E+00  0.0000E+00
    -14.225  0.0000E+00  0.0000E+00
    -14.209  0.0000E+00  0.0000E+00
    -14.192  0.0000E+00  0.0000E+00
    -14.175  0.0000E+00  0.0000E+00
    -14.159  0.0000E+00  0.0000E+00
    -14.142  0.0000E+00  0.0000E+00
    -14.125  0.0000E+00  0.0000E+00
    -14.109  0.0000E+00  0.0000E+00
    -14.092  0.0000E+00  0.0000E+00
    -14.075  0.0000E+00  0.0000E+00
    -14.059  0.0000E+00  0.0000E+00
    -14.042  0.0000E+00  0.0000E+00
    -14.025  0.0000E+00  0.0000E+00
    -14.009  0.0000E+00  0.0000E+00
    -13.992  0.0000E+00  0.0000E+00
    -13.975  0.0000E+00  0.0000E+00
    -13.959  0.0000E+00  0.0000E+00
    -13.942  0.0000E+00  0.0000E+00
    -13.926  0.0000E+00  0.0000E+00
    -13.909  0.0000E+00  0.0000E+00
    -13.892  0.0000E+00  0.0000E+00
    -13.876  0.0000E+00  0.0000E+00
    -13.859  0.0000E+00  0.0000E+00
    -13.842  0.0000E+00  0.0000E+00
    -13.826  0.0000E+00  0.0000E+00
    -13.809  0.0000E+00  0.0000E+00
    -13.792  0.0000E+00  0.0000E+00
    -13.776  0.0000E+00  0.0000E+00
    -13.759  0.0000E+00  0.0000E+00
    -13.742  0.0000E+00  0.0000E+00
    -13.726  0.0000E+00  0.0000E+00
    -13.709  0.0000E+00  0.0000E+00
    -13.692  0.0000E+00  0.0000E+00
    -13.676  0.0000E+00  0.0000E+00
    -13.659  0.0000E+00  0.0000E+00
    -13.642  0.0000E+00  0.0000E+00
    -13.626  0.0000E+00  0.0000E+00
    -13.609  0.0000E+00  0.0000E+00
    -13.592  0.0000E+00  0.0000E+00
    -13.576  0.0000E+00  0.0000E+00
    -13.559  0.0000E+00  0.0000E+00
    -13.543  0.0000E+00  0.0000E+00
    -13.526  0.0000E+00  0.0000E+00
    -13.509  0.0000E+00  0.0000E+00
    -13.493  0.0000E+00  0.0000E+00
    -13.476  0.0000E+00  0.0000E+00
    -13.459  0.0000E+00  0.0000E+00
    -13.443  0.0000E+00  0.0000E+00
    -13.426  0.0000E+00  0.0000E+00
    -13.409  0.0000E+00  0.0000E+00
    -13.393  0.0000E+00  0.0000E+00
    -13.376  0.0000E+00  0.0000E+00
    -13.359  0.0000E+00  0.0000E+00
    -13.343  0.0000E+00  0.0000E+00
    -13.326  0.0000E+00  0.0000E+00
    -13.309  0.0000E+00  0.0000E+00
    -13.293  0.0000E+00  0.0000E+00
    -13.276  0.0000E+00  0.0000E+00
    -13.259  0.0000E+00  0.0000E+00
    -13.243  0.0000E+00  0.0000E+00
    -13.226  0.0000E+00  0.0000E+00
    -13.209  0.0000E+00  0.0000E+00
    -13.193  0.0000E+00  0.0000E+00
    -13.176  0.0000E+00  0.0000E+00
    -13.160  0.0000E+00  0.0000E+00
    -13.143  0.0000E+00  0.0000E+00
    -13.126  0.0000E+00  0.0000E+00
    -13.110  0.0000E+00  0.0000E+00
    -13.093  0.0000E+00  0.0000E+00
    -13.076  0.0000E+00  0.0000E+00
    -13.060  0.0000E+00  0.0000E+00
    -13.043  0.0000E+00  0.0000E+00
    -13.026  0.0000E+00  0.0000E+00
    -13.010  0.0000E+00  0.0000E+00
    -12.993  0.0000E+00  0.0000E+00
    -12.976  0.0000E+00  0.0000E+00
    -12.960  0.0000E+00  0.0000E+00
    -12.943  0.0000E+00  0.0000E+00
    -12.926  0.0000E+00  0.0000E+00
    -12.910  0.0000E+00  0.0000E+00
    -12.893  0.0000E+00  0.0000E+00
    -12.876  0.0000E+00  0.0000E+00
    -12.860  0.0000E+00  0.0000E+00
    -12.843  0.0000E+00  0.0000E+00
    -12.826  0.0000E+00  0.0000E+00
    -12.810  0.0000E+00  0.0000E+00
    -12.793  0.0000E+00  0.0000E+00
    -12.777  0.0000E+00  0.0000E+00
    -12.760  0.0000E+00  0.0000E+00
    -12.743  0.3161E-11  0.5264E-13
    -12.727  0.1479E-05  0.2463E-07
    -12.710  0.4125E-02  0.6871E-04
    -12.693  0.1763E+00  0.3004E-02
    -12.677  0.6846E+00  0.1440E-01
    -12.660  0.1062E+01  0.3210E-01
    -12.643  0.1390E+01  0.5524E-01
    -12.627  0.1678E+01  0.8319E-01
    -12.610  0.2064E+01  0.1176E+00
    -12.593  0.2444E+01  0.1583E+00
    -12.577  0.2930E+01  0.2070E+00
    -12.560  0.3087E+01  0.2585E+00
    -12.543  0.2988E+01  0.3082E+00
    -12.527  0.3180E+01  0.3612E+00
    -12.510  0.3325E+01  0.4165E+00
    -12.493  0.3318E+01  0.4718E+00
    -12.477  0.3402E+01  0.5284E+00
    -12.460  0.3543E+01  0.5874E+00
    -12.443  0.4027E+01  0.6545E+00
    -12.427  0.4030E+01  0.7216E+00
    -12.410  0.4351E+01  0.7940E+00
    -12.394  0.4544E+01  0.8697E+00
    -12.377  0.4743E+01  0.9487E+00
    -12.360  0.4438E+01  0.1023E+01
    -12.344  0.4353E+01  0.1095E+01
    -12.327  0.4289E+01  0.1166E+01
    -12.310  0.4117E+01  0.1235E+01
    -12.294  0.3641E+01  0.1296E+01
    -12.277  0.3423E+01  0.1353E+01
    -12.260  0.3358E+01  0.1409E+01
    -12.244  0.2999E+01  0.1459E+01
    -12.227  0.2948E+01  0.1508E+01
    -12.210  0.3001E+01  0.1558E+01
    -12.194  0.3354E+01  0.1613E+01
    -12.177  0.2755E+01  0.1659E+01
    -12.160  0.2298E+01  0.1698E+01
    -12.144  0.2538E+01  0.1740E+01
    -12.127  0.3234E+01  0.1794E+01
    -12.110  0.2963E+01  0.1843E+01
    -12.094  0.2382E+01  0.1883E+01
    -12.077  0.2207E+01  0.1919E+01
    -12.060  0.2245E+01  0.1957E+01
    -12.044  0.3228E+01  0.2011E+01
    -12.027  0.2848E+01  0.2058E+01
    -12.011  0.2322E+01  0.2097E+01
    -11.994  0.2022E+01  0.2130E+01
    -11.977  0.2238E+01  0.2168E+01
    -11.961  0.3201E+01  0.2221E+01
    -11.944  0.2855E+01  0.2268E+01
    -11.927  0.2053E+01  0.2303E+01
    -11.911  0.2238E+01  0.2340E+01
    -11.894  0.2389E+01  0.2380E+01
    -11.877  0.3147E+01  0.2432E+01
    -11.861  0.2731E+01  0.2478E+01
    -11.844  0.2281E+01  0.2516E+01
    -11.827  0.2356E+01  0.2555E+01
    -11.811  0.2557E+01  0.2597E+01
    -11.794  0.3404E+01  0.2654E+01
    -11.777  0.2778E+01  0.2700E+01
    -11.761  0.2543E+01  0.2743E+01
    -11.744  0.2697E+01  0.2788E+01
    -11.727  0.3176E+01  0.2840E+01
    -11.711  0.3743E+01  0.2903E+01
    -11.694  0.3631E+01  0.2963E+01
    -11.677  0.3335E+01  0.3019E+01
    -11.661  0.3474E+01  0.3077E+01
    -11.644  0.3734E+01  0.3139E+01
    -11.628  0.3714E+01  0.3201E+01
    -11.611  0.3604E+01  0.3261E+01
    -11.594  0.3443E+01  0.3318E+01
    -11.578  0.3328E+01  0.3373E+01
    -11.561  0.3548E+01  0.3433E+01
    -11.544  0.3588E+01  0.3492E+01
    -11.528  0.3531E+01  0.3551E+01
    -11.511  0.3220E+01  0.3605E+01
    -11.494  0.2989E+01  0.3655E+01
    -11.478  0.2856E+01  0.3702E+01
    -11.461  0.2892E+01  0.3750E+01
    -11.444  0.2595E+01  0.3793E+01
    -11.428  0.2174E+01  0.3830E+01
    -11.411  0.1957E+01  0.3862E+01
    -11.394  0.1710E+01  0.3891E+01
    -11.378  0.1489E+01  0.3915E+01
    -11.361  0.1198E+01  0.3935E+01
    -11.344  0.1100E+01  0.3954E+01
    -11.328  0.9771E+00  0.3970E+01
    -11.311  0.7151E+00  0.3982E+01
    -11.294  0.6184E+00  0.3992E+01
    -11.278  0.3633E+00  0.3998E+01
    -11.261  0.1007E+00  0.4000E+01
    -11.245  0.2162E-02  0.4000E+01
    -11.228  0.5458E-06  0.4000E+01
    -11.211  0.7320E-12  0.4000E+01
    -11.195  0.0000E+00  0.4000E+01
    -11.178  0.0000E+00  0.4000E+01
    -11.161  0.0000E+00  0.4000E+01
    -11.145  0.0000E+00  0.4000E+01
    -11.128  0.0000E+00  0.4000E+01
    -11.111  0.0000E+00  0.4000E+01
    -11.095  0.0000E+00  0.4000E+01
    -11.078  0.0000E+00  0.4000E+01
    -11.061  0.0000E+00  0.4000E+01
    -11.045  0.0000E+00  0.4000E+01
    -11.028  0.0000E+00  0.4000E+01
    -11.011  0.0000E+00  0.4000E+01
    -10.995  0.0000E+00  0.4000E+01
    -10.978  0.0000E+00  0.4000E+01
    -10.961  0.0000E+00  0.4000E+01
    -10.945  0.0000E+00  0.4000E+01
    -10.928  0.0000E+00  0.4000E+01
    -10.911  0.0000E+00  0.4000E+01
    -10.895  0.0000E+00  0.4000E+01
    -10.878  0.0000E+00  0.4000E+01
    -10.862  0.0000E+00  0.4000E+01
    -10.845  0.0000E+00  0.4000E+01
    -10.828  0.0000E+00  0.4000E+01
    -10.812  0.0000E+00  0.4000E+01
    -10.795  0.0000E+00  0.4000E+01
    -10.778  0.0000E+00  0.4000E+01
    -10.762  0.0000E+00  0.4000E+01
    -10.745  0.0000E+00  0.4000E+01
    -10.728  0.0000E+00  0.4000E+01
    -10.712  0.0000E+00  0.4000E+01
    -10.695  0.0000E+00  0.4000E+01
    -10.678  0.0000E+00  0.4000E+01
    -10.662  0.0000E+00  0.4000E+01
    -10.645  0.0000E+00  0.4000E+01
    -10.628  0.0000E+00  0.4000E+01
    -10.612  0.0000E+00  0.4000E+01
    -10.595  0.0000E+00  0.4000E+01
    -10.578  0.0000E+00  0.4000E+01
    -10.562  0.0000E+00  0.4000E+01
    -10.545  0.0000E+00  0.4000E+01
    -10.528  0.0000E+00  0.4000E+01
    -10.512  0.0000E+00  0.4000E+01
    -10.495  0.0000E+00  0.4000E+01
    -10.479  0.0000E+00  0.4000E+01
    -10.462  0.0000E+00  0.4000E+01
    -10.445  0.0000E+00  0.4000E+01
    -10.429  0.0000E+00  0.4000E+01
    -10.412  0.0000E+00  0.4000E+01
    -10.395  0.0000E+00  0.4000E+01
    -10.379  0.0000E+00  0.4000E+01
    -10.362  0.0000E+00  0.4000E+01
    -10.345  0.0000E+00  0.4000E+01
    -10.329  0.0000E+00  0.4000E+01
    -10.312  0.0000E+00  0.4000E+01
    -10.295  0.0000E+00  0.4000E+01
    -10.279  0.0000E+00  0.4000E+01
    -10.262  0.0000E+00  0.4000E+01
    -10.245  0.0000E+00  0.4000E+01
    -10.229  0.0000E+00  0.4000E+01
    -10.212  0.0000E+00  0.4000E+01
    -10.195  0.0000E+00  0.4000E+01
    -10.179  0.0000E+00  0.4000E+01
    -10.162  0.0000E+00  0.4000E+01
    -10.145  0.0000E+00  0.4000E+01
    -10.129  0.0000E+00  0.4000E+01
    -10.112  0.0000E+00  0.4000E+01
    -10.096  0.0000E+00  0.4000E+01
    -10.079  0.0000E+00  0.4000E+01
    -10.062  0.0000E+00  0.4000E+01
    -10.046  0.0000E+00  0.4000E+01
    -10.029  0.0000E+00  0.4000E+01
    -10.012  0.0000E+00  0.4000E+01
     -9.996  0.0000E+00  0.4000E+01
     -9.979  0.0000E+00  0.4000E+01
     -9.962  0.0000E+00  0.4000E+01
     -9.946  0.0000E+00  0.4000E+01
     -9.929  0.0000E+00  0.4000E+01
     -9.912  0.0000E+00  0.4000E+01
     -9.896  0.0000E+00  0.4000E+01
     -9.879  0.0000E+00  0.4000E+01
     -9.862  0.0000E+00  0.4000E+01
     -9.846  0.0000E+00  0.4000E+01
     -9.829  0.0000E+00  0.4000E+01
     -9.812  0.0000E+00  0.4000E+01
     -9.796  0.0000E+00  0.4000E+01
     -9.779  0.0000E+00  0.4000E+01
     -9.762  0.0000E+00  0.4000E+01
     -9.746  0.0000E+00  0.4000E+01
     -9.729  0.0000E+00  0.4000E+01
     -9.713  0.0000E+00  0.4000E+01
     -9.696  0.0000E+00  0.4000E+01
     -9.679  0.0000E+00  0.4000E+01
     -9.663  0.0000E+00  0.4000E+01
     -9.646  0.0000E+00  0.4000E+01
     -9.629  0.0000E+00  0.4000E+01
     -9.613  0.0000E+00  0.4000E+01
     -9.596  0.0000E+00  0.4000E+01
     -9.579  0.0000E+00  0.4000E+01
     -9.563  0.0000E+00  0.4000E+01
     -9.546  0.0000E+00  0.4000E+01
     -9.529  0.0000E+00  0.4000E+01
     -9.513  0.0000E+00  0.4000E+01
     -9.496  0.0000E+00  0.4000E+01
     -9.479  0.0000E+00  0.4000E+01
     -9.463  0.0000E+00  0.4000E+01
     -9.446  0.0000E+00  0.4000E+01
     -9.429  0.0000E+00  0.4000E+01
     -9.413  0.0000E+00  0.4000E+01
     -9.396  0.0000E+00  0.4000E+01
     -9.379  0.0000E+00  0.4000E+01
     -9.363  0.0000E+00  0.4000E+01
     -9.346  0.0000E+00  0.4000E+01
     -9.330  0.0000E+00  0.4000E+01
     -9.313  0.0000E+00  0.4000E+01
     -9.296  0.0000E+00  0.4000E+01
     -9.280  0.0000E+00  0.4000E+01
     -9.263  0.0000E+00  0.4000E+01
     -9.246  0.0000E+00  0.4000E+01
     -9.230  0.0000E+00  0.4000E+01
     -9.213  0.0000E+00  0.4000E+01
     -9.196  0.0000E+00  0.4000E+01
     -9.180  0.0000E+00  0.4000E+01
     -9.163  0.0000E+00  0.4000E+01
     -9.146  0.0000E+00  0.4000E+01
     -9.130  0.0000E+00  0.4000E+01
     -9.113  0.0000E+00  0.4000E+01
     -9.096  0.0000E+00  0.4000E+01
     -9.080  0.0000E+00  0.4000E+01
     -9.063  0.0000E+00  0.4000E+01
     -9.046  0.0000E+00  0.4000E+01
     -9.030  0.0000E+00  0.4000E+01
     -9.013  0.0000E+00  0.4000E+01
     -8.997  0.0000E+00  0.4000E+01
     -8.980  0.0000E+00  0.4000E+01
     -8.963  0.0000E+00  0.4000E+01
     -8.947  0.0000E+00  0.4000E+01
     -8.930  0.0000E+00  0.4000E+01
     -8.913  0.0000E+00  0.4000E+01
     -8.897  0.0000E+00  0.4000E+01
     -8.880  0.3503E-14  0.4000E+01
     -8.863  0.1434E-07  0.4000E+01
     -8.847  0.3020E-03  0.4000E+01
     -8.830  0.6031E-01  0.4001E+01
     -8.813  0.5210E+00  0.4010E+01
     -8.797  0.1021E+01  0.4027E+01
     -8.780  0.1399E+01  0.4050E+01
     -8.763  0.1749E+01  0.4079E+01
     -8.747  0.1955E+01  0.4112E+01
     -8.730  0.2418E+01  0.4152E+01
     -8.713  0.2766E+01  0.4198E+01
     -8.697  0.2845E+01  0.4245E+01
     -8.680  0.3694E+01  0.4307E+01
     -8.663  0.4182E+01  0.4377E+01
     -8.647  0.5727E+01  0.4472E+01
     -8.630  0.6686E+01  0.4583E+01
     -8.614  0.6464E+01  0.4691E+01
     -8.597  0.6656E+01  0.4802E+01
     -8.580  0.6861E+01  0.4916E+01
     -8.564  0.6859E+01  0.5030E+01
     -8.547  0.6602E+01  0.5140E+01
     -8.530  0.6774E+01  0.5253E+01
     -8.514  0.6916E+01  0.5368E+01
     -8.497  0.6522E+01  0.5477E+01
     -8.480  0.6771E+01  0.5589E+01
     -8.464  0.7028E+01  0.5706E+01
     -8.447  0.6912E+01  0.5822E+01
     -8.430  0.6280E+01  0.5926E+01
     -8.414  0.4786E+01  0.6006E+01
     -8.397  0.3897E+01  0.6071E+01
     -8.380  0.3603E+01  0.6131E+01
     -8.364  0.3569E+01  0.6190E+01
     -8.347  0.4334E+01  0.6262E+01
     -8.330  0.4842E+01  0.6343E+01
     -8.314  0.5203E+01  0.6430E+01
     -8.297  0.5264E+01  0.6517E+01
     -8.280  0.4951E+01  0.6600E+01
     -8.264  0.4989E+01  0.6683E+01
     -8.247  0.4660E+01  0.6760E+01
     -8.231  0.5009E+01  0.6844E+01
     -8.214  0.4583E+01  0.6920E+01
     -8.197  0.4734E+01  0.6999E+01
     -8.181  0.4595E+01  0.7075E+01
     -8.164  0.4309E+01  0.7147E+01
     -8.147  0.4661E+01  0.7225E+01
     -8.131  0.4579E+01  0.7301E+01
     -8.114  0.4364E+01  0.7374E+01
     -8.097  0.4770E+01  0.7453E+01
     -8.081  0.4915E+01  0.7535E+01
     -8.064  0.3885E+01  0.7600E+01
     -8.047  0.3277E+01  0.7654E+01
     -8.031  0.2685E+01  0.7699E+01
     -8.014  0.2698E+01  0.7744E+01
     -7.997  0.2687E+01  0.7789E+01
     -7.981  0.1893E+01  0.7820E+01
     -7.964  0.1700E+01  0.7848E+01
     -7.947  0.1557E+01  0.7874E+01
     -7.931  0.1332E+01  0.7897E+01
     -7.914  0.1284E+01  0.7918E+01
     -7.897  0.1011E+01  0.7935E+01
     -7.881  0.7601E+00  0.7947E+01
     -7.864  0.7891E+00  0.7961E+01
     -7.848  0.7776E+00  0.7974E+01
     -7.831  0.4514E+00  0.7981E+01
     -7.814  0.4362E+00  0.7988E+01
     -7.798  0.4060E+00  0.7995E+01
     -7.781  0.1950E+00  0.7998E+01
     -7.764  0.9705E-01  0.8000E+01
     -7.748  0.3066E-02  0.8000E+01
     -7.731  0.1039E-05  0.8000E+01
     -7.714  0.1910E-11  0.8000E+01
     -7.698  0.0000E+00  0.8000E+01
     -7.681  0.0000E+00  0.8000E+01
     -7.664  0.0000E+00  0.8000E+01
     -7.648  0.0000E+00  0.8000E+01
     -7.631  0.0000E+00  0.8000E+01
     -7.614  0.0000E+00  0.8000E+01
     -7.598  0.0000E+00  0.8000E+01
     -7.581  0.0000E+00  0.8000E+01
     -7.564  0.0000E+00  0.8000E+01
     -7.548  0.0000E+00  0.8000E+01
     -7.531  0.0000E+00  0.8000E+01
     -7.514  0.0000E+00  0.8000E+01
     -7.498  0.0000E+00  0.8000E+01
     -7.481  0.0000E+00  0.8000E+01
     -7.465  0.0000E+00  0.8000E+01
     -7.448  0.0000E+00  0.8000E+01
     -7.431  0.0000E+00  0.8000E+01
     -7.415  0.0000E+00  0.8000E+01
     -7.398  0.0000E+00  0.8000E+01
     -7.381  0.0000E+00  0.8000E+01
     -7.365  0.0000E+00  0.8000E+01
     -7.348  0.0000E+00  0.8000E+01
     -7.331  0.0000E+00  0.8000E+01
     -7.315  0.0000E+00  0.8000E+01
     -7.298  0.0000E+00  0.8000E+01
     -7.281  0.0000E+00  0.8000E+01
     -7.265  0.0000E+00  0.8000E+01
     -7.248  0.0000E+00  0.8000E+01
     -7.231  0.0000E+00  0.8000E+01
     -7.215  0.0000E+00  0.8000E+01
     -7.198  0.0000E+00  0.8000E+01
     -7.181  0.0000E+00  0.8000E+01
     -7.165  0.0000E+00  0.8000E+01
     -7.148  0.0000E+00  0.8000E+01
     -7.131  0.0000E+00  0.8000E+01
     -7.115  0.0000E+00  0.8000E+01
     -7.098  0.0000E+00  0.8000E+01
     -7.082  0.0000E+00  0.8000E+01
     -7.065  0.0000E+00  0.8000E+01
     -7.048  0.0000E+00  0.8000E+01
     -7.032  0.0000E+00  0.8000E+01
     -7.015  0.0000E+00  0.8000E+01
     -6.998  0.7616E-10  0.8000E+01
     -6.982  0.1127E-04  0.8000E+01
     -6.965  0.9750E-02  0.8000E+01
     -6.948  0.1218E+00  0.8002E+01
     -6.932  0.1207E+00  0.8004E+01
     -6.915  0.7813E-01  0.8006E+01
     -6.898  0.1514E+00  0.8008E+01
     -6.882  0.2708E+00  0.8013E+01
     -6.865  0.2543E+00  0.8017E+01
     -6.848  0.2367E+00  0.8021E+01
     -6.832  0.2759E+00  0.8025E+01
     -6.815  0.2993E+00  0.8030E+01
     -6.798  0.3283E+00  0.8036E+01
     -6.782  0.3400E+00  0.8041E+01
     -6.765  0.2909E+00  0.8046E+01
     -6.748  0.3797E+00  0.8053E+01
     -6.732  0.5541E+00  0.8062E+01
     -6.715  0.4293E+00  0.8069E+01
     -6.699  0.5727E+00  0.8078E+01
     -6.682  0.4122E+00  0.8085E+01
     -6.665  0.6420E+00  0.8096E+01
     -6.649  0.6662E+00  0.8107E+01
     -6.632  0.7963E+00  0.8120E+01
     -6.615  0.6632E+00  0.8131E+01
     -6.599  0.5579E+00  0.8141E+01
     -6.582  0.6348E+00  0.8151E+01
     -6.565  0.7219E+00  0.8163E+01
     -6.549  0.8006E+00  0.8177E+01
     -6.532  0.8421E+00  0.8191E+01
     -6.515  0.1051E+01  0.8208E+01
     -6.499  0.9366E+00  0.8224E+01
     -6.482  0.9713E+00  0.8240E+01
     -6.465  0.9257E+00  0.8255E+01
     -6.449  0.1016E+01  0.8272E+01
     -6.432  0.1080E+01  0.8290E+01
     -6.415  0.1141E+01  0.8309E+01
     -6.399  0.1244E+01  0.8330E+01
     -6.382  0.1269E+01  0.8351E+01
     -6.365  0.1516E+01  0.8376E+01
     -6.349  0.1798E+01  0.8406E+01
     -6.332  0.2067E+01  0.8441E+01
     -6.316  0.2251E+01  0.8478E+01
     -6.299  0.1770E+01  0.8508E+01
     -6.282  0.2055E+01  0.8542E+01
     -6.266  0.2005E+01  0.8575E+01
     -6.249  0.2232E+01  0.8612E+01
     -6.232  0.2369E+01  0.8652E+01
     -6.216  0.2916E+01  0.8700E+01
     -6.199  0.3224E+01  0.8754E+01
     -6.182  0.3038E+01  0.8805E+01
     -6.166  0.3231E+01  0.8859E+01
     -6.149  0.3572E+01  0.8918E+01
     -6.132  0.3356E+01  0.8974E+01
     -6.116  0.3536E+01  0.9033E+01
     -6.099  0.3835E+01  0.9097E+01
     -6.082  0.4146E+01  0.9166E+01
     -6.066  0.4140E+01  0.9235E+01
     -6.049  0.4248E+01  0.9305E+01
     -6.032  0.4142E+01  0.9374E+01
     -6.016  0.4297E+01  0.9446E+01
     -5.999  0.3976E+01  0.9512E+01
     -5.982  0.3948E+01  0.9578E+01
     -5.966  0.3930E+01  0.9643E+01
     -5.949  0.3491E+01  0.9701E+01
     -5.933  0.4221E+01  0.9772E+01
     -5.916  0.3918E+01  0.9837E+01
     -5.899  0.4272E+01  0.9908E+01
     -5.883  0.3923E+01  0.9973E+01
     -5.866  0.3837E+01  0.1004E+02
     -5.849  0.3886E+01  0.1010E+02
     -5.833  0.4222E+01  0.1017E+02
     -5.816  0.3977E+01  0.1024E+02
     -5.799  0.4436E+01  0.1031E+02
     -5.783  0.4732E+01  0.1039E+02
     -5.766  0.4382E+01  0.1046E+02
     -5.749  0.4152E+01  0.1053E+02
     -5.733  0.4063E+01  0.1060E+02
     -5.716  0.3916E+01  0.1067E+02
     -5.699  0.3650E+01  0.1073E+02
     -5.683  0.4048E+01  0.1079E+02
     -5.666  0.4330E+01  0.1087E+02
     -5.649  0.3266E+01  0.1092E+02
     -5.633  0.4344E+01  0.1099E+02
     -5.616  0.4107E+01  0.1106E+02
     -5.599  0.3874E+01  0.1113E+02
     -5.583  0.3984E+01  0.1119E+02
     -5.566  0.4559E+01  0.1127E+02
     -5.550  0.4347E+01  0.1134E+02
     -5.533  0.3779E+01  0.1140E+02
     -5.516  0.3810E+01  0.1147E+02
     -5.500  0.4073E+01  0.1153E+02
     -5.483  0.3877E+01  0.1160E+02
     -5.466  0.5172E+01  0.1169E+02
     -5.450  0.4532E+01  0.1176E+02
     -5.433  0.4830E+01  0.1184E+02
     -5.416  0.4996E+01  0.1192E+02
     -5.400  0.4423E+01  0.1200E+02
     -5.383  0.4865E+01  0.1208E+02
     -5.366  0.4586E+01  0.1216E+02
     -5.350  0.4973E+01  0.1224E+02
     -5.333  0.4575E+01  0.1231E+02
     -5.316  0.4979E+01  0.1240E+02
     -5.300  0.4516E+01  0.1247E+02
     -5.283  0.4551E+01  0.1255E+02
     -5.266  0.4657E+01  0.1263E+02
     -5.250  0.4815E+01  0.1271E+02
     -5.233  0.4343E+01  0.1278E+02
     -5.216  0.4499E+01  0.1285E+02
     -5.200  0.4484E+01  0.1293E+02
     -5.183  0.4205E+01  0.1300E+02
     -5.167  0.3771E+01  0.1306E+02
     -5.150  0.3771E+01  0.1312E+02
     -5.133  0.4083E+01  0.1319E+02
     -5.117  0.3927E+01  0.1326E+02
     -5.100  0.3738E+01  0.1332E+02
     -5.083  0.3690E+01  0.1338E+02
     -5.067  0.3597E+01  0.1344E+02
     -5.050  0.3770E+01  0.1350E+02
     -5.033  0.3748E+01  0.1357E+02
     -5.017  0.3066E+01  0.1362E+02
     -5.000  0.3165E+01  0.1367E+02
     -4.983  0.3286E+01  0.1372E+02
     -4.967  0.2943E+01  0.1377E+02
     -4.950  0.2685E+01  0.1382E+02
     -4.933  0.2567E+01  0.1386E+02
     -4.917  0.2310E+01  0.1390E+02
     -4.900  0.2596E+01  0.1394E+02
     -4.883  0.2022E+01  0.1398E+02
     -4.867  0.2055E+01  0.1401E+02
     -4.850  0.2366E+01  0.1405E+02
     -4.833  0.2405E+01  0.1409E+02
     -4.817  0.2571E+01  0.1413E+02
     -4.800  0.2585E+01  0.1418E+02
     -4.784  0.2015E+01  0.1421E+02
     -4.767  0.3164E+01  0.1426E+02
     -4.750  0.3382E+01  0.1432E+02
     -4.734  0.2864E+01  0.1437E+02
     -4.717  0.3056E+01  0.1442E+02
     -4.700  0.2822E+01  0.1446E+02
     -4.684  0.3080E+01  0.1452E+02
     -4.667  0.3419E+01  0.1457E+02
     -4.650  0.3606E+01  0.1463E+02
     -4.634  0.3517E+01  0.1469E+02
     -4.617  0.3081E+01  0.1474E+02
     -4.600  0.3960E+01  0.1481E+02
     -4.584  0.4432E+01  0.1488E+02
     -4.567  0.3665E+01  0.1494E+02
     -4.550  0.3764E+01  0.1501E+02
     -4.534  0.3615E+01  0.1507E+02
     -4.517  0.3129E+01  0.1512E+02
     -4.500  0.3737E+01  0.1518E+02
     -4.484  0.3281E+01  0.1523E+02
     -4.467  0.2998E+01  0.1528E+02
     -4.450  0.3192E+01  0.1534E+02
     -4.434  0.3223E+01  0.1539E+02
     -4.417  0.3443E+01  0.1545E+02
     -4.401  0.2925E+01  0.1550E+02
     -4.384  0.3190E+01  0.1555E+02
     -4.367  0.3210E+01  0.1560E+02
     -4.351  0.2768E+01  0.1565E+02
     -4.334  0.3016E+01  0.1570E+02
     -4.317  0.3010E+01  0.1575E+02
     -4.301  0.3074E+01  0.1580E+02
     -4.284  0.2847E+01  0.1585E+02
     -4.267  0.2910E+01  0.1590E+02
     -4.251  0.2699E+01  0.1594E+02
     -4.234  0.2734E+01  0.1599E+02
     -4.217  0.3169E+01  0.1604E+02
     -4.201  0.2963E+01  0.1609E+02
     -4.184  0.2871E+01  0.1614E+02
     -4.167  0.2794E+01  0.1618E+02
     -4.151  0.2767E+01  0.1623E+02
     -4.134  0.3020E+01  0.1628E+02
     -4.117  0.2722E+01  0.1633E+02
     -4.101  0.2663E+01  0.1637E+02
     -4.084  0.2763E+01  0.1642E+02
     -4.067  0.2739E+01  0.1646E+02
     -4.051  0.3265E+01  0.1652E+02
     -4.034  0.3569E+01  0.1658E+02
     -4.018  0.3275E+01  0.1663E+02
     -4.001  0.2826E+01  0.1668E+02
     -3.984  0.2887E+01  0.1673E+02
     -3.968  0.2758E+01  0.1677E+02
     -3.951  0.2663E+01  0.1682E+02
     -3.934  0.2909E+01  0.1686E+02
     -3.918  0.3726E+01  0.1693E+02
     -3.901  0.3333E+01  0.1698E+02
     -3.884  0.2678E+01  0.1703E+02
     -3.868  0.2701E+01  0.1707E+02
     -3.851  0.2930E+01  0.1712E+02
     -3.834  0.2656E+01  0.1716E+02
     -3.818  0.2667E+01  0.1721E+02
     -3.801  0.3049E+01  0.1726E+02
     -3.784  0.2869E+01  0.1731E+02
     -3.768  0.3489E+01  0.1737E+02
     -3.751  0.3053E+01  0.1742E+02
     -3.734  0.3545E+01  0.1748E+02
     -3.718  0.2867E+01  0.1752E+02
     -3.701  0.3235E+01  0.1758E+02
     -3.684  0.2845E+01  0.1762E+02
     -3.668  0.3081E+01  0.1768E+02
     -3.651  0.2533E+01  0.1772E+02
     -3.635  0.3120E+01  0.1777E+02
     -3.618  0.2829E+01  0.1782E+02
     -3.601  0.3030E+01  0.1787E+02
     -3.585  0.2286E+01  0.1791E+02
     -3.568  0.2455E+01  0.1795E+02
     -3.551  0.2433E+01  0.1799E+02
     -3.535  0.2428E+01  0.1803E+02
     -3.518  0.2525E+01  0.1807E+02
     -3.501  0.2859E+01  0.1812E+02
     -3.485  0.2753E+01  0.1816E+02
     -3.468  0.2785E+01  0.1821E+02
     -3.451  0.2842E+01  0.1826E+02
     -3.435  0.2728E+01  0.1830E+02
     -3.418  0.2959E+01  0.1835E+02
     -3.401  0.3226E+01  0.1841E+02
     -3.385  0.2983E+01  0.1845E+02
     -3.368  0.2597E+01  0.1850E+02
     -3.351  0.2631E+01  0.1854E+02
     -3.335  0.2562E+01  0.1858E+02
     -3.318  0.2220E+01  0.1862E+02
     -3.301  0.2688E+01  0.1867E+02
     -3.285  0.2904E+01  0.1871E+02
     -3.268  0.2109E+01  0.1875E+02
     -3.252  0.2004E+01  0.1878E+02
     -3.235  0.2473E+01  0.1882E+02
     -3.218  0.2287E+01  0.1886E+02
     -3.202  0.2579E+01  0.1891E+02
     -3.185  0.3102E+01  0.1896E+02
     -3.168  0.3343E+01  0.1901E+02
     -3.152  0.2778E+01  0.1906E+02
     -3.135  0.2853E+01  0.1911E+02
     -3.118  0.3489E+01  0.1916E+02
     -3.102  0.3031E+01  0.1921E+02
     -3.085  0.3221E+01  0.1927E+02
     -3.068  0.2635E+01  0.1931E+02
     -3.052  0.2528E+01  0.1935E+02
     -3.035  0.3125E+01  0.1941E+02
     -3.018  0.3219E+01  0.1946E+02
     -3.002  0.3218E+01  0.1951E+02
     -2.985  0.2883E+01  0.1956E+02
     -2.968  0.2472E+01  0.1960E+02
     -2.952  0.2909E+01  0.1965E+02
     -2.935  0.2881E+01  0.1970E+02
     -2.918  0.3354E+01  0.1976E+02
     -2.902  0.3506E+01  0.1981E+02
     -2.885  0.3136E+01  0.1987E+02
     -2.869  0.2560E+01  0.1991E+02
     -2.852  0.2702E+01  0.1995E+02
     -2.835  0.2307E+01  0.1999E+02
     -2.819  0.2687E+01  0.2004E+02
     -2.802  0.2251E+01  0.2007E+02
     -2.785  0.2089E+01  0.2011E+02
     -2.769  0.1905E+01  0.2014E+02
     -2.752  0.2173E+01  0.2018E+02
     -2.735  0.2695E+01  0.2022E+02
     -2.719  0.2593E+01  0.2026E+02
     -2.702  0.2409E+01  0.2030E+02
     -2.685  0.2318E+01  0.2034E+02
     -2.669  0.2286E+01  0.2038E+02
     -2.652  0.2397E+01  0.2042E+02
     -2.635  0.1948E+01  0.2045E+02
     -2.619  0.2147E+01  0.2049E+02
     -2.602  0.2091E+01  0.2052E+02
     -2.585  0.2475E+01  0.2057E+02
     -2.569  0.2743E+01  0.2061E+02
     -2.552  0.2913E+01  0.2066E+02
     -2.535  0.2884E+01  0.2071E+02
     -2.519  0.3279E+01  0.2076E+02
     -2.502  0.3440E+01  0.2082E+02
     -2.486  0.3139E+01  0.2087E+02
     -2.469  0.3428E+01  0.2093E+02
     -2.452  0.3372E+01  0.2099E+02
     -2.436  0.3355E+01  0.2104E+02
     -2.419  0.2882E+01  0.2109E+02
     -2.402  0.3075E+01  0.2114E+02
     -2.386  0.3369E+01  0.2120E+02
     -2.369  0.3222E+01  0.2125E+02
     -2.352  0.3234E+01  0.2130E+02
     -2.336  0.3913E+01  0.2137E+02
     -2.319  0.4579E+01  0.2145E+02
     -2.302  0.4488E+01  0.2152E+02
     -2.286  0.3636E+01  0.2158E+02
     -2.269  0.2870E+01  0.2163E+02
     -2.252  0.3216E+01  0.2168E+02
     -2.236  0.4279E+01  0.2175E+02
     -2.219  0.3613E+01  0.2181E+02
     -2.202  0.3280E+01  0.2187E+02
     -2.186  0.3134E+01  0.2192E+02
     -2.169  0.3647E+01  0.2198E+02
     -2.152  0.3637E+01  0.2204E+02
     -2.136  0.4226E+01  0.2211E+02
     -2.119  0.4260E+01  0.2218E+02
     -2.103  0.3516E+01  0.2224E+02
     -2.086  0.3373E+01  0.2230E+02
     -2.069  0.2651E+01  0.2234E+02
     -2.053  0.3144E+01  0.2239E+02
     -2.036  0.3220E+01  0.2245E+02
     -2.019  0.2990E+01  0.2250E+02
     -2.003  0.3054E+01  0.2255E+02
     -1.986  0.3791E+01  0.2261E+02