       N       E                     dE             d eps       ncg     rms          rms(c)
DAV:   1    -0.971877803219E+02   -0.97188E+02   -0.39887E+00362880   0.397E+00    0.119E+01
DAV:   2    -0.923857656616E+02    0.48020E+01   -0.26955E+00437208   0.389E+00    0.692E+00
DAV:   3    -0.906020603258E+02    0.17837E+01   -0.12445E+00446952   0.254E+00    0.152E+00
DAV:   4    -0.906123023220E+02   -0.10242E-01   -0.20013E-01418488   0.695E-01    0.880E-01
DAV:   5    -0.906276384478E+02   -0.15336E-01   -0.88609E-03439968   0.166E-01    0.200E-01
DAV:   6    -0.906319441487E+02   -0.43057E-02   -0.12642E-03428592   0.620E-02    0.765E-02
DAV:   7    -0.906332802160E+02   -0.13361E-02   -0.37581E-04425664   0.346E-02    0.346E-02
DAV:   8    -0.906333348154E+02   -0.54599E-04   -0.26879E-05439200   0.100E-02    0.549E-03
DAV:   9    -0.906333413312E+02   -0.65158E-05   -0.29898E-06425376   0.329E-03    0.196E-03
DAV:  10    -0.906333418702E+02   -0.53897E-06   -0.16064E-07436032   0.704E-04
   1 F= -.90633342E+02 E0= -.90633272E+02  d E =-.139024E-03
 imaginary and real dielectric function
