<?xml version="1.0" encoding="ISO-8859-1"?>
<modeling>
 <generator>
  <i name="program" type="string">vasp </i>
  <i name="version" type="string">6.4.3  </i>
  <i name="subversion" type="string">19Mar24 (build May 31 2024 16:31:43) complex                          parallel </i>
  <i name="platform" type="string">LinuxIFC </i>
  <i name="date" type="string">2024 10 30 </i>
  <i name="time" type="string">18:10:08 </i>
 </generator>
 <incar>
  <i type="string" name="SYSTEM">Kpoints</i>
  <i type="int" name="ISTART">     0</i>
  <i type="string" name="PREC">Accurate</i>
  <i type="string" name="ALGO">Normal</i>
  <i type="int" name="ISPIN">     1</i>
  <i type="int" name="ICHARG">     2</i>
  <i type="int" name="NELM">   100</i>
  <i type="int" name="IBRION">    -1</i>
  <i name="EDIFF">      0.00000100</i>
  <i name="EDIFFG">     -0.00100000</i>
  <i type="int" name="NSW">     0</i>
  <i type="int" name="ISIF">     2</i>
  <i name="ENCUT">    375.00000000</i>
  <i name="POTIM">      0.50000000</i>
  <i type="int" name="ISMEAR">     0</i>
  <i name="SIGMA">      0.05000000</i>
  <i type="logical" name="LWAVE"> F  </i>
  <i type="logical" name="LCHARG"> F  </i>
  <i type="string" name="GGA">PE</i>
 </incar>
 <primitive_cell>
  <structure name="primitive_cell" >
   <crystal>
    <varray name="basis" >
     <v>       5.69700000       0.00000000       0.00000000 </v>
     <v>       0.00000000       4.04790000       0.00000000 </v>
     <v>       0.00000000       0.00000000       6.20420000 </v>
    </varray>
    <i name="volume">    143.07435078 </i>
    <varray name="rec_basis" >
     <v>       0.17553098       0.00000000       0.00000000 </v>
     <v>       0.00000000       0.24704168       0.00000000 </v>
     <v>       0.00000000       0.00000000       0.16118114 </v>
    </varray>
   </crystal>
   <varray name="positions" >
    <v>       0.52123000       0.50000000       0.63796000 </v>
    <v>       0.47877000       0.50000000       0.36204000 </v>
    <v>       0.97877000       0.50000000       0.63796000 </v>
    <v>       0.02123000       0.50000000       0.36204000 </v>
    <v>       0.60090000       0.50000000       0.89991000 </v>
    <v>       0.39910000       0.50000000       0.10009000 </v>
    <v>       0.89910000       0.50000000       0.89991000 </v>
    <v>       0.10090000       0.50000000       0.10009000 </v>
    <v>       0.75000000       0.79171000       0.72973000 </v>
    <v>       0.25000000       0.20829000       0.27027000 </v>
    <v>       0.75000000       0.20829000       0.72973000 </v>
    <v>       0.25000000       0.79171000       0.27027000 </v>
    <v>       0.25000000       0.50000000       0.52367000 </v>
    <v>       0.75000000       0.50000000       0.47633000 </v>
   </varray>
  </structure>
  <varray name="primitive_index" >
   <v type="int" >        1 </v>
   <v type="int" >        2 </v>
   <v type="int" >        3 </v>
   <v type="int" >        4 </v>
   <v type="int" >        5 </v>
   <v type="int" >        6 </v>
   <v type="int" >        7 </v>
   <v type="int" >        8 </v>
   <v type="int" >        9 </v>
   <v type="int" >       10 </v>
   <v type="int" >       11 </v>
   <v type="int" >       12 </v>
   <v type="int" >       13 </v>
   <v type="int" >       14 </v>
  </varray>
 </primitive_cell>
 <kpoints>
  <generation param="Monkhorst-Pack">
   <v type="int" name="divisions">      10       14        9 </v>
   <v name="usershift">      0.00000000       0.00000000       0.00000000 </v>
   <v name="genvec1">      0.10000000       0.00000000       0.00000000 </v>
   <v name="genvec2">      0.00000000       0.07142857       0.00000000 </v>
   <v name="genvec3">      0.00000000       0.00000000       0.11111111 </v>
   <v name="shift">      0.50000000       0.50000000       0.00000000 </v>
  </generation>
  <varray name="kpointlist" >
   <v>       0.05000000       0.03571429       0.00000000 </v>
   <v>       0.15000000       0.03571429       0.00000000 </v>
   <v>       0.25000000       0.03571429       0.00000000 </v>
   <v>       0.35000000       0.03571429       0.00000000 </v>
   <v>       0.45000000       0.03571429       0.00000000 </v>
   <v>       0.05000000       0.10714286       0.00000000 </v>
   <v>       0.15000000       0.10714286       0.00000000 </v>
   <v>       0.25000000       0.10714286       0.00000000 </v>
   <v>       0.35000000       0.10714286       0.00000000 </v>
   <v>       0.45000000       0.10714286       0.00000000 </v>
   <v>       0.05000000       0.17857143       0.00000000 </v>
   <v>       0.15000000       0.17857143       0.00000000 </v>
   <v>       0.25000000       0.17857143       0.00000000 </v>
   <v>       0.35000000       0.17857143       0.00000000 </v>
   <v>       0.45000000       0.17857143       0.00000000 </v>
   <v>       0.05000000       0.25000000       0.00000000 </v>
   <v>       0.15000000       0.25000000       0.00000000 </v>
   <v>       0.25000000       0.25000000       0.00000000 </v>
   <v>       0.35000000       0.25000000       0.00000000 </v>
   <v>       0.45000000       0.25000000       0.00000000 </v>
   <v>       0.05000000       0.32142857       0.00000000 </v>
   <v>       0.15000000       0.32142857       0.00000000 </v>
   <v>       0.25000000       0.32142857       0.00000000 </v>
   <v>       0.35000000       0.32142857       0.00000000 </v>
   <v>       0.45000000       0.32142857       0.00000000 </v>
   <v>       0.05000000       0.39285714       0.00000000 </v>
   <v>       0.15000000       0.39285714       0.00000000 </v>
   <v>       0.25000000       0.39285714       0.00000000 </v>
   <v>       0.35000000       0.39285714       0.00000000 </v>
   <v>       0.45000000       0.39285714       0.00000000 </v>
   <v>       0.05000000       0.46428571       0.00000000 </v>
   <v>       0.15000000       0.46428571       0.00000000 </v>
   <v>       0.25000000       0.46428571       0.00000000 </v>
   <v>       0.35000000       0.46428571       0.00000000 </v>
   <v>       0.45000000       0.46428571       0.00000000 </v>
   <v>       0.05000000       0.03571429       0.11111111 </v>
   <v>       0.15000000       0.03571429       0.11111111 </v>
   <v>       0.25000000       0.03571429       0.11111111 </v>
   <v>       0.35000000       0.03571429       0.11111111 </v>
   <v>       0.45000000       0.03571429       0.11111111 </v>
   <v>       0.05000000       0.10714286       0.11111111 </v>
   <v>       0.15000000       0.10714286       0.11111111 </v>
   <v>       0.25000000       0.10714286       0.11111111 </v>
   <v>       0.35000000       0.10714286       0.11111111 </v>
   <v>       0.45000000       0.10714286       0.11111111 </v>
   <v>       0.05000000       0.17857143       0.11111111 </v>
   <v>       0.15000000       0.17857143       0.11111111 </v>
   <v>       0.25000000       0.17857143       0.11111111 </v>
   <v>       0.35000000       0.17857143       0.11111111 </v>
   <v>       0.45000000       0.17857143       0.11111111 </v>
   <v>       0.05000000       0.25000000       0.11111111 </v>
   <v>       0.15000000       0.25000000       0.11111111 </v>
   <v>       0.25000000       0.25000000       0.11111111 </v>
   <v>       0.35000000       0.25000000       0.11111111 </v>
   <v>       0.45000000       0.25000000       0.11111111 </v>
   <v>       0.05000000       0.32142857       0.11111111 </v>
   <v>       0.15000000       0.32142857       0.11111111 </v>
   <v>       0.25000000       0.32142857       0.11111111 </v>
   <v>       0.35000000       0.32142857       0.11111111 </v>
   <v>       0.45000000       0.32142857       0.11111111 </v>
   <v>       0.05000000       0.39285714       0.11111111 </v>
   <v>       0.15000000       0.39285714       0.11111111 </v>
   <v>       0.25000000       0.39285714       0.11111111 </v>
   <v>       0.35000000       0.39285714       0.11111111 </v>
   <v>       0.45000000       0.39285714       0.11111111 </v>
   <v>       0.05000000       0.46428571       0.11111111 </v>
   <v>       0.15000000       0.46428571       0.11111111 </v>
   <v>       0.25000000       0.46428571       0.11111111 </v>
   <v>       0.35000000       0.46428571       0.11111111 </v>
   <v>       0.45000000       0.46428571       0.11111111 </v>
   <v>       0.05000000       0.03571429       0.22222222 </v>
   <v>       0.15000000       0.03571429       0.22222222 </v>
   <v>       0.25000000       0.03571429       0.22222222 </v>
   <v>       0.35000000       0.03571429       0.22222222 </v>
   <v>       0.45000000       0.03571429       0.22222222 </v>
   <v>       0.05000000       0.10714286       0.22222222 </v>
   <v>       0.15000000       0.10714286       0.22222222 </v>
   <v>       0.25000000       0.10714286       0.22222222 </v>
   <v>       0.35000000       0.10714286       0.22222222 </v>
   <v>       0.45000000       0.10714286       0.22222222 </v>
   <v>       0.05000000       0.17857143       0.22222222 </v>
   <v>       0.15000000       0.17857143       0.22222222 </v>
   <v>       0.25000000       0.17857143       0.22222222 </v>
   <v>       0.35000000       0.17857143       0.22222222 </v>
   <v>       0.45000000       0.17857143       0.22222222 </v>
   <v>       0.05000000       0.25000000       0.22222222 </v>
   <v>       0.15000000       0.25000000       0.22222222 </v>
   <v>       0.25000000       0.25000000       0.22222222 </v>
   <v>       0.35000000       0.25000000       0.22222222 </v>
   <v>       0.45000000       0.25000000       0.22222222 </v>
   <v>       0.05000000       0.32142857       0.22222222 </v>
   <v>       0.15000000       0.32142857       0.22222222 </v>
   <v>       0.25000000       0.32142857       0.22222222 </v>
   <v>       0.35000000       0.32142857       0.22222222 </v>
   <v>       0.45000000       0.32142857       0.22222222 </v>
   <v>       0.05000000       0.39285714       0.22222222 </v>
   <v>       0.15000000       0.39285714       0.22222222 </v>
   <v>       0.25000000       0.39285714       0.22222222 </v>
   <v>       0.35000000       0.39285714       0.22222222 </v>
   <v>       0.45000000       0.39285714       0.22222222 </v>
   <v>       0.05000000       0.46428571       0.22222222 </v>
   <v>       0.15000000       0.46428571       0.22222222 </v>
   <v>       0.25000000       0.46428571       0.22222222 </v>
   <v>       0.35000000       0.46428571       0.22222222 </v>
   <v>       0.45000000       0.46428571       0.22222222 </v>
   <v>       0.05000000       0.03571429       0.33333333 </v>
   <v>       0.15000000       0.03571429       0.33333333 </v>
   <v>       0.25000000       0.03571429       0.33333333 </v>
   <v>       0.35000000       0.03571429       0.33333333 </v>
   <v>       0.45000000       0.03571429       0.33333333 </v>
   <v>       0.05000000       0.10714286       0.33333333 </v>
   <v>       0.15000000       0.10714286       0.33333333 </v>
   <v>       0.25000000       0.10714286       0.33333333 </v>
   <v>       0.35000000       0.10714286       0.33333333 </v>
   <v>       0.45000000       0.10714286       0.33333333 </v>
   <v>       0.05000000       0.17857143       0.33333333 </v>
   <v>       0.15000000       0.17857143       0.33333333 </v>
   <v>       0.25000000       0.17857143       0.33333333 </v>
   <v>       0.35000000       0.17857143       0.33333333 </v>
   <v>       0.45000000       0.17857143       0.33333333 </v>
   <v>       0.05000000       0.25000000       0.33333333 </v>
   <v>       0.15000000       0.25000000       0.33333333 </v>
   <v>       0.25000000       0.25000000       0.33333333 </v>
   <v>       0.35000000       0.25000000       0.33333333 </v>
   <v>       0.45000000       0.25000000       0.33333333 </v>
   <v>       0.05000000       0.32142857       0.33333333 </v>
   <v>       0.15000000       0.32142857       0.33333333 </v>
   <v>       0.25000000       0.32142857       0.33333333 </v>
   <v>       0.35000000       0.32142857       0.33333333 </v>
   <v>       0.45000000       0.32142857       0.33333333 </v>
   <v>       0.05000000       0.39285714       0.33333333 </v>
   <v>       0.15000000       0.39285714       0.33333333 </v>
   <v>       0.25000000       0.39285714       0.33333333 </v>
   <v>       0.35000000       0.39285714       0.33333333 </v>
   <v>       0.45000000       0.39285714       0.33333333 </v>
   <v>       0.05000000       0.46428571       0.33333333 </v>
   <v>       0.15000000       0.46428571       0.33333333 </v>
   <v>       0.25000000       0.46428571       0.33333333 </v>
   <v>       0.35000000       0.46428571       0.33333333 </v>
   <v>       0.45000000       0.46428571       0.33333333 </v>
   <v>       0.05000000       0.03571429       0.44444444 </v>
   <v>       0.15000000       0.03571429       0.44444444 </v>
   <v>       0.25000000       0.03571429       0.44444444 </v>
   <v>       0.35000000       0.03571429       0.44444444 </v>
   <v>       0.45000000       0.03571429       0.44444444 </v>
   <v>       0.05000000       0.10714286       0.44444444 </v>
   <v>       0.15000000       0.10714286       0.44444444 </v>
   <v>       0.25000000       0.10714286       0.44444444 </v>
   <v>       0.35000000       0.10714286       0.44444444 </v>
   <v>       0.45000000       0.10714286       0.44444444 </v>
   <v>       0.05000000       0.17857143       0.44444444 </v>
   <v>       0.15000000       0.17857143       0.44444444 </v>
   <v>       0.25000000       0.17857143       0.44444444 </v>
   <v>       0.35000000       0.17857143       0.44444444 </v>
   <v>       0.45000000       0.17857143       0.44444444 </v>
   <v>       0.05000000       0.25000000       0.44444444 </v>
   <v>       0.15000000       0.25000000       0.44444444 </v>
   <v>       0.25000000       0.25000000       0.44444444 </v>
   <v>       0.35000000       0.25000000       0.44444444 </v>
   <v>       0.45000000       0.25000000       0.44444444 </v>
   <v>       0.05000000       0.32142857       0.44444444 </v>
   <v>       0.15000000       0.32142857       0.44444444 </v>
   <v>       0.25000000       0.32142857       0.44444444 </v>
   <v>       0.35000000       0.32142857       0.44444444 </v>
   <v>       0.45000000       0.32142857       0.44444444 </v>
   <v>       0.05000000       0.39285714       0.44444444 </v>
   <v>       0.15000000       0.39285714       0.44444444 </v>
   <v>       0.25000000       0.39285714       0.44444444 </v>
   <v>       0.35000000       0.39285714       0.44444444 </v>
   <v>       0.45000000       0.39285714       0.44444444 </v>
   <v>       0.05000000       0.46428571       0.44444444 </v>
   <v>       0.15000000       0.46428571       0.44444444 </v>
   <v>       0.25000000       0.46428571       0.44444444 </v>
   <v>       0.35000000       0.46428571       0.44444444 </v>
   <v>       0.45000000       0.46428571       0.44444444 </v>
  </varray>
  <varray name="weights" >
   <v>       0.00317460 </v>
   <v>       0.00317460 </v>
   <v>       0.00317460 </v>
   <v>       0.00317460 </v>
   <v>       0.00317460 </v>
   <v>       0.00317460 </v>
   <v>       0.00317460 </v>
   <v>       0.00317460 </v>
   <v>       0.00317460 </v>
   <v>       0.00317460 </v>
   <v>       0.00317460 </v>
   <v>       0.00317460 </v>
   <v>       0.00317460 </v>
   <v>       0.00317460 </v>
   <v>       0.00317460 </v>
   <v>       0.00317460 </v>
   <v>       0.00317460 </v>
   <v>       0.00317460 </v>
   <v>       0.00317460 </v>
   <v>       0.00317460 </v>
   <v>       0.00317460 </v>
   <v>       0.00317460 </v>
   <v>       0.00317460 </v>
   <v>       0.00317460 </v>
   <v>       0.00317460 </v>
   <v>       0.00317460 </v>
   <v>       0.00317460 </v>
   <v>       0.00317460 </v>
   <v>       0.00317460 </v>
   <v>       0.00317460 </v>
   <v>       0.00317460 </v>
   <v>       0.00317460 </v>
   <v>       0.00317460 </v>
   <v>       0.00317460 </v>
   <v>       0.00317460 </v>
   <v>       0.00634921 </v>
   <v>       0.00634921 </v>
   <v>       0.00634921 </v>
   <v>       0.00634921 </v>
   <v>       0.00634921 </v>
   <v>       0.00634921 </v>
   <v>       0.00634921 </v>
   <v>       0.00634921 </v>
   <v>       0.00634921 </v>
   <v>       0.00634921 </v>
   <v>       0.00634921 </v>
   <v>       0.00634921 </v>
   <v>       0.00634921 </v>
   <v>       0.00634921 </v>
   <v>       0.00634921 </v>
   <v>       0.00634921 </v>
   <v>       0.00634921 </v>
   <v>       0.00634921 </v>
   <v>       0.00634921 </v>
   <v>       0.00634921 </v>
   <v>       0.00634921 </v>
   <v>       0.00634921 </v>
   <v>       0.00634921 </v>
   <v>       0.00634921 </v>
   <v>       0.00634921 </v>
   <v>       0.00634921 </v>
   <v>       0.00634921 </v>
   <v>       0.00634921 </v>
   <v>       0.00634921 </v>
   <v>       0.00634921 </v>
   <v>       0.00634921 </v>
   <v>       0.00634921 </v>
   <v>       0.00634921 </v>
   <v>       0.00634921 </v>
   <v>       0.00634921 </v>
   <v>       0.00634921 </v>
   <v>       0.00634921 </v>
   <v>       0.00634921 </v>
   <v>       0.00634921 </v>
   <v>       0.00634921 </v>
   <v>       0.00634921 </v>
   <v>       0.00634921 </v>
   <v>       0.00634921 </v>
   <v>       0.00634921 </v>
   <v>       0.00634921 </v>
   <v>       0.00634921 </v>
   <v>       0.00634921 </v>
   <v>       0.00634921 </v>
   <v>       0.00634921 </v>
   <v>       0.00634921 </v>
   <v>       0.00634921 </v>
   <v>       0.00634921 </v>
   <v>       0.00634921 </v>
   <v>       0.00634921 </v>
   <v>       0.00634921 </v>
   <v>       0.00634921 </v>
   <v>       0.00634921 </v>
   <v>       0.00634921 </v>
   <v>       0.00634921 </v>
   <v>       0.00634921 </v>
   <v>       0.00634921 </v>
   <v>       0.00634921 </v>
   <v>       0.00634921 </v>
   <v>       0.00634921 </v>
   <v>       0.00634921 </v>
   <v>       0.00634921 </v>
   <v>       0.00634921 </v>
   <v>       0.00634921 </v>
   <v>       0.00634921 </v>
   <v>       0.00634921 </v>
   <v>       0.00634921 </v>
   <v>       0.00634921 </v>
   <v>       0.00634921 </v>
   <v>       0.00634921 </v>
   <v>       0.00634921 </v>
   <v>       0.00634921 </v>
   <v>       0.00634921 </v>
   <v>       0.00634921 </v>
   <v>       0.00634921 </v>
   <v>       0.00634921 </v>
   <v>       0.00634921 </v>
   <v>       0.00634921 </v>
   <v>       0.00634921 </v>
   <v>       0.00634921 </v>
   <v>       0.00634921 </v>
   <v>       0.00634921 </v>
   <v>       0.00634921 </v>
   <v>       0.00634921 </v>
   <v>       0.00634921 </v>
   <v>       0.00634921 </v>
   <v>       0.00634921 </v>
   <v>       0.00634921 </v>
   <v>       0.00634921 </v>
   <v>       0.00634921 </v>
   <v>       0.00634921 </v>
   <v>       0.00634921 </v>
   <v>       0.00634921 </v>
   <v>       0.00634921 </v>
   <v>       0.00634921 </v>
   <v>       0.00634921 </v>
   <v>       0.00634921 </v>
   <v>       0.00634921 </v>
   <v>       0.00634921 </v>
   <v>       0.00634921 </v>
   <v>       0.00634921 </v>
   <v>       0.00634921 </v>
   <v>       0.00634921 </v>
   <v>       0.00634921 </v>
   <v>       0.00634921 </v>
   <v>       0.00634921 </v>
   <v>       0.00634921 </v>
   <v>       0.00634921 </v>
   <v>       0.00634921 </v>
   <v>       0.00634921 </v>
   <v>       0.00634921 </v>
   <v>       0.00634921 </v>
   <v>       0.00634921 </v>
   <v>       0.00634921 </v>
   <v>       0.00634921 </v>
   <v>       0.00634921 </v>
   <v>       0.00634921 </v>
   <v>       0.00634921 </v>
   <v>       0.00634921 </v>
   <v>       0.00634921 </v>
   <v>       0.00634921 </v>
   <v>       0.00634921 </v>
   <v>       0.00634921 </v>
   <v>       0.00634921 </v>
   <v>       0.00634921 </v>
   <v>       0.00634921 </v>
   <v>       0.00634921 </v>
   <v>       0.00634921 </v>
   <v>       0.00634921 </v>
   <v>       0.00634921 </v>
   <v>       0.00634921 </v>
   <v>       0.00634921 </v>
   <v>       0.00634921 </v>
   <v>       0.00634921 </v>
   <v>       0.00634921 </v>
   <v>       0.00634921 </v>
  </varray>
 </kpoints>
 <parameters>
  <separator name="general" >
   <i type="string" name="SYSTEM">Kpoints</i>
   <i type="logical" name="LCOMPAT"> F  </i>
  </separator>
  <separator name="electronic" >
   <i type="string" name="PREC">accura</i>
   <i name="ENMAX">    375.00000000</i>
   <i name="ENAUG">    535.51400000</i>
   <i name="EDIFF">      0.00000100</i>
   <i type="int" name="IALGO">    38</i>
   <i type="int" name="IWAVPR">    10</i>
   <i type="int" name="NBANDS">    48</i>
   <i type="int" name="NBANDSLOW">    -1</i>
   <i type="int" name="NBANDSHIGH">    -1</i>
   <i name="NELECT">     42.00000000</i>
   <i type="int" name="TURBO">     0</i>
   <i type="int" name="IRESTART">     0</i>
   <i type="int" name="NREBOOT">     0</i>
   <i type="int" name="NMIN">     0</i>
   <i name="EREF">      0.00000000</i>
   <separator name="electronic smearing" >
    <i type="int" name="ISMEAR">     0</i>
    <i name="SIGMA">      0.05000000</i>
    <i name="KSPACING">      0.50000000</i>
    <i type="logical" name="KGAMMA"> T  </i>
    <i type="logical" name="KBLOWUP"> T  </i>
   </separator>
   <separator name="electronic projectors" >
    <i type="logical" name="LREAL"> F  </i>
    <v name="ROPT">      0.00000000</v>
    <i type="int" name="LMAXPAW">  -100</i>
    <i type="int" name="LMAXMIX">     2</i>
    <i type="logical" name="NLSPLINE"> F  </i>
   </separator>
   <separator name="electronic startup" >
    <i type="int" name="ISTART">     0</i>
    <i type="int" name="ICHARG">     2</i>
    <i type="int" name="INIWAV">     1</i>
   </separator>
   <separator name="electronic spin" >
    <i type="int" name="ISPIN">     1</i>
    <i type="logical" name="LNONCOLLINEAR"> F  </i>
    <v name="MAGMOM">      1.00000000      1.00000000      1.00000000      1.00000000      1.00000000      1.00000000      1.00000000      1.00000000      1.00000000      1.00000000      1.00000000      1.00000000      1.00000000      1.00000000</v>
    <i name="NUPDOWN">     -1.00000000</i>
    <i type="logical" name="LSORBIT"> F  </i>
    <v name="SAXIS">      0.00000000      0.00000000      1.00000000</v>
    <i type="logical" name="LSPIRAL"> F  </i>
    <v name="QSPIRAL">      0.00000000      0.00000000      0.00000000</v>
    <i type="logical" name="LZEROZ"> F  </i>
   </separator>
   <separator name="electronic exchange-correlation" >
    <i type="logical" name="LASPH"> F  </i>
   </separator>
   <separator name="electronic convergence" >
    <i type="int" name="NELM">   100</i>
    <i type="int" name="NELMDL">    -5</i>
    <i type="int" name="NELMIN">     2</i>
    <i name="ENINI">    375.00000000</i>
    <separator name="electronic convergence detail" >
     <i type="logical" name="LDIAG"> T  </i>
     <i type="logical" name="LSUBROT"> F  </i>
     <i name="WEIMIN">      0.00000000</i>
     <i name="EBREAK">      0.00000001</i>
     <i name="DEPER">      0.30000000</i>
     <i type="int" name="NRMM">     4</i>
     <i name="TIME">      0.40000000</i>
    </separator>
   </separator>
   <separator name="electronic mixer" >
    <i name="AMIX">      0.40000000</i>
    <i name="BMIX">      1.00000000</i>
    <i name="AMIN">      0.10000000</i>
    <i name="AMIX_MAG">      1.60000000</i>
    <i name="BMIX_MAG">      1.00000000</i>
    <separator name="electronic mixer details" >
     <i type="int" name="IMIX">     4</i>
     <i type="logical" name="MIXFIRST"> F  </i>
     <i type="int" name="MAXMIX">   -45</i>
     <i name="WC">    100.00000000</i>
     <i type="int" name="INIMIX">     1</i>
     <i type="int" name="MIXPRE">     1</i>
     <i type="int" name="MREMOVE">     5</i>
    </separator>
   </separator>
   <separator name="electronic dipolcorrection" >
    <i type="logical" name="LDIPOL"> F  </i>
    <i type="logical" name="LMONO"> F  </i>
    <i type="int" name="IDIPOL">     0</i>
    <i name="EPSILON">      1.00000000</i>
    <v name="DIPOL">   -100.00000000   -100.00000000   -100.00000000</v>
    <i name="EFIELD">      0.00000000</i>
    <i type="logical" name="LVACPOTAV"> F  </i>
   </separator>
  </separator>
  <separator name="grids" >
   <i type="int" name="NGX">    36</i>
   <i type="int" name="NGY">    28</i>
   <i type="int" name="NGZ">    40</i>
   <i type="int" name="NGXF">    72</i>
   <i type="int" name="NGYF">    56</i>
   <i type="int" name="NGZF">    80</i>
   <i type="logical" name="ADDGRID"> F  </i>
  </separator>
  <separator name="ionic" >
   <i type="int" name="NSW">     0</i>
   <i type="int" name="IBRION">    -1</i>
   <i type="int" name="MDALGO">     0</i>
   <i type="int" name="ISIF">     2</i>
   <i name="PSTRESS">      0.00000000</i>
   <i name="EDIFFG">     -0.00100000</i>
   <i type="int" name="NFREE">     0</i>
   <i name="POTIM">      0.50000000</i>
   <i name="SMASS">     -3.00000000</i>
   <i name="SCALEE">      1.00000000</i>
  </separator>
  <separator name="ionic md" >
   <i name="TEBEG">      0.00010000</i>
   <i name="TEEND">      0.00010000</i>
   <i type="int" name="NBLOCK">     1</i>
   <i type="int" name="KBLOCK">     1</i>
   <i type="int" name="NPACO">   256</i>
   <i name="APACO">     10.00000000</i>
  </separator>
  <separator name="symmetry" >
   <i type="int" name="ISYM">     2</i>
   <i name="SYMPREC">      0.00001000</i>
  </separator>
  <separator name="dos" >
   <i type="int" name="LORBIT">     0</i>
   <v name="RWIGS">     -1.00000000</v>
   <i type="int" name="NEDOS">   301</i>
   <i name="EMIN">     10.00000000</i>
   <i name="EMAX">    -10.00000000</i>
   <i name="EFERMI">      0.00000000</i>
  </separator>
  <separator name="writing" >
   <i type="int" name="NWRITE">     2</i>
   <i type="logical" name="LWAVE"> F  </i>
   <i type="logical" name="LDOWNSAMPLE"> F  </i>
   <i type="logical" name="LCHARG"> F  </i>
   <i type="logical" name="LPARD"> F  </i>
   <i type="logical" name="LVTOT"> F  </i>
   <i type="logical" name="LVHAR"> F  </i>
   <i type="logical" name="LELF"> F  </i>
   <i type="logical" name="LOPTICS"> F  </i>
   <v name="STM">      0.00000000      0.00000000      0.00000000      0.00000000      0.00000000      0.00000000      0.00000000</v>
  </separator>
  <separator name="performance" >
   <i type="int" name="NPAR">    24</i>
   <i type="int" name="NSIM">     4</i>
   <i type="int" name="NBLK">    -1</i>
   <i type="logical" name="LPLANE"> T  </i>
   <i type="logical" name="LSCALAPACK"> T  </i>
   <i type="logical" name="LSCAAWARE"> F  </i>
   <i type="logical" name="LSCALU"> F  </i>
   <i type="logical" name="LASYNC"> F  </i>
   <i type="logical" name="LORBITALREAL"> F  </i>
  </separator>
  <separator name="miscellaneous" >
   <i type="int" name="IDIOT">     3</i>
   <i type="int" name="PHON_NSTRUCT">    -1</i>
   <i type="logical" name="LMUSIC"> F  </i>
   <v name="POMASS">     10.81100000</v>
   <v name="DARWINR">      0.00000000</v>
   <v name="DARWINV">      1.00000000</v>
   <i type="logical" name="LCORR"> T  </i>
  </separator>
  <i type="logical" name="GGA_COMPAT"> T  </i>
  <i type="logical" name="LBERRY"> F  </i>
  <i type="int" name="ICORELEVEL">     0</i>
  <i type="logical" name="LDAU"> F  </i>
  <i type="int" name="I_CONSTRAINED_M">     0</i>
  <separator name="electronic exchange-correlation" >
   <i type="string" name="GGA    ">PE</i>
   <i type="string" name="XC_C">1</i>
   <i type="int" name="VOSKOWN">     0</i>
   <i type="logical" name="LHFCALC"> F  </i>
   <i type="string" name="PRECFOCK"></i>
   <i type="logical" name="LSYMGRAD"> F  </i>
   <i type="logical" name="LHFONE"> F  </i>
   <i type="logical" name="LRHFCALC"> F  </i>
   <i type="logical" name="LTHOMAS"> F  </i>
   <i type="logical" name="LMODELHF"> F  </i>
   <i type="logical" name="LFOCKACE"> F  </i>
   <i name="ENCUT4O">     -1.00000000</i>
   <i type="int" name="EXXOEP">     0</i>
   <i type="int" name="FOURORBIT">     0</i>
   <i name="AEXX">      0.00000000</i>
   <i name="HFALPHA">      0.00000000</i>
   <i name="MCALPHA">      0.00000000</i>
   <i name="ALDAX">      1.00000000</i>
   <i name="AGGAX">      1.00000000</i>
   <i name="AMGGAX">      1.00000000</i>
   <i name="ALDAC">      1.00000000</i>
   <i name="AGGAC">      1.00000000</i>
   <i name="AMGGAC">      1.00000000</i>
   <i type="int" name="NKREDX">     1</i>
   <i type="int" name="NKREDY">     1</i>
   <i type="int" name="NKREDZ">     1</i>
   <i type="logical" name="SHIFTRED"> F  </i>
   <i type="logical" name="ODDONLY"> F  </i>
   <i type="logical" name="EVENONLY"> F  </i>
   <i type="int" name="LMAXFOCK">     0</i>
   <i type="int" name="NMAXFOCKAE">     0</i>
   <i type="logical" name="LFOCKAEDFT"> F  </i>
   <i name="HFSCREEN">      0.00000000</i>
   <i name="HFSCREENC">      0.00000000</i>
   <i type="int" name="NBANDSGWLOW">     0</i>
  </separator>
  <separator name="vdW DFT" >
   <i type="logical" name="LUSE_VDW"> F  </i>
   <i type="int" name="IVDW_NL">    -1</i>
   <i type="logical" name="LSPIN_VDW"> F  </i>
   <i name="ZAB_VDW">     -0.84910000</i>
   <i name="GAMMA_VDW">      1.39626340</i>
   <i name="ALPHA_VDW">      0.00000000</i>
   <i name="PARAM1">      0.12340000</i>
   <i name="PARAM2">      1.00000000</i>
   <i name="BPARAM">      6.30000000</i>
   <i name="CPARAM">      0.00930000</i>
  </separator>
  <separator name="model GW" >
   <i type="int" name="MODEL_GW">     0</i>
   <i name="MODEL_EPS0">      6.13175789</i>
   <i name="MODEL_ALPHA">      1.00000000</i>
  </separator>
  <separator name="linear response parameters" >
   <i type="logical" name="LEPSILON"> F  </i>
   <i type="logical" name="LRPA"> F  </i>
   <i type="logical" name="LNABLA"> F  </i>
   <i type="logical" name="LVEL"> F  </i>
   <i name="CSHIFT">      0.10000000</i>
   <i name="OMEGAMAX">     -1.00000000</i>
   <i name="DEG_THRESHOLD">      0.00200000</i>
   <i name="RTIME">     -0.10000000</i>
   <i name="WPLASMAI">      0.00000000</i>
   <v name="DFIELD">      0.00000000      0.00000000      0.00000000</v>
   <v name="WPLASMA">      0.00000000      0.00000000      0.00000000      0.00000000      0.00000000      0.00000000      0.00000000      0.00000000      0.00000000</v>
  </separator>
  <separator name="orbital magnetization" >
   <i type="logical" name="NUCIND"> F  </i>
   <v name="MAGPOS">      0.00000000      0.00000000      0.00000000</v>
   <i type="logical" name="LNICSALL"> T  </i>
   <i type="logical" name="ORBITALMAG"> F  </i>
   <i type="logical" name="LMAGBLOCH"> F  </i>
   <i type="logical" name="LCHIMAG"> F  </i>
   <i type="logical" name="LGAUGE"> T  </i>
   <i type="int" name="MAGATOM">     0</i>
   <v name="MAGDIPOL">      0.00000000      0.00000000      0.00000000</v>
   <v name="AVECCONST">      0.00000000      0.00000000      0.00000000</v>
  </separator>
  <separator name="response functions" >
   <i type="logical" name="LALL_IN_ONE"> F  </i>
   <i type="int" name="IALL_IN_ONE">    -1</i>
   <i type="int" name="NBANDS_WAVE">    -1</i>
   <i type="logical" name="LFINITE_TEMPERATURE"> F  </i>
   <i type="logical" name="LADDER"> F  </i>
   <i type="logical" name="LRPAFORCE"> F  </i>
   <i type="logical" name="LFXC"> F  </i>
   <i type="logical" name="LHARTREE"> T  </i>
   <i type="int" name="IBSE">     0</i>
   <v type="int" name="KPOINT">    -1     0     0     0</v>
   <i type="logical" name="LTCTC"> F  </i>
   <i type="logical" name="LTCTE"> F  </i>
   <i type="logical" name="LTETE"> F  </i>
   <i type="logical" name="LTRIPLET"> F  </i>
   <i type="logical" name="LFXCEPS"> F  </i>
   <i type="logical" name="LFXHEG"> F  </i>
   <i type="int" name="NATURALO">     2</i>
   <i type="logical" name="LHOLEGF"> F  </i>
   <i type="logical" name="L2ORDER"> F  </i>
   <i type="logical" name="LDMP1"> F  </i>
   <i type="logical" name="LMP2LT"> F  </i>
   <i type="logical" name="LSMP2LT"> F  </i>
   <i type="logical" name="LGWLF"> F  </i>
   <i name="ENCUTGW">     -1.60000002</i>
   <i name="ENCUTGWSOFT">     -1.60000002</i>
   <i name="ENCUTLF">     -1.00000000</i>
   <i type="logical" name="ESF_SPLINES"> F  </i>
   <i name="ESF_CONV">      0.01000000</i>
   <i type="int" name="ESF_NINTER">    15</i>
   <i type="int" name="LMAXMP2">    -1</i>
   <i name="SCISSOR">      0.00000000</i>
   <i type="int" name="NOMEGA">     0</i>
   <i type="int" name="NOMEGAR">     0</i>
   <i type="int" name="NBANDSGW">    -1</i>
   <i type="int" name="NBANDSO">    -1</i>
   <i type="int" name="NBANDSV">    -1</i>
   <i type="int" name="NELMGW">     1</i>
   <i type="int" name="NELMHF">     1</i>
   <i type="int" name="DIM">     3</i>
   <i type="int" name="IESPILON">     4</i>
   <i type="int" name="ANTIRES">     0</i>
   <i name="OMEGAMAX">    -30.00000000</i>
   <i name="OMEGAMIN">    -30.00000000</i>
   <i name="OMEGATL">   -200.00000000</i>
   <i type="int" name="OMEGAGRID">     0</i>
   <i name="CSHIFT">     -0.10000000</i>
   <i type="logical" name="LSELFENERGY"> F  </i>
   <i type="logical" name="LSPECTRAL"> F  </i>
   <i type="logical" name="LSPECTRALGW"> F  </i>
   <i type="logical" name="LSINGLES"> F  </i>
   <i type="logical" name="LFERMIGW"> F  </i>
   <i type="logical" name="ODDONLYGW"> F  </i>
   <i type="logical" name="EVENONLYGW"> F  </i>
   <i type="int" name="NKREDLFX">     1</i>
   <i type="int" name="NKREDLFY">     1</i>
   <i type="int" name="NKREDLFZ">     1</i>
   <i type="int" name="MAXMEM">  2800</i>
   <i type="int" name="TELESCOPE">     0</i>
   <i type="int" name="NTAUPAR">    -1</i>
   <i type="int" name="NOMEGAPAR">    -1</i>
   <i name="DAMP_NEWTON">      0.80000001</i>
   <i name="LAMBDA">      1.00000000</i>
  </separator>
  <separator name="External order field" >
   <i name="OFIELD_KAPPA">      0.00000000</i>
   <v name="OFIELD_K">      0.00000000      0.00000000      0.00000000</v>
   <i name="OFIELD_Q6_NEAR">      0.00000000</i>
   <i name="OFIELD_Q6_FAR">      0.00000000</i>
   <i name="OFIELD_A">      0.00000000</i>
  </separator>
  <separator name="optional k-points parameters" >
   <i type="int" name="KPOINTS_OPT_MODE">     1</i>
   <i type="logical" name="LKPOINTS_OPT"> F  </i>
  </separator>
 </parameters>
 <atominfo>
  <atoms>      14 </atoms>
  <types>       1 </types>
  <array name="atoms" >
   <dimension dim="1">ion</dimension>
   <field type="string">element</field>
   <field type="int">atomtype</field>
   <set>
    <rc><c>B </c><c>   1</c></rc>
    <rc><c>B </c><c>   1</c></rc>
    <rc><c>B </c><c>   1</c></rc>
    <rc><c>B </c><c>   1</c></rc>
    <rc><c>B </c><c>   1</c></rc>
    <rc><c>B </c><c>   1</c></rc>
    <rc><c>B </c><c>   1</c></rc>
    <rc><c>B </c><c>   1</c></rc>
    <rc><c>B </c><c>   1</c></rc>
    <rc><c>B </c><c>   1</c></rc>
    <rc><c>B </c><c>   1</c></rc>
    <rc><c>B </c><c>   1</c></rc>
    <rc><c>B </c><c>   1</c></rc>
    <rc><c>B </c><c>   1</c></rc>
   </set>
  </array>
  <array name="atomtypes" >
   <dimension dim="1">type</dimension>
   <field type="int">atomspertype</field>
   <field type="string">element</field>
   <field>mass</field>
   <field>valence</field>
   <field type="string">pseudopotential</field>
   <set>
    <rc><c>  14</c><c>B </c><c>     10.81100000</c><c>      3.00000000</c><c>  PAW_PBE B 06Sep2000                   </c></rc>
   </set>
  </array>
 </atominfo>
 <structure name="initialpos" >
  <crystal>
   <varray name="basis" >
    <v>       5.69700000       0.00000000       0.00000000 </v>
    <v>       0.00000000       4.04790000       0.00000000 </v>
    <v>       0.00000000       0.00000000       6.20420000 </v>
   </varray>
   <i name="volume">    143.07435078 </i>
   <varray name="rec_basis" >
    <v>       0.17553098       0.00000000       0.00000000 </v>
    <v>       0.00000000       0.24704168       0.00000000 </v>
    <v>       0.00000000       0.00000000       0.16118114 </v>
   </varray>
  </crystal>
  <varray name="positions" >
   <v>       0.52123000       0.50000000       0.63796000 </v>
   <v>       0.47877000       0.50000000       0.36204000 </v>
   <v>       0.97877000       0.50000000       0.63796000 </v>
   <v>       0.02123000       0.50000000       0.36204000 </v>
   <v>       0.60090000       0.50000000       0.89991000 </v>
   <v>       0.39910000       0.50000000       0.10009000 </v>
   <v>       0.89910000       0.50000000       0.89991000 </v>
   <v>       0.10090000       0.50000000       0.10009000 </v>
   <v>       0.75000000       0.79171000       0.72973000 </v>
   <v>       0.25000000       0.20829000       0.27027000 </v>
   <v>       0.75000000       0.20829000       0.72973000 </v>
   <v>       0.25000000       0.79171000       0.27027000 </v>
   <v>       0.25000000       0.50000000       0.52367000 </v>
   <v>       0.75000000       0.50000000       0.47633000 </v>
  </varray>
 </structure>
 <calculation>
  <scstep>
   <time name="dav">    3.46    3.82</time>
   <time name="total">    3.47    3.84</time>
   <energy>
    <i name="alphaZ">     94.24357992 </i>
    <i name="ewald">   -795.76658092 </i>
    <i name="hartreedc">   -271.33601302 </i>
    <i name="XCdc">     97.50108156 </i>
    <i name="pawpsdc">    608.99811708 </i>
    <i name="pawaedc">   -597.02363782 </i>
    <i name="eentropy">     -0.00251265 </i>
    <i name="bandstr">   -103.60873095 </i>
    <i name="atom">    996.34856037 </i>
    <i name="e_fr_energy">     29.35386357 </i>
    <i name="e_wo_entrp">     29.35637622 </i>
    <i name="e_0_energy">     29.35511989 </i>
   </energy>
  </scstep>
  <scstep>
   <time name="dav">    4.64    4.68</time>
   <time name="total">    4.64    4.68</time>
   <energy>
    <i name="e_fr_energy">    -93.92755520 </i>
    <i name="e_wo_entrp">    -93.92453609 </i>
    <i name="e_0_energy">    -93.92604565 </i>
   </energy>
  </scstep>
  <scstep>
   <time name="dav">    4.79    4.82</time>
   <time name="total">    4.79    4.82</time>
   <energy>
    <i name="e_fr_energy">    -97.59544983 </i>
    <i name="e_wo_entrp">    -97.59179905 </i>
    <i name="e_0_energy">    -97.59362444 </i>
   </energy>
  </scstep>
  <scstep>
   <time name="dav">    4.18    4.21</time>
   <time name="total">    4.18    4.21</time>
   <energy>
    <i name="e_fr_energy">    -97.61646011 </i>
    <i name="e_wo_entrp">    -97.61280609 </i>
    <i name="e_0_energy">    -97.61463310 </i>
   </energy>
  </scstep>
  <scstep>
   <time name="dav">    4.71    4.74</time>
   <time name="total">    4.76    4.79</time>
   <energy>
    <i name="e_fr_energy">    -97.61670795 </i>
    <i name="e_wo_entrp">    -97.61305388 </i>
    <i name="e_0_energy">    -97.61488092 </i>
   </energy>
  </scstep>
  <scstep>
   <time name="dav">    4.76    4.80</time>
   <time name="total">    4.82    4.86</time>
   <energy>
    <i name="e_fr_energy">    -92.20357799 </i>
    <i name="e_wo_entrp">    -92.20014749 </i>
    <i name="e_0_energy">    -92.20186274 </i>
   </energy>
  </scstep>
  <scstep>
   <time name="dav">    4.94    4.97</time>
   <time name="total">    5.00    5.03</time>
   <energy>
    <i name="e_fr_energy">    -90.55287024 </i>
    <i name="e_wo_entrp">    -90.54973496 </i>
    <i name="e_0_energy">    -90.55130260 </i>
   </energy>
  </scstep>
  <scstep>
   <time name="dav">    3.59    3.61</time>
   <time name="total">    3.64    3.66</time>
   <energy>
    <i name="e_fr_energy">    -90.56504283 </i>
    <i name="e_wo_entrp">    -90.56186577 </i>
    <i name="e_0_energy">    -90.56345430 </i>
   </energy>
  </scstep>
  <scstep>
   <time name="dav">    4.62    4.65</time>
   <time name="total">    4.69    4.72</time>
   <energy>
    <i name="e_fr_energy">    -90.57924188 </i>
    <i name="e_wo_entrp">    -90.57597812 </i>
    <i name="e_0_energy">    -90.57761000 </i>
   </energy>
  </scstep>
  <scstep>
   <time name="dav">    3.77    3.80</time>
   <time name="total">    3.82    3.85</time>
   <energy>
    <i name="e_fr_energy">    -90.58323310 </i>
    <i name="e_wo_entrp">    -90.58001553 </i>
    <i name="e_0_energy">    -90.58162431 </i>
   </energy>
  </scstep>
  <scstep>
   <time name="dav">    4.19    4.21</time>
   <time name="total">    4.24    4.27</time>
   <energy>
    <i name="e_fr_energy">    -90.58432181 </i>
    <i name="e_wo_entrp">    -90.58111524 </i>
    <i name="e_0_energy">    -90.58271853 </i>
   </energy>
  </scstep>
  <scstep>
   <time name="dav">    4.08    4.10</time>
   <time name="total">    4.13    4.15</time>
   <energy>
    <i name="e_fr_energy">    -90.58443646 </i>
    <i name="e_wo_entrp">    -90.58122372 </i>
    <i name="e_0_energy">    -90.58283009 </i>
   </energy>
  </scstep>
  <scstep>
   <time name="dav">    4.55    4.58</time>
   <time name="total">    4.60    4.63</time>
   <energy>
    <i name="e_fr_energy">    -90.58444114 </i>
    <i name="e_wo_entrp">    -90.58122810 </i>
    <i name="e_0_energy">    -90.58283462 </i>
   </energy>
  </scstep>
  <scstep>
   <time name="dav">    4.04    4.07</time>
   <time name="total">    4.05    4.08</time>
   <energy>
    <i name="alphaZ">     94.24357992 </i>
    <i name="ewald">   -795.76658092 </i>
    <i name="hartreedc">   -349.08575470 </i>
    <i name="XCdc">    101.59343221 </i>
    <i name="pawpsdc">   3741.82221085 </i>
    <i name="pawaedc">  -3731.01445233 </i>
    <i name="eentropy">     -0.00321315 </i>
    <i name="bandstr">   -148.72222403 </i>
    <i name="atom">    996.34856037 </i>
    <i name="e_fr_energy">    -90.58444178 </i>
    <i name="e_wo_entrp">    -90.58122863 </i>
    <i name="e_0_energy">    -90.58283521 </i>
   </energy>
  </scstep>
  <structure>
   <crystal>
    <varray name="basis" >
     <v>       5.69700000       0.00000000       0.00000000 </v>
     <v>       0.00000000       4.04790000       0.00000000 </v>
     <v>       0.00000000       0.00000000       6.20420000 </v>
    </varray>
    <i name="volume">    143.07435078 </i>
    <varray name="rec_basis" >
     <v>       0.17553098       0.00000000       0.00000000 </v>
     <v>       0.00000000       0.24704168       0.00000000 </v>
     <v>       0.00000000       0.00000000       0.16118114 </v>
    </varray>
   </crystal>
   <varray name="positions" >
    <v>       0.52123000       0.50000000       0.63796000 </v>
    <v>       0.47877000       0.50000000       0.36204000 </v>
    <v>       0.97877000       0.50000000       0.63796000 </v>
    <v>       0.02123000       0.50000000       0.36204000 </v>
    <v>       0.60090000       0.50000000       0.89991000 </v>
    <v>       0.39910000       0.50000000       0.10009000 </v>
    <v>       0.89910000       0.50000000       0.89991000 </v>
    <v>       0.10090000       0.50000000       0.10009000 </v>
    <v>       0.75000000       0.79171000       0.72973000 </v>
    <v>       0.25000000       0.20829000       0.27027000 </v>
    <v>       0.75000000       0.20829000       0.72973000 </v>
    <v>       0.25000000       0.79171000       0.27027000 </v>
    <v>       0.25000000       0.50000000       0.52367000 </v>
    <v>       0.75000000       0.50000000       0.47633000 </v>
   </varray>
  </structure>
  <varray name="forces" >
   <v>      -0.00635852      -0.00000000       0.05367454 </v>
   <v>       0.00635852      -0.00000000      -0.05367454 </v>
   <v>       0.00635852      -0.00000000       0.05367454 </v>
   <v>      -0.00635852      -0.00000000      -0.05367454 </v>
   <v>      -0.83383166      -0.00000000       0.27958629 </v>
   <v>       0.83383166      -0.00000000      -0.27958629 </v>
   <v>       0.83383166      -0.00000000       0.27958629 </v>
   <v>      -0.83383166      -0.00000000      -0.27958629 </v>
   <v>       0.00000000       0.05989103      -0.07917142 </v>
   <v>       0.00000000      -0.05989103       0.07917142 </v>
   <v>       0.00000000      -0.05989103      -0.07917142 </v>
   <v>       0.00000000       0.05989103       0.07917142 </v>
   <v>       0.00000000      -0.00000000       0.07552757 </v>
   <v>       0.00000000      -0.00000000      -0.07552757 </v>
  </varray>
  <varray name="stress" >
   <v>      13.42358410       0.00000000      -0.00000000 </v>
   <v>       0.00000000      -0.27260302       0.00000000 </v>
   <v>       0.00000000       0.00000000      -7.69296323 </v>
  </varray>
  <energy>
   <i name="e_fr_energy">    -90.58444178 </i>
   <i name="e_wo_entrp">    -90.58122863 </i>
   <i name="e_0_energy">    -90.58283521 </i>
  </energy>
  <time name="totalsc">   63.26   64.05</time>
  <eigenvalues>
   <array>
    <dimension dim="1">band</dimension>
    <dimension dim="2">kpoint</dimension>
    <dimension dim="3">spin</dimension>
    <field>eigene</field>
    <field>occ</field>
    <set>
     <set comment="spin 1">
      <set comment="kpoint 1">
       <r>  -12.7247    1.0000 </r>
       <r>  -11.5828    1.0000 </r>
       <r>   -8.6575    1.0000 </r>
       <r>   -8.4208    1.0000 </r>
       <r>   -6.0630    1.0000 </r>
       <r>   -5.1294    1.0000 </r>
       <r>   -4.6650    1.0000 </r>
       <r>   -4.2742    1.0000 </r>
       <r>   -4.0322    1.0000 </r>
       <r>   -3.5430    1.0000 </r>
       <r>   -2.5927    1.0000 </r>
       <r>   -2.3237    1.0000 </r>
       <r>   -1.8325    1.0000 </r>
       <r>   -1.0947    1.0000 </r>
       <r>   -0.0687    1.0000 </r>
       <r>   -0.0384    1.0000 </r>
       <r>    0.1574    1.0000 </r>
       <r>    0.1790    1.0000 </r>
       <r>    0.5670    1.0000 </r>
       <r>    2.0200    0.0001 </r>
       <r>    2.0831    0.0000 </r>
       <r>    2.2183    0.0000 </r>
       <r>    5.4593    0.0000 </r>
       <r>    5.7503    0.0000 </r>
       <r>    5.8395    0.0000 </r>
       <r>    5.9604    0.0000 </r>
       <r>    6.8157    0.0000 </r>
       <r>    7.5500    0.0000 </r>
       <r>    7.8793    0.0000 </r>
       <r>    8.5367    0.0000 </r>
       <r>    8.8036    0.0000 </r>
       <r>    8.9509    0.0000 </r>
       <r>    9.0535    0.0000 </r>
       <r>   10.1244    0.0000 </r>
       <r>   11.1850    0.0000 </r>
       <r>   11.3358    0.0000 </r>
       <r>   11.6662    0.0000 </r>
       <r>   11.7832    0.0000 </r>
       <r>   11.9423    0.0000 </r>
       <r>   12.4045    0.0000 </r>
       <r>   12.8697    0.0000 </r>
       <r>   13.4538    0.0000 </r>
       <r>   13.4811    0.0000 </r>
       <r>   15.3828    0.0000 </r>
       <r>   15.5720    0.0000 </r>
       <r>   16.0627    0.0000 </r>
       <r>   16.3345    0.0000 </r>
       <r>   16.3576    0.0000 </r>
      </set>
      <set comment="kpoint 2">
       <r>  -12.6810    1.0000 </r>
       <r>  -11.6566    1.0000 </r>
       <r>   -8.6364    1.0000 </r>
       <r>   -8.4093    1.0000 </r>
       <r>   -5.9948    1.0000 </r>
       <r>   -5.4704    1.0000 </r>
       <r>   -4.7875    1.0000 </r>
       <r>   -4.0088    1.0000 </r>
       <r>   -3.7912    1.0000 </r>
       <r>   -3.2053    1.0000 </r>
       <r>   -2.6629    1.0000 </r>
       <r>   -2.3035    1.0000 </r>
       <r>   -1.9112    1.0000 </r>
       <r>   -1.4015    1.0000 </r>
       <r>   -0.0283    1.0000 </r>
       <r>   -0.0171    1.0000 </r>
       <r>    0.0951    1.0000 </r>
       <r>    0.1995    1.0000 </r>
       <r>    0.4719    1.0000 </r>
       <r>    1.9338    0.0846 </r>
       <r>    2.0053    0.0003 </r>
       <r>    2.0972    0.0000 </r>
       <r>    5.5481    0.0000 </r>
       <r>    5.7590    0.0000 </r>
       <r>    5.8671    0.0000 </r>
       <r>    6.3061    0.0000 </r>
       <r>    6.7302    0.0000 </r>
       <r>    7.1881    0.0000 </r>
       <r>    8.0893    0.0000 </r>
       <r>    8.6732    0.0000 </r>
       <r>    9.0606    0.0000 </r>
       <r>    9.1328    0.0000 </r>
       <r>    9.2055    0.0000 </r>
       <r>   10.2372    0.0000 </r>
       <r>   10.9435    0.0000 </r>
       <r>   11.1319    0.0000 </r>
       <r>   11.2580    0.0000 </r>
       <r>   11.7003    0.0000 </r>
       <r>   12.1596    0.0000 </r>
       <r>   12.4939    0.0000 </r>
       <r>   13.1226    0.0000 </r>
       <r>   13.1292    0.0000 </r>
       <r>   14.0126    0.0000 </r>
       <r>   14.8709    0.0000 </r>
       <r>   15.7515    0.0000 </r>
       <r>   15.8306    0.0000 </r>
       <r>   16.2280    0.0000 </r>
       <r>   16.5148    0.0000 </r>
      </set>
      <set comment="kpoint 3">
       <r>  -12.5953    1.0000 </r>
       <r>  -11.7895    1.0000 </r>
       <r>   -8.5928    1.0000 </r>
       <r>   -8.3946    1.0000 </r>
       <r>   -5.9733    1.0000 </r>
       <r>   -5.7970    1.0000 </r>
       <r>   -4.7416    1.0000 </r>
       <r>   -3.8813    1.0000 </r>
       <r>   -3.2802    1.0000 </r>
       <r>   -2.8317    1.0000 </r>
       <r>   -2.7130    1.0000 </r>
       <r>   -2.2631    1.0000 </r>
       <r>   -2.0218    1.0000 </r>
       <r>   -1.9059    1.0000 </r>
       <r>   -0.2179    1.0000 </r>
       <r>    0.0153    1.0000 </r>
       <r>    0.1450    1.0000 </r>
       <r>    0.1583    1.0000 </r>
       <r>    0.4417    1.0000 </r>
       <r>    1.7862    0.9975 </r>
       <r>    1.8675    0.6919 </r>
       <r>    1.8724    0.6412 </r>
       <r>    5.6689    0.0000 </r>
       <r>    5.7155    0.0000 </r>
       <r>    6.1761    0.0000 </r>
       <r>    6.6042    0.0000 </r>
       <r>    6.7646    0.0000 </r>
       <r>    6.9334    0.0000 </r>
       <r>    8.2403    0.0000 </r>
       <r>    8.8216    0.0000 </r>
       <r>    9.0019    0.0000 </r>
       <r>    9.5769    0.0000 </r>
       <r>    9.6495    0.0000 </r>
       <r>   10.2823    0.0000 </r>
       <r>   10.4873    0.0000 </r>
       <r>   10.6271    0.0000 </r>
       <r>   11.3784    0.0000 </r>
       <r>   11.8423    0.0000 </r>
       <r>   12.3944    0.0000 </r>
       <r>   12.5675    0.0000 </r>
       <r>   12.7945    0.0000 </r>
       <r>   12.9201    0.0000 </r>
       <r>   14.6382    0.0000 </r>
       <r>   14.9196    0.0000 </r>
       <r>   15.2274    0.0000 </r>
       <r>   15.9845    0.0000 </r>
       <r>   16.0036    0.0000 </r>
       <r>   16.2926    0.0000 </r>
      </set>
      <set comment="kpoint 4">
       <r>  -12.4718    1.0000 </r>
       <r>  -11.9589    1.0000 </r>
       <r>   -8.5310    1.0000 </r>
       <r>   -8.3914    1.0000 </r>
       <r>   -6.0541    1.0000 </r>
       <r>   -6.0302    1.0000 </r>
       <r>   -4.4141    1.0000 </r>
       <r>   -3.7124    1.0000 </r>
       <r>   -3.0259    1.0000 </r>
       <r>   -2.8956    1.0000 </r>
       <r>   -2.4429    1.0000 </r>
       <r>   -2.2516    1.0000 </r>
       <r>   -2.1447    1.0000 </r>
       <r>   -2.1230    1.0000 </r>
       <r>   -0.5171    1.0000 </r>
       <r>   -0.2439    1.0000 </r>
       <r>    0.1739    1.0000 </r>
       <r>    0.2494    1.0000 </r>
       <r>    0.6149    1.0000 </r>
       <r>    1.5318    1.0000 </r>
       <r>    1.6634    1.0000 </r>
       <r>    1.7241    1.0000 </r>
       <r>    5.7002    0.0000 </r>
       <r>    5.7542    0.0000 </r>
       <r>    6.5029    0.0000 </r>
       <r>    6.6745    0.0000 </r>
       <r>    6.7002    0.0000 </r>
       <r>    7.4145    0.0000 </r>
       <r>    8.3646    0.0000 </r>
       <r>    8.6904    0.0000 </r>
       <r>    8.8109    0.0000 </r>
       <r>    9.5366    0.0000 </r>
       <r>   10.0576    0.0000 </r>
       <r>   10.1201    0.0000 </r>
       <r>   10.4000    0.0000 </r>
       <r>   11.1505    0.0000 </r>
       <r>   11.4061    0.0000 </r>
       <r>   11.9476    0.0000 </r>
       <r>   12.2058    0.0000 </r>
       <r>   12.2774    0.0000 </r>
       <r>   12.5227    0.0000 </r>
       <r>   13.2589    0.0000 </r>
       <r>   14.7148    0.0000 </r>
       <r>   14.9785    0.0000 </r>
       <r>   15.2656    0.0000 </r>
       <r>   15.3764    0.0000 </r>
       <r>   15.5748    0.0000 </r>
       <r>   16.3788    0.0000 </r>
      </set>
      <set comment="kpoint 5">
       <r>  -12.3171    1.0000 </r>
       <r>  -12.1412    1.0000 </r>
       <r>   -8.4649    1.0000 </r>
       <r>   -8.4140    1.0000 </r>
       <r>   -6.1438    1.0000 </r>
       <r>   -6.1394    1.0000 </r>
       <r>   -3.8987    1.0000 </r>
       <r>   -3.5031    1.0000 </r>
       <r>   -3.2992    1.0000 </r>
       <r>   -3.2650    1.0000 </r>
       <r>   -2.3606    1.0000 </r>
       <r>   -2.2321    1.0000 </r>
       <r>   -1.9604    1.0000 </r>
       <r>   -1.9073    1.0000 </r>
       <r>   -0.7376    1.0000 </r>
       <r>   -0.6022    1.0000 </r>
       <r>    0.2572    1.0000 </r>
       <r>    0.2908    1.0000 </r>
       <r>    0.8756    1.0000 </r>
       <r>    1.1930    1.0000 </r>
       <r>    1.5828    1.0000 </r>
       <r>    1.6103    1.0000 </r>
       <r>    5.7282    0.0000 </r>
       <r>    5.7655    0.0000 </r>
       <r>    6.4814    0.0000 </r>
       <r>    6.5453    0.0000 </r>
       <r>    7.3694    0.0000 </r>
       <r>    8.0756    0.0000 </r>
       <r>    8.0970    0.0000 </r>
       <r>    8.4823    0.0000 </r>
       <r>    8.6210    0.0000 </r>
       <r>    8.7913    0.0000 </r>
       <r>   10.5031    0.0000 </r>
       <r>   10.5195    0.0000 </r>
       <r>   10.7628    0.0000 </r>
       <r>   11.2208    0.0000 </r>
       <r>   11.4054    0.0000 </r>
       <r>   11.6016    0.0000 </r>
       <r>   11.9352    0.0000 </r>
       <r>   12.4840    0.0000 </r>
       <r>   12.7183    0.0000 </r>
       <r>   13.2544    0.0000 </r>
       <r>   14.5923    0.0000 </r>
       <r>   14.7372    0.0000 </r>
       <r>   14.8711    0.0000 </r>
       <r>   14.9298    0.0000 </r>
       <r>   16.1039    0.0000 </r>
       <r>   16.4483    0.0000 </r>
      </set>
      <set comment="kpoint 6">
       <r>  -12.7007    1.0000 </r>
       <r>  -11.5612    1.0000 </r>
       <r>   -8.6387    1.0000 </r>
       <r>   -8.3977    1.0000 </r>
       <r>   -6.0362    1.0000 </r>
       <r>   -5.0956    1.0000 </r>
       <r>   -4.6429    1.0000 </r>
       <r>   -4.5724    1.0000 </r>
       <r>   -4.1762    1.0000 </r>
       <r>   -3.5201    1.0000 </r>
       <r>   -3.2860    1.0000 </r>
       <r>   -1.7927    1.0000 </r>
       <r>   -1.0900    1.0000 </r>
       <r>   -1.0336    1.0000 </r>
       <r>   -0.3025    1.0000 </r>
       <r>   -0.2745    1.0000 </r>
       <r>    0.1710    1.0000 </r>
       <r>    0.2493    1.0000 </r>
       <r>    0.6453    1.0000 </r>
       <r>    1.7523    0.9999 </r>
       <r>    1.8322    0.9331 </r>
       <r>    2.2706    0.0000 </r>
       <r>    5.5774    0.0000 </r>
       <r>    5.7093    0.0000 </r>
       <r>    5.7429    0.0000 </r>
       <r>    6.0084    0.0000 </r>
       <r>    7.1018    0.0000 </r>
       <r>    7.8356    0.0000 </r>
       <r>    8.0784    0.0000 </r>
       <r>    8.1895    0.0000 </r>
       <r>    8.8078    0.0000 </r>
       <r>    9.1007    0.0000 </r>
       <r>    9.1517    0.0000 </r>
       <r>   10.5767    0.0000 </r>
       <r>   11.2673    0.0000 </r>
       <r>   11.4002    0.0000 </r>
       <r>   11.6000    0.0000 </r>
       <r>   11.8860    0.0000 </r>
       <r>   12.0529    0.0000 </r>
       <r>   12.6848    0.0000 </r>
       <r>   12.8699    0.0000 </r>
       <r>   13.1905    0.0000 </r>
       <r>   13.1966    0.0000 </r>
       <r>   15.3324    0.0000 </r>
       <r>   15.3821    0.0000 </r>
       <r>   15.8597    0.0000 </r>
       <r>   15.8702    0.0000 </r>
       <r>   16.2217    0.0000 </r>
      </set>
      <set comment="kpoint 7">
       <r>  -12.6571    1.0000 </r>
       <r>  -11.6348    1.0000 </r>
       <r>   -8.6175    1.0000 </r>
       <r>   -8.3865    1.0000 </r>
       <r>   -5.9662    1.0000 </r>
       <r>   -5.4403    1.0000 </r>
       <r>   -4.7674    1.0000 </r>
       <r>   -4.4896    1.0000 </r>
       <r>   -3.7518    1.0000 </r>
       <r>   -3.3668    1.0000 </r>
       <r>   -3.1672    1.0000 </r>
       <r>   -1.7710    1.0000 </r>
       <r>   -1.3961    1.0000 </r>
       <r>   -1.1528    1.0000 </r>
       <r>   -0.2635    1.0000 </r>
       <r>   -0.1937    1.0000 </r>
       <r>    0.1386    1.0000 </r>
       <r>    0.2209    1.0000 </r>
       <r>    0.5427    1.0000 </r>
       <r>    1.6717    1.0000 </r>
       <r>    1.7558    0.9999 </r>
       <r>    2.1398    0.0000 </r>
       <r>    5.6533    0.0000 </r>
       <r>    5.8079    0.0000 </r>
       <r>    5.9366    0.0000 </r>
       <r>    6.1129    0.0000 </r>
       <r>    7.0183    0.0000 </r>
       <r>    7.5103    0.0000 </r>
       <r>    8.2243    0.0000 </r>
       <r>    8.3602    0.0000 </r>
       <r>    9.1318    0.0000 </r>
       <r>    9.1620    0.0000 </r>
       <r>    9.4174    0.0000 </r>
       <r>   10.5018    0.0000 </r>
       <r>   10.8748    0.0000 </r>
       <r>   11.0845    0.0000 </r>
       <r>   11.4547    0.0000 </r>
       <r>   11.8732    0.0000 </r>
       <r>   12.2727    0.0000 </r>
       <r>   12.7399    0.0000 </r>
       <r>   12.8682    0.0000 </r>
       <r>   13.1533    0.0000 </r>
       <r>   13.7299    0.0000 </r>
       <r>   14.9561    0.0000 </r>
       <r>   15.3999    0.0000 </r>
       <r>   15.7516    0.0000 </r>
       <r>   15.7972    0.0000 </r>
       <r>   16.4020    0.0000 </r>
      </set>
      <set comment="kpoint 8">
       <r>  -12.5716    1.0000 </r>
       <r>  -11.7675    1.0000 </r>
       <r>   -8.5737    1.0000 </r>
       <r>   -8.3725    1.0000 </r>
       <r>   -5.9420    1.0000 </r>
       <r>   -5.7666    1.0000 </r>
       <r>   -4.7249    1.0000 </r>
       <r>   -4.3810    1.0000 </r>
       <r>   -3.4889    1.0000 </r>
       <r>   -3.2259    1.0000 </r>
       <r>   -2.7007    1.0000 </r>
       <r>   -1.9013    1.0000 </r>
       <r>   -1.7267    1.0000 </r>
       <r>   -1.3160    1.0000 </r>
       <r>   -0.2203    1.0000 </r>
       <r>   -0.2163    1.0000 </r>
       <r>    0.0538    1.0000 </r>
       <r>    0.2081    1.0000 </r>
       <r>    0.4662    1.0000 </r>
       <r>    1.5367    1.0000 </r>
       <r>    1.6256    1.0000 </r>
       <r>    1.8915    0.4296 </r>
       <r>    5.8571    0.0000 </r>
       <r>    5.9355    0.0000 </r>
       <r>    6.0131    0.0000 </r>
       <r>    6.5617    0.0000 </r>
       <r>    6.8976    0.0000 </r>
       <r>    7.2824    0.0000 </r>
       <r>    8.4305    0.0000 </r>
       <r>    8.4933    0.0000 </r>
       <r>    9.1022    0.0000 </r>
       <r>    9.6146    0.0000 </r>
       <r>    9.8752    0.0000 </r>
       <r>   10.1260    0.0000 </r>
       <r>   10.3546    0.0000 </r>
       <r>   10.8245    0.0000 </r>
       <r>   11.5206    0.0000 </r>
       <r>   12.1076    0.0000 </r>
       <r>   12.3098    0.0000 </r>
       <r>   12.5565    0.0000 </r>
       <r>   12.9597    0.0000 </r>
       <r>   13.0245    0.0000 </r>
       <r>   14.3069    0.0000 </r>
       <r>   15.0875    0.0000 </r>
       <r>   15.1636    0.0000 </r>
       <r>   15.6469    0.0000 </r>
       <r>   15.7103    0.0000 </r>
       <r>   16.4221    0.0000 </r>
      </set>
      <set comment="kpoint 9">
       <r>  -12.4484    1.0000 </r>
       <r>  -11.9365    1.0000 </r>
       <r>   -8.5116    1.0000 </r>
       <r>   -8.3702    1.0000 </r>
       <r>   -6.0215    1.0000 </r>
       <r>   -5.9989    1.0000 </r>
       <r>   -4.3996    1.0000 </r>
       <r>   -4.2338    1.0000 </r>
       <r>   -3.6606    1.0000 </r>
       <r>   -2.8461    1.0000 </r>
       <r>   -2.3612    1.0000 </r>
       <r>   -2.2175    1.0000 </r>
       <r>   -1.6624    1.0000 </r>
       <r>   -1.4793    1.0000 </r>
       <r>   -0.4786    1.0000 </r>
       <r>   -0.3069    1.0000 </r>
       <r>    0.0859    1.0000 </r>
       <r>    0.1157    1.0000 </r>
       <r>    0.6256    1.0000 </r>
       <r>    1.3971    1.0000 </r>
       <r>    1.4801    1.0000 </r>
       <r>    1.5675    1.0000 </r>
       <r>    5.8751    0.0000 </r>
       <r>    6.0090    0.0000 </r>
       <r>    6.5183    0.0000 </r>
       <r>    6.8080    0.0000 </r>
       <r>    6.8809    0.0000 </r>
       <r>    7.3732    0.0000 </r>
       <r>    8.4191    0.0000 </r>
       <r>    8.6012    0.0000 </r>
       <r>    8.9409    0.0000 </r>
       <r>    9.3720    0.0000 </r>
       <r>   10.0736    0.0000 </r>
       <r>   10.1001    0.0000 </r>
       <r>   10.4429    0.0000 </r>
       <r>   11.2277    0.0000 </r>
       <r>   11.3653    0.0000 </r>
       <r>   11.8429    0.0000 </r>
       <r>   12.2947    0.0000 </r>
       <r>   12.5471    0.0000 </r>
       <r>   12.7228    0.0000 </r>
       <r>   13.4613    0.0000 </r>
       <r>   14.7672    0.0000 </r>
       <r>   14.7749    0.0000 </r>
       <r>   15.1558    0.0000 </r>
       <r>   15.3090    0.0000 </r>
       <r>   15.6536    0.0000 </r>
       <r>   16.3920    0.0000 </r>
      </set>
      <set comment="kpoint 10">
       <r>  -12.2940    1.0000 </r>
       <r>  -12.1185    1.0000 </r>
       <r>   -8.4452    1.0000 </r>
       <r>   -8.3936    1.0000 </r>
       <r>   -6.1117    1.0000 </r>
       <r>   -6.1068    1.0000 </r>
       <r>   -4.0546    1.0000 </r>
       <r>   -3.8914    1.0000 </r>
       <r>   -3.8504    1.0000 </r>
       <r>   -3.2864    1.0000 </r>
       <r>   -2.1072    1.0000 </r>
       <r>   -1.9133    1.0000 </r>
       <r>   -1.5942    1.0000 </r>
       <r>   -1.5915    1.0000 </r>
       <r>   -0.6994    1.0000 </r>
       <r>   -0.5984    1.0000 </r>
       <r>    0.1188    1.0000 </r>
       <r>    0.1500    1.0000 </r>
       <r>    0.8850    1.0000 </r>
       <r>    1.1994    1.0000 </r>
       <r>    1.3435    1.0000 </r>
       <r>    1.3677    1.0000 </r>
       <r>    5.9262    0.0000 </r>
       <r>    5.9919    0.0000 </r>
       <r>    6.7970    0.0000 </r>
       <r>    6.8474    0.0000 </r>
       <r>    7.1861    0.0000 </r>
       <r>    7.8986    0.0000 </r>
       <r>    7.9438    0.0000 </r>
       <r>    8.6265    0.0000 </r>
       <r>    8.6938    0.0000 </r>
       <r>    8.8066    0.0000 </r>
       <r>   10.3217    0.0000 </r>
       <r>   10.5700    0.0000 </r>
       <r>   10.8068    0.0000 </r>
       <r>   10.9111    0.0000 </r>
       <r>   11.5526    0.0000 </r>
       <r>   11.6608    0.0000 </r>
       <r>   12.0144    0.0000 </r>
       <r>   12.6533    0.0000 </r>
       <r>   13.0269    0.0000 </r>
       <r>   13.4858    0.0000 </r>
       <r>   14.5504    0.0000 </r>
       <r>   14.7350    0.0000 </r>
       <r>   14.8321    0.0000 </r>
       <r>   15.0493    0.0000 </r>
       <r>   16.1283    0.0000 </r>
       <r>   16.4226    0.0000 </r>
      </set>
      <set comment="kpoint 11">
       <r>  -12.6564    1.0000 </r>
       <r>  -11.5214    1.0000 </r>
       <r>   -8.6043    1.0000 </r>
       <r>   -8.3550    1.0000 </r>
       <r>   -5.9867    1.0000 </r>
       <r>   -5.1294    1.0000 </r>
       <r>   -5.0047    1.0000 </r>
       <r>   -4.6011    1.0000 </r>
       <r>   -4.1600    1.0000 </r>
       <r>   -3.9082    1.0000 </r>
       <r>   -3.4668    1.0000 </r>
       <r>   -1.2036    1.0000 </r>
       <r>   -1.0807    1.0000 </r>
       <r>   -0.6466    1.0000 </r>
       <r>   -0.5406    1.0000 </r>
       <r>   -0.1750    1.0000 </r>
       <r>    0.1921    1.0000 </r>
       <r>    0.3023    1.0000 </r>
       <r>    0.7239    1.0000 </r>
       <r>    1.3694    1.0000 </r>
       <r>    1.4331    1.0000 </r>
       <r>    2.3087    0.0000 </r>
       <r>    5.2880    0.0000 </r>
       <r>    5.4537    0.0000 </r>
       <r>    6.1243    0.0000 </r>
       <r>    6.1969    0.0000 </r>
       <r>    7.5374    0.0000 </r>
       <r>    7.6261    0.0000 </r>
       <r>    8.3181    0.0000 </r>
       <r>    8.7277    0.0000 </r>
       <r>    8.8837    0.0000 </r>
       <r>    9.2426    0.0000 </r>
       <r>    9.3722    0.0000 </r>
       <r>   10.8822    0.0000 </r>
       <r>   11.3190    0.0000 </r>
       <r>   11.5730    0.0000 </r>
       <r>   11.7014    0.0000 </r>
       <r>   12.0867    0.0000 </r>
       <r>   12.2691    0.0000 </r>
       <r>   12.7468    0.0000 </r>
       <r>   12.7603    0.0000 </r>
       <r>   13.0069    0.0000 </r>
       <r>   13.2250    0.0000 </r>
       <r>   14.6766    0.0000 </r>
       <r>   15.1616    0.0000 </r>
       <r>   15.3435    0.0000 </r>
       <r>   15.4310    0.0000 </r>
       <r>   15.9624    0.0000 </r>
      </set>
      <set comment="kpoint 12">
       <r>  -12.6129    1.0000 </r>
       <r>  -11.5948    1.0000 </r>
       <r>   -8.5828    1.0000 </r>
       <r>   -8.3446    1.0000 </r>
       <r>   -5.9133    1.0000 </r>
       <r>   -5.3922    1.0000 </r>
       <r>   -5.0307    1.0000 </r>
       <r>   -4.7297    1.0000 </r>
       <r>   -3.9744    1.0000 </r>
       <r>   -3.7097    1.0000 </r>
       <r>   -3.1278    1.0000 </r>
       <r>   -1.3879    1.0000 </r>
       <r>   -1.1772    1.0000 </r>
       <r>   -0.7537    1.0000 </r>
       <r>   -0.5026    1.0000 </r>
       <r>   -0.0940    1.0000 </r>
       <r>    0.1728    1.0000 </r>
       <r>    0.2460    1.0000 </r>
       <r>    0.6114    1.0000 </r>
       <r>    1.2902    1.0000 </r>
       <r>    1.3633    1.0000 </r>
       <r>    2.1729    0.0000 </r>
       <r>    5.3683    0.0000 </r>
       <r>    5.7997    0.0000 </r>
       <r>    6.1429    0.0000 </r>
       <r>    6.2387    0.0000 </r>
       <r>    7.4566    0.0000 </r>
       <r>    7.7827    0.0000 </r>
       <r>    8.0503    0.0000 </r>
       <r>    8.8187    0.0000 </r>
       <r>    9.2544    0.0000 </r>
       <r>    9.2874    0.0000 </r>
       <r>    9.6569    0.0000 </r>
       <r>   10.5177    0.0000 </r>
       <r>   10.7800    0.0000 </r>
       <r>   11.2768    0.0000 </r>
       <r>   11.7195    0.0000 </r>
       <r>   12.1989    0.0000 </r>
       <r>   12.4317    0.0000 </r>
       <r>   12.5013    0.0000 </r>
       <r>   13.1632    0.0000 </r>
       <r>   13.2734    0.0000 </r>
       <r>   13.4381    0.0000 </r>
       <r>   14.6869    0.0000 </r>
       <r>   14.8231    0.0000 </r>
       <r>   15.2844    0.0000 </r>
       <r>   15.4948    0.0000 </r>
       <r>   15.9883    0.0000 </r>
      </set>
      <set comment="kpoint 13">
       <r>  -12.5278    1.0000 </r>
       <r>  -11.7269    1.0000 </r>
       <r>   -8.5386    1.0000 </r>
       <r>   -8.3319    1.0000 </r>
       <r>   -5.8836    1.0000 </r>
       <r>   -5.7118    1.0000 </r>
       <r>   -4.9390    1.0000 </r>
       <r>   -4.6938    1.0000 </r>
       <r>   -4.0981    1.0000 </r>
       <r>   -3.1756    1.0000 </r>
       <r>   -2.6567    1.0000 </r>
       <r>   -1.8849    1.0000 </r>
       <r>   -1.1365    1.0000 </r>
       <r>   -0.8925    1.0000 </r>
       <r>   -0.4496    1.0000 </r>
       <r>   -0.0848    1.0000 </r>
       <r>    0.0147    1.0000 </r>
       <r>    0.2580    1.0000 </r>
       <r>    0.4962    1.0000 </r>
       <r>    1.1588    1.0000 </r>
       <r>    1.2450    1.0000 </r>
       <r>    1.9163    0.1896 </r>
       <r>    5.6896    0.0000 </r>
       <r>    6.0979    0.0000 </r>
       <r>    6.2761    0.0000 </r>
       <r>    6.3686    0.0000 </r>
       <r>    7.3542    0.0000 </r>
       <r>    7.8611    0.0000 </r>
       <r>    8.0166    0.0000 </r>
       <r>    8.9473    0.0000 </r>
       <r>    9.2480    0.0000 </r>
       <r>    9.7204    0.0000 </r>
       <r>    9.8527    0.0000 </r>
       <r>   10.1390    0.0000 </r>
       <r>   10.2551    0.0000 </r>
       <r>   11.0634    0.0000 </r>
       <r>   11.5876    0.0000 </r>
       <r>   12.1059    0.0000 </r>
       <r>   12.5102    0.0000 </r>
       <r>   12.8021    0.0000 </r>
       <r>   13.0458    0.0000 </r>
       <r>   13.4473    0.0000 </r>
       <r>   13.9606    0.0000 </r>
       <r>   14.5956    0.0000 </r>
       <r>   14.8728    0.0000 </r>
       <r>   15.3045    0.0000 </r>
       <r>   15.5141    0.0000 </r>
       <r>   16.1989    0.0000 </r>
      </set>
      <set comment="kpoint 14">
       <r>  -12.4051    1.0000 </r>
       <r>  -11.8953    1.0000 </r>
       <r>   -8.4760    1.0000 </r>
       <r>   -8.3313    1.0000 </r>
       <r>   -5.9609    1.0000 </r>
       <r>   -5.9411    1.0000 </r>
       <r>   -4.8031    1.0000 </r>
       <r>   -4.3728    1.0000 </r>
       <r>   -4.2628    1.0000 </r>
       <r>   -2.8073    1.0000 </r>
       <r>   -2.3201    1.0000 </r>
       <r>   -2.1763    1.0000 </r>
       <r>   -1.0799    1.0000 </r>
       <r>   -1.0294    1.0000 </r>
       <r>   -0.4549    1.0000 </r>
       <r>   -0.3708    1.0000 </r>
       <r>    0.0586    1.0000 </r>
       <r>    0.0625    1.0000 </r>
       <r>    0.6432    1.0000 </r>
       <r>    1.0291    1.0000 </r>
       <r>    1.1122    1.0000 </r>
       <r>    1.5814    1.0000 </r>
       <r>    6.1091    0.0000 </r>
       <r>    6.2249    0.0000 </r>
       <r>    6.4001    0.0000 </r>
       <r>    6.8033    0.0000 </r>
       <r>    7.2983    0.0000 </r>
       <r>    7.7823    0.0000 </r>
       <r>    8.0717    0.0000 </r>
       <r>    9.0469    0.0000 </r>
       <r>    9.1050    0.0000 </r>
       <r>    9.1775    0.0000 </r>
       <r>    9.8891    0.0000 </r>
       <r>   10.1880    0.0000 </r>
       <r>   10.7025    0.0000 </r>
       <r>   11.0790    0.0000 </r>
       <r>   11.3268    0.0000 </r>
       <r>   11.9520    0.0000 </r>
       <r>   12.3572    0.0000 </r>
       <r>   12.9869    0.0000 </r>
       <r>   13.0375    0.0000 </r>
       <r>   13.7916    0.0000 </r>
       <r>   14.3820    0.0000 </r>
       <r>   14.3977    0.0000 </r>
       <r>   15.0315    0.0000 </r>
       <r>   15.1252    0.0000 </r>
       <r>   15.6152    0.0000 </r>
       <r>   16.3763    0.0000 </r>
      </set>
      <set comment="kpoint 15">
       <r>  -12.2513    1.0000 </r>
       <r>  -12.0766    1.0000 </r>
       <r>   -8.4089    1.0000 </r>
       <r>   -8.3563    1.0000 </r>
       <r>   -6.0520    1.0000 </r>
       <r>   -6.0461    1.0000 </r>
       <r>   -4.6352    1.0000 </r>
       <r>   -4.4493    1.0000 </r>
       <r>   -3.8601    1.0000 </r>
       <r>   -3.2638    1.0000 </r>
       <r>   -2.0384    1.0000 </r>
       <r>   -1.8727    1.0000 </r>
       <r>   -1.1010    1.0000 </r>
       <r>   -1.0394    1.0000 </r>
       <r>   -0.6284    1.0000 </r>
       <r>   -0.6218    1.0000 </r>
       <r>    0.0089    1.0000 </r>
       <r>    0.0525    1.0000 </r>
       <r>    0.9007    1.0000 </r>
       <r>    0.9667    1.0000 </r>
       <r>    1.0075    1.0000 </r>
       <r>    1.2279    1.0000 </r>
       <r>    6.2007    0.0000 </r>
       <r>    6.3188    0.0000 </r>
       <r>    6.8778    0.0000 </r>
       <r>    7.2175    0.0000 </r>
       <r>    7.2761    0.0000 </r>
       <r>    7.6224    0.0000 </r>
       <r>    7.9294    0.0000 </r>
       <r>    8.4409    0.0000 </r>
       <r>    9.1028    0.0000 </r>
       <r>    9.1349    0.0000 </r>
       <r>   10.0129    0.0000 </r>
       <r>   10.4848    0.0000 </r>
       <r>   10.7091    0.0000 </r>
       <r>   10.9795    0.0000 </r>
       <r>   11.7328    0.0000 </r>
       <r>   11.7510    0.0000 </r>
       <r>   12.1354    0.0000 </r>
       <r>   12.9108    0.0000 </r>
       <r>   13.4169    0.0000 </r>
       <r>   13.7643    0.0000 </r>
       <r>   14.2293    0.0000 </r>
       <r>   14.3839    0.0000 </r>
       <r>   14.9945    0.0000 </r>
       <r>   15.1342    0.0000 </r>
       <r>   15.9918    0.0000 </r>
       <r>   16.2958    0.0000 </r>
      </set>
      <set comment="kpoint 16">
       <r>  -12.5989    1.0000 </r>
       <r>  -11.4700    1.0000 </r>
       <r>   -8.5604    1.0000 </r>
       <r>   -8.2997    1.0000 </r>
       <r>   -5.9224    1.0000 </r>
       <r>   -5.6104    1.0000 </r>
       <r>   -4.9344    1.0000 </r>
       <r>   -4.5448    1.0000 </r>
       <r>   -4.4285    1.0000 </r>
       <r>   -4.1207    1.0000 </r>
       <r>   -3.4048    1.0000 </r>
       <r>   -1.2191    1.0000 </r>
       <r>   -1.0664    1.0000 </r>
       <r>   -1.0013    1.0000 </r>
       <r>   -0.1932    1.0000 </r>
       <r>    0.2205    1.0000 </r>
       <r>    0.3457    1.0000 </r>
       <r>    0.5959    1.0000 </r>
       <r>    0.7876    1.0000 </r>
       <r>    0.9842    1.0000 </r>
       <r>    0.9984    1.0000 </r>
       <r>    2.3430    0.0000 </r>
       <r>    4.9443    0.0000 </r>
       <r>    5.1600    0.0000 </r>
       <r>    6.3574    0.0000 </r>
       <r>    6.5867    0.0000 </r>
       <r>    7.2675    0.0000 </r>
       <r>    7.9685    0.0000 </r>
       <r>    8.7020    0.0000 </r>
       <r>    9.0592    0.0000 </r>
       <r>    9.4655    0.0000 </r>
       <r>    9.5804    0.0000 </r>
       <r>    9.6534    0.0000 </r>
       <r>   10.7438    0.0000 </r>
       <r>   11.2697    0.0000 </r>
       <r>   11.9666    0.0000 </r>
       <r>   12.0179    0.0000 </r>
       <r>   12.2956    0.0000 </r>
       <r>   12.4241    0.0000 </r>
       <r>   12.4482    0.0000 </r>
       <r>   12.5655    0.0000 </r>
       <r>   12.9923    0.0000 </r>
       <r>   13.7943    0.0000 </r>
       <r>   13.8807    0.0000 </r>
       <r>   14.4182    0.0000 </r>
       <r>   15.1031    0.0000 </r>
       <r>   15.4035    0.0000 </r>
       <r>   15.8608    0.0000 </r>
      </set>
      <set comment="kpoint 17">
       <r>  -12.5556    1.0000 </r>
       <r>  -11.5430    1.0000 </r>
       <r>   -8.5384    1.0000 </r>
       <r>   -8.2903    1.0000 </r>
       <r>   -5.8444    1.0000 </r>
       <r>   -5.5757    1.0000 </r>
       <r>   -5.2717    1.0000 </r>
       <r>   -4.6798    1.0000 </r>
       <r>   -4.4940    1.0000 </r>
       <r>   -3.6558    1.0000 </r>
       <r>   -3.0661    1.0000 </r>
       <r>   -1.3818    1.0000 </r>
       <r>   -1.1617    1.0000 </r>
       <r>   -1.0161    1.0000 </r>
       <r>   -0.1946    1.0000 </r>
       <r>    0.2056    1.0000 </r>
       <r>    0.2777    1.0000 </r>
       <r>    0.5753    1.0000 </r>
       <r>    0.6662    1.0000 </r>
       <r>    0.9188    1.0000 </r>
       <r>    0.9569    1.0000 </r>
       <r>    2.2052    0.0000 </r>
       <r>    5.0404    0.0000 </r>
       <r>    5.4917    0.0000 </r>
       <r>    6.3035    0.0000 </r>
       <r>    6.7184    0.0000 </r>
       <r>    7.4031    0.0000 </r>
       <r>    7.9260    0.0000 </r>
       <r>    8.6348    0.0000 </r>
       <r>    9.1756    0.0000 </r>
       <r>    9.4293    0.0000 </r>
       <r>    9.7906    0.0000 </r>
       <r>    9.8977    0.0000 </r>
       <r>   10.3359    0.0000 </r>
       <r>   10.7074    0.0000 </r>
       <r>   11.7060    0.0000 </r>
       <r>   11.8858    0.0000 </r>
       <r>   12.2456    0.0000 </r>
       <r>   12.4791    0.0000 </r>
       <r>   12.6426    0.0000 </r>
       <r>   12.9614    0.0000 </r>
       <r>   13.3922    0.0000 </r>
       <r>   13.7919    0.0000 </r>
       <r>   13.9246    0.0000 </r>
       <r>   14.2550    0.0000 </r>
       <r>   15.0779    0.0000 </r>
       <r>   15.4326    0.0000 </r>
       <r>   15.7315    0.0000 </r>
      </set>
      <set comment="kpoint 18">
       <r>  -12.4710    1.0000 </r>
       <r>  -11.6746    1.0000 </r>
       <r>   -8.4936    1.0000 </r>
       <r>   -8.2794    1.0000 </r>
       <r>   -5.8072    1.0000 </r>
       <r>   -5.6598    1.0000 </r>
       <r>   -5.4201    1.0000 </r>
       <r>   -4.6539    1.0000 </r>
       <r>   -4.6165    1.0000 </r>
       <r>   -3.1163    1.0000 </r>
       <r>   -2.5963    1.0000 </r>
       <r>   -1.8660    1.0000 </r>
       <r>   -1.1010    1.0000 </r>
       <r>   -1.0348    1.0000 </r>
       <r>   -0.2130    1.0000 </r>
       <r>   -0.0488    1.0000 </r>
       <r>    0.3160    1.0000 </r>
       <r>    0.5073    1.0000 </r>
       <r>    0.5236    1.0000 </r>
       <r>    0.8304    1.0000 </r>
       <r>    0.8899    1.0000 </r>
       <r>    1.9449    0.0457 </r>
       <r>    5.3661    0.0000 </r>
       <r>    5.9666    0.0000 </r>
       <r>    6.2762    0.0000 </r>
       <r>    6.8313    0.0000 </r>
       <r>    7.5707    0.0000 </r>
       <r>    7.9462    0.0000 </r>
       <r>    8.5603    0.0000 </r>
       <r>    9.3646    0.0000 </r>
       <r>    9.3954    0.0000 </r>
       <r>    9.5925    0.0000 </r>
       <r>   10.0438    0.0000 </r>
       <r>   10.1128    0.0000 </r>
       <r>   10.5604    0.0000 </r>
       <r>   11.3876    0.0000 </r>
       <r>   11.3981    0.0000 </r>
       <r>   12.2390    0.0000 </r>
       <r>   12.7414    0.0000 </r>
       <r>   12.9566    0.0000 </r>
       <r>   13.1809    0.0000 </r>
       <r>   13.5224    0.0000 </r>
       <r>   13.7656    0.0000 </r>
       <r>   14.0168    0.0000 </r>
       <r>   14.3906    0.0000 </r>
       <r>   15.1693    0.0000 </r>
       <r>   15.3590    0.0000 </r>
       <r>   15.9925    0.0000 </r>
      </set>
      <set comment="kpoint 19">
       <r>  -12.3490    1.0000 </r>
       <r>  -11.8420    1.0000 </r>
       <r>   -8.4305    1.0000 </r>
       <r>   -8.2811    1.0000 </r>
       <r>   -5.8812    1.0000 </r>
       <r>   -5.8685    1.0000 </r>
       <r>   -5.3070    1.0000 </r>
       <r>   -4.7810    1.0000 </r>
       <r>   -4.3371    1.0000 </r>
       <r>   -2.7626    1.0000 </r>
       <r>   -2.2776    1.0000 </r>
       <r>   -2.1206    1.0000 </r>
       <r>   -1.0429    1.0000 </r>
       <r>   -1.0163    1.0000 </r>
       <r>   -0.3730    1.0000 </r>
       <r>   -0.3282    1.0000 </r>
       <r>    0.1526    1.0000 </r>
       <r>    0.3766    1.0000 </r>
       <r>    0.6632    1.0000 </r>
       <r>    0.7745    1.0000 </r>
       <r>    0.8236    1.0000 </r>
       <r>    1.6061    1.0000 </r>
       <r>    5.8936    0.0000 </r>
       <r>    6.3082    0.0000 </r>
       <r>    6.5457    0.0000 </r>
       <r>    6.7833    0.0000 </r>
       <r>    7.5702    0.0000 </r>
       <r>    8.0044    0.0000 </r>
       <r>    8.5143    0.0000 </r>
       <r>    8.9158    0.0000 </r>
       <r>    9.2719    0.0000 </r>
       <r>    9.5836    0.0000 </r>
       <r>    9.9053    0.0000 </r>
       <r>   10.3454    0.0000 </r>
       <r>   10.7948    0.0000 </r>
       <r>   11.0937    0.0000 </r>
       <r>   11.4437    0.0000 </r>
       <r>   12.1685    0.0000 </r>
       <r>   12.4228    0.0000 </r>
       <r>   13.1597    0.0000 </r>
       <r>   13.2804    0.0000 </r>
       <r>   13.6606    0.0000 </r>
       <r>   13.9014    0.0000 </r>
       <r>   14.1521    0.0000 </r>
       <r>   14.7584    0.0000 </r>
       <r>   14.9929    0.0000 </r>
       <r>   15.4346    0.0000 </r>
       <r>   16.3283    0.0000 </r>
      </set>
      <set comment="kpoint 20">
       <r>  -12.1961    1.0000 </r>
       <r>  -12.0223    1.0000 </r>
       <r>   -8.3625    1.0000 </r>
       <r>   -8.3083    1.0000 </r>
       <r>   -5.9746    1.0000 </r>
       <r>   -5.9667    1.0000 </r>
       <r>   -5.1456    1.0000 </r>
       <r>   -4.9639    1.0000 </r>
       <r>   -3.8280    1.0000 </r>
       <r>   -3.2336    1.0000 </r>
       <r>   -1.9814    1.0000 </r>
       <r>   -1.8267    1.0000 </r>
       <r>   -0.9796    1.0000 </r>
       <r>   -0.9203    1.0000 </r>
       <r>   -0.6707    1.0000 </r>
       <r>   -0.6276    1.0000 </r>
       <r>    0.1283    1.0000 </r>
       <r>    0.2287    1.0000 </r>
       <r>    0.7589    1.0000 </r>
       <r>    0.7748    1.0000 </r>
       <r>    0.9265    1.0000 </r>
       <r>    1.2496    1.0000 </r>
       <r>    6.4413    0.0000 </r>
       <r>    6.5548    0.0000 </r>
       <r>    6.6206    0.0000 </r>
       <r>    7.1358    0.0000 </r>
       <r>    7.2061    0.0000 </r>
       <r>    7.6929    0.0000 </r>
       <r>    8.5031    0.0000 </r>
       <r>    8.5673    0.0000 </r>
       <r>    9.4661    0.0000 </r>
       <r>    9.6394    0.0000 </r>
       <r>    9.8453    0.0000 </r>
       <r>   10.1419    0.0000 </r>
       <r>   10.8592    0.0000 </r>
       <r>   11.2337    0.0000 </r>
       <r>   11.8701    0.0000 </r>
       <r>   11.9451    0.0000 </r>
       <r>   12.2571    0.0000 </r>
       <r>   13.1477    0.0000 </r>
       <r>   13.4384    0.0000 </r>
       <r>   13.6240    0.0000 </r>
       <r>   13.8395    0.0000 </r>
       <r>   13.9481    0.0000 </r>
       <r>   15.1007    0.0000 </r>
       <r>   15.1182    0.0000 </r>
       <r>   15.6679    0.0000 </r>
       <r>   15.9701    0.0000 </r>
      </set>
      <set comment="kpoint 21">
       <r>  -12.5388    1.0000 </r>
[...]
       <r>   -2.3149    1.0000 </r>
       <r>   -2.1465    1.0000 </r>
       <r>   -1.9826    1.0000 </r>
       <r>   -1.4901    1.0000 </r>
       <r>   -0.7373    1.0000 </r>
       <r>   -0.2014    1.0000 </r>
       <r>    0.1663    1.0000 </r>
       <r>    0.3856    1.0000 </r>
       <r>    0.5138    1.0000 </r>
       <r>    1.5895    1.0000 </r>
       <r>    1.6166    1.0000 </r>
       <r>    1.8721    0.6450 </r>
       <r>    5.5123    0.0000 </r>
       <r>    6.1471    0.0000 </r>
       <r>    6.6677    0.0000 </r>
       <r>    7.2183    0.0000 </r>
       <r>    7.7822    0.0000 </r>
       <r>    8.2251    0.0000 </r>
       <r>    8.9917    0.0000 </r>
       <r>    9.1513    0.0000 </r>
       <r>    9.7205    0.0000 </r>
       <r>    9.9560    0.0000 </r>
       <r>   10.5871    0.0000 </r>
       <r>   11.0310    0.0000 </r>
       <r>   11.2064    0.0000 </r>
       <r>   11.4778    0.0000 </r>
       <r>   11.5667    0.0000 </r>
       <r>   11.9497    0.0000 </r>
       <r>   12.8371    0.0000 </r>
       <r>   13.1444    0.0000 </r>
       <r>   13.3675    0.0000 </r>
       <r>   13.7481    0.0000 </r>
       <r>   13.8723    0.0000 </r>
       <r>   14.1552    0.0000 </r>
       <r>   14.4765    0.0000 </r>
       <r>   14.9664    0.0000 </r>
       <r>   15.0937    0.0000 </r>
       <r>   15.3940    0.0000 </r>
      </set>
      <set comment="kpoint 175">
       <r>  -12.0207    1.0000 </r>
       <r>  -11.8815    1.0000 </r>
       <r>   -8.5467    1.0000 </r>
       <r>   -8.4344    1.0000 </r>
       <r>   -5.9262    1.0000 </r>
       <r>   -5.8200    1.0000 </r>
       <r>   -4.8914    1.0000 </r>
       <r>   -4.5677    1.0000 </r>
       <r>   -4.4131    1.0000 </r>
       <r>   -3.9749    1.0000 </r>
       <r>   -2.1987    1.0000 </r>
       <r>   -2.1371    1.0000 </r>
       <r>   -2.0572    1.0000 </r>
       <r>   -1.7728    1.0000 </r>
       <r>   -0.2190    1.0000 </r>
       <r>   -0.0054    1.0000 </r>
       <r>    0.3885    1.0000 </r>
       <r>    0.4765    1.0000 </r>
       <r>    0.5487    1.0000 </r>
       <r>    0.8749    1.0000 </r>
       <r>    1.6307    1.0000 </r>
       <r>    1.7303    1.0000 </r>
       <r>    5.8594    0.0000 </r>
       <r>    6.0450    0.0000 </r>
       <r>    6.8698    0.0000 </r>
       <r>    7.4070    0.0000 </r>
       <r>    7.4738    0.0000 </r>
       <r>    7.5768    0.0000 </r>
       <r>    9.3963    0.0000 </r>
       <r>    9.5804    0.0000 </r>
       <r>    9.7892    0.0000 </r>
       <r>    9.9668    0.0000 </r>
       <r>   10.4638    0.0000 </r>
       <r>   10.8137    0.0000 </r>
       <r>   11.2353    0.0000 </r>
       <r>   11.5085    0.0000 </r>
       <r>   11.5190    0.0000 </r>
       <r>   11.6121    0.0000 </r>
       <r>   13.0815    0.0000 </r>
       <r>   13.1875    0.0000 </r>
       <r>   13.7208    0.0000 </r>
       <r>   14.0536    0.0000 </r>
       <r>   14.1879    0.0000 </r>
       <r>   14.2905    0.0000 </r>
       <r>   14.5929    0.0000 </r>
       <r>   14.7366    0.0000 </r>
       <r>   14.8849    0.0000 </r>
       <r>   15.0468    0.0000 </r>
      </set>
     </set>
    </set>
   </array>
  </eigenvalues>
  <separator name="orbital magnetization" >
   <v name="MAGDIPOLOUT">      0.00000000      0.00000000      0.00000000</v>
  </separator>
  <dos>
   <i name="efermi">      1.88523587 </i>
   <total>
    <array>
     <dimension dim="1">gridpoints</dimension>
     <dimension dim="2">spin</dimension>
     <field>energy</field>
     <field>total</field>
     <field>integrated</field>
     <set>
      <set comment="spin 1">
       <r>   -14.1867     0.0000     0.0000 </r>
       <r>   -14.0795     0.0000     0.0000 </r>
       <r>   -13.9723     0.0000     0.0000 </r>
       <r>   -13.8651     0.0000     0.0000 </r>
       <r>   -13.7578     0.0000     0.0000 </r>
       <r>   -13.6506     0.0000     0.0000 </r>
       <r>   -13.5434     0.0000     0.0000 </r>
       <r>   -13.4362     0.0000     0.0000 </r>
       <r>   -13.3290     0.0000     0.0000 </r>
       <r>   -13.2218     0.0000     0.0000 </r>
       <r>   -13.1146     0.0000     0.0000 </r>
       <r>   -13.0074     0.0000     0.0000 </r>
       <r>   -12.9002     0.0000     0.0000 </r>
       <r>   -12.7929     0.0038     0.0004 </r>
       <r>   -12.6857     0.5086     0.0549 </r>
       <r>   -12.5785     2.3914     0.3113 </r>
       <r>   -12.4713     3.5647     0.6935 </r>
       <r>   -12.3641     4.3715     1.1622 </r>
       <r>   -12.2569     3.5381     1.5415 </r>
       <r>   -12.1497     2.7345     1.8347 </r>
       <r>   -12.0425     2.7506     2.1296 </r>
       <r>   -11.9352     2.5048     2.3981 </r>
       <r>   -11.8280     2.7706     2.6951 </r>
       <r>   -11.7208     3.4269     3.0625 </r>
       <r>   -11.6136     3.5353     3.4416 </r>
       <r>   -11.5064     3.1142     3.7755 </r>
       <r>   -11.3992     1.6668     3.9542 </r>
       <r>   -11.2920     0.4204     3.9992 </r>
       <r>   -11.1848     0.0072     4.0000 </r>
       <r>   -11.0776     0.0000     4.0000 </r>
       <r>   -10.9703     0.0000     4.0000 </r>
       <r>   -10.8631     0.0000     4.0000 </r>
       <r>   -10.7559     0.0000     4.0000 </r>
       <r>   -10.6487     0.0000     4.0000 </r>
       <r>   -10.5415     0.0000     4.0000 </r>
       <r>   -10.4343     0.0000     4.0000 </r>
       <r>   -10.3271     0.0000     4.0000 </r>
       <r>   -10.2199     0.0000     4.0000 </r>
       <r>   -10.1126     0.0000     4.0000 </r>
       <r>   -10.0054     0.0000     4.0000 </r>
       <r>    -9.8982     0.0000     4.0000 </r>
       <r>    -9.7910     0.0000     4.0000 </r>
       <r>    -9.6838     0.0000     4.0000 </r>
       <r>    -9.5766     0.0000     4.0000 </r>
       <r>    -9.4694     0.0000     4.0000 </r>
       <r>    -9.3622     0.0000     4.0000 </r>
       <r>    -9.2550     0.0000     4.0000 </r>
       <r>    -9.1477     0.0000     4.0000 </r>
       <r>    -9.0405     0.0000     4.0000 </r>
       <r>    -8.9333     0.0006     4.0001 </r>
       <r>    -8.8261     0.2761     4.0297 </r>
       <r>    -8.7189     2.0903     4.2538 </r>
       <r>    -8.6117     5.3305     4.8253 </r>
       <r>    -8.5045     6.9872     5.5744 </r>
       <r>    -8.3973     6.2985     6.2496 </r>
       <r>    -8.2900     5.3252     6.8206 </r>
       <r>    -8.1828     4.8342     7.3389 </r>
       <r>    -8.0756     3.8721     7.7540 </r>
       <r>    -7.9684     1.6656     7.9326 </r>
       <r>    -7.8612     0.5771     7.9944 </r>
       <r>    -7.7540     0.0519     8.0000 </r>
       <r>    -7.6468     0.0000     8.0000 </r>
       <r>    -7.5396     0.0000     8.0000 </r>
       <r>    -7.4324     0.0000     8.0000 </r>
       <r>    -7.3251     0.0000     8.0000 </r>
       <r>    -7.2179     0.0000     8.0000 </r>
       <r>    -7.1107     0.0000     8.0000 </r>
       <r>    -7.0035     0.0004     8.0000 </r>
       <r>    -6.8963     0.1129     8.0121 </r>
       <r>    -6.7891     0.2576     8.0398 </r>
       <r>    -6.6819     0.4259     8.0854 </r>
       <r>    -6.5747     0.7660     8.1676 </r>
       <r>    -6.4675     0.8508     8.2588 </r>
       <r>    -6.3602     1.4449     8.4137 </r>
       <r>    -6.2530     1.9635     8.6242 </r>
       <r>    -6.1458     3.0564     8.9519 </r>
       <r>    -6.0386     3.7834     9.3575 </r>
       <r>    -5.9314     4.1137     9.7985 </r>
       <r>    -5.8242     4.0456    10.2323 </r>
       <r>    -5.7170     3.8617    10.6463 </r>
       <r>    -5.6098     4.0726    11.0829 </r>
       <r>    -5.5025     4.2206    11.5354 </r>
       <r>    -5.3953     4.5444    12.0226 </r>
       <r>    -5.2881     4.5981    12.5156 </r>
       <r>    -5.1809     4.4906    12.9970 </r>
       <r>    -5.0737     3.8686    13.4118 </r>
       <r>    -4.9665     3.2275    13.7578 </r>
       <r>    -4.8593     2.9528    14.0744 </r>
       <r>    -4.7521     2.3360    14.3248 </r>
       <r>    -4.6449     2.8958    14.6353 </r>
       <r>    -4.5376     3.3682    14.9964 </r>
       <r>    -4.4304     3.4714    15.3686 </r>
       <r>    -4.3232     3.3321    15.7258 </r>
       <r>    -4.2160     2.9540    16.0425 </r>
       <r>    -4.1088     2.9072    16.3542 </r>
       <r>    -4.0016     2.9453    16.6700 </r>
       <r>    -3.8944     2.8599    16.9766 </r>
       <r>    -3.7872     3.1183    17.3109 </r>
       <r>    -3.6799     2.8762    17.6193 </r>
       <r>    -3.5727     2.7042    17.9092 </r>
       <r>    -3.4655     3.0648    18.2378 </r>
       <r>    -3.3583     2.6374    18.5205 </r>
       <r>    -3.2511     2.8612    18.8273 </r>
       <r>    -3.1439     2.7447    19.1215 </r>
       <r>    -3.0367     2.7390    19.4152 </r>
       <r>    -2.9295     3.0454    19.7417 </r>
       <r>    -2.8223     2.9741    20.0605 </r>
       <r>    -2.7150     2.4307    20.3211 </r>
       <r>    -2.6078     2.6567    20.6060 </r>
       <r>    -2.5006     3.0202    20.9298 </r>
       <r>    -2.3934     2.9854    21.2498 </r>
       <r>    -2.2862     3.1930    21.5922 </r>
       <r>    -2.1790     4.0096    22.0220 </r>
       <r>    -2.0718     3.6563    22.4140 </r>
       <r>    -1.9646     3.2732    22.7650 </r>
       <r>    -1.8573     5.1242    23.3143 </r>
       <r>    -1.7501     5.5783    23.9124 </r>
       <r>    -1.6429     5.6038    24.5132 </r>
       <r>    -1.5357     6.1808    25.1759 </r>
       <r>    -1.4285     6.1090    25.8308 </r>
       <r>    -1.3213     5.5705    26.4280 </r>
       <r>    -1.2141     4.6830    26.9301 </r>
       <r>    -1.1069     6.4958    27.6265 </r>
       <r>    -0.9997     3.9810    28.0533 </r>
       <r>    -0.8924     2.2701    28.2967 </r>
       <r>    -0.7852     2.6979    28.5860 </r>
       <r>    -0.6780     2.8793    28.8947 </r>
       <r>    -0.5708     4.5192    29.3792 </r>
       <r>    -0.4636     6.8625    30.1149 </r>
       <r>    -0.3564     5.6581    30.7215 </r>
       <r>    -0.2492     6.7049    31.4404 </r>
       <r>    -0.1420     6.3589    32.1221 </r>
       <r>    -0.0347     6.7456    32.8453 </r>
       <r>     0.0725     6.7577    33.5698 </r>
       <r>     0.1797     6.2963    34.2449 </r>
       <r>     0.2869     8.7990    35.1882 </r>
       <r>     0.3941     7.9827    36.0441 </r>
       <r>     0.5013     8.6963    36.9764 </r>
       <r>     0.6085     5.2501    37.5393 </r>
       <r>     0.7157     2.9360    37.8541 </r>
       <r>     0.8229     3.2917    38.2070 </r>
       <r>     0.9302     3.5883    38.5917 </r>
       <r>     1.0374     3.5614    38.9735 </r>
       <r>     1.1446     2.7904    39.2727 </r>
       <r>     1.2518     3.3905    39.6362 </r>
       <r>     1.3590     4.4970    40.1183 </r>
       <r>     1.4662     3.7790    40.5235 </r>
       <r>     1.5734     3.7213    40.9224 </r>
       <r>     1.6806     4.5763    41.4131 </r>
       <r>     1.7879     3.2319    41.7596 </r>
       <r>     1.8951     2.4792    42.0254 </r>
       <r>     2.0023     2.6596    42.3105 </r>
       <r>     2.1095     2.0921    42.5348 </r>
       <r>     2.2167     2.6507    42.8190 </r>
       <r>     2.3239     2.5705    43.0946 </r>
       <r>     2.4311     1.9371    43.3023 </r>
       <r>     2.5383     0.8520    43.3936 </r>
       <r>     2.6455     0.3777    43.4341 </r>
       <r>     2.7528     0.5724    43.4955 </r>
       <r>     2.8600     0.4195    43.5405 </r>
       <r>     2.9672     0.3056    43.5732 </r>
       <r>     3.0744     0.7576    43.6544 </r>
       <r>     3.1816     1.0140    43.7631 </r>
       <r>     3.2888     0.5385    43.8209 </r>
       <r>     3.3960     0.0131    43.8223 </r>
       <r>     3.5032     0.1307    43.8363 </r>
       <r>     3.6104     0.3956    43.8787 </r>
       <r>     3.7177     0.3303    43.9141 </r>
       <r>     3.8249     0.3718    43.9540 </r>
       <r>     3.9321     0.4025    43.9971 </r>
       <r>     4.0393     0.0267    44.0000 </r>
       <r>     4.1465     0.0000    44.0000 </r>
       <r>     4.2537     0.0314    44.0034 </r>
       <r>     4.3609     0.1763    44.0223 </r>
       <r>     4.4681     0.4025    44.0654 </r>
       <r>     4.5754     0.4711    44.1159 </r>
       <r>     4.6826     0.6340    44.1839 </r>
       <r>     4.7898     0.8890    44.2792 </r>
       <r>     4.8970     0.8412    44.3694 </r>
       <r>     5.0042     0.8570    44.4613 </r>
       <r>     5.1114     1.2767    44.5982 </r>
       <r>     5.2186     1.1520    44.7217 </r>
       <r>     5.3258     1.6328    44.8967 </r>
       <r>     5.4330     2.1899    45.1315 </r>
       <r>     5.5403     2.4875    45.3982 </r>
       <r>     5.6475     2.7872    45.6970 </r>
       <r>     5.7547     3.3673    46.0580 </r>
       <r>     5.8619     3.2203    46.4033 </r>
       <r>     5.9691     4.3120    46.8656 </r>
       <r>     6.0763     4.7574    47.3756 </r>
       <r>     6.1835     4.0432    47.8091 </r>
       <r>     6.2907     4.6242    48.3049 </r>
       <r>     6.3980     4.1510    48.7499 </r>
       <r>     6.5052     4.0172    49.1806 </r>
       <r>     6.6124     4.4807    49.6610 </r>
       <r>     6.7196     3.2277    50.0070 </r>
       <r>     6.8268     3.9974    50.4356 </r>
       <r>     6.9340     4.6125    50.9301 </r>
       <r>     7.0412     4.5532    51.4183 </r>
       <r>     7.1484     4.3387    51.8834 </r>
       <r>     7.2556     5.5991    52.4837 </r>
       <r>     7.3629     4.9233    53.0116 </r>
       <r>     7.4701     4.4512    53.4888 </r>
       <r>     7.5773     4.1919    53.9382 </r>
       <r>     7.6845     3.5656    54.3205 </r>
       <r>     7.7917     3.1248    54.6555 </r>
       <r>     7.8989     3.0101    54.9782 </r>
       <r>     8.0061     2.9772    55.2974 </r>
       <r>     8.1133     4.1679    55.7442 </r>
       <r>     8.2206     3.8882    56.1611 </r>
       <r>     8.3278     3.6873    56.5564 </r>
       <r>     8.4350     3.9893    56.9841 </r>
       <r>     8.5422     4.2161    57.4361 </r>
       <r>     8.6494     4.4547    57.9137 </r>
       <r>     8.7566     4.2210    58.3663 </r>
       <r>     8.8638     5.2631    58.9306 </r>
       <r>     8.9710     4.9466    59.4609 </r>
       <r>     9.0782     5.2923    60.0283 </r>
       <r>     9.1855     5.2382    60.5899 </r>
       <r>     9.2927     4.9696    61.1227 </r>
       <r>     9.3999     4.6911    61.6256 </r>
       <r>     9.5071     4.3672    62.0938 </r>
       <r>     9.6143     5.1049    62.6411 </r>
       <r>     9.7215     5.0277    63.1801 </r>
       <r>     9.8287     5.3000    63.7484 </r>
       <r>     9.9359     4.4809    64.2288 </r>
       <r>    10.0432     3.6338    64.6184 </r>
       <r>    10.1504     5.1736    65.1730 </r>
       <r>    10.2576     4.7187    65.6789 </r>
       <r>    10.3648     4.1159    66.1202 </r>
       <r>    10.4720     5.4126    66.7005 </r>
       <r>    10.5792     5.8138    67.3238 </r>
       <r>    10.6864     4.0653    67.7597 </r>
       <r>    10.7936     3.8859    68.1763 </r>
       <r>    10.9008     3.2347    68.5231 </r>
       <r>    11.0081     4.6691    69.0236 </r>
       <r>    11.1153     5.4842    69.6116 </r>
       <r>    11.2225     6.1901    70.2753 </r>
       <r>    11.3297     5.9934    70.9178 </r>
       <r>    11.4369     5.2869    71.4846 </r>
       <r>    11.5441     4.3000    71.9457 </r>
       <r>    11.6513     4.4736    72.4253 </r>
       <r>    11.7585     4.9318    72.9540 </r>
       <r>    11.8658     4.8061    73.4693 </r>
       <r>    11.9730     6.0348    74.1163 </r>
       <r>    12.0802     5.9584    74.7551 </r>
       <r>    12.1874     5.9888    75.3972 </r>
       <r>    12.2946     5.6165    75.9993 </r>
       <r>    12.4018     5.0069    76.5361 </r>
       <r>    12.5090     5.6861    77.1457 </r>
       <r>    12.6162     5.9902    77.7880 </r>
       <r>    12.7234     6.0229    78.4337 </r>
       <r>    12.8307     5.8862    79.0647 </r>
       <r>    12.9379     5.8615    79.6932 </r>
       <r>    13.0451     5.5966    80.2932 </r>
       <r>    13.1523     6.3487    80.9738 </r>
       <r>    13.2595     6.2602    81.6450 </r>
       <r>    13.3667     5.3887    82.2227 </r>
       <r>    13.4739     6.1331    82.8803 </r>
       <r>    13.5811     5.3417    83.4530 </r>
       <r>    13.6883     4.8093    83.9686 </r>
       <r>    13.7956     6.1324    84.6261 </r>
       <r>    13.9028     5.5229    85.2182 </r>
       <r>    14.0100     5.3438    85.7911 </r>
       <r>    14.1172     5.4759    86.3782 </r>
       <r>    14.2244     4.6834    86.8803 </r>
       <r>    14.3316     4.9061    87.4063 </r>
       <r>    14.4388     5.0204    87.9445 </r>
       <r>    14.5460     4.9617    88.4765 </r>
       <r>    14.6533     5.2729    89.0418 </r>
       <r>    14.7605     5.1652    89.5956 </r>
       <r>    14.8677     4.0921    90.0343 </r>
       <r>    14.9749     5.0829    90.5792 </r>
       <r>    15.0821     6.1887    91.2427 </r>
       <r>    15.1893     5.6376    91.8471 </r>
       <r>    15.2965     5.6774    92.4558 </r>
       <r>    15.4037     6.0283    93.1021 </r>
       <r>    15.5109     5.7312    93.7166 </r>
       <r>    15.6182     5.9509    94.3546 </r>
       <r>    15.7254     4.5906    94.8467 </r>
       <r>    15.8326     2.4675    95.1113 </r>
       <r>    15.9398     2.7061    95.4014 </r>
       <r>    16.0470     1.8596    95.6008 </r>
       <r>    16.1542     1.1442    95.7235 </r>
       <r>    16.2614     0.8978    95.8197 </r>
       <r>    16.3686     0.6911    95.8938 </r>
       <r>    16.4759     0.8126    95.9809 </r>
       <r>    16.5831     0.1762    95.9998 </r>
       <r>    16.6903     0.0017    96.0000 </r>
       <r>    16.7975     0.0000    96.0000 </r>
       <r>    16.9047     0.0000    96.0000 </r>
       <r>    17.0119     0.0000    96.0000 </r>
       <r>    17.1191     0.0000    96.0000 </r>
       <r>    17.2263     0.0000    96.0000 </r>
       <r>    17.3335     0.0000    96.0000 </r>
       <r>    17.4408     0.0000    96.0000 </r>
       <r>    17.5480     0.0000    96.0000 </r>
       <r>    17.6552     0.0000    96.0000 </r>
       <r>    17.7624     0.0000    96.0000 </r>
       <r>    17.8696     0.0000    96.0000 </r>
       <r>    17.9768     0.0000    96.0000 </r>
      </set>
     </set>
    </array>
   </total>
  </dos>
 </calculation>
 <structure name="finalpos" >
  <crystal>
   <varray name="basis" >
    <v>       5.69700000       0.00000000       0.00000000 </v>
    <v>       0.00000000       4.04790000       0.00000000 </v>
    <v>       0.00000000       0.00000000       6.20420000 </v>
   </varray>
   <i name="volume">    143.07435078 </i>
   <varray name="rec_basis" >
    <v>       0.17553098       0.00000000       0.00000000 </v>
    <v>       0.00000000       0.24704168       0.00000000 </v>
    <v>       0.00000000       0.00000000       0.16118114 </v>
   </varray>
  </crystal>
  <varray name="positions" >
   <v>       0.52123000       0.50000000       0.63796000 </v>
   <v>       0.47877000       0.50000000       0.36204000 </v>
   <v>       0.97877000       0.50000000       0.63796000 </v>
   <v>       0.02123000       0.50000000       0.36204000 </v>
   <v>       0.60090000       0.50000000       0.89991000 </v>
   <v>       0.39910000       0.50000000       0.10009000 </v>
   <v>       0.89910000       0.50000000       0.89991000 </v>
   <v>       0.10090000       0.50000000       0.10009000 </v>
   <v>       0.75000000       0.79171000       0.72973000 </v>
   <v>       0.25000000       0.20829000       0.27027000 </v>
   <v>       0.75000000       0.20829000       0.72973000 </v>
   <v>       0.25000000       0.79171000       0.27027000 </v>
   <v>       0.25000000       0.50000000       0.52367000 </v>
   <v>       0.75000000       0.50000000       0.47633000 </v>
  </varray>
 </structure>
</modeling>
