   14   14    1    1
  0.1021960E+02  0.5697000E-09  0.4047900E-09  0.6204200E-09  0.5000000E-15
  1.000000000000000E-004
  CAR 
 Kpoints                                 
     42   1260     48
 
  0.0000000E+00  0.0000000E+00  0.0000000E+00  0.1146657E-03
      1        -12.733229   1.000000
      2        -11.576079   1.000000
      3         -8.661784   1.000000
      4         -8.424517   1.000000
      5         -6.076907   1.000000
      6         -5.058856   1.000000
      7         -4.637769   1.000000
      8         -4.349060   1.000000
      9         -3.972902   1.000000
     10         -3.597979   1.000000
     11         -2.421339   1.000000
     12         -2.241900   1.000000
     13         -2.182458   1.000000
     14         -1.051853   1.000000
     15         -0.036415   1.000000
     16         -0.002529   1.000000
     17          0.150410   1.000000
     18          0.173898   1.000000
     19          0.565727   1.000000
     20          2.080779   0.000000
     21          2.126964   0.000000
     22          2.215812   0.000000
     23          5.412727   0.000000
     24          5.803044   0.000000
     25          5.818401   0.000000
     26          5.911752   0.000000
     27          6.786998   0.000000
     28          7.674099   0.000000
     29          7.702572   0.000000
     30          8.635482   0.000000
     31          8.754028   0.000000
     32          8.854197   0.000000
     33          9.042254   0.000000
     34         10.030339   0.000000
     35         11.145108   0.000000
     36         11.401017   0.000000
     37         11.770932   0.000000
     38         11.803568   0.000000
     39         11.900406   0.000000
     40         12.355597   0.000000
     41         12.805887   0.000000
     42         13.396299   0.000000
     43         13.575273   0.000000
     44         15.556026   0.000000
     45         15.568838   0.000000
     46         15.943346   0.000000
     47         16.360136   0.000000
     48         16.600702   0.000000
 
  0.5263158E-01  0.0000000E+00  0.0000000E+00  0.2293315E-03
      1        -12.727124   1.000000
      2        -11.586716   1.000000
      3         -8.658958   1.000000
      4         -8.422698   1.000000
      5         -6.064056   1.000000
      6         -5.140844   1.000000
      7         -4.669595   1.000000
      8         -4.252271   1.000000
      9         -3.964347   1.000000
     10         -3.538793   1.000000
     11         -2.418711   1.000000
     12         -2.243603   1.000000
     13         -2.202429   1.000000
     14         -1.097971   1.000000
     15         -0.030303   1.000000
     16          0.007664   1.000000
     17          0.155145   1.000000
     18          0.157567   1.000000
     19          0.551687   1.000000
     20          2.067826   0.000000
     21          2.115523   0.000000
     22          2.199352   0.000000
     23          5.426622   0.000000
     24          5.795095   0.000000
     25          5.798293   0.000000
     26          5.993056   0.000000
     27          6.773748   0.000000
     28          7.498451   0.000000
     29          7.848213   0.000000
     30          8.655801   0.000000
     31          8.809741   0.000000
     32          8.891084   0.000000
     33          9.045174   0.000000
     34         10.048679   0.000000
     35         11.155423   0.000000
     36         11.341229   0.000000
     37         11.666295   0.000000
     38         11.767955   0.000000
     39         11.933209   0.000000
     40         12.367785   0.000000
     41         12.875597   0.000000
     42         13.505201   0.000000
     43         13.517966   0.000000
     44         15.364399   0.000000
     45         15.603503   0.000000
     46         16.081529   0.000000
     47         16.346598   0.000000
     48         16.376045   0.000000
 
  0.1052632E+00  0.0000000E+00  0.0000000E+00  0.2293315E-03
      1        -12.708877   1.000000
      2        -11.617987   1.000000
      3         -8.650316   1.000000
      4         -8.417573   1.000000
      5         -6.030677   1.000000
      6         -5.313183   1.000000
      7         -4.738465   1.000000
      8         -4.035954   1.000000
      9         -3.938762   1.000000
     10         -3.383999   1.000000
     11         -2.410745   1.000000
     12         -2.260276   1.000000
     13         -2.248675   1.000000
     14         -1.230643   1.000000
     15         -0.012204   1.000000
     16          0.036672   1.000000
     17          0.099734   1.000000
     18          0.176964   1.000000
     19          0.510166   1.000000
     20          2.030185   0.000010
     21          2.082179   0.000000
     22          2.149829   0.000000
     23          5.465481   0.000000
     24          5.773262   0.000000
     25          5.815558   0.000000
     26          6.157396   0.000000
     27          6.736122   0.000000
     28          7.301149   0.000000
     29          7.970570   0.000000
     30          8.713706   0.000000
     31          8.958972   0.000000
     32          8.996362   0.000000
     33          9.052286   0.000000
     34         10.104979   0.000000
     35         11.170354   0.000000
     36         11.186784   0.000000
     37         11.411771   0.000000
     38         11.705035   0.000000
     39         12.028390   0.000000
     40         12.403917   0.000000
     41         13.025888   0.000000
     42         13.358783   0.000000
     43         13.773020   0.000000
     44         15.060558   0.000000
     45         15.696987   0.000000
     46         16.065026   0.000000
     47         16.247610   0.000000
     48         16.422122   0.000000
 
  0.1578947E+00  0.0000000E+00  0.0000000E+00  0.2293315E-03
      1        -12.678676   1.000000
      2        -11.668064   1.000000
      3         -8.635521   1.000000
      4         -8.410115   1.000000
      5         -5.992240   1.000000
      6         -5.501952   1.000000
      7         -4.794418   1.000000
      8         -3.896360   1.000000
      9         -3.775523   1.000000
     10         -3.171930   1.000000
     11         -2.397127   1.000000
     12         -2.350545   1.000000
     13         -2.256978   1.000000
     14         -1.435194   1.000000
     15          0.010108   1.000000
     16          0.017150   1.000000
     17          0.080338   1.000000
     18          0.197287   1.000000
     19          0.449854   1.000000
     20          1.971520   0.004494
     21          2.029747   0.000010
     22          2.067332   0.000000
     23          5.521771   0.000000
     24          5.743101   0.000000
     25          5.898254   0.000000
     26          6.370917   0.000000
     27          6.679967   0.000000
     28          7.115090   0.000000
     29          8.067525   0.000000
     30          8.798867   0.000000
     31          9.032507   0.000000
     32          9.163782   0.000000
     33          9.181511   0.000000
     34         10.205185   0.000000
     35         10.910329   0.000000
     36         11.094268   0.000000
     37         11.238975   0.000000
     38         11.679664   0.000000
     39         12.169080   0.000000
     40         12.470289   0.000000
     41         13.124820   0.000000
     42         13.135453   0.000000
     43         14.116166   0.000000
     44         14.821119   0.000000
     45         15.759346   0.000000
     46         15.828220   0.000000
     47         16.322518   0.000000
     48         16.494356   0.000000
 
  0.2105263E+00  0.0000000E+00  0.0000000E+00  0.2293315E-03
      1        -12.636915   1.000000
      2        -11.734219   1.000000
      3         -8.614392   1.000000
      4         -8.401906   1.000000
      5         -5.970984   1.000000
      6         -5.680327   1.000000
      7         -4.794485   1.000000
      8         -3.837508   1.000000
      9         -3.501336   1.000000
     10         -2.929518   1.000000
     11         -2.465958   1.000000
     12         -2.377356   1.000000
     13         -2.268139   1.000000
     14         -1.692330   1.000000
     15         -0.109766   1.000000
     16          0.056441   1.000000
     17          0.133045   1.000000
     18          0.173597   1.000000
     19          0.415057   1.000000
     20          1.897844   0.298539
     21          1.953308   0.017980
     22          1.962562   0.009159
     23          5.585551   0.000000
     24          5.712203   0.000000
     25          6.047525   0.000000
     26          6.613554   0.000000
     27          6.623383   0.000000
     28          6.951214   0.000000
     29          8.150749   0.000000
     30          8.888624   0.000000
     31          8.997319   0.000000
     32          9.393556   0.000000
     33          9.408826   0.000000
     34         10.361970   0.000000
     35         10.585448   0.000000
     36         10.775150   0.000000
     37         11.306209   0.000000
     38         11.724205   0.000000
     39         12.304562   0.000000
     40         12.602288   0.000000
     41         12.841538   0.000000
     42         13.081474   0.000000
     43         14.489305   0.000000
     44         14.748431   0.000000
     45         15.443221   0.000000
     46         15.979490   0.000000
     47         16.217996   0.000000
     48         16.492473   0.000000
 
  0.2631579E+00  0.0000000E+00  0.0000000E+00  0.2293315E-03
      1        -12.584107   1.000000
      2        -11.813123   1.000000
      3         -8.587276   1.000000
      4         -8.395081   1.000000
      5         -5.982633   1.000000
      6         -5.837234   1.000000
      7         -4.714018   1.000000
      8         -3.762750   1.000000
      9         -3.233054   1.000000
     10         -2.674979   1.000000
     11         -2.598991   1.000000
     12         -2.352533   1.000000
     13         -2.280828   1.000000
     14         -1.977617   1.000000
     15         -0.254167   1.000000
     16          0.059360   1.000000
     17          0.103616   1.000000
     18          0.188592   1.000000
     19          0.455269   1.000000
     20          1.811601   0.971978
     21          1.817143   0.960280
     22          1.886147   0.421616
     23          5.646641   0.000000
     24          5.687947   0.000000
     25          6.259190   0.000000
     26          6.546403   0.000000
     27          6.812862   0.000000
     28          6.907547   0.000000
     29          8.225287   0.000000
     30          8.931317   0.000000
     31          8.936863   0.000000
     32          9.634799   0.000000
     33          9.669485   0.000000
     34         10.214880   0.000000
     35         10.518864   0.000000
     36         10.590498   0.000000
     37         11.370984   0.000000
     38         11.842591   0.000000
     39         12.391685   0.000000
     40         12.527629   0.000000
     41         12.825249   0.000000
     42         12.843545   0.000000
     43         14.833486   0.000000
     44         14.870195   0.000000
     45         15.130491   0.000000
     46         15.968484   0.000000
     47         16.097203   0.000000
     48         16.137998   0.000000
 
  0.3157895E+00  0.0000000E+00  0.0000000E+00  0.2293315E-03
      1        -12.520945   1.000000
      2        -11.901225   1.000000
      3         -8.555290   1.000000
      4         -8.392046   1.000000
      5         -6.023385   1.000000
      6         -5.966415   1.000000
      7         -4.553661   1.000000
      8         -3.672824   1.000000
      9         -3.002073   1.000000
     10         -2.742778   1.000000
     11         -2.433714   1.000000
     12         -2.371295   1.000000
     13         -2.283976   1.000000
     14         -2.206619   1.000000
     15         -0.414263   1.000000
     16         -0.111326   1.000000
     17          0.155657   1.000000
     18          0.240475   1.000000
     19          0.543121   1.000000
     20          1.648627   1.000000
     21          1.738795   0.999964
     22          1.806932   0.979463
     23          5.675434   0.000000
     24          5.695984   0.000000
     25          6.488460   0.000000
     26          6.526294   0.000000
     27          6.698991   0.000000
     28          7.217638   0.000000
     29          8.292910   0.000000
     30          8.843193   0.000000
     31          8.871542   0.000000
     32          9.820596   0.000000
     33          9.885497   0.000000
     34          9.938110   0.000000
     35         10.399367   0.000000
     36         10.898731   0.000000
     37         11.405200   0.000000
     38         12.023451   0.000000
     39         12.196434   0.000000
     40         12.457199   0.000000
     41         12.504539   0.000000
     42         13.083824   0.000000
     43         14.841952   0.000000
     44         14.955831   0.000000
     45         15.245369   0.000000
     46         15.604447   0.000000
     47         15.660530   0.000000
     48         16.290186   0.000000
 
  0.3684211E+00  0.0000000E+00  0.0000000E+00  0.2293315E-03
      1        -12.448352   1.000000
      2        -11.995008   1.000000
      3         -8.520350   1.000000
      4         -8.395133   1.000000
      5         -6.076169   1.000000
      6         -6.063782   1.000000
      7         -4.329875   1.000000
      8         -3.568685   1.000000
      9         -2.919434   1.000000
     10         -2.891447   1.000000
     11         -2.524923   1.000000
     12         -2.348441   1.000000
     13         -2.176539   1.000000
     14         -2.153487   1.000000
     15         -0.574223   1.000000
     16         -0.307159   1.000000
     17          0.208330   1.000000
     18          0.281972   1.000000
     19          0.658111   1.000000
     20          1.472579   1.000000
     21          1.672801   1.000000
     22          1.732140   0.999984
     23          5.676378   0.000000
     24          5.726696   0.000000
     25          6.448997   0.000000
     26          6.606944   0.000000
     27          6.840224   0.000000
     28          7.549047   0.000000
     29          8.356004   0.000000
     30          8.654501   0.000000
     31          8.745786   0.000000
     32          9.420847   0.000000
     33         10.144606   0.000000
     34         10.193730   0.000000
     35         10.452533   0.000000
     36         11.277186   0.000000
     37         11.388031   0.000000
     38         11.858185   0.000000
     39         12.131583   0.000000
     40         12.254733   0.000000
     41         12.511222   0.000000
     42         13.290045   0.000000
     43         14.619395   0.000000
     44         15.014563   0.000000
     45         15.138654   0.000000
     46         15.335466   0.000000
     47         15.603813   0.000000
     48         16.413850   0.000000
 
  0.4210526E+00  0.0000000E+00  0.0000000E+00  0.2293315E-03
      1        -12.367484   1.000000
      2        -12.091234   1.000000
      3         -8.485106   1.000000
      4         -8.406098   1.000000
      5         -6.127053   1.000000
      6         -6.123695   1.000000
      7         -4.060630   1.000000
      8         -3.451570   1.000000
      9         -3.133108   1.000000
     10         -3.040186   1.000000
     11         -2.503052   1.000000
     12         -2.367014   1.000000
     13         -2.057493   1.000000
     14         -1.974243   1.000000
     15         -0.702590   1.000000
     16         -0.504428   1.000000
     17          0.256033   1.000000
     18          0.306707   1.000000
     19          0.793957   1.000000
     20          1.292084   1.000000
     21          1.628558   1.000000
     22          1.669683   1.000000
     23          5.689018   0.000000
     24          5.736017   0.000000
     25          6.434327   0.000000
     26          6.534280   0.000000
     27          7.191101   0.000000
     28          7.898115   0.000000
     29          8.328983   0.000000
     30          8.418800   0.000000
     31          8.650147   0.000000
     32          9.025336   0.000000
     33         10.396941   0.000000
     34         10.418163   0.000000
     35         10.636412   0.000000
     36         11.333172   0.000000
     37         11.521908   0.000000
     38         11.684132   0.000000
     39         11.785241   0.000000
     40         12.510948   0.000000
     41         12.515212   0.000000
     42         13.312815   0.000000
     43         14.541496   0.000000
     44         14.817895   0.000000
     45         14.973585   0.000000
     46         15.028768   0.000000
     47         15.932939   0.000000
     48         16.469265   0.000000
 
  0.4736842E+00  0.0000000E+00  0.0000000E+00  0.2293315E-03
      1        -12.279779   1.000000
      2        -12.187002   1.000000
      3         -8.452540   1.000000
      4         -8.425511   1.000000
      5         -6.156060   1.000000
      6         -6.153190   1.000000
      7         -3.760790   1.000000
      8         -3.444232   1.000000
      9         -3.323044   1.000000
     10         -3.185089   1.000000
     11         -2.443374   1.000000
     12         -2.399153   1.000000
     13         -1.934176   1.000000
     14         -1.889696   1.000000
     15         -0.745939   1.000000
     16         -0.668560   1.000000
     17          0.292125   1.000000
     18          0.310272   1.000000
     19          0.947361   1.000000
     20          1.114932   1.000000
     21          1.612839   1.000000
     22          1.627639   1.000000
     23          5.708493   0.000000
     24          5.727238   0.000000
     25          6.445644   0.000000
     26          6.480067   0.000000
     27          7.567362   0.000000
     28          7.954072   0.000000
     29          8.261960   0.000000
     30          8.486394   0.000000
     31          8.562974   0.000000
     32          8.638320   0.000000
     33         10.575467   0.000000
     34         10.578298   0.000000
     35         10.895731   0.000000
     36         11.197089   0.000000
     37         11.318488   0.000000
     38         11.471386   0.000000
     39         12.094437   0.000000
     40         12.383164   0.000000
     41         12.804034   0.000000
     42         13.102970   0.000000
     43         14.622823   0.000000
     44         14.739046   0.000000
     45         14.780971   0.000000
     46         14.853263   0.000000
     47         16.212538   0.000000
     48         16.405384   0.000000
 
  0.0000000E+00  0.3703704E-01  0.0000000E+00  0.2293315E-03
      1        -12.729920   1.000000
      2        -11.573100   1.000000
      3         -8.659180   1.000000
      4         -8.421309   1.000000
      5         -6.073233   1.000000
      6         -5.053721   1.000000
      7         -4.634719   1.000000
      8         -4.358544   1.000000
      9         -4.048864   1.000000
     10         -3.594535   1.000000
     11         -2.600282   1.000000
     12         -2.323361   1.000000
     13         -1.809061   1.000000
     14         -1.051214   1.000000
     15         -0.076690   1.000000
     16         -0.050063   1.000000
     17          0.152857   1.000000
     18          0.196507   1.000000
     19          0.581864   1.000000
     20          2.028274   0.000012
     21          2.089703   0.000000
     22          2.236597   0.000000
     23          5.448646   0.000000
     24          5.760770   0.000000
     25          5.862184   0.000000
     26          5.878724   0.000000
     27          6.829744   0.000000
     28          7.729687   0.000000
     29          7.730681   0.000000
     30          8.510341   0.000000
     31          8.753784   0.000000
     32          8.922063   0.000000
     33          9.050467   0.000000
     34         10.116215   0.000000
     35         11.178784   0.000000
     36         11.389389   0.000000
     37         11.759750   0.000000
     38         11.818923   0.000000
     39         11.914546   0.000000
     40         12.395519   0.000000
     41         12.807435   0.000000
     42         13.350530   0.000000
     43         13.527951   0.000000
     44         15.539948   0.000000
     45         15.550805   0.000000
     46         15.954823   0.000000
     47         16.333653   0.000000
     48         16.485541   0.000000
 
  0.5263158E-01  0.3703704E-01  0.0000000E+00  0.4586630E-03
      1        -12.723811   1.000000
      2        -11.583732   1.000000
      3         -8.656350   1.000000
      4         -8.419496   1.000000
      5         -6.060348   1.000000
      6         -5.136117   1.000000
      7         -4.666574   1.000000
      8         -4.266126   1.000000
      9         -4.035682   1.000000
     10         -3.535411   1.000000
     11         -2.609787   1.000000
     12         -2.320603   1.000000
     13         -1.821703   1.000000
     14         -1.097332   1.000000
     15         -0.070747   1.000000
     16         -0.041312   1.000000
     17          0.160210   1.000000
     18          0.179654   1.000000
     19          0.567779   1.000000
     20          2.015641   0.000057
     21          2.078274   0.000000
     22          2.219712   0.000000
     23          5.462797   0.000000
     24          5.748202   0.000000
     25          5.840685   0.000000
     26          5.965759   0.000000
     27          6.816529   0.000000
     28          7.542097   0.000000
     29          7.888168   0.000000
     30          8.531704   0.000000
     31          8.810202   0.000000
     32          8.958402   0.000000
     33          9.054666   0.000000
     34         10.130796   0.000000
     35         11.188726   0.000000
     36         11.329660   0.000000
     37         11.656088   0.000000
     38         11.781996   0.000000
     39         11.947441   0.000000
     40         12.407542   0.000000
     41         12.877379   0.000000
     42         13.460090   0.000000
     43         13.470920   0.000000
     44         15.369833   0.000000
     45         15.573290   0.000000
     46         16.069280   0.000000
     47         16.318039   0.000000
     48         16.358083   0.000000
 
  0.1052632E+00  0.3703704E-01  0.0000000E+00  0.4586630E-03
      1        -12.705561   1.000000
      2        -11.614985   1.000000
      3         -8.647698   1.000000
      4         -8.414391   1.000000
      5         -6.026869   1.000000
      6         -5.308839   1.000000
      7         -4.735549   1.000000
      8         -4.092710   1.000000
      9         -3.967239   1.000000
     10         -3.380853   1.000000
     11         -2.638592   1.000000
     12         -2.312268   1.000000
     13         -1.856990   1.000000
     14         -1.229966   1.000000
     15         -0.053451   1.000000
     16         -0.020633   1.000000
     17          0.133763   1.000000
     18          0.180512   1.000000
     19          0.526089   1.000000
     20          1.978786   0.002416
     21          2.044967   0.000001
     22          2.169102   0.000000
     23          5.502337   0.000000
     24          5.755388   0.000000
     25          5.830246   0.000000
     26          6.127857   0.000000
     27          6.779010   0.000000
     28          7.346607   0.000000
     29          8.009032   0.000000
     30          8.592271   0.000000
     31          8.960982   0.000000
     32          9.059326   0.000000
     33          9.068939   0.000000
     34         10.175472   0.000000
     35         11.158959   0.000000
     36         11.218998   0.000000
     37         11.400104   0.000000
     38         11.722224   0.000000
     39         12.042816   0.000000
     40         12.443196   0.000000
     41         13.028511   0.000000
     42         13.312467   0.000000
     43         13.726478   0.000000
     44         15.075099   0.000000
     45         15.661980   0.000000
     46         16.057817   0.000000
     47         16.186827   0.000000
     48         16.433069   0.000000
 
  0.1578947E+00  0.3703704E-01  0.0000000E+00  0.4586630E-03
      1        -12.675386   1.000000
      2        -11.665060   1.000000
      3         -8.632889   1.000000
      4         -8.406965   1.000000
      5         -5.988266   1.000000
      6         -5.497738   1.000000
      7         -4.791700   1.000000
      8         -4.006570   1.000000
      9         -3.751003   1.000000
     10         -3.169610   1.000000
     11         -2.687022   1.000000
     12         -2.298177   1.000000
     13         -1.908151   1.000000
     14         -1.434416   1.000000
     15         -0.026629   1.000000
     16         -0.025395   1.000000
     17          0.094091   1.000000
     18          0.204396   1.000000
     19          0.464632   1.000000
     20          1.920879   0.118972
     21          1.992598   0.000667
     22          2.085386   0.000000
     23          5.559527   0.000000
     24          5.757535   0.000000
     25          5.881423   0.000000
     26          6.338448   0.000000
     27          6.723020   0.000000
     28          7.164307   0.000000
     29          8.104406   0.000000
     30          8.680441   0.000000
     31          9.060555   0.000000
     32          9.167179   0.000000
     33          9.239239   0.000000
     34         10.255399   0.000000
     35         10.899457   0.000000
     36         11.082320   0.000000
     37         11.269343   0.000000
     38         11.703558   0.000000
     39         12.184223   0.000000
     40         12.508238   0.000000
     41         13.079728   0.000000
     42         13.139446   0.000000
     43         14.060273   0.000000
     44         14.848558   0.000000
     45         15.737536   0.000000
     46         15.815324   0.000000
     47         16.221467   0.000000
     48         16.529035   0.000000
 
  0.2105263E+00  0.3703704E-01  0.0000000E+00  0.4586630E-03
      1        -12.633625   1.000000
      2        -11.731188   1.000000
      3         -8.611744   1.000000
      4         -8.398809   1.000000
      5         -5.966797   1.000000
      6         -5.676126   1.000000
      7         -4.792016   1.000000
      8         -3.942919   1.000000
      9         -3.482058   1.000000
     10         -2.933080   1.000000
     11         -2.750704   1.000000
     12         -2.278122   1.000000
     13         -1.967031   1.000000
     14         -1.691375   1.000000
     15         -0.116558   1.000000
     16          0.004077   1.000000
     17          0.119575   1.000000
     18          0.194990   1.000000
     19          0.424023   1.000000
     20          1.846889   0.819278
     21          1.925515   0.094886
     22          1.971126   0.004643
     23          5.624111   0.000000
     24          5.734323   0.000000
     25          6.023669   0.000000
     26          6.583432   0.000000
     27          6.656835   0.000000
     28          7.009375   0.000000
     29          8.186353   0.000000
     30          8.771905   0.000000
     31          9.037696   0.000000
     32          9.397841   0.000000
     33          9.464270   0.000000
     34         10.373864   0.000000
     35         10.582402   0.000000
     36         10.770114   0.000000
     37         11.333659   0.000000
     38         11.756318   0.000000
     39         12.323628   0.000000
     40         12.633770   0.000000
     41         12.800301   0.000000
     42         13.086449   0.000000
     43         14.403254   0.000000
     44         14.809088   0.000000
     45         15.454931   0.000000
     46         15.925827   0.000000
     47         16.146018   0.000000
     48         16.503303   0.000000
 
  0.2631579E+00  0.3703704E-01  0.0000000E+00  0.4586630E-03
      1        -12.580826   1.000000
      2        -11.810075   1.000000
      3         -8.584618   1.000000
      4         -8.392042   1.000000
      5         -5.978269   1.000000
      6         -5.832998   1.000000
      7         -4.711775   1.000000
      8         -3.869317   1.000000
      9         -3.212446   1.000000
     10         -2.861754   1.000000
     11         -2.655038   1.000000
     12         -2.254390   1.000000
     13         -2.026876   1.000000
     14         -1.975814   1.000000
     15         -0.253944   1.000000
     16          0.002695   1.000000
     17          0.134648   1.000000
     18          0.169340   1.000000
     19          0.458876   1.000000
     20          1.760588   0.999601
     21          1.834445   0.896990
     22          1.849225   0.801372
     23          5.685586   0.000000
     24          5.712785   0.000000
     25          6.233447   0.000000
     26          6.590030   0.000000
     27          6.791602   0.000000
     28          6.948581   0.000000
     29          8.259764   0.000000
     30          8.821100   0.000000
     31          8.988802   0.000000
     32          9.639648   0.000000
     33          9.717506   0.000000
     34         10.189123   0.000000
     35         10.462905   0.000000
     36         10.654646   0.000000
     37         11.393686   0.000000
     38         11.882390   0.000000
     39         12.414813   0.000000
     40         12.485573   0.000000
     41         12.849083   0.000000
     42         12.856649   0.000000
     43         14.697594   0.000000
     44         14.984024   0.000000
     45         15.151838   0.000000
     46         15.939296   0.000000
     47         15.951509   0.000000
     48         16.252558   0.000000
 
  0.3157895E+00  0.3703704E-01  0.0000000E+00  0.4586630E-03
      1        -12.517691   1.000000
      2        -11.898160   1.000000
      3         -8.552615   1.000000
      4         -8.389062   1.000000
      5         -6.018924   1.000000
      6         -5.962124   1.000000
      7         -4.551576   1.000000
      8         -3.783077   1.000000