       N       E                     dE             d eps       ncg     rms          rms(c)
DAV:   1     0.404376182388E+02    0.40438E+02   -0.16351E+04120960   0.651E+02
DAV:   2    -0.934717799035E+02   -0.13391E+03   -0.12629E+03169512   0.140E+02
DAV:   3    -0.975893585455E+02   -0.41176E+01   -0.40999E+01174072   0.222E+01
DAV:   4    -0.976130795756E+02   -0.23721E-01   -0.23720E-01153024   0.190E+00
DAV:   5    -0.976133550615E+02   -0.27549E-03   -0.27548E-03172560   0.199E-01    0.123E+01
DAV:   6    -0.922000843568E+02    0.54133E+01   -0.39483E+00175200   0.656E+00    0.677E+00
DAV:   7    -0.905498986670E+02    0.16502E+01   -0.32018E+00180408   0.583E+00    0.171E+00
DAV:   8    -0.905607974414E+02   -0.10899E-01   -0.22685E-01133128   0.161E+00    0.753E-01
DAV:   9    -0.905754903396E+02   -0.14693E-01   -0.17524E-02170640   0.453E-01    0.206E-01
DAV:  10    -0.905798385508E+02   -0.43482E-02   -0.25853E-03133920   0.178E-01    0.665E-02
