 running   24 mpi-ranks, with    1 threads/rank, on    1 nodes
 distrk:  each k-point on   24 cores,    1 groups
 distr:  one band on    1 cores,   24 groups
 vasp.6.4.3 19Mar24 (build May 31 2024 16:31:43) complex                        
  
 POSCAR found type information on POSCAR B 
 POSCAR found :  1 types and      14 ions
 Reading from existing POTCAR
 scaLAPACK will be used
 Reading from existing POTCAR
 LDA part: xc-table for (Slater+PW92), standard interpolation
 POSCAR, INCAR and KPOINTS ok, starting setup
 FFT: planning ... GRIDC
 FFT: planning ... GRID_SOFT
 FFT: planning ... GRID
 WAVECAR not read
 entering main loop
       N       E                     dE             d eps       ncg     rms          rms(c)
DAV:   1     0.155378757321E+03    0.15538E+03   -0.27136E+04120960   0.133E+03
DAV:   2    -0.880081677803E+02   -0.24339E+03   -0.22498E+03159816   0.212E+02
DAV:   3    -0.975893397552E+02   -0.95812E+01   -0.94932E+01180984   0.370E+01
DAV:   4    -0.976495534287E+02   -0.60214E-01   -0.60210E-01133056   0.336E+00
DAV:   5    -0.976501591251E+02   -0.60570E-03   -0.60568E-03180936   0.320E-01    0.123E+01
DAV:   6    -0.922356392531E+02    0.54145E+01   -0.39473E+00174984   0.658E+00    0.679E+00
DAV:   7    -0.905846293274E+02    0.16510E+01   -0.32100E+00180528   0.586E+00    0.172E+00
DAV:   8    -0.905957192948E+02   -0.11090E-01   -0.22984E-01133128   0.166E+00    0.751E-01
DAV:   9    -0.906103908758E+02   -0.14672E-01   -0.17590E-02170784   0.460E-01    0.206E-01
DAV:  10    -0.906147687194E+02   -0.43778E-02   -0.26256E-03133464   0.183E-01    0.665E-02
DAV:  11    -0.906159515744E+02   -0.11829E-02   -0.69245E-04159384   0.939E-02    0.337E-02
DAV:  12    -0.906160516152E+02   -0.10004E-03   -0.69622E-05150744   0.341E-02    0.656E-03
DAV:  13    -0.906160614134E+02   -0.97982E-05   -0.76964E-06166392   0.117E-02    0.205E-03
DAV:  14    -0.906160625077E+02   -0.10943E-05   -0.67595E-07152568   0.390E-03    0.713E-04
DAV:  15    -0.906160627050E+02   -0.19725E-06   -0.13091E-07145200   0.174E-03
   1 F= -.90616063E+02 E0= -.90614236E+02  d E =-.365336E-02
