    1    1    1    1
  0.3375000E+04  0.1500000E-08  0.1250000E-08  0.1800000E-08  0.5000000E-15
  1.000000000000000E-004
  CAR 
 Convergence                             
      3    175      8
 
  0.5000000E-01  0.3571429E-01  0.0000000E+00  0.3174603E-02
      1         -9.409821   1.000000
      2         -3.572661   0.166731
      3         -3.572654   0.166678
      4         -3.572541   0.165881
      5         -0.261744   0.000000
      6          0.297031   0.000000
      7          0.310019   0.000000
      8          0.439954   0.000000
 
  0.1500000E+00  0.3571429E-01  0.0000000E+00  0.3174603E-02
      1         -9.409821   1.000000
      2         -3.572661   0.166729
      3         -3.572656   0.166696
      4         -3.572540   0.165879
      5         -0.251901   0.000000
      6          0.270429   0.000000
      7          0.321236   0.000000
      8          0.376030   0.000000
 
  0.2500000E+00  0.3571429E-01  0.0000000E+00  0.3174603E-02
      1         -9.409821   1.000000
      2         -3.572660   0.166725
      3         -3.572660   0.166722
      4         -3.572541   0.165881
      5         -0.233775   0.000000
      6          0.199946   0.000000
      7          0.342818   0.000000
      8          0.378907   0.000000
 
  0.3500000E+00  0.3571429E-01  0.0000000E+00  0.3174603E-02
      1         -9.409821   1.000000
      2         -3.572666   0.166762
      3         -3.572659   0.166716
      4         -3.572540   0.165878
      5         -0.211620   0.000000
      6          0.132090   0.000000
      7          0.371853   0.000000
      8          0.410500   0.000000
 
  0.4500000E+00  0.3571429E-01  0.0000000E+00  0.3174603E-02
      1         -9.409821   1.000000
      2         -3.572669   0.166786
      3         -3.572659   0.166717
      4         -3.572541   0.165883
      5         -0.194628   0.000000
      6          0.090975   0.000000
      7          0.398212   0.000000
      8          0.449384   0.000000
 
  0.5000000E-01  0.1071429E+00  0.0000000E+00  0.3174603E-02
      1         -9.409821   1.000000
      2         -3.572659   0.166718
      3         -3.572652   0.166666
      4         -3.572562   0.166035
      5         -0.252617   0.000000
      6          0.305133   0.000000
      7          0.318988   0.000000
      8          0.448819   0.000000
 
  0.1500000E+00  0.1071429E+00  0.0000000E+00  0.3174603E-02
      1         -9.409821   1.000000
      2         -3.572659   0.166713
      3         -3.572654   0.166682
      4         -3.572562   0.166033
      5         -0.242789   0.000000
      6          0.278919   0.000000
      7          0.330182   0.000000
      8          0.384975   0.000000
 
  0.2500000E+00  0.1071429E+00  0.0000000E+00  0.3174603E-02
      1         -9.409821   1.000000
      2         -3.572659   0.166714
      3         -3.572658   0.166709
      4         -3.572563   0.166035
      5         -0.224694   0.000000
      6          0.208994   0.000000
      7          0.351710   0.000000
      8          0.387494   0.000000
 
  0.3500000E+00  0.1071429E+00  0.0000000E+00  0.3174603E-02
      1         -9.409821   1.000000
      2         -3.572663   0.166745
      3         -3.572657   0.166702
      4         -3.572562   0.166032
      5         -0.202588   0.000000
      6          0.141374   0.000000
      7          0.380639   0.000000
      8          0.418956   0.000000
 
  0.4500000E+00  0.1071429E+00  0.0000000E+00  0.3174603E-02
      1         -9.409821   1.000000
      2         -3.572667   0.166771
      3         -3.572657   0.166702
      4         -3.572562   0.166035
      5         -0.185646   0.000000
      6          0.100372   0.000000
      7          0.406839   0.000000
      8          0.457726   0.000000
 
  0.5000000E-01  0.1785714E+00  0.0000000E+00  0.3174603E-02
      1         -9.409821   1.000000
      2         -3.572656   0.166694
      3         -3.572649   0.166642
      4         -3.572602   0.166316
      5         -0.234680   0.000000
      6          0.317897   0.000000
      7          0.336815   0.000000
      8          0.462366   0.000000
 
  0.1500000E+00  0.1785714E+00  0.0000000E+00  0.3174603E-02
      1         -9.409821   1.000000
      2         -3.572655   0.166690
      3         -3.572652   0.166665
      4         -3.572602   0.166316
      5         -0.224886   0.000000
      6          0.294068   0.000000
      7          0.347958   0.000000
      8          0.401251   0.000000
 
  0.2500000E+00  0.1785714E+00  0.0000000E+00  0.3174603E-02
      1         -9.409821   1.000000
      2         -3.572656   0.166692
      3         -3.572654   0.166682
      4         -3.572602   0.166312
      5         -0.206868   0.000000
      6          0.226638   0.000000
      7          0.369369   0.000000
      8          0.401307   0.000000
 
  0.3500000E+00  0.1785714E+00  0.0000000E+00  0.3174603E-02
      1         -9.409821   1.000000
      2         -3.572660   0.166723
      3         -3.572654   0.166681
      4         -3.572602   0.166312
      5         -0.184883   0.000000
      6          0.159793   0.000000
      7          0.398072   0.000000
      8          0.431579   0.000000
 
  0.4500000E+00  0.1785714E+00  0.0000000E+00  0.3174603E-02
      1         -9.409821   1.000000
      2         -3.572663   0.166743
      3         -3.572655   0.166687
      4         -3.572602   0.166315
      5         -0.168064   0.000000
      6          0.119107   0.000000
      7          0.423933   0.000000
      8          0.468417   0.000000
 
  0.5000000E-01  0.2500000E+00  0.0000000E+00  0.3174603E-02
      1         -9.409821   1.000000
      2         -3.572654   0.166679
      3         -3.572652   0.166666
      4         -3.572645   0.166616
      5         -0.208730   0.000000
      6          0.308790   0.000000
      7          0.363193   0.000000
      8          0.401160   0.000000
 
  0.1500000E+00  0.2500000E+00  0.0000000E+00  0.3174603E-02
      1         -9.409821   1.000000
      2         -3.572653   0.166671
      3         -3.572651   0.166663
      4         -3.572647   0.166634
      5         -0.199006   0.000000
      6          0.301799   0.000000
      7          0.374249   0.000000
      8          0.384671   0.000000
 
  0.2500000E+00  0.2500000E+00  0.0000000E+00  0.3174603E-02
      1         -9.409821   1.000000
      2         -3.572653   0.166672
      3         -3.572651   0.166661
      4         -3.572651   0.166658
      5         -0.181142   0.000000
      6          0.250698   0.000000
      7          0.375058   0.000000
      8          0.395458   0.000000
 
  0.3500000E+00  0.2500000E+00  0.0000000E+00  0.3174603E-02
      1         -9.409821   1.000000
      2         -3.572656   0.166696
      3         -3.572651   0.166662
      4         -3.572651   0.166658
      5         -0.159405   0.000000
      6          0.186863   0.000000
      7          0.397692   0.000000
      8          0.423775   0.000000
 
  0.4500000E+00  0.2500000E+00  0.0000000E+00  0.3174603E-02
      1         -9.409820   1.000000
      2         -3.572659   0.166714
      3         -3.572651   0.166661
      4         -3.572650   0.166653
      5         -0.142841   0.000000
      6          0.147007   0.000000
      7          0.422230   0.000000
      8          0.449069   0.000000
 
  0.5000000E-01  0.3214286E+00  0.0000000E+00  0.3174603E-02
      1         -9.409820   1.000000
      2         -3.572701   0.167017
      3         -3.572647   0.166635
      4         -3.572641   0.166590
      5         -0.176579   0.000000
      6          0.243675   0.000000
      7          0.397331   0.000000
      8          0.416256   0.000000
 
  0.1500000E+00  0.3214286E+00  0.0000000E+00  0.3174603E-02
      1         -9.409821   1.000000
      2         -3.572702   0.167019
      3         -3.572648   0.166637
      4         -3.572644   0.166609
      5         -0.166986   0.000000
      6          0.252542   0.000000
      7          0.385174   0.000000
      8          0.408241   0.000000
 
  0.2500000E+00  0.3214286E+00  0.0000000E+00  0.3174603E-02
      1         -9.409821   1.000000
      2         -3.572702   0.167021
      3         -3.572649   0.166646
      4         -3.572648   0.166637
      5         -0.149413   0.000000
      6          0.259168   0.000000
      7          0.321699   0.000000
      8          0.429110   0.000000
 
  0.3500000E+00  0.3214286E+00  0.0000000E+00  0.3174603E-02
      1         -9.409821   1.000000
      2         -3.572701   0.167013
      3         -3.572652   0.166666
      4         -3.572646   0.166627
      5         -0.128148   0.000000
      6          0.220474   0.000000
      7          0.319639   0.000000
      8          0.456787   0.000000
 
  0.4500000E+00  0.3214286E+00  0.0000000E+00  0.3174603E-02
      1         -9.409820   1.000000
      2         -3.572700   0.167008
      3         -3.572655   0.166687
      4         -3.572646   0.166623
      5         -0.112068   0.000000
      6          0.183596   0.000000
      7          0.340620   0.000000
      8          0.481170   0.000000
 
  0.5000000E-01  0.3928571E+00  0.0000000E+00  0.3174603E-02
      1         -9.409820   1.000000
      2         -3.572743   0.167309
      3         -3.572644   0.166609
      4         -3.572638   0.166566
      5         -0.142593   0.000000
      6          0.176500   0.000000
      7          0.436788   0.000000
      8          0.458793   0.000000
 
  0.1500000E+00  0.3928571E+00  0.0000000E+00  0.3174603E-02
      1         -9.409820   1.000000
      2         -3.572743   0.167310
      3         -3.572644   0.166610
      4         -3.572641   0.166591
      5         -0.133226   0.000000
      6          0.187542   0.000000
      7          0.422789   0.000000
      8          0.447435   0.000000
 
  0.2500000E+00  0.3928571E+00  0.0000000E+00  0.3174603E-02
      1         -9.409820   1.000000
      2         -3.572742   0.167306
      3         -3.572646   0.166622
      4         -3.572644   0.166609
      5         -0.116154   0.000000
      6          0.208327   0.000000
      7          0.345177   0.000000
      8          0.467703   0.000000
 
  0.3500000E+00  0.3928571E+00  0.0000000E+00  0.3174603E-02
      1         -9.409821   1.000000
      2         -3.572741   0.167299
      3         -3.572649   0.166644
      4         -3.572644   0.166608
      5         -0.095698   0.000000
      6          0.232460   0.000000
      7          0.281754   0.000000
      8          0.497481   0.000000
 
  0.4500000E+00  0.3928571E+00  0.0000000E+00  0.3174603E-02
      1         -9.409821   1.000000
      2         -3.572741   0.167298
      3         -3.572652   0.166665
      4         -3.572644   0.166609
      5         -0.080437   0.000000
      6          0.226830   0.000000
      7          0.273356   0.000000
      8          0.448182   0.000000
 
  0.5000000E-01  0.4642857E+00  0.0000000E+00  0.3174603E-02
      1         -9.409820   1.000000
      2         -3.572765   0.167467
      3         -3.572642   0.166595
      4         -3.572637   0.166558
      5         -0.117401   0.000000
      6          0.133648   0.000000
      7          0.471709   0.000000
      8          0.507072   0.000000
 
  0.1500000E+00  0.4642857E+00  0.0000000E+00  0.3174603E-02
      1         -9.409820   1.000000
      2         -3.572764   0.167460
      3         -3.572642   0.166593
      4         -3.572639   0.166577
      5         -0.108303   0.000000
      6          0.145320   0.000000
      7          0.462725   0.000000
      8          0.481915   0.000000
 
  0.2500000E+00  0.4642857E+00  0.0000000E+00  0.3174603E-02
      1         -9.409820   1.000000
      2         -3.572764   0.167460
      3         -3.572644   0.166610
      4         -3.572642   0.166595
      5         -0.091825   0.000000
      6          0.167964   0.000000
      7          0.382033   0.000000
      8          0.501669   0.000000
 
  0.3500000E+00  0.4642857E+00  0.0000000E+00  0.3174603E-02
      1         -9.409821   1.000000
      2         -3.572765   0.167465
      3         -3.572647   0.166635
      4         -3.572642   0.166597
      5         -0.072309   0.000000
      6          0.199132   0.000000
      7          0.314073   0.000000
      8          0.439194   0.000000
 
  0.4500000E+00  0.4642857E+00  0.0000000E+00  0.3174603E-02
      1         -9.409821   1.000000
      2         -3.572764   0.167461
      3         -3.572649   0.166649
      4         -3.572642   0.166595
      5         -0.057971   0.000000
      6          0.229535   0.000000
      7          0.273692   0.000000
      8          0.385978   0.000000
 
  0.5000000E-01  0.3571429E-01  0.1111111E+00  0.6349206E-02
      1         -9.409821   1.000000
      2         -3.572661   0.166732
      3         -3.572653   0.166677
      4         -3.572541   0.165881
      5         -0.258728   0.000000
      6          0.219272   0.000000
      7          0.388917   0.000000
      8          0.453343   0.000000
 
  0.1500000E+00  0.3571429E-01  0.1111111E+00  0.6349206E-02
      1         -9.409821   1.000000
      2         -3.572660   0.166725
      3         -3.572656   0.166692
      4         -3.572540   0.165878
      5         -0.248934   0.000000
      6          0.224549   0.000000
      7          0.319531   0.000000
      8          0.440174   0.000000
 
  0.2500000E+00  0.3571429E-01  0.1111111E+00  0.6349206E-02
      1         -9.409821   1.000000
      2         -3.572661   0.166728
      3         -3.572660   0.166723
      4         -3.572540   0.165877
      5         -0.230916   0.000000
      6          0.198031   0.000000
      7          0.280088   0.000000
      8          0.460092   0.000000
 
  0.3500000E+00  0.3571429E-01  0.1111111E+00  0.6349206E-02
      1         -9.409821   1.000000
      2         -3.572665   0.166761
      3         -3.572659   0.166718
      4         -3.572540   0.165877
      5         -0.208939   0.000000
      6          0.136086   0.000000
      7          0.302857   0.000000
      8          0.488764   0.000000
 
  0.4500000E+00  0.3571429E-01  0.1111111E+00  0.6349206E-02
      1         -9.409821   1.000000
      2         -3.572668   0.166782
      3         -3.572659   0.166718
      4         -3.572540   0.165878
      5         -0.192133   0.000000
      6          0.095839   0.000000
      7          0.333362   0.000000
      8          0.473136   0.000000
 
  0.5000000E-01  0.1071429E+00  0.1111111E+00  0.6349206E-02
      1         -9.409821   1.000000
      2         -3.572659   0.166718
      3         -3.572652   0.166664
      4         -3.572562   0.166035
      5         -0.249611   0.000000
      6          0.228279   0.000000
      7          0.396415   0.000000
      8          0.462073   0.000000
 
  0.1500000E+00  0.1071429E+00  0.1111111E+00  0.6349206E-02
      1         -9.409821   1.000000
      2         -3.572659   0.166713
      3         -3.572654   0.166680
      4         -3.572562   0.166033
      5         -0.239831   0.000000
      6          0.233513   0.000000
      7          0.328376   0.000000
      8          0.448125   0.000000
 
  0.2500000E+00  0.1071429E+00  0.1111111E+00  0.6349206E-02
      1         -9.409821   1.000000
      2         -3.572659   0.166715
      3         -3.572658   0.166710
      4         -3.572562   0.166035
      5         -0.221844   0.000000
      6          0.207088   0.000000
      7          0.289218   0.000000
      8          0.467842   0.000000
 
  0.3500000E+00  0.1071429E+00  0.1111111E+00  0.6349206E-02
      1         -9.409821   1.000000
      2         -3.572663   0.166748
      3         -3.572658   0.166709
      4         -3.572563   0.166036
      5         -0.199916   0.000000
      6          0.145365   0.000000
      7          0.311889   0.000000
      8          0.496561   0.000000
 
  0.4500000E+00  0.1071429E+00  0.1111111E+00  0.6349206E-02
      1         -9.409821   1.000000
      2         -3.572667   0.166770
      3         -3.572658   0.166707
      4         -3.572562   0.166035
      5         -0.183159   0.000000
      6          0.105230   0.000000
      7          0.342272   0.000000
      8          0.482417   0.000000
 
  0.5000000E-01  0.1785714E+00  0.1111111E+00  0.6349206E-02
      1         -9.409821   1.000000
      2         -3.572656   0.166693
      3         -3.572648   0.166641
      4         -3.572602   0.166315
      5         -0.231698   0.000000
      6          0.245636   0.000000
      7          0.402968   0.000000
      8          0.471345   0.000000
 
  0.1500000E+00  0.1785714E+00  0.1111111E+00  0.6349206E-02
      1         -9.409821   1.000000
      2         -3.572656   0.166692
      3         -3.572651   0.166663
      4         -3.572602   0.166316
      5         -0.221952   0.000000
      6          0.250715   0.000000
      7          0.345323   0.000000
      8          0.450172   0.000000
 
  0.2500000E+00  0.1785714E+00  0.1111111E+00  0.6349206E-02
      1         -9.409821   1.000000
      2         -3.572656   0.166692
      3         -3.572655   0.166690
      4         -3.572602   0.166315
      5         -0.204041   0.000000
      6          0.224742   0.000000
      7          0.307316   0.000000
      8          0.467700   0.000000
 
  0.3500000E+00  0.1785714E+00  0.1111111E+00  0.6349206E-02
      1         -9.409821   1.000000
      2         -3.572660   0.166725
      3         -3.572654   0.166682
      4         -3.572602   0.166314
      5         -0.182232   0.000000
      6          0.163773   0.000000
      7          0.329606   0.000000
      8          0.496033   0.000000
 
  0.4500000E+00  0.1785714E+00  0.1111111E+00  0.6349206E-02
      1         -9.409820   1.000000
      2         -3.572663   0.166744
      3         -3.572654   0.166682
      4         -3.572602   0.166315
      5         -0.165597   0.000000
      6          0.123948   0.000000
      7          0.359672   0.000000
      8          0.500592   0.000000
 
  0.5000000E-01  0.2500000E+00  0.1111111E+00  0.6349206E-02
      1         -9.409821   1.000000
      2         -3.572652   0.166671
      3         -3.572651   0.166663
      4         -3.572645   0.166616
      5         -0.205794   0.000000
      6          0.266822   0.000000
      7          0.351967   0.000000
      8          0.458919   0.000000
 
  0.1500000E+00  0.2500000E+00  0.1111111E+00  0.6349206E-02
      1         -9.409821   1.000000
      2         -3.572652   0.166669
      3         -3.572651   0.166663
      4         -3.572648   0.166637
      5         -0.196119   0.000000
      6          0.271510   0.000000
      7          0.355953   0.000000
      8          0.390338   0.000000
 
  0.2500000E+00  0.2500000E+00  0.1111111E+00  0.6349206E-02
      1         -9.409821   1.000000
      2         -3.572652   0.166670
      3         -3.572651   0.166661
      4         -3.572651   0.166657
      5         -0.178360   0.000000
      6          0.248840   0.000000
      7          0.333406   0.000000
      8          0.389402   0.000000
 
  0.3500000E+00  0.2500000E+00  0.1111111E+00  0.6349206E-02
      1         -9.409821   1.000000
      2         -3.572657   0.166699
      3         -3.572652   0.166664
      4         -3.572651   0.166657
      5         -0.156797   0.000000
      6          0.190815   0.000000
      7          0.353255   0.000000
      8          0.415573   0.000000
 
  0.4500000E+00  0.2500000E+00  0.1111111E+00  0.6349206E-02
      1         -9.409820   1.000000
      2         -3.572659   0.166715
      3         -3.572651   0.166660
      4         -3.572650   0.166651
      5         -0.140412   0.000000
      6          0.151821   0.000000
      7          0.381971   0.000000
      8          0.439319   0.000000
 
  0.5000000E-01  0.3214286E+00  0.1111111E+00  0.6349206E-02
      1         -9.409820   1.000000
      2         -3.572702   0.167019
      3         -3.572648   0.166637
      4         -3.572641   0.166589
      5         -0.173731   0.000000
      6          0.243894   0.000000
      7          0.327578   0.000000
      8          0.490054   0.000000
 
  0.1500000E+00  0.3214286E+00  0.1111111E+00  0.6349206E-02
      1         -9.409821   1.000000
      2         -3.572702   0.167019
      3         -3.572647   0.166633
      4         -3.572644   0.166610
      5         -0.164186   0.000000
      6          0.252662   0.000000
      7          0.336768   0.000000
      8          0.412661   0.000000
 
  0.2500000E+00  0.3214286E+00  0.1111111E+00  0.6349206E-02
      1         -9.409821   1.000000
      2         -3.572701   0.167016
      3         -3.572649   0.166645
      4         -3.572647   0.166629
      5         -0.146717   0.000000
      6          0.259676   0.000000
      7          0.324901   0.000000
      8          0.371836   0.000000
 
  0.3500000E+00  0.3214286E+00  0.1111111E+00  0.6349206E-02
      1         -9.409820   1.000000
      2         -3.572701   0.167014
      3         -3.572652   0.166668
      4         -3.572647   0.166628
      5         -0.125619   0.000000
      6          0.224348   0.000000
      7          0.322259   0.000000
      8          0.398200   0.000000
 
  0.4500000E+00  0.3214286E+00  0.1111111E+00  0.6349206E-02
      1         -9.409821   1.000000
      2         -3.572701   0.167011
      3         -3.572655   0.166685
      4         -3.572646   0.166626
      5         -0.109709   0.000000
      6          0.188360   0.000000
      7          0.342695   0.000000
      8          0.427392   0.000000
 
  0.5000000E-01  0.3928571E+00  0.1111111E+00  0.6349206E-02
      1         -9.409820   1.000000
      2         -3.572743   0.167311
      3         -3.572645   0.166615
      4         -3.572638   0.166570
      5         -0.139898   0.000000
      6          0.180380   0.000000
      7          0.364060   0.000000
      8          0.530059   0.000000
 
  0.1500000E+00  0.3928571E+00  0.1111111E+00  0.6349206E-02
      1         -9.409820   1.000000
      2         -3.572742   0.167307
      3         -3.572644   0.166610
      4         -3.572641   0.166588
      5         -0.130576   0.000000
      6          0.191397   0.000000
      7          0.371485   0.000000
      8          0.452112   0.000000
 
  0.2500000E+00  0.3928571E+00  0.1111111E+00  0.6349206E-02
      1         -9.409820   1.000000
      2         -3.572743   0.167308
      3         -3.572646   0.166624
      4         -3.572643   0.166607
      5         -0.113603   0.000000
      6          0.212125   0.000000
      7          0.345340   0.000000
      8          0.412488   0.000000
 
  0.3500000E+00  0.3928571E+00  0.1111111E+00  0.6349206E-02
      1         -9.409821   1.000000
      2         -3.572741   0.167297
      3         -3.572649   0.166647
      4         -3.572643   0.166604
      5         -0.093301   0.000000
      6          0.236272   0.000000
      7          0.285816   0.000000
      8          0.437148   0.000000
 
  0.4500000E+00  0.3928571E+00  0.1111111E+00  0.6349206E-02
      1         -9.409821   1.000000
      2         -3.572741   0.167293
      3         -3.572651   0.166662
      4         -3.572643   0.166604
      5         -0.078193   0.000000
      6          0.231475   0.000000
      7          0.276916   0.000000
      8          0.452693   0.000000
 
  0.5000000E-01  0.4642857E+00  0.1111111E+00  0.6349206E-02
      1         -9.409820   1.000000
      2         -3.572765   0.167470
      3         -3.572643   0.166604
      4         -3.572637   0.166558
      5         -0.114890   0.000000
      6          0.138077   0.000000
      7          0.404673   0.000000
      8          0.525699   0.000000
 
  0.1500000E+00  0.4642857E+00  0.1111111E+00  0.6349206E-02
      1         -9.409820   1.000000
      2         -3.572765   0.167466
      3         -3.572643   0.166600
      4         -3.572639   0.166577
      5         -0.105834   0.000000
      6          0.149716   0.000000
      7          0.411633   0.000000
      8          0.488234   0.000000
 
  0.2500000E+00  0.4642857E+00  0.1111111E+00  0.6349206E-02
      1         -9.409820   1.000000
      2         -3.572764   0.167462
      3         -3.572644   0.166610
      4         -3.572642   0.166595
      5         -0.089443   0.000000
      6          0.172281   0.000000
      7          0.382058   0.000000
      8          0.450961   0.000000
 
  0.3500000E+00  0.4642857E+00  0.1111111E+00  0.6349206E-02
      1         -9.409821   1.000000
      2         -3.572765   0.167465
      3         -3.572648   0.166636
      4         -3.572642   0.166594
      5         -0.070061   0.000000
      6          0.203286   0.000000
      7          0.317913   0.000000
      8          0.443438   0.000000
 
  0.4500000E+00  0.4642857E+00  0.1111111E+00  0.6349206E-02
      1         -9.409821   1.000000
      2         -3.572764   0.167460
      3         -3.572650   0.166651
      4         -3.572642   0.166596
      5         -0.055851   0.000000
      6          0.233391   0.000000
      7          0.278099   0.000000
      8          0.391132   0.000000
 
  0.5000000E-01  0.3571429E-01  0.2222222E+00  0.6349206E-02
      1         -9.409821   1.000000
      2         -3.572661   0.166732
      3         -3.572653   0.166673
      4         -3.572540   0.165878
      5         -0.250548   0.000000
      6          0.148153   0.000000
      7          0.433444   0.000000
      8          0.516653   0.000000
 
  0.1500000E+00  0.3571429E-01  0.2222222E+00  0.6349206E-02
      1         -9.409821   1.000000
      2         -3.572661   0.166732
      3         -3.572655   0.166691
      4         -3.572540   0.165878
      5         -0.240896   0.000000
      6          0.158674   0.000000
      7          0.330273   0.000000
      8          0.541549   0.000000
 
  0.2500000E+00  0.3571429E-01  0.2222222E+00  0.6349206E-02
      1         -9.409821   1.000000
      2         -3.572660   0.166727
      3         -3.572660   0.166723
      4         -3.572540   0.165877
      5         -0.223197   0.000000
      6          0.172933   0.000000
      7          0.247014   0.000000
      8          0.530005   0.000000
 
  0.3500000E+00  0.3571429E-01  0.2222222E+00  0.6349206E-02
      1         -9.409821   1.000000
      2         -3.572666   0.166766
      3         -3.572661   0.166727
      4         -3.572540   0.165877
      5         -0.201739   0.000000
      6          0.146503   0.000000
      7          0.234731   0.000000
      8          0.453309   0.000000
 
  0.4500000E+00  0.3571429E-01  0.2222222E+00  0.6349206E-02
      1         -9.409821   1.000000
      2         -3.572668   0.166780
      3         -3.572660   0.166722
      4         -3.572540   0.165874
      5         -0.185472   0.000000
      6          0.109995   0.000000
      7          0.263782   0.000000
      8          0.393965   0.000000
 
  0.5000000E-01  0.1071429E+00  0.2222222E+00  0.6349206E-02
      1         -9.409821   1.000000
      2         -3.572660   0.166721
      3         -3.572651   0.166662
      4         -3.572563   0.166036
      5         -0.241460   0.000000
      6          0.157434   0.000000
      7          0.441082   0.000000
      8          0.520462   0.000000
 
  0.1500000E+00  0.1071429E+00  0.2222222E+00  0.6349206E-02
      1         -9.409821   1.000000
      2         -3.572659   0.166719
      3         -3.572654   0.166680
      4         -3.572562   0.166034
      5         -0.231823   0.000000
      6          0.167943   0.000000
      7          0.339044   0.000000
      8          0.544540   0.000000
 
  0.2500000E+00  0.1071429E+00  0.2222222E+00  0.6349206E-02
      1         -9.409821   1.000000
      2         -3.572659   0.166715
      3         -3.572658   0.166712
      4         -3.572562   0.166035
      5         -0.214153   0.000000
      6          0.182166   0.000000
      7          0.256143   0.000000
      8          0.538376   0.000000
 
  0.3500000E+00  0.1071429E+00  0.2222222E+00  0.6349206E-02
      1         -9.409821   1.000000
      2         -3.572664   0.166751
      3         -3.572658   0.166713
      4         -3.572562   0.166034
      5         -0.192741   0.000000
      6          0.155776   0.000000
      7          0.243948   0.000000
      8          0.462626   0.000000
 
  0.4500000E+00  0.1071429E+00  0.2222222E+00  0.6349206E-02
      1         -9.409821   1.000000
      2         -3.572667   0.166770
      3         -3.572658   0.166711
      4         -3.572562   0.166033
      5         -0.176520   0.000000
      6          0.119361   0.000000
      7          0.272907   0.000000
      8          0.403443   0.000000
 
  0.5000000E-01  0.1785714E+00  0.2222222E+00  0.6349206E-02
      1         -9.409821   1.000000
      2         -3.572656   0.166699
      3         -3.572649   0.166644
      4         -3.572602   0.166317
      5         -0.223615   0.000000
      6          0.175756   0.000000
      7          0.440399   0.000000
      8          0.481830   0.000000
 
  0.1500000E+00  0.1785714E+00  0.2222222E+00  0.6349206E-02
      1         -9.409821   1.000000
      2         -3.572656   0.166696
      3         -3.572651   0.166659
      4         -3.572602   0.166315
      5         -0.214012   0.000000
      6          0.186229   0.000000
      7          0.355613   0.000000
      8          0.476268   0.000000
 
  0.2500000E+00  0.1785714E+00  0.2222222E+00  0.6349206E-02
      1         -9.409821   1.000000
      2         -3.572656   0.166696
      3         -3.572655   0.166687
      4         -3.572602   0.166315
      5         -0.196416   0.000000
      6          0.200344   0.000000
      7          0.274253   0.000000
      8          0.495559   0.000000
 