 vasp.6.4.3 19Mar24 (build May 31 2024 16:31:43) complex                        
  
 executed on             LinuxIFC date 2024.11.01  16:32:48
 running    8 mpi-ranks, with    1 threads/rank, on    1 nodes
 distrk:  each k-point on    8 cores,    1 groups
 distr:  one band on NCORE=   1 cores,    8 groups


--------------------------------------------------------------------------------------------------------


 INCAR:
   SYSTEM = Convergence
   ISTART = 0
   ICHARG = 2
   PREC = Accurate
   ENCUT = 540
   LCHARG = .FALSE.
   LWAVE = .FALSE.
   ALGO = Normal
   NELM = 100
   EDIFF = 1E-6
   EDIFFG = -1E-3
   SIGMA = 0.05
   ISMEAR = 0
   ISPIN = 1
   NSW = 0
   IBRION = -1
   POTIM = .5
   ISIF = 2
   GGA = PE

 POTCAR:    PAW_PBE B 06Sep2000                   
 POTCAR:    PAW_PBE B 06Sep2000                   
   SHA256 =  a32ced30f5ae56fd4d10b4325ff17eb3e4e38ee0f4288bc219fb012fddfa6e97 B/POTCAR              
   COPYR  = (c) Copyright 06Sep2000 Georg Kresse                                                    
   COPYR  = This file is part of the software VASP. Any use, copying, and all other rights are regul
   COPYR  = If you do not have a valid VASP license, you may not use, copy or distribute this file. 
   VRHFIN =B: s2p1                                                                                  
   LEXCH  = PE                                                                                      
   EATOM  =    71.1703 eV,    5.2309 Ry                                                             
                                                                                                    
   TITEL  = PAW_PBE B 06Sep2000                                                                     
   LULTRA =        F    use ultrasoft PP ?                                                          
   IUNSCR =        1    unscreen: 0-lin 1-nonlin 2-no                                               
   RPACOR =    1.200    partial core radius                                                         
   POMASS =   10.811; ZVAL   =    3.000    mass and valenz                                          
   RCORE  =    1.700    outmost cutoff radius                                                       
   RWIGS  =    1.710; RWIGS  =    0.905    wigner-seitz radius (au A)                               
   ENMAX  =  318.614; ENMIN  =  238.960 eV                                                          
   ICORE  =        2    local potential                                                             
   LCOR   =        T    correct aug charges                                                         
   LPAW   =        T    paw PP                                                                      
   EAUG   =  535.514                                                                                
   DEXC   =    0.000                                                                                
   RMAX   =    1.732    core radius for proj-oper                                                   
   RAUG   =    1.300    factor for augmentation sphere                                              
   RDEP   =    1.757    radius for radial grids                                                     
   RDEPT  =    1.436    core radius for aug-charge                                                  
                                                                                                    
   Atomic configuration                                                                             
    4 entries                                                                                       
     n  l   j            E        occ.                                                              
     1  0  0.50      -180.5896   2.0000                                                             
     2  0  0.50        -9.4431   2.0000                                                             
     2  1  0.50        -3.6068   1.0000                                                             
     3  2  1.50        -4.0817   0.0000                                                             
   Description                                                                                      
     l       E           TYP  RCUT    TYP  RCUT                                                     
     0     -9.4430752     23  1.500                                                                 
     0      0.8675899     23  1.500                                                                 
     1     -3.6067955     23  1.700                                                                 
     1      6.1086146     23  1.700                                                                 
     2     -4.0817478      7  1.700                                                                 
  local pseudopotential read in
  partial core-charges read in
  partial kinetic energy density read in
  atomic valenz-charges read in
  non local Contribution for L=           0  read in
    real space projection operators read in
  non local Contribution for L=           0  read in
    real space projection operators read in
  non local Contribution for L=           1  read in
    real space projection operators read in
  non local Contribution for L=           1  read in
    real space projection operators read in
    PAW grid and wavefunctions read in
 
   number of l-projection  operators is LMAX  =           4
   number of lm-projection operators is LMMAX =           8
 
  PAW_PBE B 06Sep2000                   :
 energy of atom  1       EATOM=  -71.1703
 kinetic energy error for atom=    0.0010 (will be added to EATOM!!)
 
 
 POSCAR: B1
  positions in direct lattice
  No initial velocities read in


 exchange-correlation table for PE
   RHO(1)=    0.500       N(1)  =     2000
   RHO(2)=  100.500       N(2)  =     4000
 


--------------------------------------------------------------------------------------------------------


 ion  position               nearest neighbor table
   1  0.521  0.545  0.638-
 
  LATTYP: Found a simple orthorhombic cell.
 ALAT       =    12.5000000000
 B/A-ratio  =     1.2000000000
 C/A-ratio  =     1.4400000000
  
  Lattice vectors:
  
 A1 = (   0.0000000000, -12.5000000000,   0.0000000000)
 A2 = (  15.0000000000,   0.0000000000,   0.0000000000)
 A3 = (   0.0000000000,   0.0000000000,  18.0000000000)


Analysis of symmetry for initial positions (statically):
=====================================================================
 Subroutine PRICEL returns:
 Original cell was already a primitive cell.
 

 Routine SETGRP: Setting up the symmetry group for a 
 simple orthorhombic supercell.


 Subroutine GETGRP returns: Found  8 space group operations
 (whereof  1 operations were pure point group operations)
 out of a pool of  8 trial point group operations.


The static configuration has the point symmetry C_1 .
 The point group associated with its full space group is D_2h.


Analysis of symmetry for dynamics (positions and initial velocities):
=====================================================================
 Subroutine PRICEL returns:
 Original cell was already a primitive cell.
 

 Routine SETGRP: Setting up the symmetry group for a 
 simple orthorhombic supercell.


 Subroutine GETGRP returns: Found  8 space group operations
 (whereof  1 operations were pure point group operations)
 out of a pool of  8 trial point group operations.


The dynamic configuration has the point symmetry C_1 .
 The point group associated with its full space group is D_2h.


 Subroutine INISYM returns: Found  8 space group operations
 (whereof  1 operations are pure point group operations),
 and found     1 'primitive' translations


----------------------------------------------------------------------------------------

                                     Primitive cell                                     

  volume of cell :    3375.0000

  direct lattice vectors                    reciprocal lattice vectors
    15.000000000  0.000000000  0.000000000     0.066666667  0.000000000  0.000000000
     0.000000000 12.500000000  0.000000000     0.000000000  0.080000000  0.000000000
     0.000000000  0.000000000 18.000000000     0.000000000  0.000000000  0.055555556

  length of vectors
    15.000000000 12.500000000 18.000000000     0.066666667  0.080000000  0.055555556

  position of ions in fractional coordinates (direct lattice)
     0.521230000  0.545000000  0.637960000

  ion indices of the primitive-cell ions
   primitive index   ion index
                 1           1

----------------------------------------------------------------------------------------

 
 
 KPOINTS: k-points                                

Automatic generation of k-mesh.
 Grid dimensions read from file:
 generate k-points for:   10   14    9

 Generating k-lattice:

  Cartesian coordinates                     Fractional coordinates (reciprocal lattice)
     0.006666667  0.000000000  0.000000000     0.100000000  0.000000000  0.000000000
     0.000000000  0.005714286  0.000000000     0.000000000  0.071428571  0.000000000
     0.000000000  0.000000000  0.006172840     0.000000000  0.000000000  0.111111111

  Length of vectors
     0.006666667  0.005714286  0.006172840

  Shift w.r.t. Gamma in fractional coordinates (k-lattice)
     0.500000000  0.500000000  0.000000000

 
 Subroutine IBZKPT returns following result:
 ===========================================
 
 Found    175 irreducible k-points:
 
 Following reciprocal coordinates:
            Coordinates               Weight
  0.050000  0.035714  0.000000      4.000000
  0.150000  0.035714  0.000000      4.000000
  0.250000  0.035714  0.000000      4.000000
  0.350000  0.035714  0.000000      4.000000
  0.450000  0.035714  0.000000      4.000000
  0.050000  0.107143  0.000000      4.000000
  0.150000  0.107143  0.000000      4.000000
  0.250000  0.107143  0.000000      4.000000
  0.350000  0.107143  0.000000      4.000000
  0.450000  0.107143  0.000000      4.000000
  0.050000  0.178571  0.000000      4.000000
  0.150000  0.178571  0.000000      4.000000
  0.250000  0.178571  0.000000      4.000000
  0.350000  0.178571  0.000000      4.000000
  0.450000  0.178571  0.000000      4.000000
  0.050000  0.250000  0.000000      4.000000
  0.150000  0.250000  0.000000      4.000000
  0.250000  0.250000  0.000000      4.000000
  0.350000  0.250000  0.000000      4.000000
  0.450000  0.250000  0.000000      4.000000
  0.050000  0.321429  0.000000      4.000000
  0.150000  0.321429  0.000000      4.000000
  0.250000  0.321429  0.000000      4.000000
  0.350000  0.321429  0.000000      4.000000
  0.450000  0.321429  0.000000      4.000000
  0.050000  0.392857  0.000000      4.000000
  0.150000  0.392857  0.000000      4.000000
  0.250000  0.392857  0.000000      4.000000
  0.350000  0.392857  0.000000      4.000000
  0.450000  0.392857  0.000000      4.000000
  0.050000  0.464286  0.000000      4.000000
  0.150000  0.464286  0.000000      4.000000
  0.250000  0.464286  0.000000      4.000000
  0.350000  0.464286  0.000000      4.000000
  0.450000  0.464286  0.000000      4.000000
  0.050000  0.035714  0.111111      8.000000
  0.150000  0.035714  0.111111      8.000000
  0.250000  0.035714  0.111111      8.000000
  0.350000  0.035714  0.111111      8.000000
  0.450000  0.035714  0.111111      8.000000
  0.050000  0.107143  0.111111      8.000000
  0.150000  0.107143  0.111111      8.000000
  0.250000  0.107143  0.111111      8.000000
  0.350000  0.107143  0.111111      8.000000
  0.450000  0.107143  0.111111      8.000000
  0.050000  0.178571  0.111111      8.000000
  0.150000  0.178571  0.111111      8.000000
  0.250000  0.178571  0.111111      8.000000
  0.350000  0.178571  0.111111      8.000000
  0.450000  0.178571  0.111111      8.000000
  0.050000  0.250000  0.111111      8.000000
  0.150000  0.250000  0.111111      8.000000
  0.250000  0.250000  0.111111      8.000000
  0.350000  0.250000  0.111111      8.000000
  0.450000  0.250000  0.111111      8.000000
  0.050000  0.321429  0.111111      8.000000
  0.150000  0.321429  0.111111      8.000000
  0.250000  0.321429  0.111111      8.000000
  0.350000  0.321429  0.111111      8.000000
  0.450000  0.321429  0.111111      8.000000
  0.050000  0.392857  0.111111      8.000000
  0.150000  0.392857  0.111111      8.000000
  0.250000  0.392857  0.111111      8.000000
  0.350000  0.392857  0.111111      8.000000
  0.450000  0.392857  0.111111      8.000000
  0.050000  0.464286  0.111111      8.000000
  0.150000  0.464286  0.111111      8.000000
  0.250000  0.464286  0.111111      8.000000
  0.350000  0.464286  0.111111      8.000000
  0.450000  0.464286  0.111111      8.000000
  0.050000  0.035714  0.222222      8.000000
  0.150000  0.035714  0.222222      8.000000
  0.250000  0.035714  0.222222      8.000000
  0.350000  0.035714  0.222222      8.000000
  0.450000  0.035714  0.222222      8.000000
  0.050000  0.107143  0.222222      8.000000
  0.150000  0.107143  0.222222      8.000000
  0.250000  0.107143  0.222222      8.000000
  0.350000  0.107143  0.222222      8.000000
  0.450000  0.107143  0.222222      8.000000
  0.050000  0.178571  0.222222      8.000000
  0.150000  0.178571  0.222222      8.000000
  0.250000  0.178571  0.222222      8.000000
  0.350000  0.178571  0.222222      8.000000
  0.450000  0.178571  0.222222      8.000000
  0.050000  0.250000  0.222222      8.000000
  0.150000  0.250000  0.222222      8.000000
  0.250000  0.250000  0.222222      8.000000
  0.350000  0.250000  0.222222      8.000000
  0.450000  0.250000  0.222222      8.000000
  0.050000  0.321429  0.222222      8.000000
  0.150000  0.321429  0.222222      8.000000
  0.250000  0.321429  0.222222      8.000000
  0.350000  0.321429  0.222222      8.000000
  0.450000  0.321429  0.222222      8.000000
  0.050000  0.392857  0.222222      8.000000
  0.150000  0.392857  0.222222      8.000000
  0.250000  0.392857  0.222222      8.000000
  0.350000  0.392857  0.222222      8.000000
  0.450000  0.392857  0.222222      8.000000
  0.050000  0.464286  0.222222      8.000000
  0.150000  0.464286  0.222222      8.000000
  0.250000  0.464286  0.222222      8.000000
  0.350000  0.464286  0.222222      8.000000
  0.450000  0.464286  0.222222      8.000000
  0.050000  0.035714  0.333333      8.000000
  0.150000  0.035714  0.333333      8.000000
  0.250000  0.035714  0.333333      8.000000
  0.350000  0.035714  0.333333      8.000000
  0.450000  0.035714  0.333333      8.000000
  0.050000  0.107143  0.333333      8.000000
  0.150000  0.107143  0.333333      8.000000
  0.250000  0.107143  0.333333      8.000000
  0.350000  0.107143  0.333333      8.000000
  0.450000  0.107143  0.333333      8.000000
  0.050000  0.178571  0.333333      8.000000
  0.150000  0.178571  0.333333      8.000000
  0.250000  0.178571  0.333333      8.000000
  0.350000  0.178571  0.333333      8.000000
  0.450000  0.178571  0.333333      8.000000
  0.050000  0.250000  0.333333      8.000000
  0.150000  0.250000  0.333333      8.000000
  0.250000  0.250000  0.333333      8.000000
  0.350000  0.250000  0.333333      8.000000
  0.450000  0.250000  0.333333      8.000000
  0.050000  0.321429  0.333333      8.000000
  0.150000  0.321429  0.333333      8.000000
  0.250000  0.321429  0.333333      8.000000
  0.350000  0.321429  0.333333      8.000000
  0.450000  0.321429  0.333333      8.000000
  0.050000  0.392857  0.333333      8.000000
  0.150000  0.392857  0.333333      8.000000
  0.250000  0.392857  0.333333      8.000000
  0.350000  0.392857  0.333333      8.000000
  0.450000  0.392857  0.333333      8.000000
  0.050000  0.464286  0.333333      8.000000
  0.150000  0.464286  0.333333      8.000000
  0.250000  0.464286  0.333333      8.000000
  0.350000  0.464286  0.333333      8.000000
  0.450000  0.464286  0.333333      8.000000
  0.050000  0.035714  0.444444      8.000000
  0.150000  0.035714  0.444444      8.000000
  0.250000  0.035714  0.444444      8.000000
  0.350000  0.035714  0.444444      8.000000
  0.450000  0.035714  0.444444      8.000000
  0.050000  0.107143  0.444444      8.000000
  0.150000  0.107143  0.444444      8.000000
  0.250000  0.107143  0.444444      8.000000
  0.350000  0.107143  0.444444      8.000000
  0.450000  0.107143  0.444444      8.000000
  0.050000  0.178571  0.444444      8.000000
  0.150000  0.178571  0.444444      8.000000
  0.250000  0.178571  0.444444      8.000000
  0.350000  0.178571  0.444444      8.000000
  0.450000  0.178571  0.444444      8.000000
  0.050000  0.250000  0.444444      8.000000
  0.150000  0.250000  0.444444      8.000000
  0.250000  0.250000  0.444444      8.000000
  0.350000  0.250000  0.444444      8.000000
  0.450000  0.250000  0.444444      8.000000
  0.050000  0.321429  0.444444      8.000000
  0.150000  0.321429  0.444444      8.000000
  0.250000  0.321429  0.444444      8.000000
  0.350000  0.321429  0.444444      8.000000
  0.450000  0.321429  0.444444      8.000000
  0.050000  0.392857  0.444444      8.000000
  0.150000  0.392857  0.444444      8.000000
  0.250000  0.392857  0.444444      8.000000
  0.350000  0.392857  0.444444      8.000000
  0.450000  0.392857  0.444444      8.000000
  0.050000  0.464286  0.444444      8.000000
  0.150000  0.464286  0.444444      8.000000
  0.250000  0.464286  0.444444      8.000000
  0.350000  0.464286  0.444444      8.000000
  0.450000  0.464286  0.444444      8.000000
 
 Following cartesian coordinates:
            Coordinates               Weight
  0.003333  0.002857  0.000000      4.000000
  0.010000  0.002857  0.000000      4.000000
  0.016667  0.002857  0.000000      4.000000
  0.023333  0.002857  0.000000      4.000000
  0.030000  0.002857  0.000000      4.000000
  0.003333  0.008571  0.000000      4.000000
  0.010000  0.008571  0.000000      4.000000
  0.016667  0.008571  0.000000      4.000000
  0.023333  0.008571  0.000000      4.000000
  0.030000  0.008571  0.000000      4.000000
  0.003333  0.014286  0.000000      4.000000
  0.010000  0.014286  0.000000      4.000000
  0.016667  0.014286  0.000000      4.000000
  0.023333  0.014286  0.000000      4.000000
  0.030000  0.014286  0.000000      4.000000
  0.003333  0.020000  0.000000      4.000000
  0.010000  0.020000  0.000000      4.000000
  0.016667  0.020000  0.000000      4.000000
  0.023333  0.020000  0.000000      4.000000
  0.030000  0.020000  0.000000      4.000000
  0.003333  0.025714  0.000000      4.000000
  0.010000  0.025714  0.000000      4.000000
  0.016667  0.025714  0.000000      4.000000
  0.023333  0.025714  0.000000      4.000000
  0.030000  0.025714  0.000000      4.000000
  0.003333  0.031429  0.000000      4.000000
  0.010000  0.031429  0.000000      4.000000
  0.016667  0.031429  0.000000      4.000000
  0.023333  0.031429  0.000000      4.000000
  0.030000  0.031429  0.000000      4.000000
  0.003333  0.037143  0.000000      4.000000
  0.010000  0.037143  0.000000      4.000000
  0.016667  0.037143  0.000000      4.000000
  0.023333  0.037143  0.000000      4.000000
  0.030000  0.037143  0.000000      4.000000
  0.003333  0.002857  0.006173      8.000000
  0.010000  0.002857  0.006173      8.000000
  0.016667  0.002857  0.006173      8.000000
  0.023333  0.002857  0.006173      8.000000
  0.030000  0.002857  0.006173      8.000000
  0.003333  0.008571  0.006173      8.000000
  0.010000  0.008571  0.006173      8.000000
  0.016667  0.008571  0.006173      8.000000
  0.023333  0.008571  0.006173      8.000000
  0.030000  0.008571  0.006173      8.000000
  0.003333  0.014286  0.006173      8.000000
  0.010000  0.014286  0.006173      8.000000
  0.016667  0.014286  0.006173      8.000000
  0.023333  0.014286  0.006173      8.000000
  0.030000  0.014286  0.006173      8.000000
  0.003333  0.020000  0.006173      8.000000
  0.010000  0.020000  0.006173      8.000000
  0.016667  0.020000  0.006173      8.000000
  0.023333  0.020000  0.006173      8.000000
  0.030000  0.020000  0.006173      8.000000
  0.003333  0.025714  0.006173      8.000000
  0.010000  0.025714  0.006173      8.000000
  0.016667  0.025714  0.006173      8.000000
  0.023333  0.025714  0.006173      8.000000
  0.030000  0.025714  0.006173      8.000000
  0.003333  0.031429  0.006173      8.000000
  0.010000  0.031429  0.006173      8.000000
  0.016667  0.031429  0.006173      8.000000
  0.023333  0.031429  0.006173      8.000000
  0.030000  0.031429  0.006173      8.000000
  0.003333  0.037143  0.006173      8.000000
  0.010000  0.037143  0.006173      8.000000
  0.016667  0.037143  0.006173      8.000000
  0.023333  0.037143  0.006173      8.000000
  0.030000  0.037143  0.006173      8.000000
  0.003333  0.002857  0.012346      8.000000
  0.010000  0.002857  0.012346      8.000000
  0.016667  0.002857  0.012346      8.000000
  0.023333  0.002857  0.012346      8.000000
  0.030000  0.002857  0.012346      8.000000
  0.003333  0.008571  0.012346      8.000000
  0.010000  0.008571  0.012346      8.000000
  0.016667  0.008571  0.012346      8.000000
  0.023333  0.008571  0.012346      8.000000
  0.030000  0.008571  0.012346      8.000000
  0.003333  0.014286  0.012346      8.000000
  0.010000  0.014286  0.012346      8.000000
  0.016667  0.014286  0.012346      8.000000
  0.023333  0.014286  0.012346      8.000000
  0.030000  0.014286  0.012346      8.000000
  0.003333  0.020000  0.012346      8.000000
  0.010000  0.020000  0.012346      8.000000
  0.016667  0.020000  0.012346      8.000000
  0.023333  0.020000  0.012346      8.000000
  0.030000  0.020000  0.012346      8.000000
  0.003333  0.025714  0.012346      8.000000
  0.010000  0.025714  0.012346      8.000000
  0.016667  0.025714  0.012346      8.000000
  0.023333  0.025714  0.012346      8.000000
  0.030000  0.025714  0.012346      8.000000
  0.003333  0.031429  0.012346      8.000000
  0.010000  0.031429  0.012346      8.000000
  0.016667  0.031429  0.012346      8.000000
  0.023333  0.031429  0.012346      8.000000
  0.030000  0.031429  0.012346      8.000000
  0.003333  0.037143  0.012346      8.000000
  0.010000  0.037143  0.012346      8.000000
  0.016667  0.037143  0.012346      8.000000
  0.023333  0.037143  0.012346      8.000000
  0.030000  0.037143  0.012346      8.000000
  0.003333  0.002857  0.018519      8.000000
  0.010000  0.002857  0.018519      8.000000
  0.016667  0.002857  0.018519      8.000000
  0.023333  0.002857  0.018519      8.000000
  0.030000  0.002857  0.018519      8.000000
  0.003333  0.008571  0.018519      8.000000
  0.010000  0.008571  0.018519      8.000000
  0.016667  0.008571  0.018519      8.000000
  0.023333  0.008571  0.018519      8.000000
  0.030000  0.008571  0.018519      8.000000
  0.003333  0.014286  0.018519      8.000000
  0.010000  0.014286  0.018519      8.000000
  0.016667  0.014286  0.018519      8.000000
  0.023333  0.014286  0.018519      8.000000
  0.030000  0.014286  0.018519      8.000000
  0.003333  0.020000  0.018519      8.000000
  0.010000  0.020000  0.018519      8.000000
  0.016667  0.020000  0.018519      8.000000
  0.023333  0.020000  0.018519      8.000000
  0.030000  0.020000  0.018519      8.000000
  0.003333  0.025714  0.018519      8.000000
  0.010000  0.025714  0.018519      8.000000
  0.016667  0.025714  0.018519      8.000000
  0.023333  0.025714  0.018519      8.000000
  0.030000  0.025714  0.018519      8.000000
  0.003333  0.031429  0.018519      8.000000
  0.010000  0.031429  0.018519      8.000000
  0.016667  0.031429  0.018519      8.000000
  0.023333  0.031429  0.018519      8.000000
  0.030000  0.031429  0.018519      8.000000
  0.003333  0.037143  0.018519      8.000000
  0.010000  0.037143  0.018519      8.000000
  0.016667  0.037143  0.018519      8.000000
  0.023333  0.037143  0.018519      8.000000
  0.030000  0.037143  0.018519      8.000000
  0.003333  0.002857  0.024691      8.000000
  0.010000  0.002857  0.024691      8.000000
  0.016667  0.002857  0.024691      8.000000
  0.023333  0.002857  0.024691      8.000000
  0.030000  0.002857  0.024691      8.000000
  0.003333  0.008571  0.024691      8.000000
  0.010000  0.008571  0.024691      8.000000
  0.016667  0.008571  0.024691      8.000000
  0.023333  0.008571  0.024691      8.000000
  0.030000  0.008571  0.024691      8.000000
  0.003333  0.014286  0.024691      8.000000
  0.010000  0.014286  0.024691      8.000000
  0.016667  0.014286  0.024691      8.000000
  0.023333  0.014286  0.024691      8.000000
  0.030000  0.014286  0.024691      8.000000
  0.003333  0.020000  0.024691      8.000000
  0.010000  0.020000  0.024691      8.000000
  0.016667  0.020000  0.024691      8.000000
  0.023333  0.020000  0.024691      8.000000
  0.030000  0.020000  0.024691      8.000000
  0.003333  0.025714  0.024691      8.000000
  0.010000  0.025714  0.024691      8.000000
  0.016667  0.025714  0.024691      8.000000
  0.023333  0.025714  0.024691      8.000000
  0.030000  0.025714  0.024691      8.000000
  0.003333  0.031429  0.024691      8.000000
  0.010000  0.031429  0.024691      8.000000
  0.016667  0.031429  0.024691      8.000000
  0.023333  0.031429  0.024691      8.000000
  0.030000  0.031429  0.024691      8.000000
  0.003333  0.037143  0.024691      8.000000
  0.010000  0.037143  0.024691      8.000000
  0.016667  0.037143  0.024691      8.000000
  0.023333  0.037143  0.024691      8.000000
  0.030000  0.037143  0.024691      8.000000
 


--------------------------------------------------------------------------------------------------------




 Dimension of arrays:
   k-points           NKPTS =    175   k-points in BZ     NKDIM =    175   number of bands    NBANDS=      8
   number of dos      NEDOS =    301   number of ions     NIONS =      1
   non local maximal  LDIM  =      4   non local SUM 2l+1 LMDIM =      8
   total plane-waves  NPLWV = ******
   max r-space proj   IRMAX =      1   max aug-charges    IRDMAX=   7651
   dimension x,y,z NGX =   120 NGY =   96 NGZ =  140
   dimension x,y,z NGXF=   240 NGYF=  192 NGZF=  280
   support grid    NGXF=   240 NGYF=  192 NGZF=  280
   ions per type =               1
   NGX,Y,Z   is equivalent  to a cutoff of  13.30, 12.77, 12.93 a.u.
   NGXF,Y,Z  is equivalent  to a cutoff of  26.60, 25.54, 25.86 a.u.

 SYSTEM =  Convergence                             
 POSCAR =  B1                                      

 Startparameter for this run:
   NWRITE =      2    write-flag & timer
   PREC   = accura    normal or accurate (medium, high low for compatibility)
   ISTART =      0    job   : 0-new  1-cont  2-samecut
   ICHARG =      2    charge: 1-file 2-atom 10-const
   ISPIN  =      1    spin polarized calculation?
   LNONCOLLINEAR =      F non collinear calculations
   LSORBIT =      F    spin-orbit coupling
   INIWAV =      1    electr: 0-lowe 1-rand  2-diag
   LASPH  =      F    aspherical Exc in radial PAW
 Electronic Relaxation 1
   ENCUT  =  540.0 eV  39.69 Ry    6.30 a.u.  28.42 23.68 34.11*2*pi/ulx,y,z
   ENINI  =  540.0     initial cutoff
   ENAUG  =  535.5 eV  augmentation charge cutoff
   NELM   =    100;   NELMIN=  2; NELMDL= -5     # of ELM steps 
   EDIFF  = 0.1E-05   stopping-criterion for ELM
   LREAL  =      F    real-space projection
   NLSPLINE    = F    spline interpolate recip. space projectors
   LCOMPAT=      F    compatible to vasp.4.4
   GGA_COMPAT  = T    GGA compatible to vasp.4.4-vasp.4.6
   LMAXPAW     = -100 max onsite density
   LMAXMIX     =    2 max onsite mixed and CHGCAR
   VOSKOWN=      0    Vosko Wilk Nusair interpolation
   ROPT   =    0.00000
 Ionic relaxation
   EDIFFG = -.1E-02   stopping-criterion for IOM
   NSW    =      0    number of steps for IOM
   NBLOCK =      1;   KBLOCK =      1    inner block; outer block 
   IBRION =     -1    ionic relax: 0-MD 1-quasi-New 2-CG
   NFREE  =      0    steps in history (QN), initial steepest desc. (CG)
   ISIF   =      2    stress and relaxation
   IWAVPR =     10    prediction:  0-non 1-charg 2-wave 3-comb
   ISYM   =      2    0-nonsym 1-usesym 2-fastsym
   LCORR  =      T    Harris-Foulkes like correction to forces

   POTIM  = 0.5000    time-step for ionic-motion
   TEIN   =    0.0    initial temperature
   TEBEG  =    0.0;   TEEND  =   0.0 temperature during run
   SMASS  =  -3.00    Nose mass-parameter (am)
   estimated Nose-frequenzy (Omega)   =  0.10E-29 period in steps = 0.13E+47 mass=  -0.514E-26a.u.
   SCALEE = 1.0000    scale energy and forces
   NPACO  =    256;   APACO  = 10.0  distance and # of slots for P.C.
   PSTRESS=    0.0 pullay stress

  Mass of Ions in am
   POMASS =  10.81
  Ionic Valenz
   ZVAL   =   3.00
  Atomic Wigner-Seitz radii
   RWIGS  =  -1.00
  virtual crystal weights 
   VCA    =   1.00
   NELECT =       3.0000    total number of electrons
   NUPDOWN=      -1.0000    fix difference up-down

 DOS related values:
   EMIN   =  10.00;   EMAX   =-10.00  energy-range for DOS
   EFERMI =   0.00;   METHOD = LEGACY      
   ISMEAR =     0;   SIGMA  =   0.05  broadening in eV -4-tet -1-fermi 0-gaus

 Electronic relaxation 2 (details)
   IALGO  =     38    algorithm
   LDIAG  =      T    sub-space diagonalisation (order eigenvalues)
   LSUBROT=      F    optimize rotation matrix (better conditioning)
   TURBO    =      0    0=normal 1=particle mesh
   IRESTART =      0    0=no restart 2=restart with 2 vectors
   NREBOOT  =      0    no. of reboots
   NMIN     =      0    reboot dimension
   EREF     =   0.00    reference energy to select bands
   IMIX   =      4    mixing-type and parameters
     AMIX     =   0.40;   BMIX     =  1.00
     AMIX_MAG =   1.60;   BMIX_MAG =  1.00
     AMIN     =   0.10
     WC   =   100.;   INIMIX=   1;  MIXPRE=   1;  MAXMIX= -45

 Intra band minimization:
   WEIMIN = 0.0000     energy-eigenvalue tresh-hold
   EBREAK =  0.31E-07  absolut break condition
   DEPER  =   0.30     relativ break condition  

   TIME   =   0.40     timestep for ELM

  volume/ion in A,a.u.               =    3375.00     22775.62
  Fermi-wavevector in a.u.,A,eV,Ry     =   0.157407  0.297456  0.337111  0.024777
  Thomas-Fermi vector in A             =   0.845991
 
 Write flags
   LWAVE        =      F    write WAVECAR
   LDOWNSAMPLE  =      F    k-point downsampling of WAVECAR
   LCHARG       =      F    write CHGCAR
   LVTOT        =      F    write LOCPOT, total local potential
   LVHAR        =      F    write LOCPOT, Hartree potential only
   WRT_POTENTIAL= false  ! write potential to hdf5 file
   LELF         =      F    write electronic localiz. function (ELF)
   LORBIT       =      0    0 simple, 1 ext, 2 COOP (PROOUT), +10 PAW based schemes


 Dipole corrections
   LMONO      =      F    monopole corrections only (constant potential shift)
   LDIPOL     =      F    correct potential (dipole corrections)
   IDIPOL     =      0    1-x, 2-y, 3-z, 4-all directions 
   EPSILON    =  1.0000000 bulk dielectric constant
   LVACPOTAV  =      F  vacuum potentials using an averaging scheme for the charge density
   VACPOTFLAT =  0.1000000 required flatness to determine vacuum potential
 Exchange correlation treatment:
   GGA     = PE    functional components
   XC_C    = 1    coefficients multiplying the functional components
   LIBXC   =     F    Libxc                    
   VOSKOWN =     0    Vosko Wilk Nusair interpolation
   LHFCALC =     F    Hartree Fock is set to
   LHFONE  =     F    Hartree Fock one center treatment
   AEXX    =    0.0000 exact exchange contribution

 Parameters of functionals:
   PE:
     No parameter
 
 Van der Waals corrections
   IVDW    =     0    specifies the selected vdW correction

 Linear response parameters
   LEPSILON=     F    determine dielectric tensor
   LRPA    =     F    only Hartree local field effects (RPA)
   LNABLA  =     F    use nabla operator in PAW spheres
   LVEL    =     F    velocity operator in full k-point grid
   CSHIFT  =0.1000    complex shift for real part using Kramers Kronig
   OMEGAMAX=  -1.0    maximum frequency
   DEG_THRESHOLD= 0.2000000E-02 threshold for treating states as degnerate
   RTIME   =   -0.100 relaxation time in fs
  (WPLASMAI=    0.000 imaginary part of plasma frequency in eV, 0.658/RTIME)
   DFIELD  = 0.0000000 0.0000000 0.0000000 field for delta impulse in time
 
  Optional k-point grid parameters
   LKPOINTS_OPT  =     F    use optional k-point grid
   KPOINTS_OPT_MODE=     1    mode for optional k-point grid
 
 Orbital magnetization related:
   ORBITALMAG=     F  switch on orbital magnetization
   LCHIMAG   =     F  perturbation theory with respect to B field
   DQ        =  0.001000  dq finite difference perturbation B field
   LLRAUG    =     F  two centre corrections for induced B field
   LBONE     =     F  B-component reconstruction in AE one-centre
   LVGVCALC  =     T  calculate vGv susceptibility
   LVGVAPPL  =     F  apply vGv susceptibility instead of pGv for G=0

 Random number generation:
   RANDOM_GENERATOR = DEFAULT
   PCG_SEED         = not used


--------------------------------------------------------------------------------------------------------


 Static calculation
 charge density and potential will be updated during run
 non-spin polarized calculation
 Variant of blocked Davidson
 Davidson routine will perform the subspace rotation
 perform sub-space diagonalisation
    after iterative eigenvector-optimisation
 modified Broyden-mixing scheme, WC =      100.0
 initial mixing is a Kerker type mixing with AMIX =  0.4000 and BMIX =      1.0000
 Hartree-type preconditioning will be used
 using additional bands            6
 reciprocal scheme for non local part
 use partial core corrections
 calculate Harris-corrections to forces 
   (improved forces if not selfconsistent)
 use gradient corrections 
 use of overlap-Matrix (Vanderbilt PP)
 Gauss-broadening in eV      SIGMA  =   0.05


--------------------------------------------------------------------------------------------------------


  energy-cutoff  :      540.00
  volume of cell :     3375.00
      direct lattice vectors                 reciprocal lattice vectors
    15.000000000  0.000000000  0.000000000     0.066666667  0.000000000  0.000000000
     0.000000000 12.500000000  0.000000000     0.000000000  0.080000000  0.000000000
     0.000000000  0.000000000 18.000000000     0.000000000  0.000000000  0.055555556

  length of vectors
    15.000000000 12.500000000 18.000000000     0.066666667  0.080000000  0.055555556


 
 k-points in units of 2pi/SCALE and weight: k-points                                
   0.00333333  0.00285714  0.00000000       0.003
   0.01000000  0.00285714  0.00000000       0.003
   0.01666667  0.00285714  0.00000000       0.003
   0.02333333  0.00285714  0.00000000       0.003
   0.03000000  0.00285714  0.00000000       0.003
   0.00333333  0.00857143  0.00000000       0.003
   0.01000000  0.00857143  0.00000000       0.003
   0.01666667  0.00857143  0.00000000       0.003
   0.02333333  0.00857143  0.00000000       0.003
   0.03000000  0.00857143  0.00000000       0.003
   0.00333333  0.01428571  0.00000000       0.003
   0.01000000  0.01428571  0.00000000       0.003
   0.01666667  0.01428571  0.00000000       0.003
   0.02333333  0.01428571  0.00000000       0.003
   0.03000000  0.01428571  0.00000000       0.003
   0.00333333  0.02000000  0.00000000       0.003
   0.01000000  0.02000000  0.00000000       0.003
   0.01666667  0.02000000  0.00000000       0.003
   0.02333333  0.02000000  0.00000000       0.003
   0.03000000  0.02000000  0.00000000       0.003
   0.00333333  0.02571429  0.00000000       0.003
   0.01000000  0.02571429  0.00000000       0.003
   0.01666667  0.02571429  0.00000000       0.003
   0.02333333  0.02571429  0.00000000       0.003
   0.03000000  0.02571429  0.00000000       0.003
   0.00333333  0.03142857  0.00000000       0.003
   0.01000000  0.03142857  0.00000000       0.003
   0.01666667  0.03142857  0.00000000       0.003
   0.02333333  0.03142857  0.00000000       0.003
   0.03000000  0.03142857  0.00000000       0.003
   0.00333333  0.03714286  0.00000000       0.003
   0.01000000  0.03714286  0.00000000       0.003
   0.01666667  0.03714286  0.00000000       0.003
   0.02333333  0.03714286  0.00000000       0.003
   0.03000000  0.03714286  0.00000000       0.003
   0.00333333  0.00285714  0.00617284       0.006
   0.01000000  0.00285714  0.00617284       0.006
   0.01666667  0.00285714  0.00617284       0.006
   0.02333333  0.00285714  0.00617284       0.006
   0.03000000  0.00285714  0.00617284       0.006
   0.00333333  0.00857143  0.00617284       0.006
   0.01000000  0.00857143  0.00617284       0.006
   0.01666667  0.00857143  0.00617284       0.006
   0.02333333  0.00857143  0.00617284       0.006
   0.03000000  0.00857143  0.00617284       0.006
   0.00333333  0.01428571  0.00617284       0.006
   0.01000000  0.01428571  0.00617284       0.006
   0.01666667  0.01428571  0.00617284       0.006
   0.02333333  0.01428571  0.00617284       0.006
   0.03000000  0.01428571  0.00617284       0.006
   0.00333333  0.02000000  0.00617284       0.006
   0.01000000  0.02000000  0.00617284       0.006
   0.01666667  0.02000000  0.00617284       0.006
   0.02333333  0.02000000  0.00617284       0.006
   0.03000000  0.02000000  0.00617284       0.006
   0.00333333  0.02571429  0.00617284       0.006
   0.01000000  0.02571429  0.00617284       0.006
   0.01666667  0.02571429  0.00617284       0.006
   0.02333333  0.02571429  0.00617284       0.006
   0.03000000  0.02571429  0.00617284       0.006
   0.00333333  0.03142857  0.00617284       0.006
   0.01000000  0.03142857  0.00617284       0.006
   0.01666667  0.03142857  0.00617284       0.006
   0.02333333  0.03142857  0.00617284       0.006
   0.03000000  0.03142857  0.00617284       0.006
   0.00333333  0.03714286  0.00617284       0.006
   0.01000000  0.03714286  0.00617284       0.006
   0.01666667  0.03714286  0.00617284       0.006
   0.02333333  0.03714286  0.00617284       0.006
   0.03000000  0.03714286  0.00617284       0.006
   0.00333333  0.00285714  0.01234568       0.006
   0.01000000  0.00285714  0.01234568       0.006
   0.01666667  0.00285714  0.01234568       0.006
   0.02333333  0.00285714  0.01234568       0.006
   0.03000000  0.00285714  0.01234568       0.006
   0.00333333  0.00857143  0.01234568       0.006
   0.01000000  0.00857143  0.01234568       0.006
   0.01666667  0.00857143  0.01234568       0.006
   0.02333333  0.00857143  0.01234568       0.006
   0.03000000  0.00857143  0.01234568       0.006
   0.00333333  0.01428571  0.01234568       0.006
   0.01000000  0.01428571  0.01234568       0.006
   0.01666667  0.01428571  0.01234568       0.006
   0.02333333  0.01428571  0.01234568       0.006
   0.03000000  0.01428571  0.01234568       0.006
   0.00333333  0.02000000  0.01234568       0.006
   0.01000000  0.02000000  0.01234568       0.006
   0.01666667  0.02000000  0.01234568       0.006
   0.02333333  0.02000000  0.01234568       0.006
   0.03000000  0.02000000  0.01234568       0.006
   0.00333333  0.02571429  0.01234568       0.006
   0.01000000  0.02571429  0.01234568       0.006
   0.01666667  0.02571429  0.01234568       0.006
   0.02333333  0.02571429  0.01234568       0.006
   0.03000000  0.02571429  0.01234568       0.006
   0.00333333  0.03142857  0.01234568       0.006
   0.01000000  0.03142857  0.01234568       0.006
   0.01666667  0.03142857  0.01234568       0.006
   0.02333333  0.03142857  0.01234568       0.006
   0.03000000  0.03142857  0.01234568       0.006
   0.00333333  0.03714286  0.01234568       0.006
   0.01000000  0.03714286  0.01234568       0.006
   0.01666667  0.03714286  0.01234568       0.006
   0.02333333  0.03714286  0.01234568       0.006
   0.03000000  0.03714286  0.01234568       0.006
   0.00333333  0.00285714  0.01851852       0.006
   0.01000000  0.00285714  0.01851852       0.006
   0.01666667  0.00285714  0.01851852       0.006
   0.02333333  0.00285714  0.01851852       0.006
   0.03000000  0.00285714  0.01851852       0.006
   0.00333333  0.00857143  0.01851852       0.006
   0.01000000  0.00857143  0.01851852       0.006
   0.01666667  0.00857143  0.01851852       0.006
   0.02333333  0.00857143  0.01851852       0.006
   0.03000000  0.00857143  0.01851852       0.006
   0.00333333  0.01428571  0.01851852       0.006
   0.01000000  0.01428571  0.01851852       0.006
   0.01666667  0.01428571  0.01851852       0.006
   0.02333333  0.01428571  0.01851852       0.006
   0.03000000  0.01428571  0.01851852       0.006
   0.00333333  0.02000000  0.01851852       0.006
   0.01000000  0.02000000  0.01851852       0.006
   0.01666667  0.02000000  0.01851852       0.006
   0.02333333  0.02000000  0.01851852       0.006
   0.03000000  0.02000000  0.01851852       0.006
   0.00333333  0.02571429  0.01851852       0.006
   0.01000000  0.02571429  0.01851852       0.006
   0.01666667  0.02571429  0.01851852       0.006
   0.02333333  0.02571429  0.01851852       0.006
   0.03000000  0.02571429  0.01851852       0.006
   0.00333333  0.03142857  0.01851852       0.006
   0.01000000  0.03142857  0.01851852       0.006
   0.01666667  0.03142857  0.01851852       0.006
   0.02333333  0.03142857  0.01851852       0.006
   0.03000000  0.03142857  0.01851852       0.006
   0.00333333  0.03714286  0.01851852       0.006
   0.01000000  0.03714286  0.01851852       0.006
   0.01666667  0.03714286  0.01851852       0.006
   0.02333333  0.03714286  0.01851852       0.006
   0.03000000  0.03714286  0.01851852       0.006
   0.00333333  0.00285714  0.02469136       0.006
   0.01000000  0.00285714  0.02469136       0.006
   0.01666667  0.00285714  0.02469136       0.006
   0.02333333  0.00285714  0.02469136       0.006
   0.03000000  0.00285714  0.02469136       0.006
   0.00333333  0.00857143  0.02469136       0.006
   0.01000000  0.00857143  0.02469136       0.006
   0.01666667  0.00857143  0.02469136       0.006
   0.02333333  0.00857143  0.02469136       0.006
   0.03000000  0.00857143  0.02469136       0.006
   0.00333333  0.01428571  0.02469136       0.006
   0.01000000  0.01428571  0.02469136       0.006
   0.01666667  0.01428571  0.02469136       0.006
   0.02333333  0.01428571  0.02469136       0.006
   0.03000000  0.01428571  0.02469136       0.006
   0.00333333  0.02000000  0.02469136       0.006
   0.01000000  0.02000000  0.02469136       0.006
   0.01666667  0.02000000  0.02469136       0.006
   0.02333333  0.02000000  0.02469136       0.006
   0.03000000  0.02000000  0.02469136       0.006
   0.00333333  0.02571429  0.02469136       0.006
   0.01000000  0.02571429  0.02469136       0.006
   0.01666667  0.02571429  0.02469136       0.006
   0.02333333  0.02571429  0.02469136       0.006
   0.03000000  0.02571429  0.02469136       0.006
   0.00333333  0.03142857  0.02469136       0.006
   0.01000000  0.03142857  0.02469136       0.006
   0.01666667  0.03142857  0.02469136       0.006
   0.02333333  0.03142857  0.02469136       0.006
   0.03000000  0.03142857  0.02469136       0.006
   0.00333333  0.03714286  0.02469136       0.006
   0.01000000  0.03714286  0.02469136       0.006
   0.01666667  0.03714286  0.02469136       0.006
   0.02333333  0.03714286  0.02469136       0.006
   0.03000000  0.03714286  0.02469136       0.006
 
 k-points in reciprocal lattice and weights: k-points                                
   0.05000000  0.03571429  0.00000000       0.003
   0.15000000  0.03571429  0.00000000       0.003
   0.25000000  0.03571429  0.00000000       0.003
   0.35000000  0.03571429  0.00000000       0.003
   0.45000000  0.03571429  0.00000000       0.003
   0.05000000  0.10714286  0.00000000       0.003
   0.15000000  0.10714286  0.00000000       0.003
   0.25000000  0.10714286  0.00000000       0.003
   0.35000000  0.10714286  0.00000000       0.003
   0.45000000  0.10714286  0.00000000       0.003
   0.05000000  0.17857143  0.00000000       0.003
   0.15000000  0.17857143  0.00000000       0.003
   0.25000000  0.17857143  0.00000000       0.003
   0.35000000  0.17857143  0.00000000       0.003
   0.45000000  0.17857143  0.00000000       0.003
   0.05000000  0.25000000  0.00000000       0.003
   0.15000000  0.25000000  0.00000000       0.003
   0.25000000  0.25000000  0.00000000       0.003
   0.35000000  0.25000000  0.00000000       0.003
   0.45000000  0.25000000  0.00000000       0.003
   0.05000000  0.32142857  0.00000000       0.003
   0.15000000  0.32142857  0.00000000       0.003
   0.25000000  0.32142857  0.00000000       0.003
   0.35000000  0.32142857  0.00000000       0.003
   0.45000000  0.32142857  0.00000000       0.003
   0.05000000  0.39285714  0.00000000       0.003
   0.15000000  0.39285714  0.00000000       0.003
   0.25000000  0.39285714  0.00000000       0.003
   0.35000000  0.39285714  0.00000000       0.003
   0.45000000  0.39285714  0.00000000       0.003
   0.05000000  0.46428571  0.00000000       0.003
   0.15000000  0.46428571  0.00000000       0.003
   0.25000000  0.46428571  0.00000000       0.003
   0.35000000  0.46428571  0.00000000       0.003
   0.45000000  0.46428571  0.00000000       0.003
   0.05000000  0.03571429  0.11111111       0.006
   0.15000000  0.03571429  0.11111111       0.006
   0.25000000  0.03571429  0.11111111       0.006
   0.35000000  0.03571429  0.11111111       0.006
   0.45000000  0.03571429  0.11111111       0.006
   0.05000000  0.10714286  0.11111111       0.006
   0.15000000  0.10714286  0.11111111       0.006
   0.25000000  0.10714286  0.11111111       0.006
   0.35000000  0.10714286  0.11111111       0.006
   0.45000000  0.10714286  0.11111111       0.006
   0.05000000  0.17857143  0.11111111       0.006
   0.15000000  0.17857143  0.11111111       0.006
   0.25000000  0.17857143  0.11111111       0.006
   0.35000000  0.17857143  0.11111111       0.006
   0.45000000  0.17857143  0.11111111       0.006
   0.05000000  0.25000000  0.11111111       0.006
   0.15000000  0.25000000  0.11111111       0.006
   0.25000000  0.25000000  0.11111111       0.006
   0.35000000  0.25000000  0.11111111       0.006
   0.45000000  0.25000000  0.11111111       0.006
   0.05000000  0.32142857  0.11111111       0.006
   0.15000000  0.32142857  0.11111111       0.006
   0.25000000  0.32142857  0.11111111       0.006
   0.35000000  0.32142857  0.11111111       0.006
   0.45000000  0.32142857  0.11111111       0.006
   0.05000000  0.39285714  0.11111111       0.006
   0.15000000  0.39285714  0.11111111       0.006
   0.25000000  0.39285714  0.11111111       0.006
   0.35000000  0.39285714  0.11111111       0.006
   0.45000000  0.39285714  0.11111111       0.006
   0.05000000  0.46428571  0.11111111       0.006
   0.15000000  0.46428571  0.11111111       0.006
   0.25000000  0.46428571  0.11111111       0.006
   0.35000000  0.46428571  0.11111111       0.006
   0.45000000  0.46428571  0.11111111       0.006
   0.05000000  0.03571429  0.22222222       0.006
   0.15000000  0.03571429  0.22222222       0.006
   0.25000000  0.03571429  0.22222222       0.006
   0.35000000  0.03571429  0.22222222       0.006
   0.45000000  0.03571429  0.22222222       0.006
   0.05000000  0.10714286  0.22222222       0.006
   0.15000000  0.10714286  0.22222222       0.006
   0.25000000  0.10714286  0.22222222       0.006
   0.35000000  0.10714286  0.22222222       0.006
   0.45000000  0.10714286  0.22222222       0.006
   0.05000000  0.17857143  0.22222222       0.006
   0.15000000  0.17857143  0.22222222       0.006
   0.25000000  0.17857143  0.22222222       0.006
   0.35000000  0.17857143  0.22222222       0.006
   0.45000000  0.17857143  0.22222222       0.006
   0.05000000  0.25000000  0.22222222       0.006
   0.15000000  0.25000000  0.22222222       0.006
   0.25000000  0.25000000  0.22222222       0.006
   0.35000000  0.25000000  0.22222222       0.006
   0.45000000  0.25000000  0.22222222       0.006
   0.05000000  0.32142857  0.22222222       0.006
   0.15000000  0.32142857  0.22222222       0.006
   0.25000000  0.32142857  0.22222222       0.006
   0.35000000  0.32142857  0.22222222       0.006
   0.45000000  0.32142857  0.22222222       0.006
   0.05000000  0.39285714  0.22222222       0.006
   0.15000000  0.39285714  0.22222222       0.006
   0.25000000  0.39285714  0.22222222       0.006
   0.35000000  0.39285714  0.22222222       0.006
   0.45000000  0.39285714  0.22222222       0.006
   0.05000000  0.46428571  0.22222222       0.006
   0.15000000  0.46428571  0.22222222       0.006
   0.25000000  0.46428571  0.22222222       0.006
   0.35000000  0.46428571  0.22222222       0.006
   0.45000000  0.46428571  0.22222222       0.006
   0.05000000  0.03571429  0.33333333       0.006
   0.15000000  0.03571429  0.33333333       0.006
   0.25000000  0.03571429  0.33333333       0.006
   0.35000000  0.03571429  0.33333333       0.006
   0.45000000  0.03571429  0.33333333       0.006
   0.05000000  0.10714286  0.33333333       0.006
   0.15000000  0.10714286  0.33333333       0.006
   0.25000000  0.10714286  0.33333333       0.006
   0.35000000  0.10714286  0.33333333       0.006
   0.45000000  0.10714286  0.33333333       0.006
   0.05000000  0.17857143  0.33333333       0.006
   0.15000000  0.17857143  0.33333333       0.006
   0.25000000  0.17857143  0.33333333       0.006
   0.35000000  0.17857143  0.33333333       0.006
   0.45000000  0.17857143  0.33333333       0.006
   0.05000000  0.25000000  0.33333333       0.006
   0.15000000  0.25000000  0.33333333       0.006
   0.25000000  0.25000000  0.33333333       0.006
   0.35000000  0.25000000  0.33333333       0.006
   0.45000000  0.25000000  0.33333333       0.006
   0.05000000  0.32142857  0.33333333       0.006
   0.15000000  0.32142857  0.33333333       0.006
   0.25000000  0.32142857  0.33333333       0.006
   0.35000000  0.32142857  0.33333333       0.006
   0.45000000  0.32142857  0.33333333       0.006
   0.05000000  0.39285714  0.33333333       0.006
   0.15000000  0.39285714  0.33333333       0.006
   0.25000000  0.39285714  0.33333333       0.006
   0.35000000  0.39285714  0.33333333       0.006
   0.45000000  0.39285714  0.33333333       0.006
   0.05000000  0.46428571  0.33333333       0.006
   0.15000000  0.46428571  0.33333333       0.006
   0.25000000  0.46428571  0.33333333       0.006
   0.35000000  0.46428571  0.33333333       0.006
   0.45000000  0.46428571  0.33333333       0.006
   0.05000000  0.03571429  0.44444444       0.006
   0.15000000  0.03571429  0.44444444       0.006
   0.25000000  0.03571429  0.44444444       0.006
   0.35000000  0.03571429  0.44444444       0.006
   0.45000000  0.03571429  0.44444444       0.006
   0.05000000  0.10714286  0.44444444       0.006
   0.15000000  0.10714286  0.44444444       0.006
   0.25000000  0.10714286  0.44444444       0.006
   0.35000000  0.10714286  0.44444444       0.006
   0.45000000  0.10714286  0.44444444       0.006
   0.05000000  0.17857143  0.44444444       0.006
   0.15000000  0.17857143  0.44444444       0.006
   0.25000000  0.17857143  0.44444444       0.006
   0.35000000  0.17857143  0.44444444       0.006
   0.45000000  0.17857143  0.44444444       0.006
   0.05000000  0.25000000  0.44444444       0.006
   0.15000000  0.25000000  0.44444444       0.006
   0.25000000  0.25000000  0.44444444       0.006
   0.35000000  0.25000000  0.44444444       0.006
   0.45000000  0.25000000  0.44444444       0.006
   0.05000000  0.32142857  0.44444444       0.006
   0.15000000  0.32142857  0.44444444       0.006
   0.25000000  0.32142857  0.44444444       0.006
   0.35000000  0.32142857  0.44444444       0.006
   0.45000000  0.32142857  0.44444444       0.006
   0.05000000  0.39285714  0.44444444       0.006
   0.15000000  0.39285714  0.44444444       0.006
   0.25000000  0.39285714  0.44444444       0.006
   0.35000000  0.39285714  0.44444444       0.006
   0.45000000  0.39285714  0.44444444       0.006
   0.05000000  0.46428571  0.44444444       0.006
   0.15000000  0.46428571  0.44444444       0.006
   0.25000000  0.46428571  0.44444444       0.006
   0.35000000  0.46428571  0.44444444       0.006
   0.45000000  0.46428571  0.44444444       0.006
 
 position of ions in fractional coordinates (direct lattice) 
   0.52123000  0.54500000  0.63796000
 
 position of ions in cartesian coordinates  (Angst):
   7.81845000  6.81250000 11.48328000
 


--------------------------------------------------------------------------------------------------------


 k-point     1 :   0.0500 0.0357 0.0000  plane waves:   96213
 k-point     2 :   0.1500 0.0357 0.0000  plane waves:   96201
 k-point     3 :   0.2500 0.0357 0.0000  plane waves:   96181
 k-point     4 :   0.3500 0.0357 0.0000  plane waves:   96176
 k-point     5 :   0.4500 0.0357 0.0000  plane waves:   96207
 k-point     6 :   0.0500 0.1071 0.0000  plane waves:   96203
 k-point     7 :   0.1500 0.1071 0.0000  plane waves:   96175
 k-point     8 :   0.2500 0.1071 0.0000  plane waves:   96173
 k-point     9 :   0.3500 0.1071 0.0000  plane waves:   96148
 k-point    10 :   0.4500 0.1071 0.0000  plane waves:   96174
 k-point    11 :   0.0500 0.1786 0.0000  plane waves:   96180
 k-point    12 :   0.1500 0.1786 0.0000  plane waves:   96181
 k-point    13 :   0.2500 0.1786 0.0000  plane waves:   96139
 k-point    14 :   0.3500 0.1786 0.0000  plane waves:   96133
 k-point    15 :   0.4500 0.1786 0.0000  plane waves:   96160
 k-point    16 :   0.0500 0.2500 0.0000  plane waves:   96204
 k-point    17 :   0.1500 0.2500 0.0000  plane waves:   96172
 k-point    18 :   0.2500 0.2500 0.0000  plane waves:   96150
 k-point    19 :   0.3500 0.2500 0.0000  plane waves:   96134
 k-point    20 :   0.4500 0.2500 0.0000  plane waves:   96113
 k-point    21 :   0.0500 0.3214 0.0000  plane waves:   96147
 k-point    22 :   0.1500 0.3214 0.0000  plane waves:   96160
 k-point    23 :   0.2500 0.3214 0.0000  plane waves:   96181
 k-point    24 :   0.3500 0.3214 0.0000  plane waves:   96104
 k-point    25 :   0.4500 0.3214 0.0000  plane waves:   96087
 k-point    26 :   0.0500 0.3929 0.0000  plane waves:   96146
 k-point    27 :   0.1500 0.3929 0.0000  plane waves:   96170
 k-point    28 :   0.2500 0.3929 0.0000  plane waves:   96158
 k-point    29 :   0.3500 0.3929 0.0000  plane waves:   96117
 k-point    30 :   0.4500 0.3929 0.0000  plane waves:   96123
 k-point    31 :   0.0500 0.4643 0.0000  plane waves:   96152
 k-point    32 :   0.1500 0.4643 0.0000  plane waves:   96127
 k-point    33 :   0.2500 0.4643 0.0000  plane waves:   96143
 k-point    34 :   0.3500 0.4643 0.0000  plane waves:   96151
 k-point    35 :   0.4500 0.4643 0.0000  plane waves:   96119
 k-point    36 :   0.0500 0.0357 0.1111  plane waves:   96208
 k-point    37 :   0.1500 0.0357 0.1111  plane waves:   96171
 k-point    38 :   0.2500 0.0357 0.1111  plane waves:   96181
 k-point    39 :   0.3500 0.0357 0.1111  plane waves:   96175
 k-point    40 :   0.4500 0.0357 0.1111  plane waves:   96181
 k-point    41 :   0.0500 0.1071 0.1111  plane waves:   96192
 k-point    42 :   0.1500 0.1071 0.1111  plane waves:   96167
 k-point    43 :   0.2500 0.1071 0.1111  plane waves:   96174
 k-point    44 :   0.3500 0.1071 0.1111  plane waves:   96183
 k-point    45 :   0.4500 0.1071 0.1111  plane waves:   96181
 k-point    46 :   0.0500 0.1786 0.1111  plane waves:   96172
 k-point    47 :   0.1500 0.1786 0.1111  plane waves:   96180
 k-point    48 :   0.2500 0.1786 0.1111  plane waves:   96166
 k-point    49 :   0.3500 0.1786 0.1111  plane waves:   96148
 k-point    50 :   0.4500 0.1786 0.1111  plane waves:   96150
 k-point    51 :   0.0500 0.2500 0.1111  plane waves:   96170
 k-point    52 :   0.1500 0.2500 0.1111  plane waves:   96170
 k-point    53 :   0.2500 0.2500 0.1111  plane waves:   96141
 k-point    54 :   0.3500 0.2500 0.1111  plane waves:   96141
 k-point    55 :   0.4500 0.2500 0.1111  plane waves:   96107
 k-point    56 :   0.0500 0.3214 0.1111  plane waves:   96153
 k-point    57 :   0.1500 0.3214 0.1111  plane waves:   96151
 k-point    58 :   0.2500 0.3214 0.1111  plane waves:   96144
 k-point    59 :   0.3500 0.3214 0.1111  plane waves:   96117
 k-point    60 :   0.4500 0.3214 0.1111  plane waves:   96096
 k-point    61 :   0.0500 0.3929 0.1111  plane waves:   96176
 k-point    62 :   0.1500 0.3929 0.1111  plane waves:   96150
 k-point    63 :   0.2500 0.3929 0.1111  plane waves:   96162
 k-point    64 :   0.3500 0.3929 0.1111  plane waves:   96107
 k-point    65 :   0.4500 0.3929 0.1111  plane waves:   96087
 k-point    66 :   0.0500 0.4643 0.1111  plane waves:   96179
 k-point    67 :   0.1500 0.4643 0.1111  plane waves:   96160
 k-point    68 :   0.2500 0.4643 0.1111  plane waves:   96148
 k-point    69 :   0.3500 0.4643 0.1111  plane waves:   96142
 k-point    70 :   0.4500 0.4643 0.1111  plane waves:   96127
 k-point    71 :   0.0500 0.0357 0.2222  plane waves:   96187
 k-point    72 :   0.1500 0.0357 0.2222  plane waves:   96185
 k-point    73 :   0.2500 0.0357 0.2222  plane waves:   96170
 k-point    74 :   0.3500 0.0357 0.2222  plane waves:   96208
 k-point    75 :   0.4500 0.0357 0.2222  plane waves:   96170
 k-point    76 :   0.0500 0.1071 0.2222  plane waves:   96198
 k-point    77 :   0.1500 0.1071 0.2222  plane waves:   96180
 k-point    78 :   0.2500 0.1071 0.2222  plane waves:   96177
 k-point    79 :   0.3500 0.1071 0.2222  plane waves:   96192
 k-point    80 :   0.4500 0.1071 0.2222  plane waves:   96182
 k-point    81 :   0.0500 0.1786 0.2222  plane waves:   96197
 k-point    82 :   0.1500 0.1786 0.2222  plane waves:   96172
 k-point    83 :   0.2500 0.1786 0.2222  plane waves:   96167
 k-point    84 :   0.3500 0.1786 0.2222  plane waves:   96162
 k-point    85 :   0.4500 0.1786 0.2222  plane waves:   96177
 k-point    86 :   0.0500 0.2500 0.2222  plane waves:   96203
 k-point    87 :   0.1500 0.2500 0.2222  plane waves:   96188
 k-point    88 :   0.2500 0.2500 0.2222  plane waves:   96136
 k-point    89 :   0.3500 0.2500 0.2222  plane waves:   96122
 k-point    90 :   0.4500 0.2500 0.2222  plane waves:   96154
 k-point    91 :   0.0500 0.3214 0.2222  plane waves:   96138
 k-point    92 :   0.1500 0.3214 0.2222  plane waves:   96179
 k-point    93 :   0.2500 0.3214 0.2222  plane waves:   96140
 k-point    94 :   0.3500 0.3214 0.2222  plane waves:   96120
 k-point    95 :   0.4500 0.3214 0.2222  plane waves:   96113
 k-point    96 :   0.0500 0.3929 0.2222  plane waves:   96172
 k-point    97 :   0.1500 0.3929 0.2222  plane waves:   96183
 k-point    98 :   0.2500 0.3929 0.2222  plane waves:   96162
 k-point    99 :   0.3500 0.3929 0.2222  plane waves:   96160
 k-point   100 :   0.4500 0.3929 0.2222  plane waves:   96104
 k-point   101 :   0.0500 0.4643 0.2222  plane waves:   96205
 k-point   102 :   0.1500 0.4643 0.2222  plane waves:   96174
 k-point   103 :   0.2500 0.4643 0.2222  plane waves:   96200
 k-point   104 :   0.3500 0.4643 0.2222  plane waves:   96126
 k-point   105 :   0.4500 0.4643 0.2222  plane waves:   96103
 k-point   106 :   0.0500 0.0357 0.3333  plane waves:   96144
 k-point   107 :   0.1500 0.0357 0.3333  plane waves:   96171
 k-point   108 :   0.2500 0.0357 0.3333  plane waves:   96181
 k-point   109 :   0.3500 0.0357 0.3333  plane waves:   96200
 k-point   110 :   0.4500 0.0357 0.3333  plane waves:   96183
 k-point   111 :   0.0500 0.1071 0.3333  plane waves:   96157
 k-point   112 :   0.1500 0.1071 0.3333  plane waves:   96157
 k-point   113 :   0.2500 0.1071 0.3333  plane waves:   96179
 k-point   114 :   0.3500 0.1071 0.3333  plane waves:   96184
 k-point   115 :   0.4500 0.1071 0.3333  plane waves:   96176
 k-point   116 :   0.0500 0.1786 0.3333  plane waves:   96189
 k-point   117 :   0.1500 0.1786 0.3333  plane waves:   96173
 k-point   118 :   0.2500 0.1786 0.3333  plane waves:   96153
 k-point   119 :   0.3500 0.1786 0.3333  plane waves:   96188
 k-point   120 :   0.4500 0.1786 0.3333  plane waves:   96182
 k-point   121 :   0.0500 0.2500 0.3333  plane waves:   96186
 k-point   122 :   0.1500 0.2500 0.3333  plane waves:   96174
 k-point   123 :   0.2500 0.2500 0.3333  plane waves:   96168
 k-point   124 :   0.3500 0.2500 0.3333  plane waves:   96167
 k-point   125 :   0.4500 0.2500 0.3333  plane waves:   96196
 k-point   126 :   0.0500 0.3214 0.3333  plane waves:   96186
 k-point   127 :   0.1500 0.3214 0.3333  plane waves:   96206
 k-point   128 :   0.2500 0.3214 0.3333  plane waves:   96194
 k-point   129 :   0.3500 0.3214 0.3333  plane waves:   96147
 k-point   130 :   0.4500 0.3214 0.3333  plane waves:   96131
 k-point   131 :   0.0500 0.3929 0.3333  plane waves:   96192
 k-point   132 :   0.1500 0.3929 0.3333  plane waves:   96206
 k-point   133 :   0.2500 0.3929 0.3333  plane waves:   96175
 k-point   134 :   0.3500 0.3929 0.3333  plane waves:   96145
 k-point   135 :   0.4500 0.3929 0.3333  plane waves:   96128
 k-point   136 :   0.0500 0.4643 0.3333  plane waves:   96211
 k-point   137 :   0.1500 0.4643 0.3333  plane waves:   96223
 k-point   138 :   0.2500 0.4643 0.3333  plane waves:   96184
 k-point   139 :   0.3500 0.4643 0.3333  plane waves:   96156
 k-point   140 :   0.4500 0.4643 0.3333  plane waves:   96111
 k-point   141 :   0.0500 0.0357 0.4444  plane waves:   96142
 k-point   142 :   0.1500 0.0357 0.4444  plane waves:   96169
 k-point   143 :   0.2500 0.0357 0.4444  plane waves:   96193
 k-point   144 :   0.3500 0.0357 0.4444  plane waves:   96175
 k-point   145 :   0.4500 0.0357 0.4444  plane waves:   96157
 k-point   146 :   0.0500 0.1071 0.4444  plane waves:   96160
 k-point   147 :   0.1500 0.1071 0.4444  plane waves:   96152
 k-point   148 :   0.2500 0.1071 0.4444  plane waves:   96183
 k-point   149 :   0.3500 0.1071 0.4444  plane waves:   96170
 k-point   150 :   0.4500 0.1071 0.4444  plane waves:   96169
 k-point   151 :   0.0500 0.1786 0.4444  plane waves:   96159
 k-point   152 :   0.1500 0.1786 0.4444  plane waves:   96147
 k-point   153 :   0.2500 0.1786 0.4444  plane waves:   96180
 k-point   154 :   0.3500 0.1786 0.4444  plane waves:   96191
 k-point   155 :   0.4500 0.1786 0.4444  plane waves:   96191
 k-point   156 :   0.0500 0.2500 0.4444  plane waves:   96159
 k-point   157 :   0.1500 0.2500 0.4444  plane waves:   96163
 k-point   158 :   0.2500 0.2500 0.4444  plane waves:   96164
 k-point   159 :   0.3500 0.2500 0.4444  plane waves:   96201
 k-point   160 :   0.4500 0.2500 0.4444  plane waves:   96169
 k-point   161 :   0.0500 0.3214 0.4444  plane waves:   96207
 k-point   162 :   0.1500 0.3214 0.4444  plane waves:   96190
 k-point   163 :   0.2500 0.3214 0.4444  plane waves:   96177
 k-point   164 :   0.3500 0.3214 0.4444  plane waves:   96160
 k-point   165 :   0.4500 0.3214 0.4444  plane waves:   96155
 k-point   166 :   0.0500 0.3929 0.4444  plane waves:   96204
 k-point   167 :   0.1500 0.3929 0.4444  plane waves:   96226
 k-point   168 :   0.2500 0.3929 0.4444  plane waves:   96177
 k-point   169 :   0.3500 0.3929 0.4444  plane waves:   96154
 k-point   170 :   0.4500 0.3929 0.4444  plane waves:   96158
 k-point   171 :   0.0500 0.4643 0.4444  plane waves:   96187
 k-point   172 :   0.1500 0.4643 0.4444  plane waves:   96197
 k-point   173 :   0.2500 0.4643 0.4444  plane waves:   96172
 k-point   174 :   0.3500 0.4643 0.4444  plane waves:   96164
 k-point   175 :   0.4500 0.4643 0.4444  plane waves:   96151

 maximum and minimum number of plane-waves per node :     96226    96087

 maximum number of plane-waves:     96226
 maximum index in each direction: 
   IXMAX=   28   IYMAX=   23   IZMAX=   34
   IXMIN=  -28   IYMIN=  -24   IZMIN=  -34


 serial   3D FFT for wavefunctions
 parallel 3D FFT for charge:
    minimum data exchange during FFTs selected (reduces bandwidth)


 total amount of memory used by VASP MPI-rank0  1582265. kBytes
=======================================================================

   base      :      30000. kBytes
   nonl-proj :    1079338. kBytes
   fftplans  :      60973. kBytes
   grid      :     142479. kBytes
   one-center:          3. kBytes
   wavefun   :     269472. kBytes
 
     INWAV:  cpu time      0.0001: real time      0.0001
 Broyden mixing: mesh for mixing (old mesh)
   NGX = 57   NGY = 47   NGZ = 69
  (NGX  =240   NGY  =192   NGZ  =280)
  gives a total of 184851 points

 initial charge density was supplied:
 charge density of overlapping atoms calculated
 number of electron       3.0000000 magnetization 
 keeping initial charge density in first step


--------------------------------------------------------------------------------------------------------


 Maximum index for augmentation-charges          876 (set IRDMAX)


--------------------------------------------------------------------------------------------------------


 First call to EWALD:  gamma=   0.118
 Maximum number of real-space cells 3x 3x 2
 Maximum number of reciprocal cells 3x 2x 3

    FEWALD:  cpu time      0.0013: real time      0.0064


--------------------------------------- Ionic step        1  -------------------------------------------




--------------------------------------- Iteration      1(   1)  ---------------------------------------


    POTLOK:  cpu time      1.1526: real time      1.3518
    SETDIJ:  cpu time      0.0207: real time      0.0264
     EDDAV:  cpu time     39.6878: real time     41.0351
       DOS:  cpu time      0.0013: real time      0.0058
    --------------------------------------------
      LOOP:  cpu time     40.8625: real time     42.4194

 eigenvalue-minimisations  :  2848
 total energy-change (2. order) : 0.9580337E+01  (-0.3233367E+02)
 number of electron       3.0000000 magnetization 
 augmentation part        3.0000000 magnetization 

 Free energy of the ion-electron system (eV)
  ---------------------------------------------------
  alpha Z        PSCENC =         0.02038373
  Ewald energy   TEWEN  =       -11.82901664
  -Hartree energ DENC   =       -42.58396533
  -exchange      EXHF   =         0.00000000
  -V(xc)+E(xc)   XCENC  =         4.75549664
  PAW double counting   =        43.49986551      -42.64454556
  entropy T*S    EENTRO =        -0.00785056
  eigenvalues    EBANDS =       -12.79936358
  atomic energy  EATOM  =        71.16933231
  Solvation  Ediel_sol  =         0.00000000
  ---------------------------------------------------
  free energy    TOTEN  =         9.58033651 eV

  energy without entropy =        9.58818707  energy(sigma->0) =        9.58426179


--------------------------------------------------------------------------------------------------------




--------------------------------------- Iteration      1(   2)  ---------------------------------------


     EDDAV:  cpu time     51.7545: real time     51.7713
       DOS:  cpu time      0.0007: real time      0.0007
    --------------------------------------------
      LOOP:  cpu time     51.7552: real time     51.7719

 eigenvalue-minimisations  :  4128
 total energy-change (2. order) :-0.8594877E+01  (-0.7997299E+01)
 number of electron       3.0000000 magnetization 
 augmentation part        3.0000000 magnetization 

 Free energy of the ion-electron system (eV)
  ---------------------------------------------------
  alpha Z        PSCENC =         0.02038373
  Ewald energy   TEWEN  =       -11.82901664
  -Hartree energ DENC   =       -42.58396533
  -exchange      EXHF   =         0.00000000
  -V(xc)+E(xc)   XCENC  =         4.75549664
  PAW double counting   =        43.49986551      -42.64454556
  entropy T*S    EENTRO =        -0.00246037
  eigenvalues    EBANDS =       -21.39963086
  atomic energy  EATOM  =        71.16933231
  Solvation  Ediel_sol  =         0.00000000
  ---------------------------------------------------
  free energy    TOTEN  =         0.98545942 eV

  energy without entropy =        0.98791979  energy(sigma->0) =        0.98668960


--------------------------------------------------------------------------------------------------------




--------------------------------------- Iteration      1(   3)  ---------------------------------------


     EDDAV:  cpu time     58.3425: real time     58.3537
       DOS:  cpu time      0.0012: real time      0.0012
    --------------------------------------------
      LOOP:  cpu time     58.3437: real time     58.3549

 eigenvalue-minimisations  :  4824
 total energy-change (2. order) :-0.1004245E+01  (-0.9818895E+00)
 number of electron       3.0000000 magnetization 
 augmentation part        3.0000000 magnetization 

 Free energy of the ion-electron system (eV)
  ---------------------------------------------------
  alpha Z        PSCENC =         0.02038373
  Ewald energy   TEWEN  =       -11.82901664
  -Hartree energ DENC   =       -42.58396533
  -exchange      EXHF   =         0.00000000
  -V(xc)+E(xc)   XCENC  =         4.75549664
  PAW double counting   =        43.49986551      -42.64454556
  entropy T*S    EENTRO =        -0.03623771
  eigenvalues    EBANDS =       -22.37009899
  atomic energy  EATOM  =        71.16933231
  Solvation  Ediel_sol  =         0.00000000
  ---------------------------------------------------
  free energy    TOTEN  =        -0.01878605 eV

  energy without entropy =        0.01745166  energy(sigma->0) =       -0.00066720


--------------------------------------------------------------------------------------------------------




--------------------------------------- Iteration      1(   4)  ---------------------------------------


     EDDAV:  cpu time     40.4467: real time     40.4547
       DOS:  cpu time      0.0010: real time      0.0010
    --------------------------------------------
      LOOP:  cpu time     40.4476: real time     40.4557

 eigenvalue-minimisations  :  2800
 total energy-change (2. order) :-0.3777697E-01  (-0.2229192E-01)
 number of electron       3.0000000 magnetization 
 augmentation part        3.0000000 magnetization 

 Free energy of the ion-electron system (eV)
  ---------------------------------------------------
  alpha Z        PSCENC =         0.02038373
  Ewald energy   TEWEN  =       -11.82901664
  -Hartree energ DENC   =       -42.58396533
  -exchange      EXHF   =         0.00000000
  -V(xc)+E(xc)   XCENC  =         4.75549664
  PAW double counting   =        43.49986551      -42.64454556
  entropy T*S    EENTRO =        -0.05292530
  eigenvalues    EBANDS =       -22.39118837
  atomic energy  EATOM  =        71.16933231
  Solvation  Ediel_sol  =         0.00000000
  ---------------------------------------------------
  free energy    TOTEN  =        -0.05656302 eV

  energy without entropy =       -0.00363772  energy(sigma->0) =       -0.03010037


--------------------------------------------------------------------------------------------------------




--------------------------------------- Iteration      1(   5)  ---------------------------------------


     EDDAV:  cpu time     49.1138: real time     49.1236
       DOS:  cpu time      0.0009: real time      0.0009
    CHARGE:  cpu time      3.9711: real time      3.9987
    MIXING:  cpu time      0.0386: real time      0.0452
    --------------------------------------------
      LOOP:  cpu time     53.1244: real time     53.1684

 eigenvalue-minimisations  :  3720
 total energy-change (2. order) :-0.1640819E-02  (-0.1570663E-02)
 number of electron       3.0000000 magnetization 
 augmentation part       -0.0946087 magnetization 

 Broyden mixing:
  rms(total) = 0.93469E-03    rms(broyden)= 0.88004E-03
  rms(prec ) = 0.90310E-03
  weight for this iteration     100.00

 Free energy of the ion-electron system (eV)
  ---------------------------------------------------
  alpha Z        PSCENC =         0.02038373
  Ewald energy   TEWEN  =       -11.82901664
  -Hartree energ DENC   =       -42.58396533
  -exchange      EXHF   =         0.00000000
  -V(xc)+E(xc)   XCENC  =         4.75549664
  PAW double counting   =        43.49986551      -42.64454556
  entropy T*S    EENTRO =        -0.05300118
  eigenvalues    EBANDS =       -22.39275330
  atomic energy  EATOM  =        71.16933231
  Solvation  Ediel_sol  =         0.00000000
  ---------------------------------------------------
  free energy    TOTEN  =        -0.05820384 eV

  energy without entropy =       -0.00520265  energy(sigma->0) =       -0.03170324


--------------------------------------------------------------------------------------------------------




--------------------------------------- Iteration      1(   6)  ---------------------------------------


    POTLOK:  cpu time      1.0546: real time      1.0553
    SETDIJ:  cpu time      0.0013: real time      0.0013
     EDDAV:  cpu time     53.2559: real time     53.2673
       DOS:  cpu time      0.0010: real time      0.0010
    CHARGE:  cpu time      3.9530: real time      3.9568
    MIXING:  cpu time      0.0316: real time      0.0377
    --------------------------------------------
      LOOP:  cpu time     58.2975: real time     58.3195

 eigenvalue-minimisations  :  4168
 total energy-change (2. order) :-0.5603133E-04  (-0.5550769E-04)
 number of electron       3.0000000 magnetization 
 augmentation part       -0.0945739 magnetization 

 Broyden mixing:
  rms(total) = 0.52202E-03    rms(broyden)= 0.51841E-03
  rms(prec ) = 0.52955E-03
  weight for this iteration     100.00

 eigenvalues of (default mixing * dielectric matrix)
  average eigenvalue GAMMA=   1.5755
  1.5755

 Free energy of the ion-electron system (eV)
  ---------------------------------------------------
  alpha Z        PSCENC =         0.02038373
  Ewald energy   TEWEN  =       -11.82901664
  -Hartree energ DENC   =       -42.58090621
  -exchange      EXHF   =         0.00000000
  -V(xc)+E(xc)   XCENC  =         4.75511170
  PAW double counting   =        43.55509284      -42.69977580
  entropy T*S    EENTRO =        -0.05300134
  eigenvalues    EBANDS =       -22.39548045
  atomic energy  EATOM  =        71.16933231
  Solvation  Ediel_sol  =         0.00000000
  ---------------------------------------------------
  free energy    TOTEN  =        -0.05825987 eV

  energy without entropy =       -0.00525853  energy(sigma->0) =       -0.03175920


--------------------------------------------------------------------------------------------------------




--------------------------------------- Iteration      1(   7)  ---------------------------------------


    POTLOK:  cpu time      1.0396: real time      1.0401
    SETDIJ:  cpu time      0.0015: real time      0.0015
     EDDAV:  cpu time     55.0033: real time     55.0158
       DOS:  cpu time      0.0010: real time      0.0010
    CHARGE:  cpu time      3.8174: real time      3.8215
    MIXING:  cpu time      0.0312: real time      0.0334
    --------------------------------------------
      LOOP:  cpu time     59.8940: real time     59.9133

 eigenvalue-minimisations  :  4392
 total energy-change (2. order) :-0.1930723E-05  (-0.1045711E-05)
 number of electron       3.0000000 magnetization 
 augmentation part       -0.0945707 magnetization 

 Broyden mixing:
  rms(total) = 0.25122E-03    rms(broyden)= 0.25090E-03
  rms(prec ) = 0.25569E-03
  weight for this iteration     100.00

 eigenvalues of (default mixing * dielectric matrix)
  average eigenvalue GAMMA=   1.6994
  0.9142  2.4847

 Free energy of the ion-electron system (eV)
  ---------------------------------------------------
  alpha Z        PSCENC =         0.02038373
  Ewald energy   TEWEN  =       -11.82901664
  -Hartree energ DENC   =       -42.58267727
  -exchange      EXHF   =         0.00000000
  -V(xc)+E(xc)   XCENC  =         4.75522066
  PAW double counting   =        43.60240238      -42.74716914
  entropy T*S    EENTRO =        -0.05300134
  eigenvalues    EBANDS =       -22.39373648
  atomic energy  EATOM  =        71.16933231
  Solvation  Ediel_sol  =         0.00000000
  ---------------------------------------------------
  free energy    TOTEN  =        -0.05826180 eV

  energy without entropy =       -0.00526046  energy(sigma->0) =       -0.03176113


--------------------------------------------------------------------------------------------------------




--------------------------------------- Iteration      1(   8)  ---------------------------------------


    POTLOK:  cpu time      1.0022: real time      1.0027
    SETDIJ:  cpu time      0.0013: real time      0.0013
     EDDAV:  cpu time     50.4137: real time     50.4234
       DOS:  cpu time      0.0011: real time      0.0011
    CHARGE:  cpu time      3.7903: real time      3.7940
    MIXING:  cpu time      0.0290: real time      0.0304
    --------------------------------------------
      LOOP:  cpu time     55.2376: real time     55.2529

 eigenvalue-minimisations  :  3968
 total energy-change (2. order) :-0.2772914E-05  (-0.4800871E-07)
 number of electron       3.0000000 magnetization 
 augmentation part       -0.0945688 magnetization 

 Broyden mixing:
  rms(total) = 0.37635E-04    rms(broyden)= 0.37537E-04
  rms(prec ) = 0.41048E-04
  weight for this iteration     100.00

 eigenvalues of (default mixing * dielectric matrix)
  average eigenvalue GAMMA=   1.4076
  2.5591  0.8318  0.8318

 Free energy of the ion-electron system (eV)
  ---------------------------------------------------
  alpha Z        PSCENC =         0.02038373
  Ewald energy   TEWEN  =       -11.82901664
  -Hartree energ DENC   =       -42.58419117
  -exchange      EXHF   =         0.00000000
  -V(xc)+E(xc)   XCENC  =         4.75531521
  PAW double counting   =        43.64576870      -42.79059850
  entropy T*S    EENTRO =        -0.05300134
  eigenvalues    EBANDS =       -22.39225687
  atomic energy  EATOM  =        71.16933231
  Solvation  Ediel_sol  =         0.00000000
  ---------------------------------------------------
  free energy    TOTEN  =        -0.05826457 eV

  energy without entropy =       -0.00526323  energy(sigma->0) =       -0.03176390


--------------------------------------------------------------------------------------------------------




--------------------------------------- Iteration      1(   9)  ---------------------------------------


    POTLOK:  cpu time      1.0117: real time      1.0122
    SETDIJ:  cpu time      0.0013: real time      0.0013
     EDDAV:  cpu time     56.1479: real time     56.1580
       DOS:  cpu time      0.0012: real time      0.0012
    --------------------------------------------
      LOOP:  cpu time     57.1620: real time     57.1726

 eigenvalue-minimisations  :  4576
 total energy-change (2. order) : 0.5128086E-08  (-0.1259945E-08)
 number of electron       3.0000000 magnetization 
 augmentation part       -0.0945688 magnetization 

 Free energy of the ion-electron system (eV)
  ---------------------------------------------------
  alpha Z        PSCENC =         0.02038373
  Ewald energy   TEWEN  =       -11.82901664
  -Hartree energ DENC   =       -42.58415477
  -exchange      EXHF   =         0.00000000
  -V(xc)+E(xc)   XCENC  =         4.75531141
  PAW double counting   =        43.64833739      -42.79316342
  entropy T*S    EENTRO =        -0.05300134
  eigenvalues    EBANDS =       -22.39229323
  atomic energy  EATOM  =        71.16933231
  Solvation  Ediel_sol  =         0.00000000
  ---------------------------------------------------
  free energy    TOTEN  =        -0.05826457 eV

  energy without entropy =       -0.00526323  energy(sigma->0) =       -0.03176390


--------------------------------------------------------------------------------------------------------




 average (electrostatic) potential at core
  the test charge radii are     0.7672
  (the norm of the test charge is              1.0000)
       1 -39.4290
 
 
 
 E-fermi :  -3.6069     XC(G=0):  -0.2658     alpha+bet : -0.0329

 val. band max:       -9.4098200259   @ k =   0.0500   0.4643   0.0000
 cond. band min:      -3.5727658912   @ k =   0.0500   0.4643   0.3333
 fundamental gap:      5.8370541347
 Fermi energy:        -3.6068554664

 k-point     1 :       0.0500    0.0357    0.0000
  band No.  band energies     occupation 
      1      -9.4098      2.00000
      2      -3.5727      0.33346
[...]
      3      -3.5726      0.33327
      4      -3.5726      0.33321
      5      -0.0568      0.00000
      6       0.2319      0.00000
      7       0.3373      0.00000
      8       0.3682      0.00000

 k-point   140 :       0.4500    0.4643    0.3333
  band No.  band energies     occupation 
      1      -9.4098      2.00000
      2      -3.5728      0.33491
      3      -3.5726      0.33330
      4      -3.5726      0.33321
      5      -0.0434      0.00000
      6       0.2592      0.00000
      7       0.3090      0.00000
      8       0.3888      0.00000

 k-point   141 :       0.0500    0.0357    0.4444
  band No.  band energies     occupation 
      1      -9.4098      2.00000
      2      -3.5727      0.33345
      3      -3.5727      0.33334
      4      -3.5725      0.33175
      5      -0.2323      0.00000
      6       0.0657      0.00000
      7       0.4687      0.00000
      8       0.6048      0.00000

 k-point   142 :       0.1500    0.0357    0.4444
  band No.  band energies     occupation 
      1      -9.4098      2.00000
      2      -3.5727      0.33346
      3      -3.5727      0.33339
      4      -3.5725      0.33175
      5      -0.2231      0.00000
      6       0.0784      0.00000
      7       0.3612      0.00000
      8       0.5423      0.00000

 k-point   143 :       0.2500    0.0357    0.4444
  band No.  band energies     occupation 
      1      -9.4098      2.00000
      2      -3.5727      0.33346
      3      -3.5727      0.33346
      4      -3.5725      0.33175
      5      -0.2062      0.00000
      6       0.1033      0.00000
      7       0.2679      0.00000
      8       0.4411      0.00000

 k-point   144 :       0.3500    0.0357    0.4444
  band No.  band energies     occupation 
      1      -9.4098      2.00000
      2      -3.5727      0.33353
      3      -3.5727      0.33345
      4      -3.5725      0.33174
      5      -0.1862      0.00000
      6       0.1392      0.00000
      7       0.1968      0.00000
      8       0.3534      0.00000

 k-point   145 :       0.4500    0.0357    0.4444
  band No.  band energies     occupation 
      1      -9.4098      2.00000
      2      -3.5727      0.33356
      3      -3.5727      0.33345
      4      -3.5725      0.33174
      5      -0.1713      0.00000
      6       0.1533      0.00000
      7       0.1829      0.00000
      8       0.2866      0.00000

 k-point   146 :       0.0500    0.1071    0.4444
  band No.  band energies     occupation 
      1      -9.4098      2.00000
      2      -3.5727      0.33343
      3      -3.5727      0.33332
      4      -3.5726      0.33207
      5      -0.2233      0.00000
      6       0.0752      0.00000
      7       0.4766      0.00000
      8       0.5899      0.00000

 k-point   147 :       0.1500    0.1071    0.4444
  band No.  band energies     occupation 
      1      -9.4098      2.00000
      2      -3.5727      0.33343
      3      -3.5727      0.33335
      4      -3.5726      0.33207
      5      -0.2141      0.00000
      6       0.0879      0.00000
      7       0.3698      0.00000
      8       0.5514      0.00000

 k-point   148 :       0.2500    0.1071    0.4444
  band No.  band energies     occupation 
      1      -9.4098      2.00000
      2      -3.5727      0.33344
      3      -3.5727      0.33344
      4      -3.5726      0.33206
      5      -0.1973      0.00000
      6       0.1128      0.00000
      7       0.2769      0.00000
      8       0.4506      0.00000

 k-point   149 :       0.3500    0.1071    0.4444
  band No.  band energies     occupation 
      1      -9.4098      2.00000
      2      -3.5727      0.33350
      3      -3.5727      0.33343
      4      -3.5726      0.33206
      5      -0.1772      0.00000
      6       0.1486      0.00000
      7       0.2059      0.00000
      8       0.3630      0.00000

 k-point   150 :       0.4500    0.1071    0.4444
  band No.  band energies     occupation 
      1      -9.4098      2.00000
      2      -3.5727      0.33354
      3      -3.5727      0.33343
      4      -3.5726      0.33206
      5      -0.1624      0.00000
      6       0.1625      0.00000
      7       0.1922      0.00000
      8       0.2963      0.00000

 k-point   151 :       0.0500    0.1786    0.4444
  band No.  band energies     occupation 
      1      -9.4098      2.00000
      2      -3.5727      0.33339
      3      -3.5726      0.33328
      4      -3.5726      0.33263
      5      -0.2057      0.00000
      6       0.0942      0.00000
      7       0.4761      0.00000
      8       0.5075      0.00000

 k-point   152 :       0.1500    0.1786    0.4444
  band No.  band energies     occupation 
      1      -9.4098      2.00000
      2      -3.5727      0.33339
      3      -3.5727      0.33331
      4      -3.5726      0.33262
      5      -0.1964      0.00000
      6       0.1069      0.00000
      7       0.3860      0.00000
      8       0.5039      0.00000

 k-point   153 :       0.2500    0.1786    0.4444
  band No.  band energies     occupation 
      1      -9.4098      2.00000
      2      -3.5727      0.33340
      3      -3.5727      0.33339
      4      -3.5726      0.33263
      5      -0.1797      0.00000
      6       0.1318      0.00000
      7       0.2944      0.00000
      8       0.4693      0.00000

 k-point   154 :       0.3500    0.1786    0.4444
  band No.  band energies     occupation 
      1      -9.4098      2.00000
      2      -3.5727      0.33346
      3      -3.5727      0.33339
      4      -3.5726      0.33263
      5      -0.1598      0.00000
      6       0.1675      0.00000
      7       0.2240      0.00000
      8       0.3820      0.00000

 k-point   155 :       0.4500    0.1786    0.4444
  band No.  band energies     occupation 
      1      -9.4098      2.00000
      2      -3.5727      0.33349
      3      -3.5727      0.33339
      4      -3.5726      0.33264
      5      -0.1450      0.00000
      6       0.1809      0.00000
      7       0.2108      0.00000
      8       0.3157      0.00000

 k-point   156 :       0.0500    0.2500    0.4444
  band No.  band energies     occupation 
      1      -9.4098      2.00000
      2      -3.5727      0.33334
      3      -3.5727      0.33333
      4      -3.5726      0.33323
      5      -0.1803      0.00000
      6       0.1226      0.00000
      7       0.3860      0.00000
      8       0.5234      0.00000

 k-point   157 :       0.1500    0.2500    0.4444
  band No.  band energies     occupation 
      1      -9.4098      2.00000
      2      -3.5727      0.33334
      3      -3.5727      0.33333
      4      -3.5726      0.33326
      5      -0.1711      0.00000
      6       0.1352      0.00000
      7       0.3856      0.00000
      8       0.4302      0.00000

 k-point   158 :       0.2500    0.2500    0.4444
  band No.  band energies     occupation 
      1      -9.4098      2.00000
      2      -3.5727      0.33335
      3      -3.5727      0.33334
      4      -3.5727      0.33331
      5      -0.1545      0.00000
      6       0.1601      0.00000
      7       0.3190      0.00000
      8       0.4243      0.00000

 k-point   159 :       0.3500    0.2500    0.4444
  band No.  band energies     occupation 
      1      -9.4098      2.00000
      2      -3.5727      0.33340
      3      -3.5727      0.33335
      4      -3.5727      0.33334
      5      -0.1348      0.00000
      6       0.1956      0.00000
      7       0.2506      0.00000
      8       0.4104      0.00000

 k-point   160 :       0.4500    0.2500    0.4444
  band No.  band energies     occupation 
      1      -9.4098      2.00000
      2      -3.5727      0.33344
      3      -3.5727      0.33334
      4      -3.5727      0.33333
      5      -0.1202      0.00000
      6       0.2081      0.00000
      7       0.2385      0.00000
      8       0.3447      0.00000

 k-point   161 :       0.0500    0.3214    0.4444
  band No.  band energies     occupation 
      1      -9.4098      2.00000
      2      -3.5727      0.33406
      3      -3.5726      0.33330
      4      -3.5726      0.33318
      5      -0.1492      0.00000
      6       0.1601      0.00000
      7       0.2992      0.00000
      8       0.5031      0.00000

 k-point   162 :       0.1500    0.3214    0.4444
  band No.  band energies     occupation 
      1      -9.4098      2.00000
      2      -3.5727      0.33405
      3      -3.5726      0.33329
      4      -3.5726      0.33322
      5      -0.1401      0.00000
      6       0.1726      0.00000
      7       0.3087      0.00000
      8       0.4535      0.00000

 k-point   163 :       0.2500    0.3214    0.4444
  band No.  band energies     occupation 
      1      -9.4098      2.00000
      2      -3.5727      0.33404
      3      -3.5726      0.33329
      4      -3.5726      0.33328
      5      -0.1238      0.00000
      6       0.1974      0.00000
      7       0.3212      0.00000
      8       0.3693      0.00000

 k-point   164 :       0.3500    0.3214    0.4444
  band No.  band energies     occupation 
      1      -9.4098      2.00000
      2      -3.5727      0.33403
      3      -3.5727      0.33334
      4      -3.5726      0.33329
      5      -0.1044      0.00000
      6       0.2326      0.00000
      7       0.2839      0.00000
      8       0.3623      0.00000

 k-point   165 :       0.4500    0.3214    0.4444
  band No.  band energies     occupation 
      1      -9.4098      2.00000
      2      -3.5727      0.33403
      3      -3.5727      0.33338
      4      -3.5726      0.33329
      5      -0.0902      0.00000
      6       0.2436      0.00000
      7       0.2749      0.00000
      8       0.3821      0.00000

 k-point   166 :       0.0500    0.3929    0.4444
  band No.  band energies     occupation 
      1      -9.4098      2.00000
      2      -3.5727      0.33463
      3      -3.5726      0.33325
      4      -3.5726      0.33314
      5      -0.1170      0.00000
      6       0.2044      0.00000
      7       0.2308      0.00000
      8       0.4202      0.00000

 k-point   167 :       0.1500    0.3929    0.4444
  band No.  band energies     occupation 
      1      -9.4098      2.00000
      2      -3.5727      0.33464
      3      -3.5726      0.33325
      4      -3.5726      0.33318
      5      -0.1081      0.00000
      6       0.2167      0.00000
      7       0.2415      0.00000
      8       0.4327      0.00000

 k-point   168 :       0.2500    0.3929    0.4444
  band No.  band energies     occupation 
      1      -9.4098      2.00000
      2      -3.5727      0.33462
      3      -3.5726      0.33324
      4      -3.5726      0.33323
      5      -0.0922      0.00000
      6       0.2408      0.00000
      7       0.2620      0.00000
      8       0.4008      0.00000

 k-point   169 :       0.3500    0.3929    0.4444
  band No.  band energies     occupation 
      1      -9.4098      2.00000
      2      -3.5727      0.33460
      3      -3.5726      0.33329
      4      -3.5726      0.33325
      5      -0.0734      0.00000
      6       0.2734      0.00000
      7       0.2893      0.00000
      8       0.3329      0.00000

 k-point   170 :       0.4500    0.3929    0.4444
  band No.  band energies     occupation 
      1      -9.4098      2.00000
      2      -3.5727      0.33459
      3      -3.5727      0.33333
      4      -3.5726      0.33325
      5      -0.0598      0.00000
      6       0.2844      0.00000
      7       0.3117      0.00000
      8       0.3209      0.00000

 k-point   171 :       0.0500    0.4643    0.4444
  band No.  band energies     occupation 
      1      -9.4098      2.00000
      2      -3.5728      0.33494
      3      -3.5726      0.33323
      4      -3.5726      0.33311
      5      -0.0939      0.00000
      6       0.1862      0.00000
      7       0.2555      0.00000
      8       0.3529      0.00000

 k-point   172 :       0.1500    0.4643    0.4444
  band No.  band energies     occupation 
      1      -9.4098      2.00000
      2      -3.5728      0.33493
      3      -3.5726      0.33322
      4      -3.5726      0.33316
      5      -0.0852      0.00000
      6       0.1972      0.00000
      7       0.2677      0.00000
      8       0.3658      0.00000

 k-point   173 :       0.2500    0.4643    0.4444
  band No.  band energies     occupation 
      1      -9.4098      2.00000
      2      -3.5728      0.33493
      3      -3.5726      0.33322
      4      -3.5726      0.33321
      5      -0.0697      0.00000
      6       0.2183      0.00000
      7       0.2916      0.00000
      8       0.3914      0.00000

 k-point   174 :       0.3500    0.4643    0.4444
  band No.  band energies     occupation 
      1      -9.4098      2.00000
      2      -3.5728      0.33492
      3      -3.5726      0.33327
      4      -3.5726      0.33322
      5      -0.0517      0.00000
      6       0.2464      0.00000
      7       0.3251      0.00000
      8       0.3663      0.00000

 k-point   175 :       0.4500    0.4643    0.4444
  band No.  band energies     occupation 
      1      -9.4098      2.00000
      2      -3.5728      0.33491
      3      -3.5726      0.33330
      4      -3.5726      0.33323
      5      -0.0387      0.00000
      6       0.2715      0.00000
      7       0.3257      0.00000
      8       0.3616      0.00000


--------------------------------------------------------------------------------------------------------


 soft charge-density along one line, spin component           1
         0         1         2         3         4         5         6         7         8         9
 total charge-density along one line
 
 pseudopotential strength for first ion, spin component:           1
  6.996  10.697  -0.000  -0.000  -0.000  -0.000  -0.000  -0.000
 10.697  16.352  -0.000  -0.000  -0.000  -0.000  -0.000  -0.000
 -0.000  -0.000  -2.483  -0.000  -0.000  -4.297  -0.000  -0.000
 -0.000  -0.000  -0.000  -2.483  -0.000  -0.000  -4.297  -0.000
 -0.000  -0.000  -0.000  -0.000  -2.483  -0.000  -0.000  -4.297
 -0.000  -0.000  -4.297  -0.000  -0.000  -7.240  -0.000  -0.000
 -0.000  -0.000  -0.000  -4.297  -0.000  -0.000  -7.240  -0.000
 -0.000  -0.000  -0.000  -0.000  -4.297  -0.000  -0.000  -7.240
 total augmentation occupancy for first ion, spin component:           1
  2.016  -0.005   0.000   0.000   0.000   0.000   0.000   0.000
 -0.005   0.000   0.000   0.000   0.000   0.000   0.000   0.000
  0.000   0.000   0.332   0.000   0.000   0.001   0.000   0.000
  0.000   0.000   0.000   0.332   0.000   0.000   0.001   0.000
  0.000   0.000   0.000   0.000   0.332   0.000   0.000   0.001
  0.000   0.000   0.001   0.000   0.000   0.000   0.000   0.000
  0.000   0.000   0.000   0.001   0.000   0.000   0.000   0.000
  0.000   0.000   0.000   0.000   0.001   0.000   0.000   0.000


------------------------ aborting loop because EDIFF is reached ----------------------------------------


    CHARGE:  cpu time      3.8227: real time      3.8284
    FORLOC:  cpu time      0.0368: real time      0.0379
    FORNL :  cpu time      0.9515: real time      0.9557
    STRESS:  cpu time     41.7430: real time     41.7562
    FORCOR:  cpu time      1.0556: real time      1.0566
    FORHAR:  cpu time      0.2632: real time      0.2643
    MIXING:  cpu time      0.0352: real time      0.0353
    OFIELD:  cpu time      0.0001: real time      0.0008

  FORCE on cell =-STRESS in cart. coord.  units (eV):
  Direction    XX          YY          ZZ          XY          YZ          ZX
  --------------------------------------------------------------------------------------
  Alpha Z     0.02038     0.02038     0.02038
  Ewald      -3.85600    -1.56275    -6.41027     0.00000    -0.00000    -0.00000
  Hartree    14.28937    16.49873    11.79582    -0.00000    -0.00000    -0.00000
  E(xc)      -7.33247    -7.33247    -7.33247     0.00000     0.00000    -0.00000
  Local     -32.28946   -36.79211   -27.24162     0.00000     0.00000     0.00000
  n-local     6.85262     6.85261     6.85263    -0.00001    -0.00000     0.00000
  augment     0.68459     0.68459     0.68457     0.00001    -0.00000     0.00000
  Kinetic    21.62903    21.62907    21.62899     0.00006     0.00001    -0.00000
  Fock        0.00000     0.00000     0.00000     0.00000     0.00000     0.00000
  -------------------------------------------------------------------------------------
  Total      -0.00194    -0.00194    -0.00196    -0.00000     0.00000     0.00000
  in kB      -0.00092    -0.00092    -0.00093    -0.00000     0.00000     0.00000
  external pressure =       -0.00 kB  Pullay stress =        0.00 kB


 VOLUME and BASIS-vectors are now :
 -----------------------------------------------------------------------------
  energy-cutoff  :      540.00
  volume of cell :     3375.00
      direct lattice vectors                 reciprocal lattice vectors
    15.000000000  0.000000000  0.000000000     0.066666667  0.000000000  0.000000000
     0.000000000 12.500000000  0.000000000     0.000000000  0.080000000  0.000000000
     0.000000000  0.000000000 18.000000000     0.000000000  0.000000000  0.055555556

  length of vectors
    15.000000000 12.500000000 18.000000000     0.066666667  0.080000000  0.055555556


 FORCES acting on ions
    electron-ion (+dipol)            ewald-force                    non-local-force                 convergence-correction
 -----------------------------------------------------------------------------------------------
   0.173E-06 0.176E-05 0.412E-05   0.332E-17 -.449E-17 -.121E-17   0.265E-22 0.529E-22 0.212E-21   -.120E-07 -.173E-07 -.330E-07
 -----------------------------------------------------------------------------------------------
   0.173E-06 0.176E-05 0.412E-05   0.332E-17 -.449E-17 -.121E-17   0.265E-22 0.529E-22 0.212E-21   -.120E-07 -.173E-07 -.330E-07
 
 
 POSITION                                       TOTAL-FORCE (eV/Angst)
 -----------------------------------------------------------------------------------
      7.81845      6.81250     11.48328         0.000000      0.000000      0.000000
 -----------------------------------------------------------------------------------
    total drift:                                0.000000      0.000002      0.000004


--------------------------------------------------------------------------------------------------------



  FREE ENERGIE OF THE ION-ELECTRON SYSTEM (eV)
  ---------------------------------------------------
  free  energy   TOTEN  =        -0.05826457 eV

  energy  without entropy=       -0.00526323  energy(sigma->0) =       -0.03176390
 


--------------------------------------------------------------------------------------------------------


    POTLOK:  cpu time      1.0764: real time      1.0798


--------------------------------------------------------------------------------------------------------


     LOOP+:  cpu time    524.1262: real time    525.9454
    4ORBIT:  cpu time      0.0000: real time      0.0000

 total amount of memory used by VASP MPI-rank0  1582265. kBytes
=======================================================================

   base      :      30000. kBytes
   nonl-proj :    1079338. kBytes
   fftplans  :      60973. kBytes
   grid      :     142479. kBytes
   one-center:          3. kBytes
   wavefun   :     269472. kBytes
 
  
  
 General timing and accounting informations for this job:
 ========================================================
  
                  Total CPU time used (sec):      553.052
                            User time (sec):      543.094
                          System time (sec):        9.958
                         Elapsed time (sec):      605.268
  
                   Maximum memory used (kb):     2321412.
                   Average memory used (kb):          N/A
  
                          Minor page faults:      5165011
                          Major page faults:        67022
                 Voluntary context switches:       145939
