  14  14   0   0
  0.1021347E+02  0.5695861E-09  0.4047090E-09  0.6202959E-09  0.5000000E-15
  1.000000000000000E-004
  CAR 
 Convergence                             
     17.98515724    -14.18795771  301      1.88758271      1.00000000
    -14.188  0.0000E+00  0.0000E+00
    -14.081  0.0000E+00  0.0000E+00
    -13.973  0.0000E+00  0.0000E+00
    -13.866  0.0000E+00  0.0000E+00
    -13.759  0.0000E+00  0.0000E+00
    -13.652  0.0000E+00  0.0000E+00
    -13.544  0.0000E+00  0.0000E+00
    -13.437  0.0000E+00  0.0000E+00
    -13.330  0.0000E+00  0.0000E+00
    -13.223  0.0000E+00  0.0000E+00
    -13.116  0.0000E+00  0.0000E+00
    -13.008  0.4272E-16  0.4582E-17
    -12.901  0.2937E-07  0.3149E-08
    -12.794  0.3808E-02  0.4083E-03
    -12.687  0.5083E+00  0.5492E-01
    -12.579  0.2390E+01  0.3112E+00
    -12.472  0.3563E+01  0.6933E+00
    -12.365  0.4370E+01  0.1162E+01
    -12.258  0.3539E+01  0.1541E+01
    -12.150  0.2735E+01  0.1835E+01
    -12.043  0.2750E+01  0.2130E+01
    -11.936  0.2506E+01  0.2398E+01
    -11.829  0.2771E+01  0.2696E+01
    -11.721  0.3429E+01  0.3063E+01
    -11.614  0.3535E+01  0.3443E+01
    -11.507  0.3111E+01  0.3776E+01
    -11.400  0.1663E+01  0.3954E+01
    -11.292  0.4174E+00  0.3999E+01
    -11.185  0.7003E-02  0.4000E+01
    -11.078  0.1610E-06  0.4000E+01
    -10.971  0.8019E-15  0.4000E+01
    -10.863  0.0000E+00  0.4000E+01
    -10.756  0.0000E+00  0.4000E+01
    -10.649  0.0000E+00  0.4000E+01
    -10.542  0.0000E+00  0.4000E+01
    -10.434  0.0000E+00  0.4000E+01
    -10.327  0.0000E+00  0.4000E+01
    -10.220  0.0000E+00  0.4000E+01
    -10.113  0.0000E+00  0.4000E+01
    -10.005  0.0000E+00  0.4000E+01
     -9.898  0.0000E+00  0.4000E+01
     -9.791  0.0000E+00  0.4000E+01
     -9.684  0.0000E+00  0.4000E+01
     -9.576  0.0000E+00  0.4000E+01
     -9.469  0.0000E+00  0.4000E+01
     -9.362  0.0000E+00  0.4000E+01
     -9.255  0.0000E+00  0.4000E+01
     -9.148  0.0000E+00  0.4000E+01
     -9.040  0.9163E-09  0.4000E+01
     -8.933  0.6165E-03  0.4000E+01
     -8.826  0.2752E+00  0.4030E+01
     -8.719  0.2087E+01  0.4253E+01
     -8.611  0.5325E+01  0.4824E+01
     -8.504  0.6984E+01  0.5574E+01
     -8.397  0.6300E+01  0.6249E+01
     -8.290  0.5325E+01  0.6820E+01
     -8.182  0.4833E+01  0.7339E+01
     -8.075  0.3874E+01  0.7754E+01
     -7.968  0.1666E+01  0.7933E+01
     -7.861  0.5767E+00  0.7994E+01
     -7.753  0.5172E-01  0.8000E+01
     -7.646  0.2368E-04  0.8000E+01
     -7.539  0.2611E-11  0.8000E+01
     -7.432  0.0000E+00  0.8000E+01
     -7.324  0.0000E+00  0.8000E+01
     -7.217  0.0000E+00  0.8000E+01
     -7.110  0.4951E-09  0.8000E+01
     -7.003  0.4025E-03  0.8000E+01
     -6.895  0.1134E+00  0.8012E+01
     -6.788  0.2574E+00  0.8040E+01
     -6.681  0.4264E+00  0.8086E+01
     -6.574  0.7661E+00  0.8168E+01
     -6.466  0.8520E+00  0.8259E+01
     -6.359  0.1447E+01  0.8414E+01
     -6.252  0.1967E+01  0.8625E+01
     -6.145  0.3058E+01  0.8953E+01
     -6.037  0.3781E+01  0.9359E+01
     -5.930  0.4113E+01  0.9800E+01
     -5.823  0.4044E+01  0.1023E+02
     -5.716  0.3858E+01  0.1065E+02
     -5.608  0.4072E+01  0.1108E+02
     -5.501  0.4221E+01  0.1154E+02
     -5.394  0.4542E+01  0.1202E+02
     -5.287  0.4595E+01  0.1252E+02
     -5.179  0.4490E+01  0.1300E+02
     -5.072  0.3867E+01  0.1341E+02
     -4.965  0.3229E+01  0.1376E+02
     -4.858  0.2949E+01  0.1408E+02
     -4.751  0.2342E+01  0.1433E+02
     -4.643  0.2896E+01  0.1464E+02
     -4.536  0.3368E+01  0.1500E+02
     -4.429  0.3476E+01  0.1537E+02
     -4.322  0.3327E+01  0.1573E+02
     -4.214  0.2953E+01  0.1604E+02
     -4.107  0.2907E+01  0.1636E+02
     -4.000  0.2948E+01  0.1667E+02
     -3.893  0.2857E+01  0.1698E+02
     -3.785  0.3121E+01  0.1731E+02
     -3.678  0.2871E+01  0.1762E+02
     -3.571  0.2705E+01  0.1791E+02
     -3.464  0.3063E+01  0.1824E+02
     -3.356  0.2634E+01  0.1852E+02
     -3.249  0.2867E+01  0.1883E+02
     -3.142  0.2736E+01  0.1912E+02
     -3.035  0.2744E+01  0.1942E+02
     -2.927  0.3039E+01  0.1974E+02
     -2.820  0.2973E+01  0.2006E+02
     -2.713  0.2428E+01  0.2032E+02
     -2.606  0.2660E+01  0.2061E+02
     -2.498  0.3022E+01  0.2093E+02
     -2.391  0.2982E+01  0.2125E+02
     -2.284  0.3195E+01  0.2159E+02
     -2.177  0.4012E+01  0.2202E+02
     -2.069  0.3656E+01  0.2242E+02
     -1.962  0.3283E+01  0.2277E+02
     -1.855  0.5150E+01  0.2332E+02
     -1.748  0.5587E+01  0.2392E+02
     -1.640  0.5597E+01  0.2452E+02
     -1.533  0.6184E+01  0.2518E+02
     -1.426  0.6105E+01  0.2584E+02
     -1.319  0.5560E+01  0.2643E+02
     -1.211  0.4684E+01  0.2694E+02
     -1.104  0.6496E+01  0.2763E+02
     -0.997  0.3945E+01  0.2806E+02
     -0.890  0.2268E+01  0.2830E+02
     -0.782  0.2698E+01  0.2859E+02
     -0.675  0.2880E+01  0.2890E+02
     -0.568  0.4539E+01  0.2938E+02
     -0.461  0.6869E+01  0.3012E+02
     -0.354  0.5655E+01  0.3073E+02
     -0.246  0.6715E+01  0.3145E+02
     -0.139  0.6358E+01  0.3213E+02
     -0.032  0.6748E+01  0.3285E+02
      0.075  0.6742E+01  0.3358E+02
      0.183  0.6309E+01  0.3425E+02
      0.290  0.8799E+01  0.3520E+02
      0.397  0.7964E+01  0.3605E+02
      0.504  0.8700E+01  0.3698E+02
      0.612  0.5218E+01  0.3754E+02
      0.719  0.2922E+01  0.3786E+02
      0.826  0.3303E+01  0.3821E+02
      0.933  0.3587E+01  0.3860E+02
      1.041  0.3555E+01  0.3898E+02
      1.148  0.2789E+01  0.3928E+02
      1.255  0.3397E+01  0.3964E+02
      1.362  0.4500E+01  0.4012E+02
      1.470  0.3772E+01  0.4053E+02
      1.577  0.3729E+01  0.4093E+02
      1.684  0.4573E+01  0.4142E+02
      1.791  0.3208E+01  0.4176E+02
      1.899  0.2481E+01  0.4203E+02
      2.006  0.2656E+01  0.4231E+02
      2.113  0.2093E+01  0.4254E+02
      2.220  0.2653E+01  0.4282E+02
      2.328  0.2564E+01  0.4310E+02
      2.435  0.1928E+01  0.4330E+02
      2.542  0.8410E+00  0.4339E+02
      2.649  0.3782E+00  0.4343E+02
      2.757  0.5717E+00  0.4350E+02
      2.864  0.4194E+00  0.4354E+02
      2.971  0.3056E+00  0.4357E+02
      3.078  0.7638E+00  0.4366E+02
      3.186  0.1012E+01  0.4376E+02
      3.293  0.5303E+00  0.4382E+02
      3.400  0.1231E-01  0.4382E+02
      3.507  0.1338E+00  0.4384E+02
      3.614  0.3966E+00  0.4388E+02
      3.722  0.3278E+00  0.4391E+02
      3.829  0.3742E+00  0.4395E+02
      3.936  0.3993E+00  0.4400E+02
      4.043  0.2539E-01  0.4400E+02
      4.151  0.3399E-04  0.4400E+02
      4.258  0.3371E-01  0.4400E+02
      4.365  0.1782E+00  0.4402E+02
      4.472  0.4044E+00  0.4407E+02
      4.580  0.4746E+00  0.4412E+02
      4.687  0.6365E+00  0.4419E+02
      4.794  0.8912E+00  0.4428E+02
      4.901  0.8426E+00  0.4437E+02
      5.009  0.8566E+00  0.4446E+02
      5.116  0.1280E+01  0.4460E+02
      5.223  0.1149E+01  0.4472E+02
      5.330  0.1639E+01  0.4490E+02
      5.438  0.2198E+01  0.4514E+02
      5.545  0.2485E+01  0.4540E+02
      5.652  0.2787E+01  0.4570E+02
      5.759  0.3379E+01  0.4606E+02
      5.867  0.3213E+01  0.4641E+02
      5.974  0.4324E+01  0.4687E+02
      6.081  0.4749E+01  0.4738E+02
      6.188  0.4040E+01  0.4781E+02
      6.296  0.4626E+01  0.4831E+02
      6.403  0.4132E+01  0.4875E+02
      6.510  0.4028E+01  0.4918E+02
      6.617  0.4471E+01  0.4966E+02
      6.725  0.3224E+01  0.5001E+02
      6.832  0.4004E+01  0.5044E+02
      6.939  0.4613E+01  0.5093E+02
      7.046  0.4546E+01  0.5142E+02
      7.154  0.4341E+01  0.5189E+02
      7.261  0.5604E+01  0.5249E+02
      7.368  0.4911E+01  0.5301E+02
      7.475  0.4448E+01  0.5349E+02
      7.583  0.4184E+01  0.5394E+02
      7.690  0.3562E+01  0.5432E+02
      7.797  0.3128E+01  0.5466E+02
      7.904  0.3006E+01  0.5498E+02
      8.011  0.2981E+01  0.5530E+02
      8.119  0.4169E+01  0.5575E+02
      8.226  0.3882E+01  0.5616E+02
      8.333  0.3681E+01  0.5656E+02
      8.440  0.3988E+01  0.5699E+02
      8.548  0.4209E+01  0.5744E+02
      8.655  0.4452E+01  0.5791E+02
      8.762  0.4211E+01  0.5837E+02
      8.869  0.5252E+01  0.5893E+02
      8.977  0.4964E+01  0.5946E+02
      9.084  0.5293E+01  0.6003E+02
      9.191  0.5240E+01  0.6059E+02
      9.298  0.4963E+01  0.6112E+02
      9.406  0.4694E+01  0.6163E+02
      9.513  0.4364E+01  0.6210E+02
      9.620  0.5106E+01  0.6264E+02
      9.727  0.5025E+01  0.6318E+02
      9.835  0.5303E+01  0.6375E+02
      9.942  0.4477E+01  0.6423E+02
     10.049  0.3628E+01  0.6462E+02
     10.156  0.5174E+01  0.6517E+02
     10.264  0.4714E+01  0.6568E+02
     10.371  0.4110E+01  0.6612E+02
     10.478  0.5429E+01  0.6670E+02
     10.585  0.5806E+01  0.6733E+02
     10.693  0.4063E+01  0.6776E+02
     10.800  0.3881E+01  0.6818E+02
     10.907  0.3230E+01  0.6852E+02
     11.014  0.4665E+01  0.6902E+02
     11.122  0.5494E+01  0.6961E+02
     11.229  0.6175E+01  0.7028E+02
     11.336  0.5991E+01  0.7092E+02
     11.443  0.5299E+01  0.7149E+02
     11.551  0.4284E+01  0.7195E+02
     11.658  0.4473E+01  0.7243E+02
     11.765  0.4926E+01  0.7295E+02
     11.872  0.4803E+01  0.7347E+02
     11.980  0.6040E+01  0.7412E+02
     12.087  0.5953E+01  0.7476E+02
     12.194  0.5978E+01  0.7540E+02
     12.301  0.5626E+01  0.7600E+02
     12.408  0.5011E+01  0.7654E+02
     12.516  0.5681E+01  0.7715E+02
     12.623  0.5993E+01  0.7779E+02
     12.730  0.6033E+01  0.7844E+02
     12.837  0.5879E+01  0.7907E+02
     12.945  0.5859E+01  0.7969E+02
     13.052  0.5592E+01  0.8029E+02
     13.159  0.6348E+01  0.8098E+02
     13.266  0.6257E+01  0.8165E+02
     13.374  0.5377E+01  0.8222E+02
     13.481  0.6136E+01  0.8288E+02
     13.588  0.5328E+01  0.8345E+02
     13.695  0.4807E+01  0.8397E+02
     13.803  0.6121E+01  0.8462E+02
     13.910  0.5524E+01  0.8522E+02
     14.017  0.5341E+01  0.8579E+02
     14.124  0.5475E+01  0.8638E+02
     14.232  0.4688E+01  0.8688E+02
     14.339  0.4897E+01  0.8740E+02
     14.446  0.5027E+01  0.8794E+02
     14.553  0.4964E+01  0.8848E+02
     14.661  0.5272E+01  0.8904E+02
     14.768  0.5162E+01  0.8960E+02
     14.875  0.4091E+01  0.9003E+02
     14.982  0.5091E+01  0.9058E+02
     15.090  0.6193E+01  0.9124E+02
     15.197  0.5631E+01  0.9185E+02
     15.304  0.5666E+01  0.9246E+02
     15.411  0.6033E+01  0.9310E+02
     15.519  0.5729E+01  0.9372E+02
     15.626  0.5942E+01  0.9435E+02
     15.733  0.4588E+01  0.9485E+02
     15.840  0.2463E+01  0.9511E+02
     15.948  0.2705E+01  0.9540E+02
     16.055  0.1864E+01  0.9560E+02
     16.162  0.1147E+01  0.9572E+02
     16.269  0.8836E+00  0.9582E+02
     16.377  0.7040E+00  0.9589E+02
     16.484  0.8126E+00  0.9598E+02
     16.591  0.1770E+00  0.9600E+02
     16.698  0.1680E-02  0.9600E+02
     16.805  0.2051E-07  0.9600E+02
     16.913  0.3944E-16  0.9600E+02
     17.020  0.0000E+00  0.9600E+02
     17.127  0.0000E+00  0.9600E+02
     17.234  0.0000E+00  0.9600E+02
     17.342  0.0000E+00  0.9600E+02
     17.449  0.0000E+00  0.9600E+02
     17.556  0.0000E+00  0.9600E+02
     17.663  0.0000E+00  0.9600E+02
     17.771  0.0000E+00  0.9600E+02
     17.878  0.0000E+00  0.9600E+02
     17.985  0.0000E+00  0.9600E+02
