   14   14    1    1
  0.1021347E+02  0.5695861E-09  0.4047090E-09  0.6202959E-09  0.5000000E-15
  1.000000000000000E-004
  CAR 
 Convergence                             
     42    175     48
 
  0.5000000E-01  0.3571429E-01  0.0000000E+00  0.3174603E-02
      1        -12.725543   1.000000
      2        -11.583538   1.000000
      3         -8.657033   1.000000
      4         -8.420223   1.000000
      5         -6.061941   1.000000
      6         -5.128168   1.000000
      7         -4.663687   1.000000
      8         -4.273718   1.000000
      9         -4.031264   1.000000
     10         -3.541847   1.000000
     11         -2.590818   1.000000
     12         -2.321686   1.000000
     13         -1.830500   1.000000
     14         -1.093150   1.000000
     15         -0.067248   1.000000
     16         -0.037117   1.000000
     17          0.159553   1.000000
     18          0.181367   1.000000
     19          0.569043   1.000000
     20          2.022223   0.000070
     21          2.085386   0.000000
     22          2.221069   0.000000
     23          5.462630   0.000000
     24          5.753898   0.000000
     25          5.843314   0.000000
     26          5.963984   0.000000
     27          6.819848   0.000000
     28          7.553854   0.000000
     29          7.883460   0.000000
     30          8.542335   0.000000
     31          8.810334   0.000000
     32          8.956886   0.000000
     33          9.061133   0.000000
     34         10.128981   0.000000
     35         11.189292   0.000000
     36         11.342082   0.000000
     37         11.672634   0.000000
     38         11.789096   0.000000
     39         11.947469   0.000000
     40         12.409329   0.000000
     41         12.876531   0.000000
     42         13.460571   0.000000
     43         13.487807   0.000000
     44         15.391583   0.000000
     45         15.580166   0.000000
     46         16.071352   0.000000
     47         16.341793   0.000000
     48         16.365307   0.000000
 
  0.1500000E+00  0.3571429E-01  0.0000000E+00  0.3174603E-02
      1        -12.681790   1.000000
      2        -11.657320   1.000000
      3         -8.635960   1.000000
      4         -8.408722   1.000000
      5         -5.993694   1.000000
      6         -5.469504   1.000000
      7         -4.786428   1.000000
      8         -4.008021   1.000000
      9         -3.790322   1.000000
     10         -3.204053   1.000000
     11         -2.661116   1.000000
     12         -2.301554   1.000000
     13         -1.909311   1.000000
     14         -1.400163   1.000000
     15         -0.026889   1.000000
     16         -0.015146   1.000000
     17          0.096832   1.000000
     18          0.201493   1.000000
     19          0.473970   1.000000
     20          1.935972   0.085551
     21          2.007420   0.000350
     22          2.099790   0.000000
     23          5.551329   0.000000
     24          5.762773   0.000000
     25          5.870623   0.000000
     26          6.309843   0.000000
     27          6.734249   0.000000
     28          7.191882   0.000000
     29          8.093872   0.000000
     30          8.678677   0.000000
     31          9.067860   0.000000
     32          9.139274   0.000000
     33          9.211257   0.000000
     34         10.242543   0.000000
     35         10.949471   0.000000
     36         11.138035   0.000000
     37         11.262396   0.000000
     38         11.706089   0.000000
     39         12.164758   0.000000
     40         12.498975   0.000000
     41         13.129488   0.000000
     42         13.135938   0.000000
     43         14.019712   0.000000
     44         14.879474   0.000000
     45         15.759194   0.000000
     46         15.837651   0.000000
     47         16.236087   0.000000
     48         16.522743   0.000000
 
  0.2500000E+00  0.3571429E-01  0.0000000E+00  0.3174603E-02
      1        -12.596150   1.000000
      2        -11.790267   1.000000
      3         -8.592397   1.000000
      4         -8.394005   1.000000
      5         -5.972136   1.000000
      6         -5.796258   1.000000
      7         -4.740593   1.000000
      8         -3.880420   1.000000
      9         -3.279236   1.000000
     10         -2.830065   1.000000
     11         -2.711481   1.000000
     12         -2.261036   1.000000
     13         -2.020148   1.000000
     14         -1.904555   1.000000
     15         -0.215581   1.000000
     16          0.016984   1.000000
     17          0.146921   1.000000
     18          0.159849   1.000000
     19          0.443731   1.000000
     20          1.788353   0.997497
     21          1.869953   0.690983
     22          1.874622   0.643039
     23          5.672117   0.000000
     24          5.719325   0.000000
     25          6.179746   0.000000
     26          6.608114   0.000000
     27          6.768598   0.000000
     28          6.937215   0.000000
     29          8.245110   0.000000
     30          8.827047   0.000000
     31          9.008370   0.000000
     32          9.583317   0.000000
     33          9.655073   0.000000
     34         10.287860   0.000000
     35         10.493503   0.000000
     36         10.633513   0.000000
     37         11.383067   0.000000
     38         11.847984   0.000000
     39         12.399760   0.000000
     40         12.574322   0.000000
     41         12.799854   0.000000
     42         12.927043   0.000000
     43         14.645627   0.000000
     44         14.927540   0.000000
     45         15.233861   0.000000
     46         15.992501   0.000000
     47         16.011282   0.000000
     48         16.301011   0.000000
 
  0.3500000E+00  0.3571429E-01  0.0000000E+00  0.3174603E-02
      1        -12.472621   1.000000
      2        -11.959627   1.000000
      3         -8.530589   1.000000
      4         -8.390820   1.000000
      5         -6.053027   1.000000
      6         -6.029379   1.000000
      7         -4.413026   1.000000
      8         -3.711301   1.000000
      9         -3.024312   1.000000
     10         -2.894534   1.000000
     11         -2.441664   1.000000
     12         -2.249926   1.000000
     13         -2.142448   1.000000
     14         -2.121423   1.000000
     15         -0.514680   1.000000
     16         -0.241574   1.000000
     17          0.175519   1.000000
     18          0.251080   1.000000
     19          0.616956   1.000000
     20          1.534146   1.000000
     21          1.665439   1.000000
     22          1.726226   0.999997
     23          5.703957   0.000000
     24          5.757487   0.000000
     25          6.506627   0.000000
     26          6.678060   0.000000
     27          6.704015   0.000000
     28          7.418802   0.000000
     29          8.369695   0.000000
     30          8.695379   0.000000
     31          8.816802   0.000000
     32          9.541812   0.000000
     33         10.063943   0.000000
     34         10.125500   0.000000
     35         10.406265   0.000000
     36         11.157826   0.000000
     37         11.411387   0.000000
     38         11.954398   0.000000
     39         12.211931   0.000000
     40         12.283862   0.000000
     41         12.528339   0.000000
     42         13.264551   0.000000
     43         14.720978   0.000000
     44         14.985514   0.000000
     45         15.273627   0.000000
     46         15.383619   0.000000
     47         15.582437   0.000000
     48         16.386758   0.000000
 
  0.4500000E+00  0.3571429E-01  0.0000000E+00  0.3174603E-02
      1        -12.317867   1.000000
      2        -12.142008   1.000000
      3         -8.464463   1.000000
      4         -8.413456   1.000000
      5         -6.142956   1.000000
      6         -6.138443   1.000000
      7         -3.897498   1.000000
      8         -3.501889   1.000000
      9         -3.297956   1.000000
     10         -3.263604   1.000000
     11         -2.359488   1.000000
     12         -2.230649   1.000000
     13         -1.958277   1.000000
     14         -1.905577   1.000000
     15         -0.735191   1.000000
     16         -0.599817   1.000000
     17          0.258823   1.000000
     18          0.292489   1.000000
     19          0.877766   1.000000
     20          1.195242   1.000000
     21          1.584821   1.000000
     22          1.612301   1.000000
     23          5.731805   0.000000
     24          5.769000   0.000000
     25          6.485001   0.000000
     26          6.548884   0.000000
     27          7.373515   0.000000
     28          8.080113   0.000000
     29          8.101458   0.000000
     30          8.487661   0.000000
     31          8.626582   0.000000
     32          8.796154   0.000000
     33         10.508513   0.000000
     34         10.525225   0.000000
     35         10.769132   0.000000
     36         11.227309   0.000000
     37         11.411877   0.000000
     38         11.608771   0.000000
     39         11.942569   0.000000
     40         12.490591   0.000000
     41         12.723782   0.000000
     42         13.260233   0.000000
     43         14.598415   0.000000
     44         14.744295   0.000000
     45         14.877677   0.000000
     46         14.936283   0.000000
     47         16.112180   0.000000
     48         16.456589   0.000000
 
  0.5000000E-01  0.1071429E+00  0.0000000E+00  0.3174603E-02
      1        -12.701515   1.000000
      2        -11.561974   1.000000
      3         -8.638227   1.000000
      4         -8.397060   1.000000
      5         -6.035139   1.000000
      6         -5.094419   1.000000
      7         -4.641600   1.000000
      8         -4.571854   1.000000
      9         -4.175252   1.000000
     10         -3.518955   1.000000
     11         -3.284268   1.000000
     12         -1.790827   1.000000
     13         -1.088564   1.000000
     14         -1.031456   1.000000
     15         -0.301160   1.000000
     16         -0.273157   1.000000
     17          0.173049   1.000000
     18          0.251643   1.000000
     19          0.647467   1.000000
     20          1.754295   0.999918
     21          1.834340   0.933959
     22          2.273318   0.000000
     23          5.580734   0.000000
     24          5.712817   0.000000
     25          5.746256   0.000000
     26          6.012400   0.000000
     27          7.106112   0.000000
     28          7.839521   0.000000
     29          8.083490   0.000000
     30          8.193876   0.000000
     31          8.814424   0.000000
     32          9.107718   0.000000
     33          9.158366   0.000000
     34         10.581665   0.000000
     35         11.273333   0.000000
     36         11.404758   0.000000
     37         11.606461   0.000000
     38         11.891984   0.000000
     39         12.058121   0.000000
     40         12.689861   0.000000
     41         12.876561   0.000000
     42         13.196931   0.000000
     43         13.203398   0.000000
     44         15.340577   0.000000
     45         15.390652   0.000000
     46         15.867266   0.000000
     47         15.879150   0.000000
     48         16.229930   0.000000
 
  0.1500000E+00  0.1071429E+00  0.0000000E+00  0.3174603E-02
      1        -12.657858   1.000000
      2        -11.635606   1.000000
      3         -8.617009   1.000000
      4         -8.385939   1.000000
      5         -5.965103   1.000000
      6         -5.439409   1.000000
      7         -4.766367   1.000000
      8         -4.488819   1.000000
      9         -3.750842   1.000000
     10         -3.365137   1.000000
     11         -3.165905   1.000000
     12         -1.769093   1.000000
     13         -1.394747   1.000000
     14         -1.150917   1.000000
     15         -0.262140   1.000000
     16         -0.192100   1.000000
     17          0.140698   1.000000
     18          0.222900   1.000000
     19          0.544761   1.000000
     20          1.673730   1.000000
     21          1.757842   0.999879
     22          2.142401   0.000000
     23          5.656539   0.000000
     24          5.811354   0.000000
     25          5.940533   0.000000
     26          6.116605   0.000000
     27          7.022578   0.000000
     28          7.514257   0.000000
     29          8.229335   0.000000
     30          8.364926   0.000000
     31          9.139024   0.000000
     32          9.168374   0.000000
     33          9.423560   0.000000
     34         10.507234   0.000000
     35         10.880516   0.000000
     36         11.090534   0.000000
     37         11.459369   0.000000
     38         11.878959   0.000000
     39         12.277874   0.000000
     40         12.745460   0.000000
     41         12.874485   0.000000
     42         13.160036   0.000000
     43         13.736777   0.000000
     44         14.964705   0.000000
     45         15.407690   0.000000
     46         15.758678   0.000000
     47         15.805463   0.000000
     48         16.410071   0.000000
 
  0.2500000E+00  0.1071429E+00  0.0000000E+00  0.3174603E-02
      1        -12.572415   1.000000
      2        -11.768287   1.000000
      3         -8.573241   1.000000
      4         -8.371927   1.000000
      5         -5.940780   1.000000
      6         -5.765837   1.000000
      7         -4.723928   1.000000
      8         -4.380084   1.000000
      9         -3.487264   1.000000
     10         -3.224755   1.000000
     11         -2.699224   1.000000
     12         -1.899983   1.000000
     13         -1.724736   1.000000
     14         -1.314362   1.000000
     15         -0.217959   1.000000
     16         -0.214826   1.000000
     17          0.055429   1.000000
     18          0.210093   1.000000
     19          0.468326   1.000000
     20          1.538661   1.000000
     21          1.627685   1.000000
     22          1.894000   0.427988
     23          5.860958   0.000000
     24          5.938916   0.000000
     25          6.016569   0.000000
     26          6.565666   0.000000
     27          6.901733   0.000000
     28          7.286232   0.000000
     29          8.435462   0.000000
     30          8.498237   0.000000
     31          9.108848   0.000000
     32          9.620976   0.000000
     33          9.880950   0.000000
     34         10.131496   0.000000
     35         10.360482   0.000000
     36         10.831086   0.000000
     37         11.525498   0.000000
     38         12.113319   0.000000
     39         12.316277   0.000000
     40         12.561865   0.000000
     41         12.966653   0.000000
     42         13.030142   0.000000
     43         14.313926   0.000000
     44         15.095840   0.000000
     45         15.170839   0.000000
     46         15.654829   0.000000
     47         15.717646   0.000000
     48         16.430194   0.000000
 
  0.3500000E+00  0.1071429E+00  0.0000000E+00  0.3174603E-02
      1        -12.449158   1.000000
      2        -11.937278   1.000000
      3         -8.511185   1.000000
      4         -8.369633   1.000000
      5         -6.020458   1.000000
      6         -5.998063   1.000000
      7         -4.398498   1.000000
      8         -4.232773   1.000000
      9         -3.659100   1.000000
     10         -2.844790   1.000000
     11         -2.359918   1.000000
     12         -2.215834   1.000000
     13         -1.660378   1.000000
     14         -1.477780   1.000000
     15         -0.476059   1.000000
     16         -0.304871   1.000000
     17          0.087557   1.000000
     18          0.117324   1.000000
     19          0.627655   1.000000
     20          1.399035   1.000000
     21          1.482187   1.000000
     22          1.569786   1.000000
     23          5.879088   0.000000
     24          6.012574   0.000000
     25          6.521910   0.000000
     26          6.811973   0.000000
     27          6.884761   0.000000
     28          7.377344   0.000000
     29          8.423759   0.000000
     30          8.606317   0.000000
     31          8.946822   0.000000
     32          9.377026   0.000000
     33         10.079520   0.000000
     34         10.106377   0.000000
     35         10.448499   0.000000
     36         11.235121   0.000000
     37         11.371004   0.000000
     38         11.849178   0.000000
     39         12.302040   0.000000
     40         12.552582   0.000000
     41         12.728556   0.000000
     42         13.467236   0.000000
     43         14.774308   0.000000
     44         14.781739   0.000000
     45         15.163360   0.000000
     46         15.316326   0.000000
     47         15.661597   0.000000
     48         16.399689   0.000000
 
  0.4500000E+00  0.1071429E+00  0.0000000E+00  0.3174603E-02
      1        -12.294743   1.000000
      2        -12.119268   1.000000
      3         -8.444716   1.000000
      4         -8.393117   1.000000
      5         -6.110820   1.000000
      6         -6.105853   1.000000
      7         -4.053501   1.000000
      8         -3.890229   1.000000
      9         -3.849083   1.000000
     10         -3.285097   1.000000
     11         -2.105958   1.000000
     12         -1.911800   1.000000
     13         -1.592228   1.000000
     14         -1.589782   1.000000
     15         -0.696863   1.000000
     16         -0.596071   1.000000
     17          0.120352   1.000000
     18          0.151593   1.000000
     19          0.887172   1.000000
     20          1.201608   1.000000
     21          1.345425   1.000000
     22          1.369621   1.000000
     23          5.930075   0.000000
     24          5.995621   0.000000
     25          6.800785   0.000000
     26          6.851214   0.000000
     27          7.189892   0.000000
     28          7.902850   0.000000
     29          7.948326   0.000000
     30          8.631302   0.000000
     31          8.699150   0.000000
     32          8.812143   0.000000
     33         10.327660   0.000000
     34         10.575850   0.000000
     35         10.812417   0.000000
     36         10.917529   0.000000
     37         11.559057   0.000000
     38         11.668094   0.000000
     39         12.021934   0.000000
     40         12.660086   0.000000
     41         13.032649   0.000000
     42         13.491884   0.000000
     43         14.557332   0.000000
     44         14.741871   0.000000
     45         14.838554   0.000000
     46         15.055999   0.000000
     47         16.136359   0.000000
     48         16.430767   0.000000
 
  0.5000000E-01  0.1785714E+00  0.0000000E+00  0.3174603E-02
      1        -12.657123   1.000000
      2        -11.522204   1.000000
      3         -8.603790   1.000000
      4         -8.354324   1.000000
      5         -5.985585   1.000000
      6         -5.128837   1.000000
      7         -5.003424   1.000000
      8         -4.599734   1.000000
      9         -4.159150   1.000000
     10         -3.906566   1.000000
     11         -3.465665   1.000000
     12         -1.201874   1.000000
     13         -1.079218   1.000000
     14         -0.645474   1.000000
     15         -0.539216   1.000000
     16         -0.172662   1.000000
     17          0.194265   1.000000
     18          0.304657   1.000000
     19          0.725986   1.000000
     20          1.371205   1.000000
     21          1.434985   1.000000
     22          2.311482   0.000000
     23          5.291061   0.000000
     24          5.456926   0.000000
     25          6.128225   0.000000
     26          6.201052   0.000000
     27          7.542076   0.000000
     28          7.630833   0.000000
     29          8.322437   0.000000
     30          8.733272   0.000000
     31          8.889202   0.000000
     32          9.249829   0.000000
     33          9.378565   0.000000
     34         10.887729   0.000000
     35         11.324805   0.000000
     36         11.579116   0.000000
     37         11.706423   0.000000
     38         12.092798   0.000000
     39         12.274369   0.000000
     40         12.752840   0.000000
     41         12.766417   0.000000
     42         13.014207   0.000000
     43         13.230471   0.000000
     44         14.685257   0.000000
     45         15.169539   0.000000
     46         15.352181   0.000000
     47         15.437836   0.000000
     48         15.970881   0.000000
 
  0.1500000E+00  0.1785714E+00  0.0000000E+00  0.3174603E-02
      1        -12.613650   1.000000
      2        -11.595556   1.000000
      3         -8.582274   1.000000
      4         -8.343907   1.000000
      5         -5.912133   1.000000
      6         -5.391331   1.000000
      7         -5.029877   1.000000
      8         -4.728594   1.000000
      9         -3.972811   1.000000
     10         -3.708648   1.000000
     11         -3.126472   1.000000
     12         -1.386496   1.000000
     13         -1.175413   1.000000
     14         -0.752537   1.000000
     15         -0.501188   1.000000
     16         -0.091703   1.000000
     17          0.175084   1.000000
     18          0.248078   1.000000
     19          0.613547   1.000000
     20          1.292039   1.000000
     21          1.365234   1.000000
     22          2.175554   0.000000
     23          5.371305   0.000000
     24          5.803188   0.000000
     25          6.147077   0.000000
     26          6.242571   0.000000
     27          7.461272   0.000000
     28          7.787386   0.000000
     29          8.054687   0.000000
     30          8.823993   0.000000
     31          9.261364   0.000000
     32          9.293184   0.000000
     33          9.663342   0.000000
     34         10.523174   0.000000
     35         10.785768   0.000000
     36         11.282809   0.000000
     37         11.724434   0.000000
     38         12.204810   0.000000
     39         12.437636   0.000000
     40         12.506935   0.000000
     41         13.169825   0.000000
     42         13.279170   0.000000
     43         13.444969   0.000000
     44         14.695148   0.000000
     45         14.830811   0.000000
     46         15.293820   0.000000
     47         15.501610   0.000000
     48         15.996110   0.000000
 
  0.2500000E+00  0.1785714E+00  0.0000000E+00  0.3174603E-02
      1        -12.528558   1.000000
      2        -11.727717   1.000000
      3         -8.538088   1.000000
      4         -8.331228   1.000000
      5         -5.882399   1.000000
      6         -5.710978   1.000000
      7         -4.938176   1.000000
      8         -4.692794   1.000000
      9         -4.096640   1.000000
     10         -3.174349   1.000000
     11         -2.655220   1.000000
     12         -1.883579   1.000000
     13         -1.134724   1.000000
     14         -0.891276   1.000000
     15         -0.448167   1.000000
     16         -0.082199   1.000000
     17          0.016544   1.000000
     18          0.260077   1.000000
     19          0.498355   1.000000
     20          1.160481   1.000000
     21          1.246871   1.000000
     22          1.918858   0.188189
     23          5.692666   0.000000
     24          6.102090   0.000000
     25          6.279803   0.000000
     26          6.372311   0.000000
     27          7.358740   0.000000
     28          7.865259   0.000000
     29          8.021241   0.000000
     30          8.952539   0.000000
     31          9.254442   0.000000
     32          9.726519   0.000000
     33          9.857961   0.000000
     34         10.145335   0.000000
     35         10.260644   0.000000
     36         11.069989   0.000000
     37         11.592987   0.000000
     38         12.111806   0.000000
     39         12.516271   0.000000
     40         12.807665   0.000000
     41         13.052478   0.000000
     42         13.453478   0.000000
     43         13.967473   0.000000
     44         14.603455   0.000000
     45         14.880568   0.000000
     46         15.313481   0.000000
     47         15.521031   0.000000
     48         16.206705   0.000000
 
  0.3500000E+00  0.1785714E+00  0.0000000E+00  0.3174603E-02
      1        -12.405815   1.000000
      2        -11.896044   1.000000
      3         -8.475593   1.000000
      4         -8.330647   1.000000
      5         -5.959776   1.000000
      6         -5.940315   1.000000
      7         -4.802154   1.000000
      8         -4.371734   1.000000
      9         -4.261472   1.000000
     10         -2.806030   1.000000
     11         -2.318794   1.000000
     12         -2.174676   1.000000
     13         -1.078101   1.000000
     14         -1.028052   1.000000
     15         -0.453212   1.000000
     16         -0.368397   1.000000
     17          0.060491   1.000000
     18          0.064568   1.000000
     19          0.645301   1.000000
     20          1.030829   1.000000
     21          1.114050   1.000000
     22          1.583719   1.000000
     23          6.113251   0.000000
     24          6.228217   0.000000
     25          6.403999   0.000000
     26          6.807286   0.000000
     27          7.302610   0.000000
     28          7.786351   0.000000
     29          8.075983   0.000000
     30          9.052135   0.000000
     31          9.110043   0.000000
     32          9.182983   0.000000
     33          9.895173   0.000000
     34         10.194188   0.000000
     35         10.708039   0.000000
     36         11.084849   0.000000
     37         11.334263   0.000000
     38         11.957947   0.000000
     39         12.364605   0.000000
     40         12.992569   0.000000
     41         13.043529   0.000000
     42         13.797942   0.000000
     43         14.389607   0.000000
     44         14.405002   0.000000
     45         15.039050   0.000000
     46         15.132300   0.000000
     47         15.623438   0.000000
     48         16.383801   0.000000
 
  0.4500000E+00  0.1785714E+00  0.0000000E+00  0.3174603E-02
      1        -12.252041   1.000000
      2        -12.077290   1.000000
      3         -8.408461   1.000000
      4         -8.355745   1.000000
      5         -6.051161   1.000000
      6         -6.045164   1.000000
      7         -4.634112   1.000000
      8         -4.448145   1.000000
      9         -3.858930   1.000000
     10         -3.262486   1.000000
     11         -2.036894   1.000000
     12         -1.871141   1.000000
     13         -1.099485   1.000000
     14         -1.037623   1.000000
     15         -0.626234   1.000000
     16         -0.619376   1.000000
     17          0.010762   1.000000
     18          0.054315   1.000000
     19          0.902842   1.000000
     20          0.968549   1.000000
     21          1.009414   1.000000
     22          1.230117   1.000000
     23          6.204868   0.000000
     24          6.322907   0.000000
     25          6.881456   0.000000
     26          7.221637   0.000000
     27          7.280371   0.000000
     28          7.626323   0.000000
     29          7.933566   0.000000
     30          8.445399   0.000000
     31          9.108254   0.000000
     32          9.140495   0.000000
     33         10.018881   0.000000
     34         10.490797   0.000000
     35         10.715210   0.000000
     36         10.984919   0.000000
     37         11.739363   0.000000
     38         11.758335   0.000000
     39         12.143159   0.000000
     40         12.918024   0.000000
     41         13.422936   0.000000
     42         13.770642   0.000000
     43         14.236633   0.000000
     44         14.391260   0.000000
     45         15.001271   0.000000
     46         15.141313   0.000000
     47         15.999709   0.000000
     48         16.303808   0.000000
 
  0.5000000E-01  0.2500000E+00  0.0000000E+00  0.3174603E-02
      1        -12.599610   1.000000
      2        -11.470833   1.000000
      3         -8.559795   1.000000
      4         -8.299044   1.000000
      5         -5.921255   1.000000
      6         -5.609963   1.000000
      7         -4.933062   1.000000
      8         -4.543405   1.000000
      9         -4.426927   1.000000
     10         -4.119799   1.000000
     11         -3.403602   1.000000
     12         -1.218192   1.000000
     13         -1.065013   1.000000
     14         -1.000429   1.000000
     15         -0.191306   1.000000
     16          0.222548   1.000000
     17          0.348122   1.000000
     18          0.598287   1.000000
     19          0.789750   1.000000
     20          0.985869   1.000000
     21          1.000064   1.000000
     22          2.345751   0.000000
     23          4.947081   0.000000
     24          5.163037   0.000000
     25          6.361600   0.000000
     26          6.591040   0.000000
     27          7.272066   0.000000
     28          7.973791   0.000000
     29          8.708101   0.000000
     30          9.064004   0.000000
     31          9.472464   0.000000
     32          9.585363   0.000000
     33          9.659791   0.000000
     34         10.749195   0.000000
     35         11.275653   0.000000
     36         11.972301   0.000000
     37         12.023140   0.000000
     38         12.301944   0.000000
     39         12.429808   0.000000
     40         12.453863   0.000000
     41         12.571553   0.000000
     42         12.999627   0.000000
     43         13.802594   0.000000
     44         13.886931   0.000000
     45         14.426145   0.000000
     46         15.109966   0.000000
     47         15.410150   0.000000
     48         15.870031   0.000000
 
  0.1500000E+00  0.2500000E+00  0.0000000E+00  0.3174603E-02
      1        -12.556375   1.000000
      2        -11.543817   1.000000
      3         -8.537883   1.000000
      4         -8.289584   1.000000
      5         -5.843176   1.000000
      6         -5.575228   1.000000
      7         -5.270515   1.000000
      8         -4.678610   1.000000