  14  14   0   0
  0.1018285E+02  0.5690164E-09  0.4043043E-09  0.6196755E-09  0.5000000E-15
  1.000000000000000E-004
  CAR 
 Convergence                             
     18.03645305    -14.19398629  301      1.90506421      1.00000000
    -14.194  0.0000E+00  0.0000E+00
    -14.087  0.0000E+00  0.0000E+00
    -13.979  0.0000E+00  0.0000E+00
    -13.872  0.0000E+00  0.0000E+00
    -13.764  0.0000E+00  0.0000E+00
    -13.657  0.0000E+00  0.0000E+00
    -13.549  0.0000E+00  0.0000E+00
    -13.442  0.0000E+00  0.0000E+00
    -13.335  0.0000E+00  0.0000E+00
    -13.227  0.0000E+00  0.0000E+00
    -13.120  0.0000E+00  0.0000E+00
    -13.012  0.3937E-16  0.4229E-17
    -12.905  0.2796E-07  0.3004E-08
    -12.797  0.3761E-02  0.4041E-03
    -12.690  0.5071E+00  0.5489E-01
    -12.582  0.2386E+01  0.3112E+00
    -12.475  0.3556E+01  0.6932E+00
    -12.368  0.4365E+01  0.1162E+01
    -12.260  0.3539E+01  0.1542E+01
    -12.153  0.2733E+01  0.1836E+01
    -12.045  0.2747E+01  0.2131E+01
    -11.938  0.2510E+01  0.2401E+01
    -11.830  0.2771E+01  0.2699E+01
    -11.723  0.3441E+01  0.3068E+01
    -11.616  0.3534E+01  0.3448E+01
    -11.508  0.3093E+01  0.3780E+01
    -11.401  0.1640E+01  0.3956E+01
    -11.293  0.4008E+00  0.3999E+01
    -11.186  0.6090E-02  0.4000E+01
    -11.078  0.1163E-06  0.4000E+01
    -10.971  0.4593E-15  0.4000E+01
    -10.864  0.0000E+00  0.4000E+01
    -10.756  0.0000E+00  0.4000E+01
    -10.649  0.0000E+00  0.4000E+01
    -10.541  0.0000E+00  0.4000E+01
    -10.434  0.0000E+00  0.4000E+01
    -10.326  0.0000E+00  0.4000E+01
    -10.219  0.0000E+00  0.4000E+01
    -10.111  0.0000E+00  0.4000E+01
    -10.004  0.0000E+00  0.4000E+01
     -9.897  0.0000E+00  0.4000E+01
     -9.789  0.0000E+00  0.4000E+01
     -9.682  0.0000E+00  0.4000E+01
     -9.574  0.0000E+00  0.4000E+01
     -9.467  0.0000E+00  0.4000E+01
     -9.359  0.0000E+00  0.4000E+01
     -9.252  0.0000E+00  0.4000E+01
     -9.145  0.0000E+00  0.4000E+01
     -9.037  0.8173E-09  0.4000E+01
     -8.930  0.5888E-03  0.4000E+01
     -8.822  0.2710E+00  0.4029E+01
     -8.715  0.2072E+01  0.4252E+01
     -8.607  0.5290E+01  0.4820E+01
     -8.500  0.6964E+01  0.5568E+01
     -8.393  0.6310E+01  0.6246E+01
     -8.285  0.5322E+01  0.6818E+01
     -8.178  0.4825E+01  0.7336E+01
     -8.070  0.3881E+01  0.7753E+01
     -7.963  0.1668E+01  0.7933E+01
     -7.855  0.5767E+00  0.7994E+01
     -7.748  0.5145E-01  0.8000E+01
     -7.640  0.2299E-04  0.8000E+01
     -7.533  0.2394E-11  0.8000E+01
     -7.426  0.0000E+00  0.8000E+01
     -7.318  0.0000E+00  0.8000E+01
     -7.211  0.0000E+00  0.8000E+01
     -7.103  0.5534E-09  0.8000E+01
     -6.996  0.4327E-03  0.8000E+01
     -6.888  0.1158E+00  0.8012E+01
     -6.781  0.2560E+00  0.8040E+01
     -6.674  0.4279E+00  0.8086E+01
     -6.566  0.7659E+00  0.8168E+01
     -6.459  0.8575E+00  0.8260E+01
     -6.351  0.1455E+01  0.8417E+01
     -6.244  0.1988E+01  0.8630E+01
     -6.136  0.3062E+01  0.8959E+01
     -6.029  0.3770E+01  0.9364E+01
     -5.922  0.4104E+01  0.9805E+01
     -5.814  0.4039E+01  0.1024E+02
     -5.707  0.3840E+01  0.1065E+02
     -5.599  0.4070E+01  0.1109E+02
     -5.492  0.4223E+01  0.1154E+02
     -5.384  0.4524E+01  0.1203E+02
     -5.277  0.4575E+01  0.1252E+02
     -5.169  0.4485E+01  0.1300E+02
     -5.062  0.3854E+01  0.1342E+02
     -4.955  0.3234E+01  0.1376E+02
     -4.847  0.2930E+01  0.1408E+02
     -4.740  0.2366E+01  0.1433E+02
     -4.632  0.2896E+01  0.1464E+02
     -4.525  0.3363E+01  0.1500E+02
     -4.417  0.3496E+01  0.1538E+02
     -4.310  0.3302E+01  0.1573E+02
     -4.203  0.2947E+01  0.1605E+02
     -4.095  0.2903E+01  0.1636E+02
     -3.988  0.2958E+01  0.1668E+02
     -3.880  0.2840E+01  0.1699E+02
     -3.773  0.3131E+01  0.1732E+02
     -3.665  0.2852E+01  0.1763E+02
     -3.558  0.2704E+01  0.1792E+02
     -3.451  0.3051E+01  0.1825E+02
     -3.343  0.2617E+01  0.1853E+02
     -3.236  0.2891E+01  0.1884E+02
     -3.128  0.2698E+01  0.1913E+02
     -3.021  0.2766E+01  0.1943E+02
     -2.913  0.3010E+01  0.1975E+02
     -2.806  0.2963E+01  0.2007E+02
     -2.698  0.2417E+01  0.2033E+02
     -2.591  0.2676E+01  0.2062E+02
     -2.484  0.3029E+01  0.2094E+02
     -2.376  0.2970E+01  0.2126E+02
     -2.269  0.3205E+01  0.2160E+02
     -2.161  0.4027E+01  0.2204E+02
     -2.054  0.3655E+01  0.2243E+02
     -1.946  0.3320E+01  0.2279E+02
     -1.839  0.5256E+01  0.2335E+02
     -1.732  0.5641E+01  0.2396E+02
     -1.624  0.5561E+01  0.2455E+02
     -1.517  0.6185E+01  0.2522E+02
     -1.409  0.6076E+01  0.2587E+02
     -1.302  0.5516E+01  0.2646E+02
     -1.194  0.4693E+01  0.2697E+02
     -1.087  0.6478E+01  0.2766E+02
     -0.980  0.3794E+01  0.2807E+02
     -0.872  0.2262E+01  0.2831E+02
     -0.765  0.2692E+01  0.2860E+02
     -0.657  0.2881E+01  0.2891E+02
     -0.550  0.4624E+01  0.2941E+02
     -0.442  0.6890E+01  0.3015E+02
     -0.335  0.5646E+01  0.3076E+02
     -0.227  0.6754E+01  0.3148E+02
     -0.120  0.6356E+01  0.3217E+02
     -0.013  0.6756E+01  0.3289E+02
      0.095  0.6670E+01  0.3361E+02
      0.202  0.6360E+01  0.3429E+02
      0.310  0.8769E+01  0.3523E+02
      0.417  0.7867E+01  0.3608E+02
      0.525  0.8714E+01  0.3701E+02
      0.632  0.5101E+01  0.3756E+02
      0.739  0.2864E+01  0.3787E+02
      0.847  0.3353E+01  0.3823E+02
      0.954  0.3584E+01  0.3862E+02
      1.062  0.3526E+01  0.3899E+02
      1.169  0.2783E+01  0.3929E+02
      1.277  0.3427E+01  0.3966E+02
      1.384  0.4506E+01  0.4015E+02
      1.491  0.3742E+01  0.4055E+02
      1.599  0.3753E+01  0.4095E+02
      1.706  0.4556E+01  0.4144E+02
      1.814  0.3108E+01  0.4177E+02
      1.921  0.2489E+01  0.4204E+02
      2.029  0.2634E+01  0.4232E+02
      2.136  0.2096E+01  0.4255E+02
      2.244  0.2652E+01  0.4284E+02
      2.351  0.2529E+01  0.4311E+02
      2.458  0.1889E+01  0.4331E+02
      2.566  0.7996E+00  0.4340E+02
      2.673  0.3791E+00  0.4344E+02
      2.781  0.5679E+00  0.4350E+02
      2.888  0.4181E+00  0.4354E+02
      2.996  0.3068E+00  0.4358E+02
      3.103  0.7843E+00  0.4366E+02
      3.210  0.1003E+01  0.4377E+02
      3.318  0.5024E+00  0.4382E+02
      3.425  0.9969E-02  0.4382E+02
      3.533  0.1437E+00  0.4384E+02
      3.640  0.3993E+00  0.4388E+02
      3.748  0.3196E+00  0.4391E+02
      3.855  0.3808E+00  0.4396E+02
      3.962  0.3889E+00  0.4400E+02
      4.070  0.2155E-01  0.4400E+02
      4.177  0.8927E-04  0.4400E+02
      4.285  0.4719E-01  0.4401E+02
      4.392  0.1896E+00  0.4403E+02
      4.500  0.4099E+00  0.4407E+02
      4.607  0.4932E+00  0.4412E+02
      4.715  0.6518E+00  0.4419E+02
      4.822  0.8984E+00  0.4429E+02
      4.929  0.8504E+00  0.4438E+02
      5.037  0.8575E+00  0.4447E+02
      5.144  0.1289E+01  0.4461E+02
      5.252  0.1133E+01  0.4473E+02
      5.359  0.1667E+01  0.4491E+02
      5.467  0.2228E+01  0.4515E+02
      5.574  0.2479E+01  0.4542E+02
      5.681  0.2779E+01  0.4572E+02
      5.789  0.3432E+01  0.4609E+02
      5.896  0.3194E+01  0.4643E+02
      6.004  0.4367E+01  0.4690E+02
      6.111  0.4697E+01  0.4740E+02
      6.219  0.4023E+01  0.4783E+02
      6.326  0.4638E+01  0.4833E+02
      6.433  0.4034E+01  0.4877E+02
      6.541  0.4080E+01  0.4920E+02
      6.648  0.4423E+01  0.4968E+02
      6.756  0.3212E+01  0.5002E+02
      6.863  0.4033E+01  0.5046E+02
      6.971  0.4614E+01  0.5095E+02
      7.078  0.4520E+01  0.5144E+02
      7.186  0.4343E+01  0.5191E+02
      7.293  0.5621E+01  0.5251E+02
      7.400  0.4853E+01  0.5303E+02
      7.508  0.4427E+01  0.5351E+02
      7.615  0.4147E+01  0.5395E+02
      7.723  0.3542E+01  0.5433E+02
      7.830  0.3145E+01  0.5467E+02
      7.938  0.2986E+01  0.5499E+02
      8.045  0.2996E+01  0.5531E+02
      8.152  0.4172E+01  0.5576E+02
      8.260  0.3853E+01  0.5618E+02
      8.367  0.3637E+01  0.5657E+02
      8.475  0.3979E+01  0.5699E+02
      8.582  0.4178E+01  0.5744E+02
      8.690  0.4422E+01  0.5792E+02
      8.797  0.4165E+01  0.5836E+02
      8.904  0.5185E+01  0.5892E+02
      9.012  0.5071E+01  0.5947E+02
      9.119  0.5293E+01  0.6004E+02
      9.227  0.5253E+01  0.6060E+02
      9.334  0.4922E+01  0.6113E+02
      9.442  0.4716E+01  0.6164E+02
      9.549  0.4340E+01  0.6210E+02
      9.657  0.5113E+01  0.6265E+02
      9.764  0.5017E+01  0.6319E+02
      9.871  0.5315E+01  0.6376E+02
      9.979  0.4463E+01  0.6424E+02
     10.086  0.3595E+01  0.6463E+02
     10.194  0.5158E+01  0.6518E+02
     10.301  0.4711E+01  0.6569E+02
     10.409  0.4076E+01  0.6612E+02
     10.516  0.5493E+01  0.6671E+02
     10.623  0.5782E+01  0.6734E+02
     10.731  0.4049E+01  0.6777E+02
     10.838  0.3860E+01  0.6819E+02
     10.946  0.3198E+01  0.6853E+02
     11.053  0.4656E+01  0.6903E+02
     11.161  0.5545E+01  0.6963E+02
     11.268  0.6099E+01  0.7028E+02
     11.375  0.5977E+01  0.7092E+02
     11.483  0.5365E+01  0.7150E+02
     11.590  0.4204E+01  0.7195E+02
     11.698  0.4469E+01  0.7243E+02
     11.805  0.4891E+01  0.7296E+02
     11.913  0.4792E+01  0.7347E+02
     12.020  0.6057E+01  0.7412E+02
     12.128  0.5921E+01  0.7476E+02
     12.235  0.5908E+01  0.7539E+02
     12.342  0.5673E+01  0.7600E+02
     12.450  0.5040E+01  0.7654E+02
     12.557  0.5644E+01  0.7715E+02
     12.665  0.6015E+01  0.7780E+02
     12.772  0.6087E+01  0.7845E+02
     12.880  0.5833E+01  0.7908E+02
     12.987  0.5838E+01  0.7970E+02
     13.094  0.5571E+01  0.8030E+02
     13.202  0.6347E+01  0.8098E+02
     13.309  0.6221E+01  0.8165E+02
     13.417  0.5326E+01  0.8222E+02
     13.524  0.6146E+01  0.8289E+02
     13.632  0.5254E+01  0.8345E+02
     13.739  0.4795E+01  0.8396E+02
     13.846  0.6074E+01  0.8462E+02
     13.954  0.5526E+01  0.8521E+02
     14.061  0.5324E+01  0.8578E+02
     14.169  0.5472E+01  0.8637E+02
     14.276  0.4699E+01  0.8688E+02
     14.384  0.4850E+01  0.8740E+02
     14.491  0.5072E+01  0.8794E+02
     14.599  0.4981E+01  0.8848E+02
     14.706  0.5267E+01  0.8904E+02
     14.813  0.5137E+01  0.8959E+02
     14.921  0.4089E+01  0.9003E+02
     15.028  0.5139E+01  0.9059E+02
     15.136  0.6223E+01  0.9125E+02
     15.243  0.5589E+01  0.9185E+02
     15.351  0.5624E+01  0.9246E+02
     15.458  0.6055E+01  0.9311E+02
     15.565  0.5702E+01  0.9372E+02
     15.673  0.5898E+01  0.9436E+02
     15.780  0.4563E+01  0.9485E+02
     15.888  0.2435E+01  0.9511E+02
     15.995  0.2698E+01  0.9540E+02
     16.103  0.1878E+01  0.9560E+02
     16.210  0.1156E+01  0.9572E+02
     16.317  0.8840E+00  0.9582E+02
     16.425  0.7001E+00  0.9589E+02
     16.532  0.8122E+00  0.9598E+02
     16.640  0.1743E+00  0.9600E+02
     16.747  0.1660E-02  0.9600E+02
     16.855  0.1956E-07  0.9600E+02
     16.962  0.3281E-16  0.9600E+02
     17.070  0.0000E+00  0.9600E+02
     17.177  0.0000E+00  0.9600E+02
     17.284  0.0000E+00  0.9600E+02
     17.392  0.0000E+00  0.9600E+02
     17.499  0.0000E+00  0.9600E+02
     17.607  0.0000E+00  0.9600E+02
     17.714  0.0000E+00  0.9600E+02
     17.822  0.0000E+00  0.9600E+02
     17.929  0.0000E+00  0.9600E+02
     18.036  0.0000E+00  0.9600E+02
