   14   14    1    1
  0.1018285E+02  0.5690164E-09  0.4043043E-09  0.6196755E-09  0.5000000E-15
  1.000000000000000E-004
  CAR 
 Convergence                             
     42    175     48
 
  0.5000000E-01  0.3571429E-01  0.0000000E+00  0.3174603E-02
      1        -12.728966   1.000000
      2        -11.586619   1.000000
      3         -8.652685   1.000000
      4         -8.415459   1.000000
      5         -6.053498   1.000000
      6         -5.119412   1.000000
      7         -4.654022   1.000000
      8         -4.268375   1.000000
      9         -4.023315   1.000000
     10         -3.532705   1.000000
     11         -2.577519   1.000000
     12         -2.308030   1.000000
     13         -1.816092   1.000000
     14         -1.080104   1.000000
     15         -0.055338   1.000000
     16         -0.025425   1.000000
     17          0.175359   1.000000
     18          0.198260   1.000000
     19          0.584860   1.000000
     20          2.038619   0.000079
     21          2.102235   0.000000
     22          2.240284   0.000000
     23          5.486100   0.000000
     24          5.777730   0.000000
     25          5.868879   0.000000
     26          5.987699   0.000000
     27          6.846680   0.000000
     28          7.580628   0.000000
     29          7.911906   0.000000
     30          8.577001   0.000000
     31          8.850961   0.000000
     32          8.993006   0.000000
     33          9.107310   0.000000
     34         10.158248   0.000000
     35         11.216405   0.000000
     36         11.380903   0.000000
     37         11.713195   0.000000
     38         11.826357   0.000000
     39         11.980601   0.000000
     40         12.440070   0.000000
     41         12.918023   0.000000
     42         13.503132   0.000000
     43         13.530261   0.000000
     44         15.444214   0.000000
     45         15.628586   0.000000
     46         16.122965   0.000000
     47         16.387642   0.000000
     48         16.413107   0.000000
 
  0.1500000E+00  0.3571429E-01  0.0000000E+00  0.3174603E-02
      1        -12.685177   1.000000
      2        -11.660364   1.000000
      3         -8.631683   1.000000
      4         -8.403954   1.000000
      5         -5.985057   1.000000
      6         -5.462129   1.000000
      7         -4.777682   1.000000
      8         -4.000761   1.000000
      9         -3.782600   1.000000
     10         -3.193829   1.000000
     11         -2.648073   1.000000
     12         -2.287690   1.000000
     13         -1.895622   1.000000
     14         -1.387440   1.000000
     15         -0.014765   1.000000
     16         -0.000238   1.000000
     17          0.111054   1.000000
     18          0.217499   1.000000
     19          0.489877   1.000000
     20          1.952227   0.091109
     21          2.024137   0.000379
     22          2.118664   0.000000
     23          5.574424   0.000000
     24          5.788621   0.000000
     25          5.893922   0.000000
     26          6.334806   0.000000
     27          6.760697   0.000000
     28          7.217742   0.000000
     29          8.124617   0.000000
     30          8.713285   0.000000
     31          9.111888   0.000000
     32          9.178868   0.000000
     33          9.247147   0.000000
     34         10.275771   0.000000
     35         10.987110   0.000000
     36         11.176757   0.000000
     37         11.290003   0.000000
     38         11.742752   0.000000
     39         12.198169   0.000000
     40         12.530915   0.000000
     41         13.172411   0.000000
     42         13.177801   0.000000
     43         14.064277   0.000000
     44         14.930325   0.000000
     45         15.805399   0.000000
     46         15.881336   0.000000
     47         16.285449   0.000000
     48         16.571433   0.000000
 
  0.2500000E+00  0.3571429E-01  0.0000000E+00  0.3174603E-02
      1        -12.599473   1.000000
      2        -11.793288   1.000000
      3         -8.588203   1.000000
      4         -8.389261   1.000000
      5         -5.963653   1.000000
      6         -5.789563   1.000000
      7         -4.732169   1.000000
      8         -3.872414   1.000000
      9         -3.271084   1.000000
     10         -2.817906   1.000000
     11         -2.699939   1.000000
     12         -2.246765   1.000000
     13         -2.007386   1.000000
     14         -1.892353   1.000000
     15         -0.198495   1.000000
     16          0.030649   1.000000
     17          0.162113   1.000000
     18          0.172503   1.000000
     19          0.459561   1.000000
     20          1.804624   0.997751
     21          1.887921   0.686116
     22          1.891063   0.653952
     23          5.694922   0.000000
     24          5.745301   0.000000
     25          6.203180   0.000000
     26          6.633986   0.000000
     27          6.794694   0.000000
     28          6.962716   0.000000
     29          8.277289   0.000000
     30          8.861254   0.000000
     31          9.048265   0.000000
     32          9.622578   0.000000
     33          9.690276   0.000000
     34         10.323661   0.000000
     35         10.531764   0.000000
     36         10.672576   0.000000
     37         11.412442   0.000000
     38         11.883608   0.000000
     39         12.433422   0.000000
     40         12.617006   0.000000
     41         12.834252   0.000000
     42         12.970766   0.000000
     43         14.691385   0.000000
     44         14.975503   0.000000
     45         15.274583   0.000000
     46         16.040424   0.000000
     47         16.057853   0.000000
     48         16.352494   0.000000
 
  0.3500000E+00  0.3571429E-01  0.0000000E+00  0.3174603E-02
      1        -12.475859   1.000000
      2        -11.962651   1.000000
      3         -8.526386   1.000000
      4         -8.386158   1.000000
      5         -6.045227   1.000000
      6         -6.022909   1.000000
      7         -4.404081   1.000000
      8         -3.702651   1.000000
      9         -3.012859   1.000000
     10         -2.885410   1.000000
     11         -2.430970   1.000000
     12         -2.237560   1.000000
     13         -2.127387   1.000000
     14         -2.109663   1.000000
     15         -0.497573   1.000000
     16         -0.225115   1.000000
     17          0.188327   1.000000
     18          0.264229   1.000000
     19          0.633123   1.000000
     20          1.551873   1.000000
     21          1.680990   1.000000
     22          1.742286   0.999998
     23          5.729454   0.000000
     24          5.780577   0.000000
     25          6.531806   0.000000
     26          6.702550   0.000000
     27          6.728745   0.000000
     28          7.447014   0.000000
     29          8.402860   0.000000
     30          8.727250   0.000000
     31          8.853421   0.000000
     32          9.575635   0.000000
     33         10.102783   0.000000
     34         10.160318   0.000000
     35         10.444799   0.000000
     36         11.201865   0.000000
     37         11.444867   0.000000
     38         11.996507   0.000000
     39         12.249492   0.000000
     40         12.325612   0.000000
     41         12.563284   0.000000
     42         13.300752   0.000000
     43         14.759486   0.000000
     44         15.028822   0.000000
     45         15.324344   0.000000
     46         15.427864   0.000000
     47         15.629568   0.000000
     48         16.434127   0.000000
 
  0.4500000E+00  0.3571429E-01  0.0000000E+00  0.3174603E-02
      1        -12.321012   1.000000
      2        -12.145076   1.000000
      3         -8.460139   1.000000
      4         -8.408950   1.000000
      5         -6.136321   1.000000
      6         -6.131343   1.000000
      7         -3.887794   1.000000
      8         -3.492456   1.000000
      9         -3.287522   1.000000
     10         -3.253182   1.000000
     11         -2.349854   1.000000
     12         -2.219455   1.000000
     13         -1.943725   1.000000
     14         -1.892772   1.000000
     15         -0.718029   1.000000
     16         -0.583093   1.000000
     17          0.271922   1.000000
     18          0.305796   1.000000
     19          0.894377   1.000000
     20          1.212397   1.000000
     21          1.600247   1.000000
     22          1.627983   1.000000
     23          5.756630   0.000000
     24          5.792952   0.000000
     25          6.509492   0.000000
     26          6.573124   0.000000
     27          7.400077   0.000000
     28          8.110205   0.000000
     29          8.130293   0.000000
     30          8.521737   0.000000
     31          8.661767   0.000000
     32          8.828136   0.000000
     33         10.543284   0.000000
     34         10.561739   0.000000
     35         10.808579   0.000000
     36         11.267394   0.000000
     37         11.452339   0.000000
     38         11.652518   0.000000
     39         11.987276   0.000000
     40         12.530067   0.000000
     41         12.759179   0.000000
     42         13.297575   0.000000
     43         14.636240   0.000000
     44         14.789567   0.000000
     45         14.918471   0.000000
     46         14.976743   0.000000
     47         16.162921   0.000000
     48         16.506576   0.000000
 
  0.5000000E-01  0.1071429E+00  0.0000000E+00  0.3174603E-02
      1        -12.704874   1.000000
      2        -11.565044   1.000000
      3         -8.633780   1.000000
      4         -8.392199   1.000000
      5         -6.026563   1.000000
      6         -5.085623   1.000000
      7         -4.631827   1.000000
      8         -4.566078   1.000000
      9         -4.167583   1.000000
     10         -3.509672   1.000000
     11         -3.271852   1.000000
     12         -1.777207   1.000000
     13         -1.075504   1.000000
     14         -1.016171   1.000000
     15         -0.289845   1.000000
     16         -0.261839   1.000000
     17          0.188848   1.000000
     18          0.268525   1.000000
     19          0.663523   1.000000
     20          1.769937   0.999934
     21          1.850448   0.938799
     22          2.292662   0.000000
     23          5.602988   0.000000
     24          5.737324   0.000000
     25          5.769142   0.000000
     26          6.039429   0.000000
     27          7.134080   0.000000
     28          7.866663   0.000000
     29          8.115439   0.000000
     30          8.223396   0.000000
     31          8.854597   0.000000
     32          9.149908   0.000000
     33          9.199194   0.000000
     34         10.613144   0.000000
     35         11.311363   0.000000
     36         11.433604   0.000000
     37         11.646656   0.000000
     38         11.929552   0.000000
     39         12.091097   0.000000
     40         12.722011   0.000000
     41         12.917281   0.000000
     42         13.237654   0.000000
     43         13.245645   0.000000
     44         15.389426   0.000000
     45         15.441779   0.000000
     46         15.914177   0.000000
     47         15.932230   0.000000
     48         16.279704   0.000000
 
  0.1500000E+00  0.1071429E+00  0.0000000E+00  0.3174603E-02
      1        -12.661183   1.000000
      2        -11.638639   1.000000
      3         -8.612641   1.000000
      4         -8.381072   1.000000
      5         -5.956327   1.000000
      6         -5.432000   1.000000
      7         -4.757524   1.000000
      8         -4.481941   1.000000
      9         -3.742490   1.000000
     10         -3.353193   1.000000
     11         -3.155425   1.000000
     12         -1.755359   1.000000
     13         -1.382014   1.000000
     14         -1.136769   1.000000
     15         -0.250571   1.000000
     16         -0.179032   1.000000
     17          0.156851   1.000000
     18          0.238840   1.000000
     19          0.560912   1.000000
     20          1.689206   1.000000
     21          1.773822   0.999897
     22          2.161421   0.000000
     23          5.678614   0.000000
     24          5.835437   0.000000
     25          5.967295   0.000000
     26          6.140983   0.000000
     27          7.050205   0.000000
     28          7.540948   0.000000
     29          8.261290   0.000000
     30          8.396590   0.000000
     31          9.183384   0.000000
     32          9.207258   0.000000
     33          9.460951   0.000000
     34         10.541566   0.000000
     35         10.917437   0.000000
     36         11.128872   0.000000
     37         11.488557   0.000000
     38         11.915680   0.000000
     39         12.311264   0.000000
     40         12.780491   0.000000
     41         12.914068   0.000000
     42         13.202011   0.000000
     43         13.779983   0.000000
     44         15.015937   0.000000
     45         15.455771   0.000000
     46         15.802852   0.000000
     47         15.855084   0.000000
     48         16.459878   0.000000
 
  0.2500000E+00  0.1071429E+00  0.0000000E+00  0.3174603E-02
      1        -12.575678   1.000000
      2        -11.771283   1.000000
      3         -8.568958   1.000000
      4         -8.367091   1.000000
      5         -5.932145   1.000000
      6         -5.759054   1.000000
      7         -4.715422   1.000000
      8         -4.372642   1.000000
      9         -3.475842   1.000000
     10         -3.215596   1.000000
     11         -2.687828   1.000000
     12         -1.887792   1.000000
     13         -1.710783   1.000000
     14         -1.301319   1.000000
     15         -0.202482   1.000000
     16         -0.201089   1.000000
     17          0.068627   1.000000
     18          0.226093   1.000000
     19          0.484293   1.000000
     20          1.553819   1.000000
     21          1.643384   1.000000
     22          1.912401   0.417800
     23          5.887017   0.000000
     24          5.962687   0.000000
     25          6.039887   0.000000
     26          6.591337   0.000000
     27          6.928811   0.000000
     28          7.312315   0.000000
     29          8.467091   0.000000
     30          8.531016   0.000000
     31          9.150161   0.000000
     32          9.659824   0.000000
     33          9.916829   0.000000
     34         10.166545   0.000000
     35         10.397664   0.000000
     36         10.871187   0.000000
     37         11.556492   0.000000
     38         12.149572   0.000000
     39         12.357124   0.000000
     40         12.596005   0.000000
     41         13.010399   0.000000
     42         13.065660   0.000000
     43         14.357948   0.000000
     44         15.145503   0.000000
     45         15.216012   0.000000
     46         15.702482   0.000000
     47         15.762824   0.000000
     48         16.479710   0.000000
 
  0.3500000E+00  0.1071429E+00  0.0000000E+00  0.3174603E-02
      1        -12.452343   1.000000
      2        -11.940271   1.000000
      3         -8.506902   1.000000
      4         -8.364888   1.000000
      5         -6.012509   1.000000
      6         -5.991475   1.000000
      7         -4.389488   1.000000
      8         -4.224715   1.000000
      9         -3.648508   1.000000
     10         -2.834602   1.000000
     11         -2.348863   1.000000
     12         -2.203689   1.000000
     13         -1.646119   1.000000
     14         -1.465579   1.000000
     15         -0.458545   1.000000
     16         -0.289831   1.000000
     17          0.101335   1.000000
     18          0.130353   1.000000
     19          0.643887   1.000000
     20          1.414037   1.000000
     21          1.497515   1.000000
     22          1.587350   1.000000
     23          5.905554   0.000000
     24          6.036685   0.000000
     25          6.545691   0.000000
     26          6.838304   0.000000
     27          6.910660   0.000000
     28          7.404381   0.000000
     29          8.453913   0.000000
     30          8.639806   0.000000
     31          8.984042   0.000000
     32          9.409960   0.000000
     33         10.116588   0.000000
     34         10.145137   0.000000
     35         10.484125   0.000000
     36         11.279732   0.000000
     37         11.406984   0.000000
     38         11.888248   0.000000
     39         12.347491   0.000000
     40         12.587905   0.000000
     41         12.764268   0.000000
     42         13.504505   0.000000
     43         14.818403   0.000000
     44         14.824627   0.000000
     45         15.210785   0.000000
     46         15.360628   0.000000
     47         15.710450   0.000000
     48         16.446466   0.000000
 
  0.4500000E+00  0.1071429E+00  0.0000000E+00  0.3174603E-02
      1        -12.297844   1.000000
      2        -12.122298   1.000000
      3         -8.440318   1.000000
      4         -8.388535   1.000000
      5         -6.104063   1.000000
      6         -6.098611   1.000000
      7         -4.044697   1.000000
      8         -3.880666   1.000000
      9         -3.839167   1.000000
     10         -3.274571   1.000000
     11         -2.095628   1.000000
     12         -1.900242   1.000000
     13         -1.577947   1.000000
     14         -1.577104   1.000000
     15         -0.679453   1.000000
     16         -0.579554   1.000000
     17          0.133367   1.000000
     18          0.164720   1.000000
     19          0.903812   1.000000
     20          1.218698   1.000000
     21          1.360192   1.000000
     22          1.384560   1.000000
     23          5.955940   0.000000
     24          6.020635   0.000000
     25          6.826388   0.000000
     26          6.876642   0.000000
     27          7.215383   0.000000
     28          7.930564   0.000000
     29          7.977544   0.000000
     30          8.662666   0.000000
     31          8.733420   0.000000
     32          8.847193   0.000000
     33         10.365026   0.000000
     34         10.612555   0.000000
     35         10.848117   0.000000
     36         10.956858   0.000000
     37         11.599405   0.000000
     38         11.712195   0.000000
     39         12.067580   0.000000
     40         12.700978   0.000000
     41         13.069396   0.000000
     42         13.530375   0.000000
     43         14.600322   0.000000
     44         14.784448   0.000000
     45         14.879898   0.000000
     46         15.097027   0.000000
     47         16.186197   0.000000
     48         16.480336   0.000000
 
  0.5000000E-01  0.1785714E+00  0.0000000E+00  0.3174603E-02
      1        -12.660361   1.000000
      2        -11.525262   1.000000
      3         -8.599170   1.000000
      4         -8.349280   1.000000
      5         -5.976764   1.000000
      6         -5.123398   1.000000
      7         -4.994104   1.000000
      8         -4.589758   1.000000
      9         -4.151778   1.000000
     10         -3.894916   1.000000
     11         -3.456205   1.000000
     12         -1.189029   1.000000
     13         -1.066093   1.000000
     14         -0.635477   1.000000
     15         -0.527676   1.000000
     16         -0.156276   1.000000
     17          0.210137   1.000000
     18          0.321938   1.000000
     19          0.742344   1.000000
     20          1.385626   1.000000
     21          1.449935   1.000000
     22          2.331069   0.000000
     23          5.311623   0.000000
     24          5.478670   0.000000
     25          6.154567   0.000000
     26          6.229233   0.000000
     27          7.572242   0.000000
     28          7.660916   0.000000
     29          8.351085   0.000000
     30          8.768547   0.000000
     31          8.924172   0.000000
     32          9.293987   0.000000
     33          9.417079   0.000000
     34         10.922976   0.000000
     35         11.361300   0.000000
     36         11.617363   0.000000
     37         11.737637   0.000000
     38         12.131115   0.000000
     39         12.307565   0.000000
     40         12.790753   0.000000
     41         12.804994   0.000000
     42         13.058419   0.000000
     43         13.265228   0.000000
     44         14.737194   0.000000
     45         15.217102   0.000000
     46         15.403690   0.000000
     47         15.479453   0.000000
     48         16.021971   0.000000
 
  0.1500000E+00  0.1785714E+00  0.0000000E+00  0.3174603E-02
      1        -12.616858   1.000000
      2        -11.598566   1.000000
      3         -8.577737   1.000000
      4         -8.338868   1.000000
      5         -5.903094   1.000000
      6         -5.384169   1.000000
      7         -5.023127   1.000000
      8         -4.719566   1.000000
      9         -3.961522   1.000000
     10         -3.699998   1.000000
     11         -3.115955   1.000000
     12         -1.373797   1.000000
     13         -1.162283   1.000000
     14         -0.741966   1.000000
     15         -0.489545   1.000000
     16         -0.075721   1.000000
     17          0.192072   1.000000
     18          0.264086   1.000000
     19          0.630010   1.000000
     20          1.306292   1.000000
     21          1.380076   1.000000
     22          2.194793   0.000000
     23          5.391757   0.000000
     24          5.826241   0.000000
     25          6.175209   0.000000
     26          6.268362   0.000000
     27          7.491199   0.000000
     28          7.817498   0.000000
     29          8.083272   0.000000
     30          8.858594   0.000000
     31          9.304371   0.000000
     32          9.329284   0.000000
     33          9.702425   0.000000
     34         10.558300   0.000000
     35         10.822248   0.000000
     36         11.320284   0.000000
     37         11.755796   0.000000
     38         12.242211   0.000000
     39         12.475183   0.000000
     40         12.542401   0.000000
     41         13.211416   0.000000
     42         13.315201   0.000000
     43         13.487558   0.000000
     44         14.745595   0.000000
     45         14.877281   0.000000
     46         15.349306   0.000000
     47         15.543056   0.000000
     48         16.043036   0.000000
 
  0.2500000E+00  0.1785714E+00  0.0000000E+00  0.3174603E-02
      1        -12.531712   1.000000
      2        -11.730678   1.000000
      3         -8.533645   1.000000
      4         -8.326227   1.000000
      5         -5.873480   1.000000
      6         -5.704091   1.000000
      7         -4.931317   1.000000
      8         -4.684139   1.000000
      9         -4.086019   1.000000
     10         -3.164711   1.000000
     11         -2.643674   1.000000
     12         -1.871338   1.000000
     13         -1.121386   1.000000
     14         -0.880386   1.000000
     15         -0.436236   1.000000
     16         -0.064105   1.000000
     17          0.030813   1.000000
     18          0.276508   1.000000
     19          0.514525   1.000000
     20          1.174408   1.000000
     21          1.261488   1.000000
     22          1.937447   0.179853
     23          5.713734   0.000000
     24          6.130172   0.000000
     25          6.304360   0.000000
     26          6.397691   0.000000
     27          7.388101   0.000000
     28          7.893102   0.000000
     29          8.051184   0.000000
     30          8.986936   0.000000
     31          9.294740   0.000000
     32          9.764043   0.000000
     33          9.891722   0.000000
     34         10.184205   0.000000
     35         10.296389   0.000000
     36         11.109796   0.000000
     37         11.627448   0.000000
     38         12.149097   0.000000
     39         12.554711   0.000000
     40         12.842559   0.000000
     41         13.095471   0.000000
     42         13.491577   0.000000
     43         14.010438   0.000000
     44         14.652153   0.000000
     45         14.927446   0.000000
     46         15.366267   0.000000
     47         15.563965   0.000000
     48         16.253507   0.000000
 
  0.3500000E+00  0.1785714E+00  0.0000000E+00  0.3174603E-02
      1        -12.408900   1.000000
      2        -11.898981   1.000000
      3         -8.471154   1.000000
      4         -8.325749   1.000000
      5         -5.951545   1.000000
      6         -5.933529   1.000000
      7         -4.794798   1.000000
      8         -4.362591   1.000000
      9         -4.251678   1.000000
     10         -2.795419   1.000000
     11         -2.307371   1.000000
     12         -2.162472   1.000000
     13         -1.064516   1.000000
     14         -1.016880   1.000000
     15         -0.440064   1.000000
     16         -0.351178   1.000000
     17          0.075003   1.000000
     18          0.080167   1.000000
     19          0.661626   1.000000
     20          1.044517   1.000000
     21          1.128393   1.000000
     22          1.601598   1.000000
     23          6.140790   0.000000
     24          6.250851   0.000000
     25          6.429821   0.000000
     26          6.833555   0.000000
     27          7.331064   0.000000
     28          7.813663   0.000000
     29          8.104524   0.000000
     30          9.086628   0.000000
     31          9.142679   0.000000
     32          9.218263   0.000000
     33          9.933164   0.000000
     34         10.232470   0.000000
     35         10.743050   0.000000
     36         11.121813   0.000000
     37         11.379144   0.000000
     38         11.995454   0.000000
     39         12.410352   0.000000
     40         13.029575   0.000000
     41         13.080476   0.000000
     42         13.837815   0.000000
     43         14.436764   0.000000
     44         14.450143   0.000000
     45         15.085260   0.000000
     46         15.177665   0.000000
     47         15.672254   0.000000
     48         16.429505   0.000000
 
  0.4500000E+00  0.1785714E+00  0.0000000E+00  0.3174603E-02
      1        -12.255054   1.000000
      2        -12.080246   1.000000
      3         -8.403914   1.000000
      4         -8.351014   1.000000
      5         -6.044158   1.000000
      6         -6.037648   1.000000
      7         -4.626062   1.000000
      8         -4.439265   1.000000
      9         -3.849008   1.000000
     10         -3.251840   1.000000
     11         -2.025688   1.000000
     12         -1.859254   1.000000
     13         -1.087321   1.000000
     14         -1.024221   1.000000
     15         -0.610907   1.000000
     16         -0.602775   1.000000
     17          0.024898   1.000000
     18          0.068467   1.000000
     19          0.919519   1.000000
     20          0.982304   1.000000
     21          1.023471   1.000000
     22          1.247328   1.000000
     23          6.232264   0.000000
     24          6.349613   0.000000
     25          6.905831   0.000000
     26          7.248728   0.000000
     27          7.308154   0.000000
     28          7.652318   0.000000
     29          7.961387   0.000000
     30          8.475186   0.000000
     31          9.143160   0.000000
     32          9.175774   0.000000
     33         10.056231   0.000000
     34         10.527681   0.000000
     35         10.753083   0.000000
     36         11.019751   0.000000
     37         11.780055   0.000000
     38         11.802565   0.000000
     39         12.190145   0.000000
     40         12.961338   0.000000
     41         13.461441   0.000000
     42         13.810785   0.000000
     43         14.281293   0.000000
     44         14.436166   0.000000
     45         15.043970   0.000000
     46         15.184750   0.000000
     47         16.047586   0.000000
     48         16.352616   0.000000
 
  0.5000000E-01  0.2500000E+00  0.0000000E+00  0.3174603E-02
      1        -12.602688   1.000000
      2        -11.473869   1.000000
      3         -8.554938   1.000000
      4         -8.293758   1.000000
      5         -5.912100   1.000000
      6         -5.605101   1.000000
      7         -4.923360   1.000000
      8         -4.533134   1.000000
      9         -4.415905   1.000000
     10         -4.112302   1.000000
     11         -3.393882   1.000000
     12         -1.209123   1.000000
     13         -1.051896   1.000000
     14         -0.991869   1.000000
     15         -0.176395   1.000000
     16          0.238577   1.000000
     17          0.365716   1.000000
     18          0.615402   1.000000
     19          0.806384   1.000000
     20          0.999466   1.000000
     21          1.013777   1.000000
     22          2.365562   0.000000
     23          4.966042   0.000000
     24          5.183638   0.000000
     25          6.390485   0.000000
     26          6.619705   0.000000
     27          7.300874   0.000000
     28          8.006957   0.000000
     29          8.746030   0.000000
     30          9.094896   0.000000
     31          9.515380   0.000000
     32          9.618353   0.000000
     33          9.698333   0.000000
     34         10.784515   0.000000
     35         11.313901   0.000000
     36         12.008299   0.000000
     37         12.055980   0.000000
     38         12.341946   0.000000
     39         12.466434   0.000000
     40         12.489015   0.000000
     41         12.609540   0.000000
     42         13.044230   0.000000
     43         13.853013   0.000000
     44         13.926128   0.000000
     45         14.473668   0.000000
     46         15.152090   0.000000
     47         15.450944   0.000000
     48         15.925295   0.000000
 
  0.1500000E+00  0.2500000E+00  0.0000000E+00  0.3174603E-02
      1        -12.559430   1.000000
      2        -11.546800   1.000000
      3         -8.533122   1.000000
      4         -8.284315   1.000000
      5         -5.833788   1.000000
      6         -5.570389   1.000000
      7         -5.261822   1.000000
      8         -4.669330   1.000000