<?xml version="1.0" encoding="ISO-8859-1"?>
<modeling>
 <generator>
  <i name="program" type="string">vasp </i>
  <i name="version" type="string">6.4.3  </i>
  <i name="subversion" type="string">19Mar24 (build May 31 2024 16:31:43) complex                          parallel </i>
  <i name="platform" type="string">LinuxIFC </i>
  <i name="date" type="string">2024 11 11 </i>
  <i name="time" type="string">16:04:55 </i>
 </generator>
 <incar>
  <i type="string" name="SYSTEM">Convergence</i>
  <i type="int" name="ISTART">     0</i>
  <i type="string" name="PREC">Accurate</i>
  <i type="string" name="ALGO">Normal</i>
  <i type="int" name="ISPIN">     1</i>
  <i type="int" name="ICHARG">     2</i>
  <i type="int" name="NELM">   100</i>
  <i type="int" name="IBRION">    -1</i>
  <i name="EDIFF">      0.00000100</i>
  <i name="EDIFFG">     -0.00100000</i>
  <i type="int" name="NSW">     0</i>
  <i type="int" name="ISIF">     2</i>
  <i name="ENCUT">    600.00000000</i>
  <i name="POTIM">      0.50000000</i>
  <i type="int" name="ISMEAR">     0</i>
  <i name="SIGMA">      0.05000000</i>
  <i type="logical" name="LWAVE"> F  </i>
  <i type="logical" name="LCHARG"> F  </i>
  <i type="string" name="GGA">PE</i>
 </incar>
 <primitive_cell>
  <structure name="primitive_cell" >
   <crystal>
    <varray name="basis" >
     <v>       5.69016360       0.00000000       0.00000000 </v>
     <v>       0.00000000       4.04304252       0.00000000 </v>
     <v>       0.00000000       0.00000000       6.19675496 </v>
    </varray>
    <i name="volume">    142.55990095 </i>
    <varray name="rec_basis" >
     <v>       0.17574187       0.00000000       0.00000000 </v>
     <v>       0.00000000       0.24733848       0.00000000 </v>
     <v>       0.00000000       0.00000000       0.16137479 </v>
    </varray>
   </crystal>
   <varray name="positions" >
    <v>       0.52123000       0.50000000       0.63796000 </v>
    <v>       0.47877000       0.50000000       0.36204000 </v>
    <v>       0.97877000       0.50000000       0.63796000 </v>
    <v>       0.02123000       0.50000000       0.36204000 </v>
    <v>       0.60090000       0.50000000       0.89991000 </v>
    <v>       0.39910000       0.50000000       0.10009000 </v>
    <v>       0.89910000       0.50000000       0.89991000 </v>
    <v>       0.10090000       0.50000000       0.10009000 </v>
    <v>       0.75000000       0.79171000       0.72973000 </v>
    <v>       0.25000000       0.20829000       0.27027000 </v>
    <v>       0.75000000       0.20829000       0.72973000 </v>
    <v>       0.25000000       0.79171000       0.27027000 </v>
    <v>       0.25000000       0.50000000       0.52367000 </v>
    <v>       0.75000000       0.50000000       0.47633000 </v>
   </varray>
  </structure>
  <varray name="primitive_index" >
   <v type="int" >        1 </v>
   <v type="int" >        2 </v>
   <v type="int" >        3 </v>
   <v type="int" >        4 </v>
   <v type="int" >        5 </v>
   <v type="int" >        6 </v>
   <v type="int" >        7 </v>
   <v type="int" >        8 </v>
   <v type="int" >        9 </v>
   <v type="int" >       10 </v>
   <v type="int" >       11 </v>
   <v type="int" >       12 </v>
   <v type="int" >       13 </v>
   <v type="int" >       14 </v>
  </varray>
 </primitive_cell>
 <kpoints>
  <generation param="Monkhorst-Pack">
   <v type="int" name="divisions">      10       14        9 </v>
   <v name="usershift">      0.00000000       0.00000000       0.00000000 </v>
   <v name="genvec1">      0.10000000       0.00000000       0.00000000 </v>
   <v name="genvec2">      0.00000000       0.07142857       0.00000000 </v>
   <v name="genvec3">      0.00000000       0.00000000       0.11111111 </v>
   <v name="shift">      0.50000000       0.50000000       0.00000000 </v>
  </generation>
  <varray name="kpointlist" >
   <v>       0.05000000       0.03571429       0.00000000 </v>
   <v>       0.15000000       0.03571429       0.00000000 </v>
   <v>       0.25000000       0.03571429       0.00000000 </v>
   <v>       0.35000000       0.03571429       0.00000000 </v>
   <v>       0.45000000       0.03571429       0.00000000 </v>
   <v>       0.05000000       0.10714286       0.00000000 </v>
   <v>       0.15000000       0.10714286       0.00000000 </v>
   <v>       0.25000000       0.10714286       0.00000000 </v>
   <v>       0.35000000       0.10714286       0.00000000 </v>
   <v>       0.45000000       0.10714286       0.00000000 </v>
   <v>       0.05000000       0.17857143       0.00000000 </v>
   <v>       0.15000000       0.17857143       0.00000000 </v>
   <v>       0.25000000       0.17857143       0.00000000 </v>
   <v>       0.35000000       0.17857143       0.00000000 </v>
   <v>       0.45000000       0.17857143       0.00000000 </v>
   <v>       0.05000000       0.25000000       0.00000000 </v>
   <v>       0.15000000       0.25000000       0.00000000 </v>
   <v>       0.25000000       0.25000000       0.00000000 </v>
   <v>       0.35000000       0.25000000       0.00000000 </v>
   <v>       0.45000000       0.25000000       0.00000000 </v>
   <v>       0.05000000       0.32142857       0.00000000 </v>
   <v>       0.15000000       0.32142857       0.00000000 </v>
   <v>       0.25000000       0.32142857       0.00000000 </v>
   <v>       0.35000000       0.32142857       0.00000000 </v>
   <v>       0.45000000       0.32142857       0.00000000 </v>
   <v>       0.05000000       0.39285714       0.00000000 </v>
   <v>       0.15000000       0.39285714       0.00000000 </v>
   <v>       0.25000000       0.39285714       0.00000000 </v>
   <v>       0.35000000       0.39285714       0.00000000 </v>
   <v>       0.45000000       0.39285714       0.00000000 </v>
   <v>       0.05000000       0.46428571       0.00000000 </v>
   <v>       0.15000000       0.46428571       0.00000000 </v>
   <v>       0.25000000       0.46428571       0.00000000 </v>
   <v>       0.35000000       0.46428571       0.00000000 </v>
   <v>       0.45000000       0.46428571       0.00000000 </v>
   <v>       0.05000000       0.03571429       0.11111111 </v>
   <v>       0.15000000       0.03571429       0.11111111 </v>
   <v>       0.25000000       0.03571429       0.11111111 </v>
   <v>       0.35000000       0.03571429       0.11111111 </v>
   <v>       0.45000000       0.03571429       0.11111111 </v>
   <v>       0.05000000       0.10714286       0.11111111 </v>
   <v>       0.15000000       0.10714286       0.11111111 </v>
   <v>       0.25000000       0.10714286       0.11111111 </v>
   <v>       0.35000000       0.10714286       0.11111111 </v>
   <v>       0.45000000       0.10714286       0.11111111 </v>
   <v>       0.05000000       0.17857143       0.11111111 </v>
   <v>       0.15000000       0.17857143       0.11111111 </v>
   <v>       0.25000000       0.17857143       0.11111111 </v>
   <v>       0.35000000       0.17857143       0.11111111 </v>
   <v>       0.45000000       0.17857143       0.11111111 </v>
   <v>       0.05000000       0.25000000       0.11111111 </v>
   <v>       0.15000000       0.25000000       0.11111111 </v>
   <v>       0.25000000       0.25000000       0.11111111 </v>
   <v>       0.35000000       0.25000000       0.11111111 </v>
   <v>       0.45000000       0.25000000       0.11111111 </v>
   <v>       0.05000000       0.32142857       0.11111111 </v>
   <v>       0.15000000       0.32142857       0.11111111 </v>
   <v>       0.25000000       0.32142857       0.11111111 </v>
   <v>       0.35000000       0.32142857       0.11111111 </v>
   <v>       0.45000000       0.32142857       0.11111111 </v>
   <v>       0.05000000       0.39285714       0.11111111 </v>
   <v>       0.15000000       0.39285714       0.11111111 </v>
   <v>       0.25000000       0.39285714       0.11111111 </v>
   <v>       0.35000000       0.39285714       0.11111111 </v>
   <v>       0.45000000       0.39285714       0.11111111 </v>
   <v>       0.05000000       0.46428571       0.11111111 </v>
   <v>       0.15000000       0.46428571       0.11111111 </v>
   <v>       0.25000000       0.46428571       0.11111111 </v>
   <v>       0.35000000       0.46428571       0.11111111 </v>
   <v>       0.45000000       0.46428571       0.11111111 </v>
   <v>       0.05000000       0.03571429       0.22222222 </v>
   <v>       0.15000000       0.03571429       0.22222222 </v>
   <v>       0.25000000       0.03571429       0.22222222 </v>
   <v>       0.35000000       0.03571429       0.22222222 </v>
   <v>       0.45000000       0.03571429       0.22222222 </v>
   <v>       0.05000000       0.10714286       0.22222222 </v>
   <v>       0.15000000       0.10714286       0.22222222 </v>
   <v>       0.25000000       0.10714286       0.22222222 </v>
   <v>       0.35000000       0.10714286       0.22222222 </v>
   <v>       0.45000000       0.10714286       0.22222222 </v>
   <v>       0.05000000       0.17857143       0.22222222 </v>
   <v>       0.15000000       0.17857143       0.22222222 </v>
   <v>       0.25000000       0.17857143       0.22222222 </v>
   <v>       0.35000000       0.17857143       0.22222222 </v>
   <v>       0.45000000       0.17857143       0.22222222 </v>
   <v>       0.05000000       0.25000000       0.22222222 </v>
   <v>       0.15000000       0.25000000       0.22222222 </v>
   <v>       0.25000000       0.25000000       0.22222222 </v>
   <v>       0.35000000       0.25000000       0.22222222 </v>
   <v>       0.45000000       0.25000000       0.22222222 </v>
   <v>       0.05000000       0.32142857       0.22222222 </v>
   <v>       0.15000000       0.32142857       0.22222222 </v>
   <v>       0.25000000       0.32142857       0.22222222 </v>
   <v>       0.35000000       0.32142857       0.22222222 </v>
   <v>       0.45000000       0.32142857       0.22222222 </v>
   <v>       0.05000000       0.39285714       0.22222222 </v>
   <v>       0.15000000       0.39285714       0.22222222 </v>
   <v>       0.25000000       0.39285714       0.22222222 </v>
   <v>       0.35000000       0.39285714       0.22222222 </v>
   <v>       0.45000000       0.39285714       0.22222222 </v>
   <v>       0.05000000       0.46428571       0.22222222 </v>
   <v>       0.15000000       0.46428571       0.22222222 </v>
   <v>       0.25000000       0.46428571       0.22222222 </v>
   <v>       0.35000000       0.46428571       0.22222222 </v>
   <v>       0.45000000       0.46428571       0.22222222 </v>
   <v>       0.05000000       0.03571429       0.33333333 </v>
   <v>       0.15000000       0.03571429       0.33333333 </v>
   <v>       0.25000000       0.03571429       0.33333333 </v>
   <v>       0.35000000       0.03571429       0.33333333 </v>
   <v>       0.45000000       0.03571429       0.33333333 </v>
   <v>       0.05000000       0.10714286       0.33333333 </v>
   <v>       0.15000000       0.10714286       0.33333333 </v>
   <v>       0.25000000       0.10714286       0.33333333 </v>
   <v>       0.35000000       0.10714286       0.33333333 </v>
   <v>       0.45000000       0.10714286       0.33333333 </v>
   <v>       0.05000000       0.17857143       0.33333333 </v>
   <v>       0.15000000       0.17857143       0.33333333 </v>
   <v>       0.25000000       0.17857143       0.33333333 </v>
   <v>       0.35000000       0.17857143       0.33333333 </v>
   <v>       0.45000000       0.17857143       0.33333333 </v>
   <v>       0.05000000       0.25000000       0.33333333 </v>
   <v>       0.15000000       0.25000000       0.33333333 </v>
   <v>       0.25000000       0.25000000       0.33333333 </v>
   <v>       0.35000000       0.25000000       0.33333333 </v>
   <v>       0.45000000       0.25000000       0.33333333 </v>
   <v>       0.05000000       0.32142857       0.33333333 </v>
   <v>       0.15000000       0.32142857       0.33333333 </v>
   <v>       0.25000000       0.32142857       0.33333333 </v>
   <v>       0.35000000       0.32142857       0.33333333 </v>
   <v>       0.45000000       0.32142857       0.33333333 </v>
   <v>       0.05000000       0.39285714       0.33333333 </v>
   <v>       0.15000000       0.39285714       0.33333333 </v>
   <v>       0.25000000       0.39285714       0.33333333 </v>
   <v>       0.35000000       0.39285714       0.33333333 </v>
   <v>       0.45000000       0.39285714       0.33333333 </v>
   <v>       0.05000000       0.46428571       0.33333333 </v>
   <v>       0.15000000       0.46428571       0.33333333 </v>
   <v>       0.25000000       0.46428571       0.33333333 </v>
   <v>       0.35000000       0.46428571       0.33333333 </v>
   <v>       0.45000000       0.46428571       0.33333333 </v>
   <v>       0.05000000       0.03571429       0.44444444 </v>
   <v>       0.15000000       0.03571429       0.44444444 </v>
   <v>       0.25000000       0.03571429       0.44444444 </v>
   <v>       0.35000000       0.03571429       0.44444444 </v>
   <v>       0.45000000       0.03571429       0.44444444 </v>
   <v>       0.05000000       0.10714286       0.44444444 </v>
   <v>       0.15000000       0.10714286       0.44444444 </v>
   <v>       0.25000000       0.10714286       0.44444444 </v>
   <v>       0.35000000       0.10714286       0.44444444 </v>
   <v>       0.45000000       0.10714286       0.44444444 </v>
   <v>       0.05000000       0.17857143       0.44444444 </v>
   <v>       0.15000000       0.17857143       0.44444444 </v>
   <v>       0.25000000       0.17857143       0.44444444 </v>
   <v>       0.35000000       0.17857143       0.44444444 </v>
   <v>       0.45000000       0.17857143       0.44444444 </v>
   <v>       0.05000000       0.25000000       0.44444444 </v>
   <v>       0.15000000       0.25000000       0.44444444 </v>
   <v>       0.25000000       0.25000000       0.44444444 </v>
   <v>       0.35000000       0.25000000       0.44444444 </v>
   <v>       0.45000000       0.25000000       0.44444444 </v>
   <v>       0.05000000       0.32142857       0.44444444 </v>
   <v>       0.15000000       0.32142857       0.44444444 </v>
   <v>       0.25000000       0.32142857       0.44444444 </v>
   <v>       0.35000000       0.32142857       0.44444444 </v>
   <v>       0.45000000       0.32142857       0.44444444 </v>
   <v>       0.05000000       0.39285714       0.44444444 </v>
   <v>       0.15000000       0.39285714       0.44444444 </v>
   <v>       0.25000000       0.39285714       0.44444444 </v>
   <v>       0.35000000       0.39285714       0.44444444 </v>
   <v>       0.45000000       0.39285714       0.44444444 </v>
   <v>       0.05000000       0.46428571       0.44444444 </v>
   <v>       0.15000000       0.46428571       0.44444444 </v>
   <v>       0.25000000       0.46428571       0.44444444 </v>
   <v>       0.35000000       0.46428571       0.44444444 </v>
   <v>       0.45000000       0.46428571       0.44444444 </v>
  </varray>
  <varray name="weights" >
   <v>       0.00317460 </v>
   <v>       0.00317460 </v>
   <v>       0.00317460 </v>
   <v>       0.00317460 </v>
   <v>       0.00317460 </v>
   <v>       0.00317460 </v>
   <v>       0.00317460 </v>
   <v>       0.00317460 </v>
   <v>       0.00317460 </v>
   <v>       0.00317460 </v>
   <v>       0.00317460 </v>
   <v>       0.00317460 </v>
   <v>       0.00317460 </v>
   <v>       0.00317460 </v>
   <v>       0.00317460 </v>
   <v>       0.00317460 </v>
   <v>       0.00317460 </v>
   <v>       0.00317460 </v>
   <v>       0.00317460 </v>
   <v>       0.00317460 </v>
   <v>       0.00317460 </v>
   <v>       0.00317460 </v>
   <v>       0.00317460 </v>
   <v>       0.00317460 </v>
   <v>       0.00317460 </v>
   <v>       0.00317460 </v>
   <v>       0.00317460 </v>
   <v>       0.00317460 </v>
   <v>       0.00317460 </v>
   <v>       0.00317460 </v>
   <v>       0.00317460 </v>
   <v>       0.00317460 </v>
   <v>       0.00317460 </v>
   <v>       0.00317460 </v>
   <v>       0.00317460 </v>
   <v>       0.00634921 </v>
   <v>       0.00634921 </v>
   <v>       0.00634921 </v>
   <v>       0.00634921 </v>
   <v>       0.00634921 </v>
   <v>       0.00634921 </v>
   <v>       0.00634921 </v>
   <v>       0.00634921 </v>
   <v>       0.00634921 </v>
   <v>       0.00634921 </v>
   <v>       0.00634921 </v>
   <v>       0.00634921 </v>
   <v>       0.00634921 </v>
   <v>       0.00634921 </v>
   <v>       0.00634921 </v>
   <v>       0.00634921 </v>
   <v>       0.00634921 </v>
   <v>       0.00634921 </v>
   <v>       0.00634921 </v>
   <v>       0.00634921 </v>
   <v>       0.00634921 </v>
   <v>       0.00634921 </v>
   <v>       0.00634921 </v>
   <v>       0.00634921 </v>
   <v>       0.00634921 </v>
   <v>       0.00634921 </v>
   <v>       0.00634921 </v>
   <v>       0.00634921 </v>
   <v>       0.00634921 </v>
   <v>       0.00634921 </v>
   <v>       0.00634921 </v>
   <v>       0.00634921 </v>
   <v>       0.00634921 </v>
   <v>       0.00634921 </v>
   <v>       0.00634921 </v>
   <v>       0.00634921 </v>
   <v>       0.00634921 </v>
   <v>       0.00634921 </v>
   <v>       0.00634921 </v>
   <v>       0.00634921 </v>
   <v>       0.00634921 </v>
   <v>       0.00634921 </v>
   <v>       0.00634921 </v>
   <v>       0.00634921 </v>
   <v>       0.00634921 </v>
   <v>       0.00634921 </v>
   <v>       0.00634921 </v>
   <v>       0.00634921 </v>
   <v>       0.00634921 </v>
   <v>       0.00634921 </v>
   <v>       0.00634921 </v>
   <v>       0.00634921 </v>
   <v>       0.00634921 </v>
   <v>       0.00634921 </v>
   <v>       0.00634921 </v>
   <v>       0.00634921 </v>
   <v>       0.00634921 </v>
   <v>       0.00634921 </v>
   <v>       0.00634921 </v>
   <v>       0.00634921 </v>
   <v>       0.00634921 </v>
   <v>       0.00634921 </v>
   <v>       0.00634921 </v>
   <v>       0.00634921 </v>
   <v>       0.00634921 </v>
   <v>       0.00634921 </v>
   <v>       0.00634921 </v>
   <v>       0.00634921 </v>
   <v>       0.00634921 </v>
   <v>       0.00634921 </v>
   <v>       0.00634921 </v>
   <v>       0.00634921 </v>
   <v>       0.00634921 </v>
   <v>       0.00634921 </v>
   <v>       0.00634921 </v>
   <v>       0.00634921 </v>
   <v>       0.00634921 </v>
   <v>       0.00634921 </v>
   <v>       0.00634921 </v>
   <v>       0.00634921 </v>
   <v>       0.00634921 </v>
   <v>       0.00634921 </v>
   <v>       0.00634921 </v>
   <v>       0.00634921 </v>
   <v>       0.00634921 </v>
   <v>       0.00634921 </v>
   <v>       0.00634921 </v>
   <v>       0.00634921 </v>
   <v>       0.00634921 </v>
   <v>       0.00634921 </v>
   <v>       0.00634921 </v>
   <v>       0.00634921 </v>
   <v>       0.00634921 </v>
   <v>       0.00634921 </v>
   <v>       0.00634921 </v>
   <v>       0.00634921 </v>
   <v>       0.00634921 </v>
   <v>       0.00634921 </v>
   <v>       0.00634921 </v>
   <v>       0.00634921 </v>
   <v>       0.00634921 </v>
   <v>       0.00634921 </v>
   <v>       0.00634921 </v>
   <v>       0.00634921 </v>
   <v>       0.00634921 </v>
   <v>       0.00634921 </v>
   <v>       0.00634921 </v>
   <v>       0.00634921 </v>
   <v>       0.00634921 </v>
   <v>       0.00634921 </v>
   <v>       0.00634921 </v>
   <v>       0.00634921 </v>
   <v>       0.00634921 </v>
   <v>       0.00634921 </v>
   <v>       0.00634921 </v>
   <v>       0.00634921 </v>
   <v>       0.00634921 </v>
   <v>       0.00634921 </v>
   <v>       0.00634921 </v>
   <v>       0.00634921 </v>
   <v>       0.00634921 </v>
   <v>       0.00634921 </v>
   <v>       0.00634921 </v>
   <v>       0.00634921 </v>
   <v>       0.00634921 </v>
   <v>       0.00634921 </v>
   <v>       0.00634921 </v>
   <v>       0.00634921 </v>
   <v>       0.00634921 </v>
   <v>       0.00634921 </v>
   <v>       0.00634921 </v>
   <v>       0.00634921 </v>
   <v>       0.00634921 </v>
   <v>       0.00634921 </v>
   <v>       0.00634921 </v>
   <v>       0.00634921 </v>
   <v>       0.00634921 </v>
   <v>       0.00634921 </v>
   <v>       0.00634921 </v>
   <v>       0.00634921 </v>
  </varray>
 </kpoints>
 <parameters>
  <separator name="general" >
   <i type="string" name="SYSTEM">Convergence</i>
   <i type="logical" name="LCOMPAT"> F  </i>
  </separator>
  <separator name="electronic" >
   <i type="string" name="PREC">accura</i>
   <i name="ENMAX">    600.00000000</i>
   <i name="ENAUG">    535.51400000</i>
   <i name="EDIFF">      0.00000100</i>
   <i type="int" name="IALGO">    38</i>
   <i type="int" name="IWAVPR">    10</i>
   <i type="int" name="NBANDS">    48</i>
   <i type="int" name="NBANDSLOW">    -1</i>
   <i type="int" name="NBANDSHIGH">    -1</i>
   <i name="NELECT">     42.00000000</i>
   <i type="int" name="TURBO">     0</i>
   <i type="int" name="IRESTART">     0</i>
   <i type="int" name="NREBOOT">     0</i>
   <i type="int" name="NMIN">     0</i>
   <i name="EREF">      0.00000000</i>
   <separator name="electronic smearing" >
    <i type="int" name="ISMEAR">     0</i>
    <i name="SIGMA">      0.05000000</i>
    <i name="KSPACING">      0.50000000</i>
    <i type="logical" name="KGAMMA"> T  </i>
    <i type="logical" name="KBLOWUP"> T  </i>
   </separator>
   <separator name="electronic projectors" >
    <i type="logical" name="LREAL"> F  </i>
    <v name="ROPT">      0.00000000</v>
    <i type="int" name="LMAXPAW">  -100</i>
    <i type="int" name="LMAXMIX">     2</i>
    <i type="logical" name="NLSPLINE"> F  </i>
   </separator>
   <separator name="electronic startup" >
    <i type="int" name="ISTART">     0</i>
    <i type="int" name="ICHARG">     2</i>
    <i type="int" name="INIWAV">     1</i>
   </separator>
   <separator name="electronic spin" >
    <i type="int" name="ISPIN">     1</i>
    <i type="logical" name="LNONCOLLINEAR"> F  </i>
    <v name="MAGMOM">      1.00000000      1.00000000      1.00000000      1.00000000      1.00000000      1.00000000      1.00000000      1.00000000      1.00000000      1.00000000      1.00000000      1.00000000      1.00000000      1.00000000</v>
    <i name="NUPDOWN">     -1.00000000</i>
    <i type="logical" name="LSORBIT"> F  </i>
    <v name="SAXIS">      0.00000000      0.00000000      1.00000000</v>
    <i type="logical" name="LSPIRAL"> F  </i>
    <v name="QSPIRAL">      0.00000000      0.00000000      0.00000000</v>
    <i type="logical" name="LZEROZ"> F  </i>
   </separator>
   <separator name="electronic exchange-correlation" >
    <i type="logical" name="LASPH"> F  </i>
   </separator>
   <separator name="electronic convergence" >
    <i type="int" name="NELM">   100</i>
    <i type="int" name="NELMDL">    -5</i>
    <i type="int" name="NELMIN">     2</i>
    <i name="ENINI">    600.00000000</i>
    <separator name="electronic convergence detail" >
     <i type="logical" name="LDIAG"> T  </i>
     <i type="logical" name="LSUBROT"> F  </i>
     <i name="WEIMIN">      0.00000000</i>
     <i name="EBREAK">      0.00000001</i>
     <i name="DEPER">      0.30000000</i>
     <i type="int" name="NRMM">     4</i>
     <i name="TIME">      0.40000000</i>
    </separator>
   </separator>
   <separator name="electronic mixer" >
    <i name="AMIX">      0.40000000</i>
    <i name="BMIX">      1.00000000</i>
    <i name="AMIN">      0.10000000</i>
    <i name="AMIX_MAG">      1.60000000</i>
    <i name="BMIX_MAG">      1.00000000</i>
    <separator name="electronic mixer details" >
     <i type="int" name="IMIX">     4</i>
     <i type="logical" name="MIXFIRST"> F  </i>
     <i type="int" name="MAXMIX">   -45</i>
     <i name="WC">    100.00000000</i>
     <i type="int" name="INIMIX">     1</i>
     <i type="int" name="MIXPRE">     1</i>
     <i type="int" name="MREMOVE">     5</i>
    </separator>
   </separator>
   <separator name="electronic dipolcorrection" >
    <i type="logical" name="LDIPOL"> F  </i>
    <i type="logical" name="LMONO"> F  </i>
    <i type="int" name="IDIPOL">     0</i>
    <i name="EPSILON">      1.00000000</i>
    <v name="DIPOL">   -100.00000000   -100.00000000   -100.00000000</v>
    <i name="EFIELD">      0.00000000</i>
    <i type="logical" name="LVACPOTAV"> F  </i>
   </separator>
  </separator>
  <separator name="grids" >
   <i type="int" name="NGX">    48</i>
   <i type="int" name="NGY">    32</i>
   <i type="int" name="NGZ">    50</i>
   <i type="int" name="NGXF">    96</i>
   <i type="int" name="NGYF">    64</i>
   <i type="int" name="NGZF">   100</i>
   <i type="logical" name="ADDGRID"> F  </i>
  </separator>
  <separator name="ionic" >
   <i type="int" name="NSW">     0</i>
   <i type="int" name="IBRION">    -1</i>
   <i type="int" name="MDALGO">     0</i>
   <i type="int" name="ISIF">     2</i>
   <i name="PSTRESS">      0.00000000</i>
   <i name="EDIFFG">     -0.00100000</i>
   <i type="int" name="NFREE">     0</i>
   <i name="POTIM">      0.50000000</i>
   <i name="SMASS">     -3.00000000</i>
   <i name="SCALEE">      1.00000000</i>
  </separator>
  <separator name="ionic md" >
   <i name="TEBEG">      0.00010000</i>
   <i name="TEEND">      0.00010000</i>
   <i type="int" name="NBLOCK">     1</i>
   <i type="int" name="KBLOCK">     1</i>
   <i type="int" name="NPACO">   256</i>
   <i name="APACO">     10.00000000</i>
  </separator>
  <separator name="symmetry" >
   <i type="int" name="ISYM">     2</i>
   <i name="SYMPREC">      0.00001000</i>
  </separator>
  <separator name="dos" >
   <i type="int" name="LORBIT">     0</i>
   <v name="RWIGS">     -1.00000000</v>
   <i type="int" name="NEDOS">   301</i>
   <i name="EMIN">     10.00000000</i>
   <i name="EMAX">    -10.00000000</i>
   <i name="EFERMI">      0.00000000</i>
  </separator>
  <separator name="writing" >
   <i type="int" name="NWRITE">     2</i>
   <i type="logical" name="LWAVE"> F  </i>
   <i type="logical" name="LDOWNSAMPLE"> F  </i>
   <i type="logical" name="LCHARG"> F  </i>
   <i type="logical" name="LPARD"> F  </i>
   <i type="logical" name="LVTOT"> F  </i>
   <i type="logical" name="LVHAR"> F  </i>
   <i type="logical" name="LELF"> F  </i>
   <i type="logical" name="LOPTICS"> F  </i>
   <v name="STM">      0.00000000      0.00000000      0.00000000      0.00000000      0.00000000      0.00000000      0.00000000</v>
  </separator>
  <separator name="performance" >
   <i type="int" name="NPAR">    24</i>
   <i type="int" name="NSIM">     4</i>
   <i type="int" name="NBLK">    -1</i>
   <i type="logical" name="LPLANE"> T  </i>
   <i type="logical" name="LSCALAPACK"> T  </i>
   <i type="logical" name="LSCAAWARE"> F  </i>
   <i type="logical" name="LSCALU"> F  </i>
   <i type="logical" name="LASYNC"> F  </i>
   <i type="logical" name="LORBITALREAL"> F  </i>
  </separator>
  <separator name="miscellaneous" >
   <i type="int" name="IDIOT">     3</i>
   <i type="int" name="PHON_NSTRUCT">    -1</i>
   <i type="logical" name="LMUSIC"> F  </i>
   <v name="POMASS">     10.81100000</v>
   <v name="DARWINR">      0.00000000</v>
   <v name="DARWINV">      1.00000000</v>
   <i type="logical" name="LCORR"> T  </i>
  </separator>
  <i type="logical" name="GGA_COMPAT"> T  </i>
  <i type="logical" name="LBERRY"> F  </i>
  <i type="int" name="ICORELEVEL">     0</i>
  <i type="logical" name="LDAU"> F  </i>
  <i type="int" name="I_CONSTRAINED_M">     0</i>
  <separator name="electronic exchange-correlation" >
   <i type="string" name="GGA    ">PE</i>
   <i type="string" name="XC_C">1</i>
   <i type="int" name="VOSKOWN">     0</i>
   <i type="logical" name="LHFCALC"> F  </i>
   <i type="string" name="PRECFOCK"></i>
   <i type="logical" name="LSYMGRAD"> F  </i>
   <i type="logical" name="LHFONE"> F  </i>
   <i type="logical" name="LRHFCALC"> F  </i>
   <i type="logical" name="LTHOMAS"> F  </i>
   <i type="logical" name="LMODELHF"> F  </i>
   <i type="logical" name="LFOCKACE"> F  </i>
   <i name="ENCUT4O">     -1.00000000</i>
   <i type="int" name="EXXOEP">     0</i>
   <i type="int" name="FOURORBIT">     0</i>
   <i name="AEXX">      0.00000000</i>
   <i name="HFALPHA">      0.00000000</i>
   <i name="MCALPHA">      0.00000000</i>
   <i name="ALDAX">      1.00000000</i>
   <i name="AGGAX">      1.00000000</i>
   <i name="AMGGAX">      1.00000000</i>
   <i name="ALDAC">      1.00000000</i>
   <i name="AGGAC">      1.00000000</i>
   <i name="AMGGAC">      1.00000000</i>
   <i type="int" name="NKREDX">     1</i>
   <i type="int" name="NKREDY">     1</i>
   <i type="int" name="NKREDZ">     1</i>
   <i type="logical" name="SHIFTRED"> F  </i>
   <i type="logical" name="ODDONLY"> F  </i>
   <i type="logical" name="EVENONLY"> F  </i>
   <i type="int" name="LMAXFOCK">     0</i>
   <i type="int" name="NMAXFOCKAE">     0</i>
   <i type="logical" name="LFOCKAEDFT"> F  </i>
   <i name="HFSCREEN">      0.00000000</i>
   <i name="HFSCREENC">      0.00000000</i>
   <i type="int" name="NBANDSGWLOW">     0</i>
  </separator>
  <separator name="vdW DFT" >
   <i type="logical" name="LUSE_VDW"> F  </i>
   <i type="int" name="IVDW_NL">    -1</i>
   <i type="logical" name="LSPIN_VDW"> F  </i>
   <i name="ZAB_VDW">     -0.84910000</i>
   <i name="GAMMA_VDW">      1.39626340</i>
   <i name="ALPHA_VDW">      0.00000000</i>
   <i name="PARAM1">      0.12340000</i>
   <i name="PARAM2">      1.00000000</i>
   <i name="BPARAM">      6.30000000</i>
   <i name="CPARAM">      0.00930000</i>
  </separator>
  <separator name="model GW" >
   <i type="int" name="MODEL_GW">     0</i>
   <i name="MODEL_EPS0">      6.10971004</i>
   <i name="MODEL_ALPHA">      1.00000000</i>
  </separator>
  <separator name="linear response parameters" >
   <i type="logical" name="LEPSILON"> F  </i>
   <i type="logical" name="LRPA"> F  </i>
   <i type="logical" name="LNABLA"> F  </i>
   <i type="logical" name="LVEL"> F  </i>
   <i name="CSHIFT">      0.10000000</i>
   <i name="OMEGAMAX">     -1.00000000</i>
   <i name="DEG_THRESHOLD">      0.00200000</i>
   <i name="RTIME">     -0.10000000</i>
   <i name="WPLASMAI">      0.00000000</i>
   <v name="DFIELD">      0.00000000      0.00000000      0.00000000</v>
   <v name="WPLASMA">      0.00000000      0.00000000      0.00000000      0.00000000      0.00000000      0.00000000      0.00000000      0.00000000      0.00000000</v>
  </separator>
  <separator name="orbital magnetization" >
   <i type="logical" name="NUCIND"> F  </i>
   <v name="MAGPOS">      0.00000000      0.00000000      0.00000000</v>
   <i type="logical" name="LNICSALL"> T  </i>
   <i type="logical" name="ORBITALMAG"> F  </i>
   <i type="logical" name="LMAGBLOCH"> F  </i>
   <i type="logical" name="LCHIMAG"> F  </i>
   <i type="logical" name="LGAUGE"> T  </i>
   <i type="int" name="MAGATOM">     0</i>
   <v name="MAGDIPOL">      0.00000000      0.00000000      0.00000000</v>
   <v name="AVECCONST">      0.00000000      0.00000000      0.00000000</v>
  </separator>
  <separator name="response functions" >
   <i type="logical" name="LALL_IN_ONE"> F  </i>
   <i type="int" name="IALL_IN_ONE">    -1</i>
   <i type="int" name="NBANDS_WAVE">    -1</i>
   <i type="logical" name="LFINITE_TEMPERATURE"> F  </i>
   <i type="logical" name="LADDER"> F  </i>
   <i type="logical" name="LRPAFORCE"> F  </i>
   <i type="logical" name="LFXC"> F  </i>
   <i type="logical" name="LHARTREE"> T  </i>
   <i type="int" name="IBSE">     0</i>
   <v type="int" name="KPOINT">    -1     0     0     0</v>
   <i type="logical" name="LTCTC"> F  </i>
   <i type="logical" name="LTCTE"> F  </i>
   <i type="logical" name="LTETE"> F  </i>
   <i type="logical" name="LTRIPLET"> F  </i>
   <i type="logical" name="LFXCEPS"> F  </i>
   <i type="logical" name="LFXHEG"> F  </i>
   <i type="int" name="NATURALO">     2</i>
   <i type="logical" name="LHOLEGF"> F  </i>
   <i type="logical" name="L2ORDER"> F  </i>
   <i type="logical" name="LDMP1"> F  </i>
   <i type="logical" name="LMP2LT"> F  </i>
   <i type="logical" name="LSMP2LT"> F  </i>
   <i type="logical" name="LGWLF"> F  </i>
   <i name="ENCUTGW">     -1.60000002</i>
   <i name="ENCUTGWSOFT">     -1.60000002</i>
   <i name="ENCUTLF">     -1.00000000</i>
   <i type="logical" name="ESF_SPLINES"> F  </i>
   <i name="ESF_CONV">      0.01000000</i>
   <i type="int" name="ESF_NINTER">    15</i>
   <i type="int" name="LMAXMP2">    -1</i>
   <i name="SCISSOR">      0.00000000</i>
   <i type="int" name="NOMEGA">     0</i>
   <i type="int" name="NOMEGAR">     0</i>
   <i type="int" name="NBANDSGW">    -1</i>
   <i type="int" name="NBANDSO">    -1</i>
   <i type="int" name="NBANDSV">    -1</i>
   <i type="int" name="NELMGW">     1</i>
   <i type="int" name="NELMHF">     1</i>
   <i type="int" name="DIM">     3</i>
   <i type="int" name="IESPILON">     4</i>
   <i type="int" name="ANTIRES">     0</i>
   <i name="OMEGAMAX">    -30.00000000</i>
   <i name="OMEGAMIN">    -30.00000000</i>
   <i name="OMEGATL">   -200.00000000</i>
   <i type="int" name="OMEGAGRID">     0</i>
   <i name="CSHIFT">     -0.10000000</i>
   <i type="logical" name="LSELFENERGY"> F  </i>
   <i type="logical" name="LSPECTRAL"> F  </i>
   <i type="logical" name="LSPECTRALGW"> F  </i>
   <i type="logical" name="LSINGLES"> F  </i>
   <i type="logical" name="LFERMIGW"> F  </i>
   <i type="logical" name="ODDONLYGW"> F  </i>
   <i type="logical" name="EVENONLYGW"> F  </i>
   <i type="int" name="NKREDLFX">     1</i>
   <i type="int" name="NKREDLFY">     1</i>
   <i type="int" name="NKREDLFZ">     1</i>
   <i type="int" name="MAXMEM">  2800</i>
   <i type="int" name="TELESCOPE">     0</i>
   <i type="int" name="NTAUPAR">    -1</i>
   <i type="int" name="NOMEGAPAR">    -1</i>
   <i name="DAMP_NEWTON">      0.80000001</i>
   <i name="LAMBDA">      1.00000000</i>
  </separator>
  <separator name="External order field" >
   <i name="OFIELD_KAPPA">      0.00000000</i>
   <v name="OFIELD_K">      0.00000000      0.00000000      0.00000000</v>
   <i name="OFIELD_Q6_NEAR">      0.00000000</i>
   <i name="OFIELD_Q6_FAR">      0.00000000</i>
   <i name="OFIELD_A">      0.00000000</i>
  </separator>
  <separator name="optional k-points parameters" >
   <i type="int" name="KPOINTS_OPT_MODE">     1</i>
   <i type="logical" name="LKPOINTS_OPT"> F  </i>
  </separator>
 </parameters>
 <atominfo>
  <atoms>      14 </atoms>
  <types>       1 </types>
  <array name="atoms" >
   <dimension dim="1">ion</dimension>
   <field type="string">element</field>
   <field type="int">atomtype</field>
   <set>
    <rc><c>B </c><c>   1</c></rc>
    <rc><c>B </c><c>   1</c></rc>
    <rc><c>B </c><c>   1</c></rc>
    <rc><c>B </c><c>   1</c></rc>
    <rc><c>B </c><c>   1</c></rc>
    <rc><c>B </c><c>   1</c></rc>
    <rc><c>B </c><c>   1</c></rc>
    <rc><c>B </c><c>   1</c></rc>
    <rc><c>B </c><c>   1</c></rc>
    <rc><c>B </c><c>   1</c></rc>
    <rc><c>B </c><c>   1</c></rc>
    <rc><c>B </c><c>   1</c></rc>
    <rc><c>B </c><c>   1</c></rc>
    <rc><c>B </c><c>   1</c></rc>
   </set>
  </array>
  <array name="atomtypes" >
   <dimension dim="1">type</dimension>
   <field type="int">atomspertype</field>
   <field type="string">element</field>
   <field>mass</field>
   <field>valence</field>
   <field type="string">pseudopotential</field>
   <set>
    <rc><c>  14</c><c>B </c><c>     10.81100000</c><c>      3.00000000</c><c>  PAW_PBE B 06Sep2000                   </c></rc>
   </set>
  </array>
 </atominfo>
 <structure name="initialpos" >
  <crystal>
   <varray name="basis" >
    <v>       5.69016360       0.00000000       0.00000000 </v>
    <v>       0.00000000       4.04304252       0.00000000 </v>
    <v>       0.00000000       0.00000000       6.19675496 </v>
   </varray>
   <i name="volume">    142.55990095 </i>
   <varray name="rec_basis" >
    <v>       0.17574187       0.00000000       0.00000000 </v>
    <v>       0.00000000       0.24733848       0.00000000 </v>
    <v>       0.00000000       0.00000000       0.16137479 </v>
   </varray>
  </crystal>
  <varray name="positions" >
   <v>       0.52123000       0.50000000       0.63796000 </v>
   <v>       0.47877000       0.50000000       0.36204000 </v>
   <v>       0.97877000       0.50000000       0.63796000 </v>
   <v>       0.02123000       0.50000000       0.36204000 </v>
   <v>       0.60090000       0.50000000       0.89991000 </v>
   <v>       0.39910000       0.50000000       0.10009000 </v>
   <v>       0.89910000       0.50000000       0.89991000 </v>
   <v>       0.10090000       0.50000000       0.10009000 </v>
   <v>       0.75000000       0.79171000       0.72973000 </v>
   <v>       0.25000000       0.20829000       0.27027000 </v>
   <v>       0.75000000       0.20829000       0.72973000 </v>
   <v>       0.25000000       0.79171000       0.27027000 </v>
   <v>       0.25000000       0.50000000       0.52367000 </v>
   <v>       0.75000000       0.50000000       0.47633000 </v>
  </varray>
 </structure>
 <calculation>
  <scstep>
   <time name="dav">    4.59    4.59</time>
   <time name="total">    4.61    4.61</time>
   <energy>
    <i name="alphaZ">     94.58367270 </i>
    <i name="ewald">   -796.72264809 </i>
    <i name="hartreedc">   -270.97677218 </i>
    <i name="XCdc">     97.59224849 </i>
    <i name="pawpsdc">    608.99811708 </i>
    <i name="pawaedc">   -597.02363782 </i>
    <i name="eentropy">     -0.00229164 </i>
    <i name="bandstr">    -53.54862438 </i>
    <i name="atom">    996.37441054 </i>
    <i name="e_fr_energy">     79.27447470 </i>
    <i name="e_wo_entrp">     79.27676634 </i>
    <i name="e_0_energy">     79.27562052 </i>
   </energy>
  </scstep>
  <scstep>
   <time name="dav">    5.95    5.95</time>
   <time name="total">    5.95    5.96</time>
   <energy>
    <i name="e_fr_energy">    -91.88921845 </i>
    <i name="e_wo_entrp">    -91.88638449 </i>
    <i name="e_0_energy">    -91.88780147 </i>
   </energy>
  </scstep>
  <scstep>
   <time name="dav">    6.52    6.52</time>
   <time name="total">    6.52    6.52</time>
   <energy>
    <i name="e_fr_energy">    -97.67456155 </i>
    <i name="e_wo_entrp">    -97.67091347 </i>
    <i name="e_0_energy">    -97.67273751 </i>
   </energy>
  </scstep>
  <scstep>
   <time name="dav">    5.23    5.23</time>
   <time name="total">    5.23    5.23</time>
   <energy>
    <i name="e_fr_energy">    -97.70839965 </i>
    <i name="e_wo_entrp">    -97.70475043 </i>
    <i name="e_0_energy">    -97.70657504 </i>
   </energy>
  </scstep>
  <scstep>
   <time name="dav">    6.51    6.51</time>
   <time name="total">    6.61    6.61</time>
   <energy>
    <i name="e_fr_energy">    -97.70877025 </i>
    <i name="e_wo_entrp">    -97.70512102 </i>
    <i name="e_0_energy">    -97.70694564 </i>
   </energy>
  </scstep>
  <scstep>
   <time name="dav">    6.34    6.34</time>
   <time name="total">    6.44    6.44</time>
   <energy>
    <i name="e_fr_energy">    -92.23961102 </i>
    <i name="e_wo_entrp">    -92.23619312 </i>
    <i name="e_0_energy">    -92.23790207 </i>
   </energy>
  </scstep>
  <scstep>
   <time name="dav">    6.56    6.56</time>
   <time name="total">    6.66    6.66</time>
   <energy>
    <i name="e_fr_energy">    -90.57398769 </i>
    <i name="e_wo_entrp">    -90.57086171 </i>
    <i name="e_0_energy">    -90.57242470 </i>
   </energy>
  </scstep>
  <scstep>
   <time name="dav">    4.96    4.96</time>
   <time name="total">    5.06    5.06</time>
   <energy>
    <i name="e_fr_energy">    -90.58631442 </i>
    <i name="e_wo_entrp">    -90.58313953 </i>
    <i name="e_0_energy">    -90.58472697 </i>
   </energy>
  </scstep>
  <scstep>
   <time name="dav">    6.16    6.16</time>
   <time name="total">    6.26    6.26</time>
   <energy>
    <i name="e_fr_energy">    -90.60046662 </i>
    <i name="e_wo_entrp">    -90.59720395 </i>
    <i name="e_0_energy">    -90.59883529 </i>
   </energy>
  </scstep>
  <scstep>
   <time name="dav">    5.10    5.10</time>
   <time name="total">    5.20    5.20</time>
   <energy>
    <i name="e_fr_energy">    -90.60452128 </i>
    <i name="e_wo_entrp">    -90.60130521 </i>
    <i name="e_0_energy">    -90.60291324 </i>
   </energy>
  </scstep>
  <scstep>
   <time name="dav">    5.67    5.67</time>
   <time name="total">    5.77    5.77</time>
   <energy>
    <i name="e_fr_energy">    -90.60558632 </i>
    <i name="e_wo_entrp">    -90.60238126 </i>
    <i name="e_0_energy">    -90.60398379 </i>
   </energy>
  </scstep>
  <scstep>
   <time name="dav">    5.44    5.44</time>
   <time name="total">    5.54    5.54</time>
   <energy>
    <i name="e_fr_energy">    -90.60570305 </i>
    <i name="e_wo_entrp">    -90.60249171 </i>
    <i name="e_0_energy">    -90.60409738 </i>
   </energy>
  </scstep>
  <scstep>
   <time name="dav">    6.18    6.18</time>
   <time name="total">    6.28    6.28</time>
   <energy>
    <i name="e_fr_energy">    -90.60570791 </i>
    <i name="e_wo_entrp">    -90.60249622 </i>
    <i name="e_0_energy">    -90.60410207 </i>
   </energy>
  </scstep>
  <scstep>
   <time name="dav">    5.42    5.42</time>
   <time name="total">    5.43    5.44</time>
   <energy>
    <i name="alphaZ">     94.58367270 </i>
    <i name="ewald">   -796.72264809 </i>
    <i name="hartreedc">   -349.08450022 </i>
    <i name="XCdc">    101.70243787 </i>
    <i name="pawpsdc">   3763.01440464 </i>
    <i name="pawaedc">  -3752.21233384 </i>
    <i name="eentropy">     -0.00321179 </i>
    <i name="bandstr">   -148.25794040 </i>
    <i name="atom">    996.37441054 </i>
    <i name="e_fr_energy">    -90.60570860 </i>
    <i name="e_wo_entrp">    -90.60249681 </i>
    <i name="e_0_energy">    -90.60410270 </i>
   </energy>
  </scstep>
  <structure>
   <crystal>
    <varray name="basis" >
     <v>       5.69016360       0.00000000       0.00000000 </v>
     <v>       0.00000000       4.04304252       0.00000000 </v>
     <v>       0.00000000       0.00000000       6.19675496 </v>
    </varray>
    <i name="volume">    142.55990095 </i>
    <varray name="rec_basis" >
     <v>       0.17574187       0.00000000       0.00000000 </v>
     <v>       0.00000000       0.24733848       0.00000000 </v>
     <v>       0.00000000       0.00000000       0.16137479 </v>
    </varray>
   </crystal>
   <varray name="positions" >
    <v>       0.52123000       0.50000000       0.63796000 </v>
    <v>       0.47877000       0.50000000       0.36204000 </v>
    <v>       0.97877000       0.50000000       0.63796000 </v>
    <v>       0.02123000       0.50000000       0.36204000 </v>
    <v>       0.60090000       0.50000000       0.89991000 </v>
    <v>       0.39910000       0.50000000       0.10009000 </v>
    <v>       0.89910000       0.50000000       0.89991000 </v>
    <v>       0.10090000       0.50000000       0.10009000 </v>
    <v>       0.75000000       0.79171000       0.72973000 </v>
    <v>       0.25000000       0.20829000       0.27027000 </v>
    <v>       0.75000000       0.20829000       0.72973000 </v>
    <v>       0.25000000       0.79171000       0.27027000 </v>
    <v>       0.25000000       0.50000000       0.52367000 </v>
    <v>       0.75000000       0.50000000       0.47633000 </v>
   </varray>
  </structure>
  <varray name="forces" >
   <v>      -0.02371937      -0.00000000       0.05856870 </v>
   <v>       0.02371937      -0.00000000      -0.05856870 </v>
   <v>       0.02371937       0.00000000       0.05856870 </v>
   <v>      -0.02371937      -0.00000000      -0.05856870 </v>
   <v>      -0.84699226      -0.00000000       0.29700999 </v>
   <v>       0.84699226       0.00000000      -0.29700999 </v>
   <v>       0.84699226       0.00000000       0.29700999 </v>
   <v>      -0.84699226      -0.00000000      -0.29700999 </v>
   <v>       0.00000000       0.06335678      -0.08183736 </v>
   <v>      -0.00000000      -0.06335678       0.08183736 </v>
   <v>      -0.00000000      -0.06335678      -0.08183736 </v>
   <v>       0.00000000       0.06335678       0.08183736 </v>
   <v>       0.00000000      -0.00000000       0.09283096 </v>
   <v>      -0.00000000       0.00000000      -0.09283096 </v>
  </varray>
  <varray name="stress" >
   <v>      21.21761764       0.00000000      -0.00000000 </v>
   <v>       0.00000000       4.41731684       0.00000000 </v>
   <v>       0.00000000       0.00000000      -0.79173690 </v>
  </varray>
  <energy>
   <i name="e_fr_energy">    -90.60570860 </i>
   <i name="e_wo_entrp">    -90.60249681 </i>
   <i name="e_0_energy">    -90.60410270 </i>
  </energy>
  <time name="totalsc">   86.32   86.34</time>
  <eigenvalues>
   <array>
    <dimension dim="1">band</dimension>
    <dimension dim="2">kpoint</dimension>
    <dimension dim="3">spin</dimension>
    <field>eigene</field>
    <field>occ</field>
    <set>
     <set comment="spin 1">
      <set comment="kpoint 1">
       <r>  -12.7290    1.0000 </r>
       <r>  -11.5866    1.0000 </r>
       <r>   -8.6527    1.0000 </r>
       <r>   -8.4155    1.0000 </r>
       <r>   -6.0535    1.0000 </r>
       <r>   -5.1194    1.0000 </r>
       <r>   -4.6540    1.0000 </r>
       <r>   -4.2684    1.0000 </r>
       <r>   -4.0233    1.0000 </r>
       <r>   -3.5327    1.0000 </r>
       <r>   -2.5775    1.0000 </r>
       <r>   -2.3080    1.0000 </r>
       <r>   -1.8161    1.0000 </r>
       <r>   -1.0801    1.0000 </r>
       <r>   -0.0553    1.0000 </r>
       <r>   -0.0254    1.0000 </r>
       <r>    0.1754    1.0000 </r>
       <r>    0.1983    1.0000 </r>
       <r>    0.5849    1.0000 </r>
       <r>    2.0386    0.0001 </r>
       <r>    2.1022    0.0000 </r>
       <r>    2.2403    0.0000 </r>
       <r>    5.4861    0.0000 </r>
       <r>    5.7777    0.0000 </r>
       <r>    5.8689    0.0000 </r>
       <r>    5.9877    0.0000 </r>
       <r>    6.8467    0.0000 </r>
       <r>    7.5806    0.0000 </r>
       <r>    7.9119    0.0000 </r>
       <r>    8.5770    0.0000 </r>
       <r>    8.8510    0.0000 </r>
       <r>    8.9930    0.0000 </r>
       <r>    9.1073    0.0000 </r>
       <r>   10.1582    0.0000 </r>
       <r>   11.2164    0.0000 </r>
       <r>   11.3809    0.0000 </r>
       <r>   11.7132    0.0000 </r>
       <r>   11.8264    0.0000 </r>
       <r>   11.9806    0.0000 </r>
       <r>   12.4401    0.0000 </r>
       <r>   12.9180    0.0000 </r>
       <r>   13.5031    0.0000 </r>
       <r>   13.5303    0.0000 </r>
       <r>   15.4442    0.0000 </r>
       <r>   15.6286    0.0000 </r>
       <r>   16.1230    0.0000 </r>
       <r>   16.3876    0.0000 </r>
       <r>   16.4131    0.0000 </r>
      </set>
      <set comment="kpoint 2">
       <r>  -12.6852    1.0000 </r>
       <r>  -11.6604    1.0000 </r>
       <r>   -8.6317    1.0000 </r>
       <r>   -8.4040    1.0000 </r>
       <r>   -5.9851    1.0000 </r>
       <r>   -5.4621    1.0000 </r>
       <r>   -4.7777    1.0000 </r>
       <r>   -4.0008    1.0000 </r>
       <r>   -3.7826    1.0000 </r>
       <r>   -3.1938    1.0000 </r>
       <r>   -2.6481    1.0000 </r>
       <r>   -2.2877    1.0000 </r>
       <r>   -1.8956    1.0000 </r>
       <r>   -1.3874    1.0000 </r>
       <r>   -0.0148    1.0000 </r>
       <r>   -0.0002    1.0000 </r>
       <r>    0.1111    1.0000 </r>
       <r>    0.2175    1.0000 </r>
       <r>    0.4899    1.0000 </r>
       <r>    1.9522    0.0911 </r>
       <r>    2.0241    0.0004 </r>
       <r>    2.1187    0.0000 </r>
       <r>    5.5744    0.0000 </r>
       <r>    5.7886    0.0000 </r>
       <r>    5.8939    0.0000 </r>
       <r>    6.3348    0.0000 </r>
       <r>    6.7607    0.0000 </r>
       <r>    7.2177    0.0000 </r>
       <r>    8.1246    0.0000 </r>
       <r>    8.7133    0.0000 </r>
       <r>    9.1119    0.0000 </r>
       <r>    9.1789    0.0000 </r>
       <r>    9.2471    0.0000 </r>
       <r>   10.2758    0.0000 </r>
       <r>   10.9871    0.0000 </r>
       <r>   11.1768    0.0000 </r>
       <r>   11.2900    0.0000 </r>
       <r>   11.7428    0.0000 </r>
       <r>   12.1982    0.0000 </r>
       <r>   12.5309    0.0000 </r>
       <r>   13.1724    0.0000 </r>
       <r>   13.1778    0.0000 </r>
       <r>   14.0643    0.0000 </r>
       <r>   14.9303    0.0000 </r>
       <r>   15.8054    0.0000 </r>
       <r>   15.8813    0.0000 </r>
       <r>   16.2854    0.0000 </r>
       <r>   16.5714    0.0000 </r>
      </set>
      <set comment="kpoint 3">
       <r>  -12.5995    1.0000 </r>
       <r>  -11.7933    1.0000 </r>
       <r>   -8.5882    1.0000 </r>
       <r>   -8.3893    1.0000 </r>
       <r>   -5.9637    1.0000 </r>
       <r>   -5.7896    1.0000 </r>
       <r>   -4.7322    1.0000 </r>
       <r>   -3.8724    1.0000 </r>
       <r>   -3.2711    1.0000 </r>
       <r>   -2.8179    1.0000 </r>
       <r>   -2.6999    1.0000 </r>
       <r>   -2.2468    1.0000 </r>
       <r>   -2.0074    1.0000 </r>
       <r>   -1.8924    1.0000 </r>
       <r>   -0.1985    1.0000 </r>
       <r>    0.0306    1.0000 </r>
       <r>    0.1621    1.0000 </r>
       <r>    0.1725    1.0000 </r>
       <r>    0.4596    1.0000 </r>
       <r>    1.8046    0.9978 </r>
       <r>    1.8879    0.6861 </r>
       <r>    1.8911    0.6540 </r>
       <r>    5.6949    0.0000 </r>
       <r>    5.7453    0.0000 </r>
       <r>    6.2032    0.0000 </r>
       <r>    6.6340    0.0000 </r>
       <r>    6.7947    0.0000 </r>
       <r>    6.9627    0.0000 </r>
       <r>    8.2773    0.0000 </r>
       <r>    8.8613    0.0000 </r>
       <r>    9.0483    0.0000 </r>
       <r>    9.6226    0.0000 </r>
       <r>    9.6903    0.0000 </r>
       <r>   10.3237    0.0000 </r>
       <r>   10.5318    0.0000 </r>
       <r>   10.6726    0.0000 </r>
       <r>   11.4124    0.0000 </r>
       <r>   11.8836    0.0000 </r>
       <r>   12.4334    0.0000 </r>
       <r>   12.6170    0.0000 </r>
       <r>   12.8343    0.0000 </r>
       <r>   12.9708    0.0000 </r>
       <r>   14.6914    0.0000 </r>
       <r>   14.9755    0.0000 </r>
       <r>   15.2746    0.0000 </r>
       <r>   16.0404    0.0000 </r>
       <r>   16.0579    0.0000 </r>
       <r>   16.3525    0.0000 </r>
      </set>
      <set comment="kpoint 4">
       <r>  -12.4759    1.0000 </r>
       <r>  -11.9627    1.0000 </r>
       <r>   -8.5264    1.0000 </r>
       <r>   -8.3862    1.0000 </r>
       <r>   -6.0452    1.0000 </r>
       <r>   -6.0229    1.0000 </r>
       <r>   -4.4041    1.0000 </r>
       <r>   -3.7027    1.0000 </r>
       <r>   -3.0129    1.0000 </r>
       <r>   -2.8854    1.0000 </r>
       <r>   -2.4310    1.0000 </r>
       <r>   -2.2376    1.0000 </r>
       <r>   -2.1274    1.0000 </r>
       <r>   -2.1097    1.0000 </r>
       <r>   -0.4976    1.0000 </r>
       <r>   -0.2251    1.0000 </r>
       <r>    0.1883    1.0000 </r>
       <r>    0.2642    1.0000 </r>
       <r>    0.6331    1.0000 </r>
       <r>    1.5519    1.0000 </r>
       <r>    1.6810    1.0000 </r>
       <r>    1.7423    1.0000 </r>
       <r>    5.7295    0.0000 </r>
       <r>    5.7806    0.0000 </r>
       <r>    6.5318    0.0000 </r>
       <r>    6.7025    0.0000 </r>
       <r>    6.7287    0.0000 </r>
       <r>    7.4470    0.0000 </r>
       <r>    8.4029    0.0000 </r>
       <r>    8.7272    0.0000 </r>
       <r>    8.8534    0.0000 </r>
       <r>    9.5756    0.0000 </r>
       <r>   10.1028    0.0000 </r>
       <r>   10.1603    0.0000 </r>
       <r>   10.4448    0.0000 </r>
       <r>   11.2019    0.0000 </r>
       <r>   11.4449    0.0000 </r>
       <r>   11.9965    0.0000 </r>
       <r>   12.2495    0.0000 </r>
       <r>   12.3256    0.0000 </r>
       <r>   12.5633    0.0000 </r>
       <r>   13.3008    0.0000 </r>
       <r>   14.7595    0.0000 </r>
       <r>   15.0288    0.0000 </r>
       <r>   15.3243    0.0000 </r>
       <r>   15.4279    0.0000 </r>
       <r>   15.6296    0.0000 </r>
       <r>   16.4341    0.0000 </r>
      </set>
      <set comment="kpoint 5">
       <r>  -12.3210    1.0000 </r>
       <r>  -12.1451    1.0000 </r>
       <r>   -8.4601    1.0000 </r>
       <r>   -8.4090    1.0000 </r>
       <r>   -6.1363    1.0000 </r>
       <r>   -6.1313    1.0000 </r>
       <r>   -3.8878    1.0000 </r>
       <r>   -3.4925    1.0000 </r>
       <r>   -3.2875    1.0000 </r>
       <r>   -3.2532    1.0000 </r>
       <r>   -2.3499    1.0000 </r>
       <r>   -2.2195    1.0000 </r>
       <r>   -1.9437    1.0000 </r>
       <r>   -1.8928    1.0000 </r>
       <r>   -0.7180    1.0000 </r>
       <r>   -0.5831    1.0000 </r>
       <r>    0.2719    1.0000 </r>
       <r>    0.3058    1.0000 </r>
       <r>    0.8944    1.0000 </r>
       <r>    1.2124    1.0000 </r>
       <r>    1.6002    1.0000 </r>
       <r>    1.6280    1.0000 </r>
       <r>    5.7566    0.0000 </r>
       <r>    5.7930    0.0000 </r>
       <r>    6.5095    0.0000 </r>
       <r>    6.5731    0.0000 </r>
       <r>    7.4001    0.0000 </r>
       <r>    8.1102    0.0000 </r>
       <r>    8.1303    0.0000 </r>
       <r>    8.5217    0.0000 </r>
       <r>    8.6618    0.0000 </r>
       <r>    8.8281    0.0000 </r>
       <r>   10.5433    0.0000 </r>
       <r>   10.5617    0.0000 </r>
       <r>   10.8086    0.0000 </r>
       <r>   11.2674    0.0000 </r>
       <r>   11.4523    0.0000 </r>
       <r>   11.6525    0.0000 </r>
       <r>   11.9873    0.0000 </r>
       <r>   12.5301    0.0000 </r>
       <r>   12.7592    0.0000 </r>
       <r>   13.2976    0.0000 </r>
       <r>   14.6362    0.0000 </r>
       <r>   14.7896    0.0000 </r>
       <r>   14.9185    0.0000 </r>
       <r>   14.9767    0.0000 </r>
       <r>   16.1629    0.0000 </r>
       <r>   16.5066    0.0000 </r>
      </set>
      <set comment="kpoint 6">
       <r>  -12.7049    1.0000 </r>
       <r>  -11.5650    1.0000 </r>
       <r>   -8.6338    1.0000 </r>
       <r>   -8.3922    1.0000 </r>
       <r>   -6.0266    1.0000 </r>
       <r>   -5.0856    1.0000 </r>
       <r>   -4.6318    1.0000 </r>
       <r>   -4.5661    1.0000 </r>
       <r>   -4.1676    1.0000 </r>
       <r>   -3.5097    1.0000 </r>
       <r>   -3.2719    1.0000 </r>
       <r>   -1.7772    1.0000 </r>
       <r>   -1.0755    1.0000 </r>
       <r>   -1.0162    1.0000 </r>
       <r>   -0.2898    1.0000 </r>
       <r>   -0.2618    1.0000 </r>
       <r>    0.1888    1.0000 </r>
       <r>    0.2685    1.0000 </r>
       <r>    0.6635    1.0000 </r>
       <r>    1.7699    0.9999 </r>
       <r>    1.8504    0.9388 </r>
       <r>    2.2927    0.0000 </r>
       <r>    5.6030    0.0000 </r>
       <r>    5.7373    0.0000 </r>
       <r>    5.7691    0.0000 </r>
       <r>    6.0394    0.0000 </r>
       <r>    7.1341    0.0000 </r>
       <r>    7.8667    0.0000 </r>
       <r>    8.1154    0.0000 </r>
       <r>    8.2234    0.0000 </r>
       <r>    8.8546    0.0000 </r>
       <r>    9.1499    0.0000 </r>
       <r>    9.1992    0.0000 </r>
       <r>   10.6131    0.0000 </r>
       <r>   11.3114    0.0000 </r>
       <r>   11.4336    0.0000 </r>
       <r>   11.6467    0.0000 </r>
       <r>   11.9296    0.0000 </r>
       <r>   12.0911    0.0000 </r>
       <r>   12.7220    0.0000 </r>
       <r>   12.9173    0.0000 </r>
       <r>   13.2377    0.0000 </r>
       <r>   13.2456    0.0000 </r>
       <r>   15.3894    0.0000 </r>
       <r>   15.4418    0.0000 </r>
       <r>   15.9142    0.0000 </r>
       <r>   15.9322    0.0000 </r>
       <r>   16.2797    0.0000 </r>
      </set>
      <set comment="kpoint 7">
       <r>  -12.6612    1.0000 </r>
       <r>  -11.6386    1.0000 </r>
       <r>   -8.6126    1.0000 </r>
       <r>   -8.3811    1.0000 </r>
       <r>   -5.9563    1.0000 </r>
       <r>   -5.4320    1.0000 </r>
       <r>   -4.7575    1.0000 </r>
       <r>   -4.4819    1.0000 </r>
       <r>   -3.7425    1.0000 </r>
       <r>   -3.3532    1.0000 </r>
       <r>   -3.1554    1.0000 </r>
       <r>   -1.7554    1.0000 </r>
       <r>   -1.3820    1.0000 </r>
       <r>   -1.1368    1.0000 </r>
       <r>   -0.2506    1.0000 </r>
       <r>   -0.1790    1.0000 </r>
       <r>    0.1569    1.0000 </r>
       <r>    0.2388    1.0000 </r>
       <r>    0.5609    1.0000 </r>
       <r>    1.6892    1.0000 </r>
       <r>    1.7738    0.9999 </r>
       <r>    2.1614    0.0000 </r>
       <r>    5.6786    0.0000 </r>
       <r>    5.8354    0.0000 </r>
       <r>    5.9673    0.0000 </r>
       <r>    6.1410    0.0000 </r>
       <r>    7.0502    0.0000 </r>
       <r>    7.5409    0.0000 </r>
       <r>    8.2613    0.0000 </r>
       <r>    8.3966    0.0000 </r>
       <r>    9.1834    0.0000 </r>
       <r>    9.2073    0.0000 </r>
       <r>    9.4610    0.0000 </r>
       <r>   10.5416    0.0000 </r>
       <r>   10.9174    0.0000 </r>
       <r>   11.1289    0.0000 </r>
       <r>   11.4886    0.0000 </r>
       <r>   11.9157    0.0000 </r>
       <r>   12.3113    0.0000 </r>
       <r>   12.7805    0.0000 </r>
       <r>   12.9141    0.0000 </r>
       <r>   13.2020    0.0000 </r>
       <r>   13.7800    0.0000 </r>
       <r>   15.0159    0.0000 </r>
       <r>   15.4558    0.0000 </r>
       <r>   15.8029    0.0000 </r>
       <r>   15.8551    0.0000 </r>
       <r>   16.4599    0.0000 </r>
      </set>
      <set comment="kpoint 8">
       <r>  -12.5757    1.0000 </r>
       <r>  -11.7713    1.0000 </r>
       <r>   -8.5690    1.0000 </r>
       <r>   -8.3671    1.0000 </r>
       <r>   -5.9321    1.0000 </r>
       <r>   -5.7591    1.0000 </r>
       <r>   -4.7154    1.0000 </r>
       <r>   -4.3726    1.0000 </r>
       <r>   -3.4758    1.0000 </r>
       <r>   -3.2156    1.0000 </r>
       <r>   -2.6878    1.0000 </r>
       <r>   -1.8878    1.0000 </r>
       <r>   -1.7108    1.0000 </r>
       <r>   -1.3013    1.0000 </r>
       <r>   -0.2025    1.0000 </r>
       <r>   -0.2011    1.0000 </r>
       <r>    0.0686    1.0000 </r>
       <r>    0.2261    1.0000 </r>
       <r>    0.4843    1.0000 </r>
       <r>    1.5538    1.0000 </r>
       <r>    1.6434    1.0000 </r>
       <r>    1.9124    0.4178 </r>
       <r>    5.8870    0.0000 </r>
       <r>    5.9627    0.0000 </r>
       <r>    6.0399    0.0000 </r>
       <r>    6.5913    0.0000 </r>
       <r>    6.9288    0.0000 </r>
       <r>    7.3123    0.0000 </r>
       <r>    8.4671    0.0000 </r>
       <r>    8.5310    0.0000 </r>
       <r>    9.1502    0.0000 </r>
       <r>    9.6598    0.0000 </r>
       <r>    9.9168    0.0000 </r>
       <r>   10.1665    0.0000 </r>
       <r>   10.3977    0.0000 </r>
       <r>   10.8712    0.0000 </r>
       <r>   11.5565    0.0000 </r>
       <r>   12.1496    0.0000 </r>
       <r>   12.3571    0.0000 </r>
       <r>   12.5960    0.0000 </r>
       <r>   13.0104    0.0000 </r>
       <r>   13.0657    0.0000 </r>
       <r>   14.3579    0.0000 </r>
       <r>   15.1455    0.0000 </r>
       <r>   15.2160    0.0000 </r>
       <r>   15.7025    0.0000 </r>
       <r>   15.7628    0.0000 </r>
       <r>   16.4797    0.0000 </r>
      </set>
      <set comment="kpoint 9">
       <r>  -12.4523    1.0000 </r>
       <r>  -11.9403    1.0000 </r>
       <r>   -8.5069    1.0000 </r>
       <r>   -8.3649    1.0000 </r>
       <r>   -6.0125    1.0000 </r>
       <r>   -5.9915    1.0000 </r>
       <r>   -4.3895    1.0000 </r>
       <r>   -4.2247    1.0000 </r>
       <r>   -3.6485    1.0000 </r>
       <r>   -2.8346    1.0000 </r>
       <r>   -2.3489    1.0000 </r>
       <r>   -2.2037    1.0000 </r>
       <r>   -1.6461    1.0000 </r>
       <r>   -1.4656    1.0000 </r>
       <r>   -0.4585    1.0000 </r>
       <r>   -0.2898    1.0000 </r>
       <r>    0.1013    1.0000 </r>
       <r>    0.1304    1.0000 </r>
       <r>    0.6439    1.0000 </r>
       <r>    1.4140    1.0000 </r>
       <r>    1.4975    1.0000 </r>
       <r>    1.5873    1.0000 </r>
       <r>    5.9056    0.0000 </r>
       <r>    6.0367    0.0000 </r>
       <r>    6.5457    0.0000 </r>
       <r>    6.8383    0.0000 </r>
       <r>    6.9107    0.0000 </r>
       <r>    7.4044    0.0000 </r>
       <r>    8.4539    0.0000 </r>
       <r>    8.6398    0.0000 </r>
       <r>    8.9840    0.0000 </r>
       <r>    9.4100    0.0000 </r>
       <r>   10.1166    0.0000 </r>
       <r>   10.1451    0.0000 </r>
       <r>   10.4841    0.0000 </r>
       <r>   11.2797    0.0000 </r>
       <r>   11.4070    0.0000 </r>
       <r>   11.8882    0.0000 </r>
       <r>   12.3475    0.0000 </r>
       <r>   12.5879    0.0000 </r>
       <r>   12.7643    0.0000 </r>
       <r>   13.5045    0.0000 </r>
       <r>   14.8184    0.0000 </r>
       <r>   14.8246    0.0000 </r>
       <r>   15.2108    0.0000 </r>
       <r>   15.3606    0.0000 </r>
       <r>   15.7105    0.0000 </r>
       <r>   16.4465    0.0000 </r>
      </set>
      <set comment="kpoint 10">
       <r>  -12.2978    1.0000 </r>
       <r>  -12.1223    1.0000 </r>
       <r>   -8.4403    1.0000 </r>
       <r>   -8.3885    1.0000 </r>
       <r>   -6.1041    1.0000 </r>
       <r>   -6.0986    1.0000 </r>
       <r>   -4.0447    1.0000 </r>
       <r>   -3.8807    1.0000 </r>
       <r>   -3.8392    1.0000 </r>
       <r>   -3.2746    1.0000 </r>
       <r>   -2.0956    1.0000 </r>
       <r>   -1.9002    1.0000 </r>
       <r>   -1.5779    1.0000 </r>
       <r>   -1.5771    1.0000 </r>
       <r>   -0.6795    1.0000 </r>
       <r>   -0.5796    1.0000 </r>
       <r>    0.1334    1.0000 </r>
       <r>    0.1647    1.0000 </r>
       <r>    0.9038    1.0000 </r>
       <r>    1.2187    1.0000 </r>
       <r>    1.3602    1.0000 </r>
       <r>    1.3846    1.0000 </r>
       <r>    5.9559    0.0000 </r>
       <r>    6.0206    0.0000 </r>
       <r>    6.8264    0.0000 </r>
       <r>    6.8766    0.0000 </r>
       <r>    7.2154    0.0000 </r>
       <r>    7.9306    0.0000 </r>
       <r>    7.9775    0.0000 </r>
       <r>    8.6627    0.0000 </r>
       <r>    8.7334    0.0000 </r>
       <r>    8.8472    0.0000 </r>
       <r>   10.3650    0.0000 </r>
       <r>   10.6126    0.0000 </r>
       <r>   10.8481    0.0000 </r>
       <r>   10.9569    0.0000 </r>
       <r>   11.5994    0.0000 </r>
       <r>   11.7122    0.0000 </r>
       <r>   12.0676    0.0000 </r>
       <r>   12.7010    0.0000 </r>
       <r>   13.0694    0.0000 </r>
       <r>   13.5304    0.0000 </r>
       <r>   14.6003    0.0000 </r>
       <r>   14.7844    0.0000 </r>
       <r>   14.8799    0.0000 </r>
       <r>   15.0970    0.0000 </r>
       <r>   16.1862    0.0000 </r>
       <r>   16.4803    0.0000 </r>
      </set>
      <set comment="kpoint 11">
       <r>  -12.6604    1.0000 </r>
       <r>  -11.5253    1.0000 </r>
       <r>   -8.5992    1.0000 </r>
       <r>   -8.3493    1.0000 </r>
       <r>   -5.9768    1.0000 </r>
       <r>   -5.1234    1.0000 </r>
       <r>   -4.9941    1.0000 </r>
       <r>   -4.5898    1.0000 </r>
       <r>   -4.1518    1.0000 </r>
       <r>   -3.8949    1.0000 </r>
       <r>   -3.4562    1.0000 </r>
       <r>   -1.1890    1.0000 </r>
       <r>   -1.0661    1.0000 </r>
       <r>   -0.6355    1.0000 </r>
       <r>   -0.5277    1.0000 </r>
       <r>   -0.1563    1.0000 </r>
       <r>    0.2101    1.0000 </r>
       <r>    0.3219    1.0000 </r>
       <r>    0.7423    1.0000 </r>
       <r>    1.3856    1.0000 </r>
       <r>    1.4499    1.0000 </r>
       <r>    2.3311    0.0000 </r>
       <r>    5.3116    0.0000 </r>
       <r>    5.4787    0.0000 </r>
       <r>    6.1546    0.0000 </r>
       <r>    6.2292    0.0000 </r>
       <r>    7.5722    0.0000 </r>
       <r>    7.6609    0.0000 </r>
       <r>    8.3511    0.0000 </r>
       <r>    8.7685    0.0000 </r>
       <r>    8.9242    0.0000 </r>
       <r>    9.2940    0.0000 </r>
       <r>    9.4171    0.0000 </r>
       <r>   10.9230    0.0000 </r>
       <r>   11.3613    0.0000 </r>
       <r>   11.6174    0.0000 </r>
       <r>   11.7376    0.0000 </r>
       <r>   12.1311    0.0000 </r>
       <r>   12.3076    0.0000 </r>
       <r>   12.7908    0.0000 </r>
       <r>   12.8050    0.0000 </r>
       <r>   13.0584    0.0000 </r>
       <r>   13.2652    0.0000 </r>
       <r>   14.7372    0.0000 </r>
       <r>   15.2171    0.0000 </r>
       <r>   15.4037    0.0000 </r>
       <r>   15.4795    0.0000 </r>
       <r>   16.0220    0.0000 </r>
      </set>
      <set comment="kpoint 12">
       <r>  -12.6169    1.0000 </r>
       <r>  -11.5986    1.0000 </r>
       <r>   -8.5777    1.0000 </r>
       <r>   -8.3389    1.0000 </r>
       <r>   -5.9031    1.0000 </r>
       <r>   -5.3842    1.0000 </r>
       <r>   -5.0231    1.0000 </r>
       <r>   -4.7196    1.0000 </r>
       <r>   -3.9615    1.0000 </r>
       <r>   -3.7000    1.0000 </r>
       <r>   -3.1160    1.0000 </r>
       <r>   -1.3738    1.0000 </r>
       <r>   -1.1623    1.0000 </r>
       <r>   -0.7420    1.0000 </r>
       <r>   -0.4895    1.0000 </r>
       <r>   -0.0757    1.0000 </r>
       <r>    0.1921    1.0000 </r>
       <r>    0.2641    1.0000 </r>
       <r>    0.6300    1.0000 </r>
       <r>    1.3063    1.0000 </r>
       <r>    1.3801    1.0000 </r>
       <r>    2.1948    0.0000 </r>
       <r>    5.3918    0.0000 </r>
       <r>    5.8262    0.0000 </r>
       <r>    6.1752    0.0000 </r>
       <r>    6.2684    0.0000 </r>
       <r>    7.4912    0.0000 </r>
       <r>    7.8175    0.0000 </r>
       <r>    8.0833    0.0000 </r>
       <r>    8.8586    0.0000 </r>
       <r>    9.3044    0.0000 </r>
       <r>    9.3293    0.0000 </r>
       <r>    9.7024    0.0000 </r>
       <r>   10.5583    0.0000 </r>
       <r>   10.8222    0.0000 </r>
       <r>   11.3203    0.0000 </r>
       <r>   11.7558    0.0000 </r>
       <r>   12.2422    0.0000 </r>
       <r>   12.4752    0.0000 </r>
       <r>   12.5424    0.0000 </r>
       <r>   13.2114    0.0000 </r>
       <r>   13.3152    0.0000 </r>
       <r>   13.4876    0.0000 </r>
       <r>   14.7456    0.0000 </r>
       <r>   14.8773    0.0000 </r>
       <r>   15.3493    0.0000 </r>
       <r>   15.5431    0.0000 </r>
       <r>   16.0430    0.0000 </r>
      </set>
      <set comment="kpoint 13">
       <r>  -12.5317    1.0000 </r>
       <r>  -11.7307    1.0000 </r>
       <r>   -8.5336    1.0000 </r>
       <r>   -8.3262    1.0000 </r>
       <r>   -5.8735    1.0000 </r>
       <r>   -5.7041    1.0000 </r>
       <r>   -4.9313    1.0000 </r>
       <r>   -4.6841    1.0000 </r>
       <r>   -4.0860    1.0000 </r>
       <r>   -3.1647    1.0000 </r>
       <r>   -2.6437    1.0000 </r>
       <r>   -1.8713    1.0000 </r>
       <r>   -1.1214    1.0000 </r>
       <r>   -0.8804    1.0000 </r>
       <r>   -0.4362    1.0000 </r>
       <r>   -0.0641    1.0000 </r>
       <r>    0.0308    1.0000 </r>
       <r>    0.2765    1.0000 </r>
       <r>    0.5145    1.0000 </r>
       <r>    1.1744    1.0000 </r>
       <r>    1.2615    1.0000 </r>
       <r>    1.9374    0.1799 </r>
       <r>    5.7137    0.0000 </r>
       <r>    6.1302    0.0000 </r>
       <r>    6.3044    0.0000 </r>
       <r>    6.3977    0.0000 </r>
       <r>    7.3881    0.0000 </r>
       <r>    7.8931    0.0000 </r>
       <r>    8.0512    0.0000 </r>
       <r>    8.9869    0.0000 </r>
       <r>    9.2947    0.0000 </r>
       <r>    9.7640    0.0000 </r>
       <r>    9.8917    0.0000 </r>
       <r>   10.1842    0.0000 </r>
       <r>   10.2964    0.0000 </r>
       <r>   11.1098    0.0000 </r>
       <r>   11.6274    0.0000 </r>
       <r>   12.1491    0.0000 </r>
       <r>   12.5547    0.0000 </r>
       <r>   12.8426    0.0000 </r>
       <r>   13.0955    0.0000 </r>
       <r>   13.4916    0.0000 </r>
       <r>   14.0104    0.0000 </r>
       <r>   14.6522    0.0000 </r>
       <r>   14.9274    0.0000 </r>
       <r>   15.3663    0.0000 </r>
       <r>   15.5640    0.0000 </r>
       <r>   16.2535    0.0000 </r>
      </set>
      <set comment="kpoint 14">
       <r>  -12.4089    1.0000 </r>
       <r>  -11.8990    1.0000 </r>
       <r>   -8.4712    1.0000 </r>
       <r>   -8.3257    1.0000 </r>
       <r>   -5.9515    1.0000 </r>
       <r>   -5.9335    1.0000 </r>
       <r>   -4.7948    1.0000 </r>
       <r>   -4.3626    1.0000 </r>
       <r>   -4.2517    1.0000 </r>
       <r>   -2.7954    1.0000 </r>
       <r>   -2.3074    1.0000 </r>
       <r>   -2.1625    1.0000 </r>
       <r>   -1.0645    1.0000 </r>
       <r>   -1.0169    1.0000 </r>
       <r>   -0.4401    1.0000 </r>
       <r>   -0.3512    1.0000 </r>
       <r>    0.0750    1.0000 </r>
       <r>    0.0802    1.0000 </r>
       <r>    0.6616    1.0000 </r>
       <r>    1.0445    1.0000 </r>
       <r>    1.1284    1.0000 </r>
       <r>    1.6016    1.0000 </r>
       <r>    6.1408    0.0000 </r>
       <r>    6.2509    0.0000 </r>
       <r>    6.4298    0.0000 </r>
       <r>    6.8336    0.0000 </r>
       <r>    7.3311    0.0000 </r>
       <r>    7.8137    0.0000 </r>
       <r>    8.1045    0.0000 </r>
       <r>    9.0866    0.0000 </r>
       <r>    9.1427    0.0000 </r>
       <r>    9.2183    0.0000 </r>
       <r>    9.9332    0.0000 </r>
       <r>   10.2325    0.0000 </r>
       <r>   10.7431    0.0000 </r>
       <r>   11.1218    0.0000 </r>
       <r>   11.3791    0.0000 </r>
       <r>   11.9955    0.0000 </r>
       <r>   12.4104    0.0000 </r>
       <r>   13.0296    0.0000 </r>
       <r>   13.0805    0.0000 </r>
       <r>   13.8378    0.0000 </r>
       <r>   14.4368    0.0000 </r>
       <r>   14.4501    0.0000 </r>
       <r>   15.0853    0.0000 </r>
       <r>   15.1777    0.0000 </r>
       <r>   15.6723    0.0000 </r>
       <r>   16.4295    0.0000 </r>
      </set>
      <set comment="kpoint 15">
       <r>  -12.2551    1.0000 </r>
       <r>  -12.0802    1.0000 </r>
       <r>   -8.4039    1.0000 </r>
       <r>   -8.3510    1.0000 </r>
       <r>   -6.0442    1.0000 </r>
       <r>   -6.0376    1.0000 </r>
       <r>   -4.6261    1.0000 </r>
       <r>   -4.4393    1.0000 </r>
       <r>   -3.8490    1.0000 </r>
       <r>   -3.2518    1.0000 </r>
       <r>   -2.0257    1.0000 </r>
       <r>   -1.8593    1.0000 </r>
       <r>   -1.0873    1.0000 </r>
       <r>   -1.0242    1.0000 </r>
       <r>   -0.6109    1.0000 </r>
       <r>   -0.6028    1.0000 </r>
       <r>    0.0249    1.0000 </r>
       <r>    0.0685    1.0000 </r>
       <r>    0.9195    1.0000 </r>
       <r>    0.9823    1.0000 </r>
       <r>    1.0235    1.0000 </r>
       <r>    1.2473    1.0000 </r>
       <r>    6.2323    0.0000 </r>
       <r>    6.3496    0.0000 </r>
       <r>    6.9058    0.0000 </r>
       <r>    7.2487    0.0000 </r>
       <r>    7.3082    0.0000 </r>
       <r>    7.6523    0.0000 </r>
       <r>    7.9614    0.0000 </r>
       <r>    8.4752    0.0000 </r>
       <r>    9.1432    0.0000 </r>
       <r>    9.1758    0.0000 </r>
       <r>   10.0562    0.0000 </r>
       <r>   10.5277    0.0000 </r>
       <r>   10.7531    0.0000 </r>
       <r>   11.0198    0.0000 </r>
       <r>   11.7801    0.0000 </r>
       <r>   11.8026    0.0000 </r>
       <r>   12.1901    0.0000 </r>
       <r>   12.9613    0.0000 </r>
       <r>   13.4614    0.0000 </r>
       <r>   13.8108    0.0000 </r>
       <r>   14.2813    0.0000 </r>
       <r>   14.4362    0.0000 </r>
       <r>   15.0440    0.0000 </r>
       <r>   15.1847    0.0000 </r>
       <r>   16.0476    0.0000 </r>
       <r>   16.3526    0.0000 </r>
      </set>
      <set comment="kpoint 16">
       <r>  -12.6027    1.0000 </r>
       <r>  -11.4739    1.0000 </r>
       <r>   -8.5549    1.0000 </r>
       <r>   -8.2938    1.0000 </r>
       <r>   -5.9121    1.0000 </r>
       <r>   -5.6051    1.0000 </r>
       <r>   -4.9234    1.0000 </r>
       <r>   -4.5331    1.0000 </r>
       <r>   -4.4159    1.0000 </r>
       <r>   -4.1123    1.0000 </r>
       <r>   -3.3939    1.0000 </r>
       <r>   -1.2091    1.0000 </r>
       <r>   -1.0519    1.0000 </r>
       <r>   -0.9919    1.0000 </r>
       <r>   -0.1764    1.0000 </r>
       <r>    0.2386    1.0000 </r>
       <r>    0.3657    1.0000 </r>
       <r>    0.6154    1.0000 </r>
       <r>    0.8064    1.0000 </r>
       <r>    0.9995    1.0000 </r>
       <r>    1.0138    1.0000 </r>
       <r>    2.3656    0.0000 </r>
       <r>    4.9660    0.0000 </r>
       <r>    5.1836    0.0000 </r>
       <r>    6.3905    0.0000 </r>
       <r>    6.6197    0.0000 </r>
       <r>    7.3009    0.0000 </r>
       <r>    8.0070    0.0000 </r>
       <r>    8.7460    0.0000 </r>
       <r>    9.0949    0.0000 </r>
       <r>    9.5154    0.0000 </r>
       <r>    9.6184    0.0000 </r>
       <r>    9.6983    0.0000 </r>
       <r>   10.7845    0.0000 </r>
       <r>   11.3139    0.0000 </r>
       <r>   12.0083    0.0000 </r>
       <r>   12.0560    0.0000 </r>
       <r>   12.3419    0.0000 </r>
       <r>   12.4664    0.0000 </r>
       <r>   12.4890    0.0000 </r>
       <r>   12.6095    0.0000 </r>
       <r>   13.0442    0.0000 </r>
       <r>   13.8530    0.0000 </r>
       <r>   13.9261    0.0000 </r>
       <r>   14.4737    0.0000 </r>
       <r>   15.1521    0.0000 </r>
       <r>   15.4509    0.0000 </r>
       <r>   15.9253    0.0000 </r>
      </set>
      <set comment="kpoint 17">
       <r>  -12.5594    1.0000 </r>
       <r>  -11.5468    1.0000 </r>
       <r>   -8.5331    1.0000 </r>
       <r>   -8.2843    1.0000 </r>
       <r>   -5.8338    1.0000 </r>
       <r>   -5.5704    1.0000 </r>
       <r>   -5.2618    1.0000 </r>
       <r>   -4.6693    1.0000 </r>
       <r>   -4.4819    1.0000 </r>
       <r>   -3.6457    1.0000 </r>
       <r>   -3.0540    1.0000 </r>
       <r>   -1.3680    1.0000 </r>
       <r>   -1.1509    1.0000 </r>
       <r>   -1.0064    1.0000 </r>
       <r>   -0.1780    1.0000 </r>
       <r>    0.2252    1.0000 </r>
       <r>    0.2959    1.0000 </r>
       <r>    0.5944    1.0000 </r>
       <r>    0.6850    1.0000 </r>
       <r>    0.9343    1.0000 </r>
       <r>    0.9725    1.0000 </r>
       <r>    2.2273    0.0000 </r>
       <r>    5.0620    0.0000 </r>
       <r>    5.5167    0.0000 </r>
       <r>    6.3368    0.0000 </r>
       <r>    6.7505    0.0000 </r>
       <r>    7.4368    0.0000 </r>
       <r>    7.9639    0.0000 </r>
       <r>    8.6736    0.0000 </r>
       <r>    9.2159    0.0000 </r>
       <r>    9.4759    0.0000 </r>
       <r>    9.8296    0.0000 </r>
       <r>    9.9452    0.0000 </r>
       <r>   10.3760    0.0000 </r>
       <r>   10.7492    0.0000 </r>
       <r>   11.7501    0.0000 </r>
       <r>   11.9256    0.0000 </r>
       <r>   12.2873    0.0000 </r>
       <r>   12.5253    0.0000 </r>
       <r>   12.6838    0.0000 </r>
       <r>   13.0089    0.0000 </r>
       <r>   13.4415    0.0000 </r>
       <r>   13.8465    0.0000 </r>
       <r>   13.9748    0.0000 </r>
       <r>   14.3071    0.0000 </r>
       <r>   15.1377    0.0000 </r>
       <r>   15.4800    0.0000 </r>
       <r>   15.7887    0.0000 </r>
      </set>
      <set comment="kpoint 18">
       <r>  -12.4748    1.0000 </r>
       <r>  -11.6782    1.0000 </r>
       <r>   -8.4885    1.0000 </r>
       <r>   -8.2735    1.0000 </r>
       <r>   -5.7966    1.0000 </r>
       <r>   -5.6528    1.0000 </r>
       <r>   -5.4122    1.0000 </r>
       <r>   -4.6440    1.0000 </r>
       <r>   -4.6051    1.0000 </r>
       <r>   -3.1049    1.0000 </r>
       <r>   -2.5830    1.0000 </r>
       <r>   -1.8523    1.0000 </r>
       <r>   -1.0901    1.0000 </r>
       <r>   -1.0247    1.0000 </r>
       <r>   -0.1967    1.0000 </r>
       <r>   -0.0297    1.0000 </r>
       <r>    0.3346    1.0000 </r>
       <r>    0.5252    1.0000 </r>
       <r>    0.5421    1.0000 </r>
       <r>    0.8466    1.0000 </r>
       <r>    0.9057    1.0000 </r>
       <r>    1.9662    0.0419 </r>
       <r>    5.3885    0.0000 </r>
       <r>    5.9933    0.0000 </r>
       <r>    6.3097    0.0000 </r>
       <r>    6.8627    0.0000 </r>
       <r>    7.6051    0.0000 </r>
       <r>    7.9824    0.0000 </r>
       <r>    8.5961    0.0000 </r>
       <r>    9.4070    0.0000 </r>
       <r>    9.4372    0.0000 </r>
       <r>    9.6301    0.0000 </r>
       <r>   10.0851    0.0000 </r>
       <r>   10.1594    0.0000 </r>
       <r>   10.6052    0.0000 </r>
       <r>   11.4326    0.0000 </r>
       <r>   11.4397    0.0000 </r>
       <r>   12.2799    0.0000 </r>
       <r>   12.7912    0.0000 </r>
       <r>   12.9992    0.0000 </r>
       <r>   13.2275    0.0000 </r>
       <r>   13.5735    0.0000 </r>
       <r>   13.8214    0.0000 </r>
       <r>   14.0672    0.0000 </r>
       <r>   14.4429    0.0000 </r>
       <r>   15.2291    0.0000 </r>
       <r>   15.4086    0.0000 </r>
       <r>   16.0476    0.0000 </r>
      </set>
      <set comment="kpoint 19">
       <r>  -12.3527    1.0000 </r>
       <r>  -11.8456    1.0000 </r>
       <r>   -8.4253    1.0000 </r>
       <r>   -8.2753    1.0000 </r>
       <r>   -5.8715    1.0000 </r>
       <r>   -5.8607    1.0000 </r>
       <r>   -5.2993    1.0000 </r>
       <r>   -4.7706    1.0000 </r>
       <r>   -4.3266    1.0000 </r>
       <r>   -2.7502    1.0000 </r>
       <r>   -2.2646    1.0000 </r>
       <r>   -2.1066    1.0000 </r>
       <r>   -1.0319    1.0000 </r>
       <r>   -1.0046    1.0000 </r>
       <r>   -0.3547    1.0000 </r>
       <r>   -0.3117    1.0000 </r>
       <r>    0.1705    1.0000 </r>
       <r>    0.3930    1.0000 </r>
       <r>    0.6817    1.0000 </r>
       <r>    0.7915    1.0000 </r>
       <r>    0.8399    1.0000 </r>
       <r>    1.6265    1.0000 </r>
       <r>    5.9176    0.0000 </r>
       <r>    6.3411    0.0000 </r>
       <r>    6.5752    0.0000 </r>
       <r>    6.8153    0.0000 </r>
       <r>    7.6036    0.0000 </r>
       <r>    8.0380    0.0000 </r>
       <r>    8.5486    0.0000 </r>
       <r>    8.9513    0.0000 </r>
       <r>    9.3101    0.0000 </r>
       <r>    9.6253    0.0000 </r>
       <r>    9.9520    0.0000 </r>
       <r>   10.3890    0.0000 </r>
       <r>   10.8363    0.0000 </r>
       <r>   11.1349    0.0000 </r>
       <r>   11.4955    0.0000 </r>
       <r>   12.2124    0.0000 </r>
       <r>   12.4762    0.0000 </r>
       <r>   13.2062    0.0000 </r>
       <r>   13.3248    0.0000 </r>
       <r>   13.7173    0.0000 </r>
       <r>   13.9552    0.0000 </r>
       <r>   14.2031    0.0000 </r>
       <r>   14.8097    0.0000 </r>
       <r>   15.0450    0.0000 </r>
       <r>   15.4908    0.0000 </r>
       <r>   16.3872    0.0000 </r>
      </set>
      <set comment="kpoint 20">
       <r>  -12.1997    1.0000 </r>
       <r>  -12.0259    1.0000 </r>
       <r>   -8.3572    1.0000 </r>
       <r>   -8.3028    1.0000 </r>
       <r>   -5.9664    1.0000 </r>
       <r>   -5.9578    1.0000 </r>
       <r>   -5.1373    1.0000 </r>
       <r>   -4.9546    1.0000 </r>
       <r>   -3.8166    1.0000 </r>
       <r>   -3.2215    1.0000 </r>
       <r>   -1.9684    1.0000 </r>
       <r>   -1.8133    1.0000 </r>
       <r>   -0.9667    1.0000 </r>
       <r>   -0.9077    1.0000 </r>
       <r>   -0.6535    1.0000 </r>
       <r>   -0.6103    1.0000 </r>
       <r>    0.1445    1.0000 </r>
       <r>    0.2445    1.0000 </r>
       <r>    0.7760    1.0000 </r>
       <r>    0.7915    1.0000 </r>
       <r>    0.9455    1.0000 </r>
       <r>    1.2692    1.0000 </r>
       <r>    6.4743    0.0000 </r>
       <r>    6.5812    0.0000 </r>
       <r>    6.6533    0.0000 </r>
       <r>    7.1670    0.0000 </r>
       <r>    7.2357    0.0000 </r>
       <r>    7.7255    0.0000 </r>
       <r>    8.5366    0.0000 </r>
       <r>    8.6012    0.0000 </r>
       <r>    9.5045    0.0000 </r>
       <r>    9.6806    0.0000 </r>
       <r>    9.8907    0.0000 </r>
       <r>   10.1842    0.0000 </r>
       <r>   10.9022    0.0000 </r>
       <r>   11.2737    0.0000 </r>
       <r>   11.9213    0.0000 </r>
       <r>   11.9927    0.0000 </r>
       <r>   12.3130    0.0000 </r>
       <r>   13.2018    0.0000 </r>
       <r>   13.4889    0.0000 </r>
       <r>   13.6781    0.0000 </r>
       <r>   13.8871    0.0000 </r>
       <r>   13.9995    0.0000 </r>
       <r>   15.1510    0.0000 </r>
       <r>   15.1690    0.0000 </r>
       <r>   15.7226    0.0000 </r>
       <r>   16.0255    0.0000 </r>
      </set>
      <set comment="kpoint 21">
       <r>  -12.5424    1.0000 </r>
[...]
       <r>   -2.2966    1.0000 </r>
       <r>   -2.1416    1.0000 </r>
       <r>   -1.9763    1.0000 </r>
       <r>   -1.4729    1.0000 </r>
       <r>   -0.7238    1.0000 </r>
       <r>   -0.1844    1.0000 </r>
       <r>    0.1791    1.0000 </r>
       <r>    0.3989    1.0000 </r>
       <r>    0.5340    1.0000 </r>
       <r>    1.6087    1.0000 </r>
       <r>    1.6369    1.0000 </r>
       <r>    1.8927    0.6367 </r>
       <r>    5.5365    0.0000 </r>
       <r>    6.1745    0.0000 </r>
       <r>    6.6957    0.0000 </r>
       <r>    7.2567    0.0000 </r>
       <r>    7.8234    0.0000 </r>
       <r>    8.2562    0.0000 </r>
       <r>    9.0269    0.0000 </r>
       <r>    9.1911    0.0000 </r>
       <r>    9.7581    0.0000 </r>
       <r>    9.9954    0.0000 </r>
       <r>   10.6292    0.0000 </r>
       <r>   11.0651    0.0000 </r>
       <r>   11.2578    0.0000 </r>
       <r>   11.5334    0.0000 </r>
       <r>   11.6121    0.0000 </r>
       <r>   11.9911    0.0000 </r>
       <r>   12.8839    0.0000 </r>
       <r>   13.2061    0.0000 </r>
       <r>   13.4158    0.0000 </r>
       <r>   13.7995    0.0000 </r>
       <r>   13.9319    0.0000 </r>
       <r>   14.2059    0.0000 </r>
       <r>   14.5328    0.0000 </r>
       <r>   15.0131    0.0000 </r>
       <r>   15.1477    0.0000 </r>
       <r>   15.4488    0.0000 </r>
      </set>
      <set comment="kpoint 175">
       <r>  -12.0239    1.0000 </r>
       <r>  -11.8849    1.0000 </r>
       <r>   -8.5411    1.0000 </r>
       <r>   -8.4288    1.0000 </r>
       <r>   -5.9191    1.0000 </r>
       <r>   -5.8121    1.0000 </r>
       <r>   -4.8802    1.0000 </r>
       <r>   -4.5552    1.0000 </r>
       <r>   -4.4032    1.0000 </r>
       <r>   -3.9634    1.0000 </r>
       <r>   -2.1936    1.0000 </r>
       <r>   -2.1317    1.0000 </r>
       <r>   -2.0389    1.0000 </r>
       <r>   -1.7546    1.0000 </r>
       <r>   -0.2034    1.0000 </r>
       <r>    0.0121    1.0000 </r>
       <r>    0.4019    1.0000 </r>
       <r>    0.4899    1.0000 </r>
       <r>    0.5670    1.0000 </r>
       <r>    0.8923    1.0000 </r>
       <r>    1.6511    1.0000 </r>
       <r>    1.7508    1.0000 </r>
       <r>    5.8857    0.0000 </r>
       <r>    6.0723    0.0000 </r>
       <r>    6.8972    0.0000 </r>
       <r>    7.4470    0.0000 </r>
       <r>    7.5035    0.0000 </r>
       <r>    7.6178    0.0000 </r>
       <r>    9.4318    0.0000 </r>
       <r>    9.6184    0.0000 </r>
       <r>    9.8282    0.0000 </r>
       <r>   10.0060    0.0000 </r>
       <r>   10.5078    0.0000 </r>
       <r>   10.8608    0.0000 </r>
       <r>   11.2690    0.0000 </r>
       <r>   11.5514    0.0000 </r>
       <r>   11.5734    0.0000 </r>
       <r>   11.6567    0.0000 </r>
       <r>   13.1305    0.0000 </r>
       <r>   13.2381    0.0000 </r>
       <r>   13.7841    0.0000 </r>
       <r>   14.1072    0.0000 </r>
       <r>   14.2434    0.0000 </r>
       <r>   14.3501    0.0000 </r>
       <r>   14.6455    0.0000 </r>
       <r>   14.7855    0.0000 </r>
       <r>   14.9309    0.0000 </r>
       <r>   15.1065    0.0000 </r>
      </set>
     </set>
    </set>
   </array>
  </eigenvalues>
  <separator name="orbital magnetization" >
   <v name="MAGDIPOLOUT">      0.00000000      0.00000000      0.00000000</v>
  </separator>
  <dos>
   <i name="efermi">      1.90506421 </i>
   <total>
    <array>
     <dimension dim="1">gridpoints</dimension>
     <dimension dim="2">spin</dimension>
     <field>energy</field>
     <field>total</field>
     <field>integrated</field>
     <set>
      <set comment="spin 1">
       <r>   -14.1940     0.0000     0.0000 </r>
       <r>   -14.0866     0.0000     0.0000 </r>
       <r>   -13.9791     0.0000     0.0000 </r>
       <r>   -13.8717     0.0000     0.0000 </r>
       <r>   -13.7642     0.0000     0.0000 </r>
       <r>   -13.6568     0.0000     0.0000 </r>
       <r>   -13.5494     0.0000     0.0000 </r>
       <r>   -13.4419     0.0000     0.0000 </r>
       <r>   -13.3345     0.0000     0.0000 </r>
       <r>   -13.2271     0.0000     0.0000 </r>
       <r>   -13.1196     0.0000     0.0000 </r>
       <r>   -13.0122     0.0000     0.0000 </r>
       <r>   -12.9048     0.0000     0.0000 </r>
       <r>   -12.7973     0.0038     0.0004 </r>
       <r>   -12.6899     0.5071     0.0549 </r>
       <r>   -12.5825     2.3862     0.3112 </r>
       <r>   -12.4750     3.5555     0.6932 </r>
       <r>   -12.3676     4.3648     1.1622 </r>
       <r>   -12.2602     3.5389     1.5424 </r>
       <r>   -12.1527     2.7333     1.8360 </r>
       <r>   -12.0453     2.7471     2.1312 </r>
       <r>   -11.9379     2.5105     2.4009 </r>
       <r>   -11.8304     2.7707     2.6985 </r>
       <r>   -11.7230     3.4406     3.0682 </r>
       <r>   -11.6156     3.5337     3.4478 </r>
       <r>   -11.5081     3.0930     3.7801 </r>
       <r>   -11.4007     1.6399     3.9563 </r>
       <r>   -11.2932     0.4008     3.9993 </r>
       <r>   -11.1858     0.0061     4.0000 </r>
       <r>   -11.0784     0.0000     4.0000 </r>
       <r>   -10.9709     0.0000     4.0000 </r>
       <r>   -10.8635     0.0000     4.0000 </r>
       <r>   -10.7561     0.0000     4.0000 </r>
       <r>   -10.6486     0.0000     4.0000 </r>
       <r>   -10.5412     0.0000     4.0000 </r>
       <r>   -10.4338     0.0000     4.0000 </r>
       <r>   -10.3263     0.0000     4.0000 </r>
       <r>   -10.2189     0.0000     4.0000 </r>
       <r>   -10.1115     0.0000     4.0000 </r>
       <r>   -10.0040     0.0000     4.0000 </r>
       <r>    -9.8966     0.0000     4.0000 </r>
       <r>    -9.7892     0.0000     4.0000 </r>
       <r>    -9.6817     0.0000     4.0000 </r>
       <r>    -9.5743     0.0000     4.0000 </r>
       <r>    -9.4669     0.0000     4.0000 </r>
       <r>    -9.3594     0.0000     4.0000 </r>
       <r>    -9.2520     0.0000     4.0000 </r>
       <r>    -9.1446     0.0000     4.0000 </r>
       <r>    -9.0371     0.0000     4.0000 </r>
       <r>    -8.9297     0.0006     4.0001 </r>
       <r>    -8.8222     0.2710     4.0292 </r>
       <r>    -8.7148     2.0719     4.2518 </r>
       <r>    -8.6074     5.2903     4.8201 </r>
       <r>    -8.4999     6.9640     5.5683 </r>
       <r>    -8.3925     6.3102     6.2463 </r>
       <r>    -8.2851     5.3220     6.8180 </r>
       <r>    -8.1776     4.8245     7.3363 </r>
       <r>    -8.0702     3.8806     7.7533 </r>
       <r>    -7.9628     1.6684     7.9325 </r>
       <r>    -7.8553     0.5767     7.9945 </r>
       <r>    -7.7479     0.0514     8.0000 </r>
       <r>    -7.6405     0.0000     8.0000 </r>
       <r>    -7.5330     0.0000     8.0000 </r>
       <r>    -7.4256     0.0000     8.0000 </r>
       <r>    -7.3182     0.0000     8.0000 </r>
       <r>    -7.2107     0.0000     8.0000 </r>
       <r>    -7.1033     0.0000     8.0000 </r>
       <r>    -6.9959     0.0004     8.0000 </r>
       <r>    -6.8884     0.1158     8.0125 </r>
       <r>    -6.7810     0.2560     8.0400 </r>
       <r>    -6.6736     0.4279     8.0860 </r>
       <r>    -6.5661     0.7659     8.1682 </r>
       <r>    -6.4587     0.8575     8.2604 </r>
       <r>    -6.3512     1.4551     8.4167 </r>
       <r>    -6.2438     1.9881     8.6303 </r>
       <r>    -6.1364     3.0619     8.9592 </r>
       <r>    -6.0289     3.7697     9.3642 </r>
       <r>    -5.9215     4.1042     9.8052 </r>
       <r>    -5.8141     4.0385    10.2391 </r>
       <r>    -5.7066     3.8396    10.6516 </r>
       <r>    -5.5992     4.0698    11.0888 </r>
       <r>    -5.4918     4.2230    11.5425 </r>
       <r>    -5.3843     4.5241    12.0285 </r>
       <r>    -5.2769     4.5751    12.5201 </r>
       <r>    -5.1695     4.4848    13.0019 </r>
       <r>    -5.0620     3.8544    13.4160 </r>
       <r>    -4.9546     3.2335    13.7634 </r>
       <r>    -4.8472     2.9299    14.0781 </r>
       <r>    -4.7397     2.3657    14.3323 </r>
       <r>    -4.6323     2.8956    14.6434 </r>
       <r>    -4.5249     3.3631    15.0047 </r>
       <r>    -4.4174     3.4959    15.3803 </r>
       <r>    -4.3100     3.3015    15.7350 </r>
       <r>    -4.2026     2.9468    16.0516 </r>
       <r>    -4.0951     2.9028    16.3634 </r>
       <r>    -3.9877     2.9585    16.6813 </r>
       <r>    -3.8802     2.8401    16.9864 </r>
       <r>    -3.7728     3.1308    17.3228 </r>
       <r>    -3.6654     2.8519    17.6291 </r>
       <r>    -3.5579     2.7039    17.9196 </r>
       <r>    -3.4505     3.0506    18.2474 </r>
       <r>    -3.3431     2.6174    18.5286 </r>
       <r>    -3.2356     2.8910    18.8392 </r>
       <r>    -3.1282     2.6979    19.1290 </r>
       <r>    -3.0208     2.7664    19.4262 </r>
       <r>    -2.9133     3.0099    19.7496 </r>
       <r>    -2.8059     2.9629    20.0679 </r>
       <r>    -2.6985     2.4168    20.3276 </r>
       <r>    -2.5910     2.6760    20.6151 </r>
       <r>    -2.4836     3.0285    20.9404 </r>
       <r>    -2.3762     2.9699    21.2595 </r>
       <r>    -2.2687     3.2046    21.6038 </r>
       <r>    -2.1613     4.0275    22.0365 </r>
       <r>    -2.0539     3.6546    22.4291 </r>
       <r>    -1.9464     3.3197    22.7858 </r>
       <r>    -1.8390     5.2560    23.3504 </r>
       <r>    -1.7315     5.6407    23.9564 </r>
       <r>    -1.6241     5.5607    24.5539 </r>
       <r>    -1.5167     6.1855    25.2184 </r>
       <r>    -1.4092     6.0764    25.8712 </r>
       <r>    -1.3018     5.5164    26.4639 </r>
       <r>    -1.1944     4.6933    26.9681 </r>
       <r>    -1.0869     6.4777    27.6640 </r>
       <r>    -0.9795     3.7942    28.0716 </r>
       <r>    -0.8721     2.2621    28.3147 </r>
       <r>    -0.7646     2.6922    28.6039 </r>
       <r>    -0.6572     2.8813    28.9135 </r>
       <r>    -0.5498     4.6243    29.4103 </r>
       <r>    -0.4423     6.8900    30.1505 </r>
       <r>    -0.3349     5.6455    30.7570 </r>
       <r>    -0.2275     6.7544    31.4827 </r>
       <r>    -0.1200     6.3560    32.1655 </r>
       <r>    -0.0126     6.7563    32.8914 </r>
       <r>     0.0948     6.6697    33.6080 </r>
       <r>     0.2023     6.3599    34.2912 </r>
       <r>     0.3097     8.7692    35.2334 </r>
       <r>     0.4171     7.8672    36.0786 </r>
       <r>     0.5246     8.7143    37.0148 </r>
       <r>     0.6320     5.1009    37.5628 </r>
       <r>     0.7395     2.8638    37.8705 </r>
       <r>     0.8469     3.3527    38.2307 </r>
       <r>     0.9543     3.5840    38.6157 </r>
       <r>     1.0618     3.5261    38.9945 </r>
       <r>     1.1692     2.7830    39.2935 </r>
       <r>     1.2766     3.4268    39.6617 </r>
       <r>     1.3841     4.5059    40.1458 </r>
       <r>     1.4915     3.7423    40.5478 </r>
       <r>     1.5989     3.7530    40.9510 </r>
       <r>     1.7064     4.5564    41.4405 </r>
       <r>     1.8138     3.1084    41.7745 </r>
       <r>     1.9212     2.4887    42.0419 </r>
       <r>     2.0287     2.6340    42.3249 </r>
       <r>     2.1361     2.0962    42.5501 </r>
       <r>     2.2435     2.6523    42.8350 </r>
       <r>     2.3510     2.5295    43.1068 </r>
       <r>     2.4584     1.8894    43.3098 </r>
       <r>     2.5658     0.7996    43.3957 </r>
       <r>     2.6733     0.3791    43.4364 </r>
       <r>     2.7807     0.5679    43.4974 </r>
       <r>     2.8881     0.4181    43.5423 </r>
       <r>     2.9956     0.3068    43.5753 </r>
       <r>     3.1030     0.7843    43.6595 </r>
       <r>     3.2105     1.0026    43.7673 </r>
       <r>     3.3179     0.5024    43.8212 </r>
       <r>     3.4253     0.0100    43.8223 </r>
       <r>     3.5328     0.1437    43.8377 </r>
       <r>     3.6402     0.3993    43.8806 </r>
       <r>     3.7476     0.3196    43.9150 </r>
       <r>     3.8551     0.3808    43.9559 </r>
       <r>     3.9625     0.3889    43.9977 </r>
       <r>     4.0699     0.0216    44.0000 </r>
       <r>     4.1774     0.0001    44.0000 </r>
       <r>     4.2848     0.0472    44.0051 </r>
       <r>     4.3922     0.1896    44.0255 </r>
       <r>     4.4997     0.4099    44.0695 </r>
       <r>     4.6071     0.4932    44.1225 </r>
       <r>     4.7145     0.6518    44.1925 </r>
       <r>     4.8220     0.8984    44.2890 </r>
       <r>     4.9294     0.8504    44.3804 </r>
       <r>     5.0368     0.8575    44.4725 </r>
       <r>     5.1443     1.2893    44.6110 </r>
       <r>     5.2517     1.1333    44.7328 </r>
       <r>     5.3591     1.6675    44.9119 </r>
       <r>     5.4666     2.2283    45.1513 </r>
       <r>     5.5740     2.4788    45.4176 </r>
       <r>     5.6815     2.7795    45.7162 </r>
       <r>     5.7889     3.4325    46.0850 </r>
       <r>     5.8963     3.1936    46.4281 </r>
       <r>     6.0038     4.3673    46.8973 </r>
       <r>     6.1112     4.6974    47.4020 </r>
       <r>     6.2186     4.0234    47.8342 </r>
       <r>     6.3261     4.6380    48.3325 </r>
       <r>     6.4335     4.0337    48.7659 </r>
       <r>     6.5409     4.0795    49.2041 </r>
       <r>     6.6484     4.4234    49.6794 </r>
       <r>     6.7558     3.2122    50.0245 </r>
       <r>     6.8632     4.0328    50.4577 </r>
       <r>     6.9707     4.6145    50.9535 </r>
       <r>     7.0781     4.5204    51.4392 </r>
       <r>     7.1855     4.3428    51.9057 </r>
       <r>     7.2930     5.6207    52.5096 </r>
       <r>     7.4004     4.8530    53.0310 </r>
       <r>     7.5078     4.4267    53.5065 </r>
       <r>     7.6153     4.1471    53.9521 </r>
       <r>     7.7227     3.5421    54.3326 </r>
       <r>     7.8301     3.1445    54.6705 </r>
       <r>     7.9376     2.9858    54.9912 </r>
       <r>     8.0450     2.9965    55.3132 </r>
       <r>     8.1525     4.1721    55.7614 </r>
       <r>     8.2599     3.8529    56.1753 </r>
       <r>     8.3673     3.6369    56.5661 </r>
       <r>     8.4748     3.9787    56.9935 </r>
       <r>     8.5822     4.1776    57.4423 </r>
       <r>     8.6896     4.4219    57.9174 </r>
       <r>     8.7971     4.1651    58.3649 </r>
       <r>     8.9045     5.1848    58.9219 </r>
       <r>     9.0119     5.0705    59.4667 </r>
       <r>     9.1194     5.2932    60.0353 </r>
       <r>     9.2268     5.2531    60.5997 </r>
       <r>     9.3342     4.9224    61.1285 </r>
       <r>     9.4417     4.7159    61.6352 </r>
       <r>     9.5491     4.3400    62.1015 </r>
       <r>     9.6565     5.1128    62.6508 </r>
       <r>     9.7640     5.0174    63.1898 </r>
       <r>     9.8714     5.3148    63.7608 </r>
       <r>     9.9788     4.4631    64.2403 </r>
       <r>    10.0863     3.5946    64.6265 </r>
       <r>    10.1937     5.1576    65.1806 </r>
       <r>    10.3011     4.7105    65.6867 </r>
       <r>    10.4086     4.0762    66.1246 </r>
       <r>    10.5160     5.4932    66.7147 </r>
       <r>    10.6235     5.7823    67.3360 </r>
       <r>    10.7309     4.0491    67.7710 </r>
       <r>    10.8383     3.8603    68.1857 </r>
       <r>    10.9458     3.1976    68.5292 </r>
       <r>    11.0532     4.6560    69.0295 </r>
       <r>    11.1606     5.5451    69.6252 </r>
       <r>    11.2681     6.0993    70.2805 </r>
       <r>    11.3755     5.9771    70.9226 </r>
       <r>    11.4829     5.3648    71.4990 </r>
       <r>    11.5904     4.2037    71.9506 </r>
       <r>    11.6978     4.4691    72.4307 </r>
       <r>    11.8052     4.8908    72.9562 </r>
       <r>    11.9127     4.7923    73.4710 </r>
       <r>    12.0201     6.0567    74.1217 </r>
       <r>    12.1275     5.9209    74.7579 </r>
       <r>    12.2350     5.9082    75.3926 </r>
       <r>    12.3424     5.6727    76.0020 </r>
       <r>    12.4498     5.0400    76.5435 </r>
       <r>    12.5573     5.6443    77.1499 </r>
       <r>    12.6647     6.0154    77.7962 </r>
       <r>    12.7721     6.0871    78.4501 </r>
       <r>    12.8796     5.8329    79.0768 </r>
       <r>    12.9870     5.8381    79.7040 </r>
       <r>    13.0945     5.5705    80.3025 </r>
       <r>    13.2019     6.3470    80.9844 </r>
       <r>    13.3093     6.2210    81.6527 </r>
       <r>    13.4168     5.3259    82.2249 </r>
       <r>    13.5242     6.1463    82.8852 </r>
       <r>    13.6316     5.2535    83.4496 </r>
       <r>    13.7391     4.7954    83.9648 </r>
       <r>    13.8465     6.0739    84.6174 </r>
       <r>    13.9539     5.5258    85.2111 </r>
       <r>    14.0614     5.3238    85.7830 </r>
       <r>    14.1688     5.4724    86.3709 </r>
       <r>    14.2762     4.6987    86.8758 </r>
       <r>    14.3837     4.8497    87.3968 </r>
       <r>    14.4911     5.0720    87.9417 </r>
       <r>    14.5985     4.9808    88.4768 </r>
       <r>    14.7060     5.2673    89.0427 </r>
       <r>    14.8134     5.1369    89.5946 </r>
       <r>    14.9208     4.0889    90.0339 </r>
       <r>    15.0283     5.1390    90.5860 </r>
       <r>    15.1357     6.2226    91.2545 </r>
       <r>    15.2431     5.5891    91.8550 </r>
       <r>    15.3506     5.6239    92.4592 </r>
       <r>    15.4580     6.0549    93.1097 </r>
       <r>    15.5655     5.7024    93.7223 </r>
       <r>    15.6729     5.8981    94.3560 </r>
       <r>    15.7803     4.5626    94.8462 </r>
       <r>    15.8878     2.4354    95.1078 </r>
       <r>    15.9952     2.6984    95.3977 </r>
       <r>    16.1026     1.8780    95.5995 </r>
       <r>    16.2101     1.1560    95.7237 </r>
       <r>    16.3175     0.8840    95.8186 </r>
       <r>    16.4249     0.7001    95.8938 </r>
       <r>    16.5324     0.8122    95.9811 </r>
       <r>    16.6398     0.1743    95.9998 </r>
       <r>    16.7472     0.0017    96.0000 </r>
       <r>    16.8547     0.0000    96.0000 </r>
       <r>    16.9621     0.0000    96.0000 </r>
       <r>    17.0695     0.0000    96.0000 </r>
       <r>    17.1770     0.0000    96.0000 </r>
       <r>    17.2844     0.0000    96.0000 </r>
       <r>    17.3918     0.0000    96.0000 </r>
       <r>    17.4993     0.0000    96.0000 </r>
       <r>    17.6067     0.0000    96.0000 </r>
       <r>    17.7141     0.0000    96.0000 </r>
       <r>    17.8216     0.0000    96.0000 </r>
       <r>    17.9290     0.0000    96.0000 </r>
       <r>    18.0365     0.0000    96.0000 </r>
      </set>
     </set>
    </array>
   </total>
  </dos>
 </calculation>
 <structure name="finalpos" >
  <crystal>
   <varray name="basis" >
    <v>       5.69016360       0.00000000       0.00000000 </v>
    <v>       0.00000000       4.04304252       0.00000000 </v>
    <v>       0.00000000       0.00000000       6.19675496 </v>
   </varray>
   <i name="volume">    142.55990095 </i>
   <varray name="rec_basis" >
    <v>       0.17574187       0.00000000       0.00000000 </v>
    <v>       0.00000000       0.24733848       0.00000000 </v>
    <v>       0.00000000       0.00000000       0.16137479 </v>
   </varray>
  </crystal>
  <varray name="positions" >
   <v>       0.52123000       0.50000000       0.63796000 </v>
   <v>       0.47877000       0.50000000       0.36204000 </v>
   <v>       0.97877000       0.50000000       0.63796000 </v>
   <v>       0.02123000       0.50000000       0.36204000 </v>
   <v>       0.60090000       0.50000000       0.89991000 </v>
   <v>       0.39910000       0.50000000       0.10009000 </v>
   <v>       0.89910000       0.50000000       0.89991000 </v>
   <v>       0.10090000       0.50000000       0.10009000 </v>
   <v>       0.75000000       0.79171000       0.72973000 </v>
   <v>       0.25000000       0.20829000       0.27027000 </v>
   <v>       0.75000000       0.20829000       0.72973000 </v>
   <v>       0.25000000       0.79171000       0.27027000 </v>
   <v>       0.25000000       0.50000000       0.52367000 </v>
   <v>       0.75000000       0.50000000       0.47633000 </v>
  </varray>
 </structure>
</modeling>
