   1   1   0   0
  0.3375000E+04  0.1500000E-08  0.1250000E-08  0.1800000E-08  0.5000000E-15
  1.000000000000000E-004
  CAR 
 Convergence                             
      2.49764922     -9.97664245  301     -3.60712514      1.00000000
     -9.977  0.0000E+00  0.0000E+00
     -9.935  0.0000E+00  0.0000E+00
     -9.893  0.0000E+00  0.0000E+00
     -9.852  0.0000E+00  0.0000E+00
     -9.810  0.0000E+00  0.0000E+00
     -9.769  0.0000E+00  0.0000E+00
     -9.727  0.0000E+00  0.0000E+00
     -9.686  0.1442E-12  0.5995E-14
     -9.644  0.8133E-09  0.3383E-10
     -9.602  0.1192E-05  0.4959E-07
     -9.561  0.4550E-03  0.1897E-04
     -9.519  0.4599E-01  0.1931E-02
     -9.478  0.1259E+01  0.5429E-01
     -9.436  0.9618E+01  0.4542E+00
     -9.395  0.2109E+02  0.1331E+01
     -9.353  0.1347E+02  0.1891E+01
     -9.311  0.2485E+01  0.1995E+01
     -9.270  0.1290E+00  0.2000E+01
     -9.228  0.1827E-02  0.2000E+01
     -9.187  0.6888E-05  0.2000E+01
     -9.145  0.6792E-08  0.2000E+01
     -9.103  0.1730E-11  0.2000E+01
     -9.062  0.0000E+00  0.2000E+01
     -9.020  0.0000E+00  0.2000E+01
     -8.979  0.0000E+00  0.2000E+01
     -8.937  0.0000E+00  0.2000E+01
     -8.896  0.0000E+00  0.2000E+01
     -8.854  0.0000E+00  0.2000E+01
     -8.812  0.0000E+00  0.2000E+01
     -8.771  0.0000E+00  0.2000E+01
     -8.729  0.0000E+00  0.2000E+01
     -8.688  0.0000E+00  0.2000E+01
     -8.646  0.0000E+00  0.2000E+01
     -8.604  0.0000E+00  0.2000E+01
     -8.563  0.0000E+00  0.2000E+01
     -8.521  0.0000E+00  0.2000E+01
     -8.480  0.0000E+00  0.2000E+01
     -8.438  0.0000E+00  0.2000E+01
     -8.397  0.0000E+00  0.2000E+01
     -8.355  0.0000E+00  0.2000E+01
     -8.313  0.0000E+00  0.2000E+01
     -8.272  0.0000E+00  0.2000E+01
     -8.230  0.0000E+00  0.2000E+01
     -8.189  0.0000E+00  0.2000E+01
     -8.147  0.0000E+00  0.2000E+01
     -8.105  0.0000E+00  0.2000E+01
     -8.064  0.0000E+00  0.2000E+01
     -8.022  0.0000E+00  0.2000E+01
     -7.981  0.0000E+00  0.2000E+01
     -7.939  0.0000E+00  0.2000E+01
     -7.898  0.0000E+00  0.2000E+01
     -7.856  0.0000E+00  0.2000E+01
     -7.814  0.0000E+00  0.2000E+01
     -7.773  0.0000E+00  0.2000E+01
     -7.731  0.0000E+00  0.2000E+01
     -7.690  0.0000E+00  0.2000E+01
     -7.648  0.0000E+00  0.2000E+01
     -7.607  0.0000E+00  0.2000E+01
     -7.565  0.0000E+00  0.2000E+01
     -7.523  0.0000E+00  0.2000E+01
     -7.482  0.0000E+00  0.2000E+01
     -7.440  0.0000E+00  0.2000E+01
     -7.399  0.0000E+00  0.2000E+01
     -7.357  0.0000E+00  0.2000E+01
     -7.315  0.0000E+00  0.2000E+01
     -7.274  0.0000E+00  0.2000E+01
     -7.232  0.0000E+00  0.2000E+01
     -7.191  0.0000E+00  0.2000E+01
     -7.149  0.0000E+00  0.2000E+01
     -7.108  0.0000E+00  0.2000E+01
     -7.066  0.0000E+00  0.2000E+01
     -7.024  0.0000E+00  0.2000E+01
     -6.983  0.0000E+00  0.2000E+01
     -6.941  0.0000E+00  0.2000E+01
     -6.900  0.0000E+00  0.2000E+01
     -6.858  0.0000E+00  0.2000E+01
     -6.816  0.0000E+00  0.2000E+01
     -6.775  0.0000E+00  0.2000E+01
     -6.733  0.0000E+00  0.2000E+01
     -6.692  0.0000E+00  0.2000E+01
     -6.650  0.0000E+00  0.2000E+01
     -6.609  0.0000E+00  0.2000E+01
     -6.567  0.0000E+00  0.2000E+01
     -6.525  0.0000E+00  0.2000E+01
     -6.484  0.0000E+00  0.2000E+01
     -6.442  0.0000E+00  0.2000E+01
     -6.401  0.0000E+00  0.2000E+01
     -6.359  0.0000E+00  0.2000E+01
     -6.318  0.0000E+00  0.2000E+01
     -6.276  0.0000E+00  0.2000E+01
     -6.234  0.0000E+00  0.2000E+01
     -6.193  0.0000E+00  0.2000E+01
     -6.151  0.0000E+00  0.2000E+01
     -6.110  0.0000E+00  0.2000E+01
     -6.068  0.0000E+00  0.2000E+01
     -6.026  0.0000E+00  0.2000E+01
     -5.985  0.0000E+00  0.2000E+01
     -5.943  0.0000E+00  0.2000E+01
     -5.902  0.0000E+00  0.2000E+01
     -5.860  0.0000E+00  0.2000E+01
     -5.819  0.0000E+00  0.2000E+01
     -5.777  0.0000E+00  0.2000E+01
     -5.735  0.0000E+00  0.2000E+01
     -5.694  0.0000E+00  0.2000E+01
     -5.652  0.0000E+00  0.2000E+01
     -5.611  0.0000E+00  0.2000E+01
     -5.569  0.0000E+00  0.2000E+01
     -5.527  0.0000E+00  0.2000E+01
     -5.486  0.0000E+00  0.2000E+01
     -5.444  0.0000E+00  0.2000E+01
     -5.403  0.0000E+00  0.2000E+01
     -5.361  0.0000E+00  0.2000E+01
     -5.320  0.0000E+00  0.2000E+01
     -5.278  0.0000E+00  0.2000E+01
     -5.236  0.0000E+00  0.2000E+01
     -5.195  0.0000E+00  0.2000E+01
     -5.153  0.0000E+00  0.2000E+01
     -5.112  0.0000E+00  0.2000E+01
     -5.070  0.0000E+00  0.2000E+01
     -5.029  0.0000E+00  0.2000E+01
     -4.987  0.0000E+00  0.2000E+01
     -4.945  0.0000E+00  0.2000E+01
     -4.904  0.0000E+00  0.2000E+01
     -4.862  0.0000E+00  0.2000E+01
     -4.821  0.0000E+00  0.2000E+01
     -4.779  0.0000E+00  0.2000E+01
     -4.737  0.0000E+00  0.2000E+01
     -4.696  0.0000E+00  0.2000E+01
     -4.654  0.0000E+00  0.2000E+01
     -4.613  0.0000E+00  0.2000E+01
     -4.571  0.0000E+00  0.2000E+01
     -4.530  0.0000E+00  0.2000E+01
     -4.488  0.0000E+00  0.2000E+01
     -4.446  0.0000E+00  0.2000E+01
     -4.405  0.0000E+00  0.2000E+01
     -4.363  0.0000E+00  0.2000E+01
     -4.322  0.0000E+00  0.2000E+01
     -4.280  0.0000E+00  0.2000E+01
     -4.238  0.0000E+00  0.2000E+01
     -4.197  0.0000E+00  0.2000E+01
     -4.155  0.0000E+00  0.2000E+01
     -4.114  0.0000E+00  0.2000E+01
     -4.072  0.0000E+00  0.2000E+01
     -4.031  0.0000E+00  0.2000E+01
     -3.989  0.0000E+00  0.2000E+01
     -3.947  0.0000E+00  0.2000E+01
     -3.906  0.0000E+00  0.2000E+01
     -3.864  0.1602E-13  0.2000E+01
     -3.823  0.1170E-09  0.2000E+01
     -3.781  0.2827E-06  0.2000E+01
     -3.739  0.1772E-03  0.2000E+01
     -3.698  0.2920E-01  0.2001E+01
     -3.656  0.1292E+01  0.2055E+01
     -3.615  0.1576E+02  0.2710E+01
     -3.573  0.5466E+02  0.4983E+01
     -3.532  0.5507E+02  0.7273E+01
     -3.490  0.1612E+02  0.7943E+01
     -3.448  0.1342E+01  0.7999E+01
     -3.407  0.3081E-01  0.8000E+01
     -3.365  0.1899E-03  0.8000E+01
     -3.324  0.3080E-06  0.8000E+01
     -3.282  0.1296E-09  0.8000E+01
     -3.241  0.1602E-13  0.8000E+01
     -3.199  0.0000E+00  0.8000E+01
     -3.157  0.0000E+00  0.8000E+01
     -3.116  0.0000E+00  0.8000E+01
     -3.074  0.0000E+00  0.8000E+01
     -3.033  0.0000E+00  0.8000E+01
     -2.991  0.0000E+00  0.8000E+01
     -2.949  0.0000E+00  0.8000E+01
     -2.908  0.0000E+00  0.8000E+01
     -2.866  0.0000E+00  0.8000E+01
     -2.825  0.0000E+00  0.8000E+01
     -2.783  0.0000E+00  0.8000E+01
     -2.742  0.0000E+00  0.8000E+01
     -2.700  0.0000E+00  0.8000E+01
     -2.658  0.0000E+00  0.8000E+01
     -2.617  0.0000E+00  0.8000E+01
     -2.575  0.0000E+00  0.8000E+01
     -2.534  0.0000E+00  0.8000E+01
     -2.492  0.0000E+00  0.8000E+01
     -2.450  0.0000E+00  0.8000E+01
     -2.409  0.0000E+00  0.8000E+01
     -2.367  0.0000E+00  0.8000E+01
     -2.326  0.0000E+00  0.8000E+01
     -2.284  0.0000E+00  0.8000E+01
     -2.243  0.0000E+00  0.8000E+01
     -2.201  0.0000E+00  0.8000E+01
     -2.159  0.0000E+00  0.8000E+01
     -2.118  0.0000E+00  0.8000E+01
     -2.076  0.0000E+00  0.8000E+01
     -2.035  0.0000E+00  0.8000E+01
     -1.993  0.0000E+00  0.8000E+01
     -1.952  0.0000E+00  0.8000E+01
     -1.910  0.0000E+00  0.8000E+01
     -1.868  0.0000E+00  0.8000E+01
     -1.827  0.0000E+00  0.8000E+01
     -1.785  0.0000E+00  0.8000E+01
     -1.744  0.0000E+00  0.8000E+01
     -1.702  0.0000E+00  0.8000E+01
     -1.660  0.0000E+00  0.8000E+01
     -1.619  0.0000E+00  0.8000E+01
     -1.577  0.0000E+00  0.8000E+01
     -1.536  0.0000E+00  0.8000E+01
     -1.494  0.0000E+00  0.8000E+01
     -1.453  0.0000E+00  0.8000E+01
     -1.411  0.0000E+00  0.8000E+01
     -1.369  0.0000E+00  0.8000E+01
     -1.328  0.0000E+00  0.8000E+01
     -1.286  0.0000E+00  0.8000E+01
     -1.245  0.0000E+00  0.8000E+01
     -1.203  0.0000E+00  0.8000E+01
     -1.161  0.0000E+00  0.8000E+01
     -1.120  0.0000E+00  0.8000E+01
     -1.078  0.0000E+00  0.8000E+01
     -1.037  0.0000E+00  0.8000E+01
     -0.995  0.0000E+00  0.8000E+01
     -0.954  0.0000E+00  0.8000E+01
     -0.912  0.0000E+00  0.8000E+01
     -0.870  0.0000E+00  0.8000E+01
     -0.829  0.0000E+00  0.8000E+01
     -0.787  0.0000E+00  0.8000E+01
     -0.746  0.0000E+00  0.8000E+01
     -0.704  0.0000E+00  0.8000E+01
     -0.663  0.0000E+00  0.8000E+01
     -0.621  0.0000E+00  0.8000E+01
     -0.579  0.0000E+00  0.8000E+01
     -0.538  0.1390E-14  0.8000E+01
     -0.496  0.9167E-11  0.8000E+01
     -0.455  0.1611E-07  0.8000E+01
     -0.413  0.7811E-05  0.8000E+01
     -0.371  0.1086E-02  0.8000E+01
     -0.330  0.4594E-01  0.8002E+01
     -0.288  0.6443E+00  0.8029E+01
     -0.247  0.3403E+01  0.8170E+01
     -0.205  0.8094E+01  0.8507E+01
     -0.164  0.1080E+02  0.8956E+01
     -0.122  0.1029E+02  0.9383E+01
     -0.080  0.8259E+01  0.9727E+01
     -0.039  0.4812E+01  0.9927E+01
      0.003  0.1571E+01  0.9992E+01
      0.044  0.6449E+00  0.1002E+02
      0.086  0.2221E+01  0.1011E+02
      0.128  0.6012E+01  0.1036E+02
      0.169  0.1067E+02  0.1081E+02
      0.211  0.1420E+02  0.1140E+02
      0.252  0.1570E+02  0.1205E+02
      0.294  0.1581E+02  0.1271E+02
      0.335  0.1594E+02  0.1337E+02
      0.377  0.1619E+02  0.1404E+02
      0.419  0.1650E+02  0.1473E+02
      0.460  0.1763E+02  0.1546E+02
      0.502  0.1847E+02  0.1623E+02
      0.543  0.1844E+02  0.1700E+02
      0.585  0.1904E+02  0.1779E+02
      0.627  0.1994E+02  0.1862E+02
      0.668  0.2037E+02  0.1946E+02
      0.710  0.2110E+02  0.2034E+02
      0.751  0.2250E+02  0.2128E+02
      0.793  0.2232E+02  0.2220E+02
      0.834  0.2189E+02  0.2311E+02
      0.876  0.2351E+02  0.2409E+02
      0.918  0.2455E+02  0.2511E+02
      0.959  0.2418E+02  0.2612E+02
      1.001  0.2497E+02  0.2716E+02
      1.042  0.2596E+02  0.2824E+02
      1.084  0.2597E+02  0.2932E+02
      1.125  0.2606E+02  0.3040E+02
      1.167  0.2689E+02  0.3152E+02
      1.209  0.2771E+02  0.3267E+02
      1.250  0.2725E+02  0.3380E+02
      1.292  0.2758E+02  0.3495E+02
      1.333  0.2863E+02  0.3614E+02
      1.375  0.2856E+02  0.3733E+02
      1.417  0.2835E+02  0.3851E+02
      1.458  0.2951E+02  0.3973E+02
      1.500  0.3092E+02  0.4102E+02
      1.541  0.2990E+02  0.4226E+02
      1.583  0.2963E+02  0.4349E+02
      1.624  0.3012E+02  0.4475E+02
      1.666  0.2737E+02  0.4589E+02
      1.708  0.2071E+02  0.4675E+02
      1.749  0.1363E+02  0.4731E+02
      1.791  0.8040E+01  0.4765E+02
      1.832  0.4616E+01  0.4784E+02
      1.874  0.2437E+01  0.4794E+02
      1.916  0.1019E+01  0.4798E+02
      1.957  0.3222E+00  0.4800E+02
      1.999  0.6739E-01  0.4800E+02
      2.040  0.6407E-02  0.4800E+02
      2.082  0.2015E-03  0.4800E+02
      2.123  0.1822E-05  0.4800E+02
      2.165  0.4482E-08  0.4800E+02
      2.207  0.2921E-11  0.4800E+02
      2.248  0.4916E-15  0.4800E+02
      2.290  0.0000E+00  0.4800E+02
      2.331  0.0000E+00  0.4800E+02
      2.373  0.0000E+00  0.4800E+02
      2.414  0.0000E+00  0.4800E+02
      2.456  0.0000E+00  0.4800E+02
      2.498  0.0000E+00  0.4800E+02
