       N       E                     dE             d eps       ncg     rms          rms(c)
DAV:   1     0.856730245255E+01    0.85673E+01   -0.38178E+02  8400   0.499E+01
