  14  14   0   0
  0.1021960E+02  0.5697000E-09  0.4047900E-09  0.6204200E-09  0.5000000E-15
  1.000000000000000E-004
  CAR 
 Kpoints                                 
     17.96199406    -14.19143439  301      1.84062982      1.00000000
    -14.191  0.0000E+00  0.0000E+00
    -14.084  0.0000E+00  0.0000E+00
    -13.977  0.0000E+00  0.0000E+00
    -13.870  0.0000E+00  0.0000E+00
    -13.763  0.0000E+00  0.0000E+00
    -13.656  0.0000E+00  0.0000E+00
    -13.548  0.0000E+00  0.0000E+00
    -13.441  0.0000E+00  0.0000E+00
    -13.334  0.0000E+00  0.0000E+00
    -13.227  0.0000E+00  0.0000E+00
    -13.120  0.0000E+00  0.0000E+00
    -13.012  0.2656E-16  0.2847E-17
    -12.905  0.1808E-07  0.1938E-08
    -12.798  0.2609E-02  0.2796E-03
    -12.691  0.4477E+00  0.4826E-01
    -12.584  0.2313E+01  0.2961E+00
    -12.477  0.3493E+01  0.6706E+00
    -12.369  0.4357E+01  0.1137E+01
    -12.262  0.3633E+01  0.1527E+01
    -12.155  0.2696E+01  0.1816E+01
    -12.048  0.2909E+01  0.2128E+01
    -11.941  0.2311E+01  0.2375E+01
    -11.834  0.2971E+01  0.2694E+01
    -11.726  0.3255E+01  0.3043E+01
    -11.619  0.3607E+01  0.3429E+01
    -11.512  0.3160E+01  0.3768E+01
    -11.405  0.1691E+01  0.3949E+01
    -11.298  0.4636E+00  0.3999E+01
    -11.190  0.9345E-02  0.4000E+01
    -11.083  0.4702E-06  0.4000E+01
    -10.976  0.4772E-14  0.4000E+01
    -10.869  0.0000E+00  0.4000E+01
    -10.762  0.0000E+00  0.4000E+01
    -10.655  0.0000E+00  0.4000E+01
    -10.547  0.0000E+00  0.4000E+01
    -10.440  0.0000E+00  0.4000E+01
    -10.333  0.0000E+00  0.4000E+01
    -10.226  0.0000E+00  0.4000E+01
    -10.119  0.0000E+00  0.4000E+01
    -10.011  0.0000E+00  0.4000E+01
     -9.904  0.0000E+00  0.4000E+01
     -9.797  0.0000E+00  0.4000E+01
     -9.690  0.0000E+00  0.4000E+01
     -9.583  0.0000E+00  0.4000E+01
     -9.476  0.0000E+00  0.4000E+01
     -9.368  0.0000E+00  0.4000E+01
     -9.261  0.0000E+00  0.4000E+01
     -9.154  0.0000E+00  0.4000E+01
     -9.047  0.9606E-10  0.4000E+01
     -8.940  0.1929E-03  0.4000E+01
     -8.833  0.1703E+00  0.4018E+01
     -8.725  0.1811E+01  0.4212E+01
     -8.618  0.4862E+01  0.4733E+01
     -8.511  0.6943E+01  0.5478E+01
     -8.404  0.6574E+01  0.6182E+01
     -8.297  0.5297E+01  0.6750E+01
     -8.189  0.5021E+01  0.7288E+01
     -8.082  0.4012E+01  0.7718E+01
     -7.975  0.1875E+01  0.7919E+01
     -7.868  0.6804E+00  0.7992E+01
     -7.761  0.7425E-01  0.8000E+01
     -7.654  0.1065E-03  0.8000E+01
     -7.546  0.5625E-10  0.8000E+01
     -7.439  0.0000E+00  0.8000E+01
     -7.332  0.0000E+00  0.8000E+01
     -7.225  0.2213E-17  0.8000E+01
     -7.118  0.2862E-08  0.8000E+01
     -7.011  0.7455E-03  0.8000E+01
     -6.903  0.9254E-01  0.8010E+01
     -6.796  0.1764E+00  0.8029E+01
     -6.689  0.5007E+00  0.8083E+01
     -6.582  0.7379E+00  0.8162E+01
     -6.475  0.7676E+00  0.8244E+01
     -6.367  0.1229E+01  0.8376E+01
     -6.260  0.2424E+01  0.8635E+01
     -6.153  0.2706E+01  0.8925E+01
     -6.046  0.3790E+01  0.9332E+01
     -5.939  0.4195E+01  0.9781E+01
     -5.832  0.3573E+01  0.1016E+02
     -5.724  0.4465E+01  0.1064E+02
     -5.617  0.4348E+01  0.1111E+02
     -5.510  0.3721E+01  0.1151E+02
     -5.403  0.4320E+01  0.1197E+02
     -5.296  0.4984E+01  0.1250E+02
     -5.188  0.4497E+01  0.1299E+02
     -5.081  0.3864E+01  0.1340E+02
     -4.974  0.3384E+01  0.1376E+02
     -4.867  0.2550E+01  0.1404E+02
     -4.760  0.2228E+01  0.1428E+02
     -4.653  0.3124E+01  0.1461E+02
     -4.545  0.3548E+01  0.1499E+02
     -4.438  0.3492E+01  0.1537E+02
     -4.331  0.3104E+01  0.1570E+02
     -4.224  0.2572E+01  0.1597E+02
     -4.117  0.2923E+01  0.1629E+02
     -4.010  0.3169E+01  0.1663E+02
     -3.902  0.3376E+01  0.1699E+02
     -3.795  0.3072E+01  0.1732E+02
     -3.688  0.3009E+01  0.1764E+02
     -3.581  0.2156E+01  0.1787E+02
     -3.474  0.2217E+01  0.1811E+02
     -3.366  0.2940E+01  0.1842E+02
     -3.259  0.3609E+01  0.1881E+02
     -3.152  0.3091E+01  0.1914E+02
     -3.045  0.2684E+01  0.1943E+02
     -2.938  0.2376E+01  0.1968E+02
     -2.831  0.2544E+01  0.1996E+02
     -2.723  0.2724E+01  0.2025E+02
     -2.616  0.2657E+01  0.2053E+02
     -2.509  0.3171E+01  0.2087E+02
     -2.402  0.3502E+01  0.2125E+02
     -2.295  0.3902E+01  0.2167E+02
     -2.187  0.2976E+01  0.2199E+02
     -2.080  0.2945E+01  0.2230E+02
     -1.973  0.4147E+01  0.2275E+02
     -1.866  0.4435E+01  0.2322E+02
     -1.759  0.5904E+01  0.2385E+02
     -1.652  0.6630E+01  0.2456E+02
     -1.544  0.5424E+01  0.2515E+02
     -1.437  0.5228E+01  0.2571E+02
     -1.330  0.5979E+01  0.2635E+02
     -1.223  0.6012E+01  0.2699E+02
     -1.116  0.4894E+01  0.2752E+02
     -1.009  0.4088E+01  0.2795E+02
     -0.901  0.3007E+01  0.2828E+02
     -0.794  0.3363E+01  0.2864E+02
     -0.687  0.2689E+01  0.2893E+02
     -0.580  0.3534E+01  0.2930E+02
     -0.473  0.5601E+01  0.2990E+02
     -0.365  0.6821E+01  0.3064E+02
     -0.258  0.7167E+01  0.3140E+02
     -0.151  0.6607E+01  0.3211E+02
     -0.044  0.6201E+01  0.3278E+02
      0.063  0.6555E+01  0.3348E+02
      0.170  0.7232E+01  0.3425E+02
      0.278  0.7259E+01  0.3503E+02
      0.385  0.8420E+01  0.3593E+02
      0.492  0.9052E+01  0.3690E+02
      0.599  0.5339E+01  0.3748E+02
      0.706  0.3620E+01  0.3786E+02
      0.813  0.2991E+01  0.3819E+02
      0.921  0.3300E+01  0.3854E+02
      1.028  0.3304E+01  0.3889E+02
      1.135  0.3460E+01  0.3926E+02
      1.242  0.4641E+01  0.3976E+02
      1.349  0.3719E+01  0.4016E+02
      1.457  0.3076E+01  0.4049E+02
      1.564  0.2983E+01  0.4081E+02
      1.671  0.4271E+01  0.4127E+02
      1.778  0.4792E+01  0.4178E+02
      1.885  0.3283E+01  0.4213E+02
      1.992  0.2089E+01  0.4236E+02
      2.100  0.2004E+01  0.4257E+02
      2.207  0.1990E+01  0.4278E+02
      2.314  0.1899E+01  0.4299E+02
      2.421  0.1770E+01  0.4318E+02
      2.528  0.1679E+01  0.4336E+02
      2.636  0.1037E+01  0.4347E+02
      2.743  0.4273E+00  0.4351E+02
      2.850  0.4274E+00  0.4356E+02
      2.957  0.5751E+00  0.4362E+02
      3.064  0.2446E+00  0.4365E+02
      3.171  0.3225E+00  0.4368E+02
      3.279  0.4549E+00  0.4373E+02
      3.386  0.6424E+00  0.4380E+02
      3.493  0.4988E+00  0.4385E+02
      3.600  0.5633E+00  0.4391E+02
      3.707  0.2609E+00  0.4394E+02
      3.814  0.2191E-01  0.4394E+02
      3.922  0.1394E+00  0.4396E+02
      4.029  0.3222E+00  0.4399E+02
      4.136  0.5562E-01  0.4400E+02
      4.243  0.1736E-01  0.4400E+02
      4.350  0.1876E+00  0.4402E+02
      4.458  0.3267E+00  0.4406E+02
      4.565  0.4202E+00  0.4410E+02
      4.672  0.6537E+00  0.4417E+02
      4.779  0.9483E+00  0.4427E+02
      4.886  0.8011E+00  0.4436E+02
      4.993  0.8783E+00  0.4445E+02
      5.101  0.1094E+01  0.4457E+02
      5.208  0.1311E+01  0.4471E+02
      5.315  0.1453E+01  0.4487E+02
      5.422  0.2205E+01  0.4510E+02
      5.529  0.2487E+01  0.4537E+02
      5.637  0.2691E+01  0.4566E+02
      5.744  0.3181E+01  0.4600E+02
      5.851  0.3095E+01  0.4633E+02
      5.958  0.4615E+01  0.4683E+02
      6.065  0.4634E+01  0.4732E+02
      6.172  0.4090E+01  0.4776E+02
      6.280  0.4387E+01  0.4823E+02
      6.387  0.4191E+01  0.4868E+02
      6.494  0.3894E+01  0.4910E+02
      6.601  0.4767E+01  0.4961E+02
      6.708  0.3630E+01  0.5000E+02
      6.815  0.3627E+01  0.5039E+02
      6.923  0.4720E+01  0.5089E+02
      7.030  0.3868E+01  0.5131E+02
      7.137  0.5422E+01  0.5189E+02
      7.244  0.5233E+01  0.5245E+02
      7.351  0.4232E+01  0.5290E+02
      7.459  0.5210E+01  0.5346E+02
      7.566  0.3804E+01  0.5387E+02
      7.673  0.3809E+01  0.5428E+02
      7.780  0.3248E+01  0.5462E+02
      7.887  0.3342E+01  0.5498E+02
      7.994  0.3242E+01  0.5533E+02
      8.102  0.2947E+01  0.5565E+02
      8.209  0.3980E+01  0.5607E+02
      8.316  0.4107E+01  0.5651E+02
      8.423  0.4048E+01  0.5695E+02
      8.530  0.4142E+01  0.5739E+02
      8.637  0.4337E+01  0.5786E+02
      8.745  0.4782E+01  0.5837E+02
      8.852  0.4348E+01  0.5883E+02
      8.959  0.5172E+01  0.5939E+02
      9.066  0.5659E+01  0.5999E+02
      9.173  0.4878E+01  0.6052E+02
      9.281  0.4721E+01  0.6102E+02
      9.388  0.4799E+01  0.6154E+02
      9.495  0.5145E+01  0.6209E+02
      9.602  0.4704E+01  0.6259E+02
      9.709  0.4801E+01  0.6311E+02
      9.816  0.5216E+01  0.6367E+02
      9.924  0.4777E+01  0.6418E+02
     10.031  0.4498E+01  0.6466E+02
     10.138  0.4365E+01  0.6513E+02
     10.245  0.3458E+01  0.6550E+02
     10.352  0.5263E+01  0.6606E+02
     10.460  0.5592E+01  0.6666E+02
     10.567  0.5174E+01  0.6722E+02
     10.674  0.4405E+01  0.6769E+02
     10.781  0.4040E+01  0.6812E+02
     10.888  0.3137E+01  0.6846E+02
     10.995  0.4836E+01  0.6898E+02
     11.103  0.5246E+01  0.6954E+02
     11.210  0.6628E+01  0.7025E+02
     11.317  0.5578E+01  0.7085E+02
     11.424  0.5202E+01  0.7141E+02
     11.531  0.4138E+01  0.7185E+02
     11.638  0.4769E+01  0.7236E+02
     11.746  0.4876E+01  0.7288E+02
     11.853  0.4755E+01  0.7339E+02
     11.960  0.6403E+01  0.7408E+02
     12.067  0.6171E+01  0.7474E+02
     12.174  0.5840E+01  0.7537E+02
     12.282  0.4622E+01  0.7586E+02
     12.389  0.5983E+01  0.7650E+02
     12.496  0.5245E+01  0.7706E+02
     12.603  0.6271E+01  0.7774E+02
     12.710  0.5592E+01  0.7834E+02
     12.817  0.6399E+01  0.7902E+02
     12.925  0.5638E+01  0.7963E+02
     13.032  0.5907E+01  0.8026E+02
     13.139  0.5732E+01  0.8087E+02
     13.246  0.6421E+01  0.8156E+02
     13.353  0.6210E+01  0.8223E+02
     13.461  0.4896E+01  0.8275E+02
     13.568  0.5654E+01  0.8336E+02
     13.675  0.5077E+01  0.8390E+02
     13.782  0.6441E+01  0.8459E+02
     13.889  0.5043E+01  0.8513E+02
     13.996  0.5483E+01  0.8572E+02
     14.104  0.5524E+01  0.8631E+02
     14.211  0.4552E+01  0.8680E+02
     14.318  0.5457E+01  0.8739E+02
     14.425  0.4603E+01  0.8788E+02
     14.532  0.4882E+01  0.8840E+02
     14.639  0.5217E+01  0.8896E+02
     14.747  0.5294E+01  0.8953E+02
     14.854  0.4267E+01  0.8999E+02
     14.961  0.4422E+01  0.9046E+02
     15.068  0.6863E+01  0.9120E+02
     15.175  0.5968E+01  0.9184E+02
     15.283  0.4973E+01  0.9237E+02
     15.390  0.5789E+01  0.9299E+02
     15.497  0.6154E+01  0.9365E+02
     15.604  0.6014E+01  0.9429E+02
     15.711  0.4730E+01  0.9480E+02
     15.818  0.2778E+01  0.9510E+02
     15.926  0.1927E+01  0.9530E+02
     16.033  0.2026E+01  0.9552E+02
     16.140  0.1672E+01  0.9570E+02
     16.247  0.9102E+00  0.9580E+02
     16.354  0.1163E+01  0.9592E+02
     16.462  0.4824E+00  0.9597E+02
     16.569  0.2354E+00  0.9600E+02
     16.676  0.5315E-02  0.9600E+02
     16.783  0.6144E-07  0.9600E+02
     16.890  0.1062E-15  0.9600E+02
     16.997  0.0000E+00  0.9600E+02
     17.105  0.0000E+00  0.9600E+02
     17.212  0.0000E+00  0.9600E+02
     17.319  0.0000E+00  0.9600E+02
     17.426  0.0000E+00  0.9600E+02
     17.533  0.0000E+00  0.9600E+02
     17.640  0.0000E+00  0.9600E+02
     17.748  0.0000E+00  0.9600E+02
     17.855  0.0000E+00  0.9600E+02
     17.962  0.0000E+00  0.9600E+02
