       N       E                     dE             d eps       ncg     rms          rms(c)
DAV:   1     0.473829287036E+02    0.47383E+02   -0.16999E+04 13440   0.687E+02
DAV:   2    -0.931862606434E+02   -0.14057E+03   -0.13245E+03 18552   0.145E+02
DAV:   3    -0.975899514668E+02   -0.44037E+01   -0.43815E+01 19608   0.231E+01
DAV:   4    -0.976153846943E+02   -0.25433E-01   -0.25432E-01 16512   0.200E+00
DAV:   5    -0.976156753967E+02   -0.29070E-03   -0.29070E-03 19416   0.207E-01    0.123E+01
DAV:   6    -0.922055287380E+02    0.54101E+01   -0.39071E+00 19440   0.655E+00    0.679E+00
DAV:   7    -0.905460147109E+02    0.16595E+01   -0.32711E+00 20040   0.590E+00    0.167E+00
DAV:   8    -0.905603688959E+02   -0.14354E-01   -0.24402E-01 14880   0.170E+00    0.648E-01
DAV:   9    -0.905733920217E+02   -0.13023E-01   -0.16585E-02 18984   0.423E-01    0.203E-01
DAV:  10    -0.905773458525E+02   -0.39538E-02   -0.18356E-03 15360   0.147E-01    0.626E-02
DAV:  11    -0.905783856826E+02   -0.10398E-02   -0.59121E-04 18024   0.823E-02    0.320E-02
DAV:  12    -0.905785576139E+02   -0.17193E-03   -0.13421E-04 15984   0.423E-02    0.565E-03
DAV:  13    -0.905785634924E+02   -0.58785E-05   -0.42947E-06 19272   0.855E-03    0.175E-03
DAV:  14    -0.905785642090E+02   -0.71657E-06   -0.36308E-07 16128   0.243E-03
   1 F= -.90578564E+02 E0= -.90576586E+02  d E =-.395706E-02
