  14  14   1   0
  0.1021318E+02  0.6201871E-09  0.5700971E-09  0.4044058E-09  0.5000000E-15
  1.000000000000000E-004
  CAR 
 BS                                      
     17.59718623    -15.80810027  301      2.38432544      1.00000000
    -15.808  0.0000E+00  0.0000E+00
    -15.697  0.0000E+00  0.0000E+00
    -15.585  0.0000E+00  0.0000E+00
    -15.474  0.0000E+00  0.0000E+00
    -15.363  0.0000E+00  0.0000E+00
    -15.251  0.0000E+00  0.0000E+00
    -15.140  0.0000E+00  0.0000E+00
    -15.029  0.0000E+00  0.0000E+00
    -14.917  0.0000E+00  0.0000E+00
    -14.806  0.7062E-13  0.7863E-14
    -14.695  0.3274E-08  0.3645E-09
    -14.583  0.1455E-04  0.1621E-05
    -14.472  0.6753E-02  0.7536E-03
    -14.361  0.3743E+00  0.4243E-01
    -14.249  0.2922E+01  0.3678E+00
    -14.138  0.3835E+01  0.7948E+00
    -14.026  0.1406E+01  0.9514E+00
    -13.915  0.7334E+00  0.1033E+01
    -13.804  0.6101E+00  0.1101E+01
    -13.692  0.5411E+00  0.1161E+01
    -13.581  0.4935E+00  0.1216E+01
    -13.470  0.4582E+00  0.1267E+01
    -13.358  0.4348E+00  0.1316E+01
    -13.247  0.7561E+00  0.1400E+01
    -13.136  0.4119E+01  0.1858E+01
    -13.024  0.5774E+01  0.2501E+01
    -12.913  0.1454E+01  0.2663E+01
    -12.802  0.3867E+00  0.2706E+01
    -12.690  0.3538E+00  0.2746E+01
    -12.579  0.3503E+00  0.2785E+01
    -12.468  0.3496E+00  0.2824E+01
    -12.356  0.3522E+00  0.2863E+01
    -12.245  0.3595E+00  0.2903E+01
    -12.134  0.3743E+00  0.2945E+01
    -12.022  0.4040E+00  0.2990E+01
    -11.911  0.5190E+00  0.3047E+01
    -11.799  0.1428E+01  0.3206E+01
    -11.688  0.2610E+01  0.3497E+01
    -11.577  0.1358E+01  0.3648E+01
    -11.465  0.7823E+00  0.3735E+01
    -11.354  0.9516E+00  0.3841E+01
    -11.243  0.1053E+01  0.3959E+01
    -11.131  0.3528E+00  0.3998E+01
    -11.020  0.1929E-01  0.4000E+01
    -10.909  0.1274E-03  0.4000E+01
    -10.797  0.1008E-06  0.4000E+01
    -10.686  0.2919E-04  0.4000E+01
    -10.575  0.5987E-02  0.4001E+01
    -10.463  0.1441E+00  0.4017E+01
    -10.352  0.5436E+00  0.4077E+01
    -10.241  0.6242E+00  0.4147E+01
    -10.129  0.1814E+01  0.4349E+01
    -10.018  0.4921E+01  0.4897E+01
     -9.906  0.4119E+01  0.5355E+01
     -9.795  0.5050E+01  0.5918E+01
     -9.684  0.3791E+01  0.6340E+01
     -9.572  0.5052E+01  0.6902E+01
     -9.461  0.3491E+01  0.7291E+01
     -9.350  0.6910E+00  0.7368E+01
     -9.238  0.3545E+00  0.7407E+01
     -9.127  0.3704E+00  0.7449E+01
     -9.016  0.4191E+00  0.7495E+01
     -8.904  0.6279E+00  0.7565E+01
     -8.793  0.1712E+01  0.7756E+01
     -8.682  0.1859E+01  0.7963E+01
     -8.570  0.3259E+00  0.7999E+01
     -8.459  0.7005E-02  0.8000E+01
     -8.348  0.1564E-04  0.8000E+01
     -8.236  0.3317E-08  0.8000E+01
     -8.125  0.4857E-12  0.8000E+01
     -8.014  0.1189E-07  0.8000E+01
     -7.902  0.3100E-04  0.8000E+01
     -7.791  0.8034E-02  0.8001E+01
     -7.679  0.2435E+00  0.8028E+01
     -7.568  0.1360E+01  0.8179E+01
     -7.457  0.3061E+01  0.8520E+01
     -7.345  0.3122E+01  0.8868E+01
     -7.234  0.2042E+01  0.9095E+01
     -7.123  0.1739E+01  0.9289E+01
     -7.011  0.1564E+01  0.9463E+01
     -6.900  0.3343E+01  0.9835E+01
     -6.789  0.4691E+01  0.1036E+02
     -6.677  0.2174E+01  0.1060E+02
     -6.566  0.1579E+01  0.1078E+02
     -6.455  0.1843E+01  0.1098E+02
     -6.343  0.1604E+01  0.1116E+02
     -6.232  0.1361E+01  0.1131E+02
     -6.121  0.1675E+01  0.1150E+02
     -6.009  0.3273E+01  0.1186E+02
     -5.898  0.4600E+01  0.1237E+02
     -5.787  0.4829E+01  0.1291E+02
     -5.675  0.4700E+01  0.1344E+02
     -5.564  0.5280E+01  0.1402E+02
     -5.452  0.4721E+01  0.1455E+02
     -5.341  0.3780E+01  0.1497E+02
     -5.230  0.3613E+01  0.1537E+02
     -5.118  0.1675E+01  0.1556E+02
     -5.007  0.1221E+01  0.1569E+02
     -4.896  0.2257E+01  0.1595E+02
     -4.784  0.5512E+01  0.1656E+02
     -4.673  0.5180E+01  0.1714E+02
     -4.562  0.1678E+01  0.1732E+02
     -4.450  0.1265E+01  0.1746E+02
     -4.339  0.1198E+01  0.1760E+02
     -4.228  0.1094E+01  0.1772E+02
     -4.116  0.1080E+01  0.1784E+02
     -4.005  0.7574E+00  0.1792E+02
     -3.894  0.3553E+00  0.1796E+02
     -3.782  0.2623E+00  0.1799E+02
     -3.671  0.2547E+00  0.1802E+02
     -3.559  0.2894E+00  0.1805E+02
     -3.448  0.7324E+00  0.1813E+02
     -3.337  0.1756E+01  0.1833E+02
     -3.225  0.1869E+01  0.1854E+02
     -3.114  0.1573E+01  0.1871E+02
     -3.003  0.3701E+01  0.1913E+02
     -2.891  0.4518E+01  0.1963E+02
     -2.780  0.2080E+01  0.1986E+02
     -2.669  0.3813E+01  0.2029E+02
     -2.557  0.5758E+01  0.2093E+02
     -2.446  0.5081E+01  0.2149E+02
     -2.335  0.4127E+01  0.2195E+02
     -2.223  0.3574E+01  0.2235E+02
     -2.112  0.3700E+01  0.2276E+02
     -2.001  0.4627E+01  0.2328E+02
     -1.889  0.5964E+01  0.2394E+02
     -1.778  0.4739E+01  0.2447E+02
     -1.667  0.3314E+01  0.2484E+02
     -1.555  0.3453E+01  0.2522E+02
     -1.444  0.3820E+01  0.2565E+02
     -1.332  0.6822E+01  0.2641E+02
     -1.221  0.7404E+01  0.2723E+02
     -1.110  0.6224E+01  0.2792E+02
     -0.998  0.6764E+01  0.2868E+02
     -0.887  0.5549E+01  0.2930E+02
     -0.776  0.3549E+01  0.2969E+02
     -0.664  0.2391E+01  0.2996E+02
     -0.553  0.2685E+01  0.3026E+02
     -0.442  0.2991E+01  0.3059E+02
     -0.330  0.3232E+01  0.3095E+02
     -0.219  0.3541E+01  0.3134E+02
     -0.108  0.2871E+01  0.3166E+02
      0.004  0.2038E+01  0.3189E+02
      0.115  0.1981E+01  0.3211E+02
      0.226  0.2609E+01  0.3240E+02
      0.338  0.2826E+01  0.3272E+02
      0.449  0.3866E+01  0.3315E+02
      0.560  0.3671E+01  0.3355E+02
      0.672  0.3159E+01  0.3391E+02
      0.783  0.3753E+01  0.3432E+02
      0.895  0.4881E+01  0.3487E+02
      1.006  0.3853E+01  0.3530E+02
      1.117  0.2666E+01  0.3559E+02
      1.229  0.2466E+01  0.3587E+02
      1.340  0.2206E+01  0.3611E+02
      1.451  0.2298E+01  0.3637E+02
      1.563  0.2913E+01  0.3669E+02
      1.674  0.3491E+01  0.3708E+02
      1.785  0.4383E+01  0.3757E+02
      1.897  0.5859E+01  0.3822E+02
      2.008  0.6777E+01  0.3898E+02
      2.119  0.7845E+01  0.3985E+02
      2.231  0.7357E+01  0.4067E+02
      2.342  0.8464E+01  0.4161E+02
      2.453  0.8415E+01  0.4255E+02
      2.565  0.4543E+01  0.4306E+02
      2.676  0.2083E+01  0.4329E+02
      2.788  0.1518E+01  0.4346E+02
      2.899  0.2127E+01  0.4369E+02
      3.010  0.2583E+01  0.4398E+02
      3.122  0.1777E+01  0.4418E+02
      3.233  0.1532E+01  0.4435E+02
      3.344  0.2028E+01  0.4458E+02
      3.456  0.2248E+01  0.4483E+02
      3.567  0.2763E+01  0.4513E+02
      3.678  0.3224E+01  0.4549E+02
      3.790  0.2445E+01  0.4577E+02
      3.901  0.2422E+01  0.4604E+02
      4.012  0.3103E+01  0.4638E+02
      4.124  0.5387E+01  0.4698E+02
      4.235  0.8297E+01  0.4790E+02
      4.346  0.5590E+01  0.4853E+02
      4.458  0.3466E+01  0.4891E+02
      4.569  0.3850E+01  0.4934E+02
      4.680  0.3924E+01  0.4978E+02
      4.792  0.4282E+01  0.5026E+02
      4.903  0.3175E+01  0.5061E+02
      5.015  0.2732E+01  0.5091E+02
      5.126  0.3741E+01  0.5133E+02
      5.237  0.4354E+01  0.5181E+02
      5.349  0.4898E+01  0.5236E+02
      5.460  0.5087E+01  0.5293E+02
      5.571  0.4869E+01  0.5347E+02
      5.683  0.5522E+01  0.5408E+02
      5.794  0.4660E+01  0.5460E+02
      5.905  0.3182E+01  0.5496E+02
      6.017  0.2486E+01  0.5523E+02
      6.128  0.2490E+01  0.5551E+02
      6.239  0.3059E+01  0.5585E+02
      6.351  0.3458E+01  0.5624E+02
      6.462  0.3147E+01  0.5659E+02
      6.573  0.3175E+01  0.5694E+02
      6.685  0.3471E+01  0.5733E+02
      6.796  0.3227E+01  0.5769E+02
      6.907  0.3226E+01  0.5805E+02
      7.019  0.4128E+01  0.5850E+02
      7.130  0.4354E+01  0.5899E+02
      7.242  0.4287E+01  0.5947E+02
      7.353  0.4996E+01  0.6002E+02
      7.464  0.5335E+01  0.6062E+02
      7.576  0.5527E+01  0.6123E+02
      7.687  0.6671E+01  0.6198E+02
      7.798  0.5584E+01  0.6260E+02
      7.910  0.3260E+01  0.6296E+02
      8.021  0.2524E+01  0.6324E+02
      8.132  0.1884E+01  0.6345E+02
      8.244  0.1548E+01  0.6362E+02
      8.355  0.1457E+01  0.6379E+02
      8.466  0.1917E+01  0.6400E+02
      8.578  0.2424E+01  0.6427E+02
      8.689  0.1994E+01  0.6449E+02
      8.800  0.2676E+01  0.6479E+02
      8.912  0.4059E+01  0.6524E+02
      9.023  0.3891E+01  0.6567E+02
      9.135  0.3557E+01  0.6607E+02
      9.246  0.2929E+01  0.6640E+02
      9.357  0.1764E+01  0.6659E+02
      9.469  0.1664E+01  0.6678E+02
      9.580  0.1476E+01  0.6694E+02
      9.691  0.1208E+01  0.6708E+02
      9.803  0.1772E+01  0.6727E+02
      9.914  0.1936E+01  0.6749E+02
     10.025  0.1914E+01  0.6770E+02
     10.137  0.2798E+01  0.6801E+02
     10.248  0.4373E+01  0.6850E+02
     10.359  0.5295E+01  0.6909E+02
     10.471  0.5426E+01  0.6970E+02
     10.582  0.5720E+01  0.7033E+02
     10.693  0.4583E+01  0.7084E+02
     10.805  0.5224E+01  0.7142E+02
     10.916  0.6768E+01  0.7218E+02
     11.027  0.6541E+01  0.7291E+02
     11.139  0.5366E+01  0.7350E+02
     11.250  0.4888E+01  0.7405E+02
     11.362  0.3792E+01  0.7447E+02
     11.473  0.2791E+01  0.7478E+02
     11.584  0.3047E+01  0.7512E+02
     11.696  0.3602E+01  0.7552E+02
     11.807  0.4565E+01  0.7603E+02
     11.918  0.4766E+01  0.7656E+02
     12.030  0.4126E+01  0.7702E+02
     12.141  0.4238E+01  0.7749E+02
     12.252  0.3993E+01  0.7794E+02
     12.364  0.4691E+01  0.7846E+02
     12.475  0.4978E+01  0.7901E+02
     12.586  0.6454E+01  0.7973E+02
     12.698  0.6666E+01  0.8047E+02
     12.809  0.5628E+01  0.8110E+02
     12.920  0.5076E+01  0.8167E+02
     13.032  0.3961E+01  0.8211E+02
     13.143  0.5116E+01  0.8268E+02
     13.254  0.7487E+01  0.8351E+02
     13.366  0.6403E+01  0.8422E+02
     13.477  0.4883E+01  0.8477E+02
     13.589  0.4626E+01  0.8528E+02
     13.700  0.4707E+01  0.8581E+02
     13.811  0.4440E+01  0.8630E+02
     13.923  0.3961E+01  0.8674E+02
     14.034  0.4408E+01  0.8723E+02
     14.145  0.5290E+01  0.8782E+02
     14.257  0.5191E+01  0.8840E+02
     14.368  0.4542E+01  0.8891E+02
     14.479  0.4986E+01  0.8946E+02
     14.591  0.5646E+01  0.9009E+02
     14.702  0.7072E+01  0.9088E+02
     14.813  0.8942E+01  0.9187E+02
     14.925  0.6295E+01  0.9257E+02
     15.036  0.5124E+01  0.9314E+02
     15.147  0.4965E+01  0.9370E+02
     15.259  0.4614E+01  0.9421E+02
     15.370  0.4928E+01  0.9476E+02
     15.482  0.3401E+01  0.9514E+02
     15.593  0.1926E+01  0.9535E+02
     15.704  0.1550E+01  0.9552E+02
     15.816  0.1847E+01  0.9573E+02
     15.927  0.1510E+01  0.9590E+02
     16.038  0.5754E+00  0.9596E+02
     16.150  0.2820E+00  0.9599E+02
     16.261  0.4970E-01  0.9600E+02
     16.372  0.1271E-02  0.9600E+02
     16.484  0.3597E-05  0.9600E+02
     16.595  0.9916E-09  0.9600E+02
     16.706  0.2504E-13  0.9600E+02
     16.818  0.0000E+00  0.9600E+02
     16.929  0.0000E+00  0.9600E+02
     17.040  0.0000E+00  0.9600E+02
     17.152  0.0000E+00  0.9600E+02
     17.263  0.0000E+00  0.9600E+02
     17.374  0.0000E+00  0.9600E+02
     17.486  0.0000E+00  0.9600E+02
     17.597  0.0000E+00  0.9600E+02
     17.59718623    -15.80810027  301      2.38432544      1.00000000
    -15.808  0.0000E+00  0.0000E+00  0.0000E+00  0.0000E+00  0.0000E+00  0.0000E+00  0.0000E+00  0.0000E+00  0.0000E+00
    -15.697  0.0000E+00  0.0000E+00  0.0000E+00  0.0000E+00  0.0000E+00  0.0000E+00  0.0000E+00  0.0000E+00  0.0000E+00
    -15.585  0.0000E+00  0.0000E+00  0.0000E+00  0.0000E+00  0.0000E+00  0.0000E+00  0.0000E+00  0.0000E+00  0.0000E+00
    -15.474  0.0000E+00  0.0000E+00  0.0000E+00  0.0000E+00  0.0000E+00  0.0000E+00  0.0000E+00  0.0000E+00  0.0000E+00
    -15.363  0.0000E+00  0.0000E+00  0.0000E+00  0.0000E+00  0.0000E+00  0.0000E+00  0.0000E+00  0.0000E+00  0.0000E+00
    -15.251  0.0000E+00  0.0000E+00  0.0000E+00  0.0000E+00  0.0000E+00  0.0000E+00  0.0000E+00  0.0000E+00  0.0000E+00
    -15.140  0.0000E+00  0.0000E+00  0.0000E+00  0.0000E+00  0.0000E+00  0.0000E+00  0.0000E+00  0.0000E+00  0.0000E+00
    -15.029  0.0000E+00  0.0000E+00  0.0000E+00  0.0000E+00  0.0000E+00  0.0000E+00  0.0000E+00  0.0000E+00  0.0000E+00
    -14.917  0.0000E+00  0.0000E+00  0.0000E+00  0.0000E+00  0.0000E+00  0.0000E+00  0.0000E+00  0.0000E+00  0.0000E+00
    -14.806  0.7910E-14  0.1226E-22  0.1917E-15  0.1208E-14  0.0000E+00  0.0000E+00  0.0000E+00  0.0000E+00  0.0000E+00
    -14.695  0.3669E-09  0.1736E-17  0.8905E-11  0.5617E-10  0.0000E+00  0.0000E+00  0.0000E+00  0.0000E+00  0.0000E+00
    -14.583  0.1633E-05  0.2138E-13  0.3969E-07  0.2512E-06  0.0000E+00  0.0000E+00  0.0000E+00  0.0000E+00  0.0000E+00
    -14.472  0.7594E-03  0.2404E-10  0.1849E-04  0.1178E-03  0.0000E+00  0.0000E+00  0.0000E+00  0.0000E+00  0.0000E+00
    -14.361  0.4220E-01  0.2623E-08  0.1031E-02  0.6634E-02  0.0000E+00  0.0000E+00  0.0000E+00  0.0000E+00  0.0000E+00
    -14.249  0.3303E+00  0.3115E-07  0.8171E-02  0.5265E-01  0.0000E+00  0.0000E+00  0.0000E+00  0.0000E+00  0.0000E+00
    -14.138  0.4337E+00  0.4666E-07  0.1135E-01  0.6989E-01  0.0000E+00  0.0000E+00  0.0000E+00  0.0000E+00  0.0000E+00
    -14.026  0.1574E+00  0.9144E-08  0.5475E-02  0.2568E-01  0.0000E+00  0.0000E+00  0.0000E+00  0.0000E+00  0.0000E+00
    -13.915  0.8059E-01  0.2073E-09  0.4149E-02  0.1351E-01  0.0000E+00  0.0000E+00  0.0000E+00  0.0000E+00  0.0000E+00
    -13.804  0.6629E-01  0.4763E-12  0.4206E-02  0.1142E-01  0.0000E+00  0.0000E+00  0.0000E+00  0.0000E+00  0.0000E+00
    -13.692  0.5816E-01  0.2106E-14  0.4357E-02  0.1028E-01  0.0000E+00  0.0000E+00  0.0000E+00  0.0000E+00  0.0000E+00
    -13.581  0.5246E-01  0.9548E-15  0.4530E-02  0.9506E-02  0.0000E+00  0.0000E+00  0.0000E+00  0.0000E+00  0.0000E+00
    -13.470  0.4816E-01  0.8883E-13  0.4713E-02  0.8943E-02  0.0000E+00  0.0000E+00  0.0000E+00  0.0000E+00  0.0000E+00
    -13.358  0.4516E-01  0.7897E-10  0.4953E-02  0.8591E-02  0.0000E+00  0.0000E+00  0.0000E+00  0.0000E+00  0.0000E+00
    -13.247  0.7688E-01  0.7287E-08  0.9982E-02  0.1519E-01  0.0000E+00  0.0000E+00  0.0000E+00  0.0000E+00  0.0000E+00
    -13.136  0.4147E+00  0.7825E-07  0.5793E-01  0.8372E-01  0.0000E+00  0.0000E+00  0.0000E+00  0.0000E+00  0.0000E+00
    -13.024  0.5810E+00  0.1129E-06  0.8173E-01  0.1181E+00  0.0000E+00  0.0000E+00  0.0000E+00  0.0000E+00  0.0000E+00
    -12.913  0.1457E+00  0.2259E-07  0.2103E-01  0.2986E-01  0.0000E+00  0.0000E+00  0.0000E+00  0.0000E+00  0.0000E+00
    -12.802  0.3768E-01  0.5583E-09  0.6268E-02  0.7921E-02  0.0000E+00  0.0000E+00  0.0000E+00  0.0000E+00  0.0000E+00
    -12.690  0.3384E-01  0.1481E-11  0.6109E-02  0.7239E-02  0.0000E+00  0.0000E+00  0.0000E+00  0.0000E+00  0.0000E+00
    -12.579  0.3292E-01  0.1012E-14  0.6349E-02  0.7134E-02  0.0000E+00  0.0000E+00  0.0000E+00  0.0000E+00  0.0000E+00
    -12.468  0.3221E-01  0.1068E-14  0.6616E-02  0.7050E-02  0.0000E+00  0.0000E+00  0.0000E+00  0.0000E+00  0.0000E+00
    -12.356  0.3173E-01  0.1586E-14  0.6926E-02  0.6983E-02  0.0000E+00  0.0000E+00  0.0000E+00  0.0000E+00  0.0000E+00
    -12.245  0.3154E-01  0.1390E-14  0.7302E-02  0.6936E-02  0.0000E+00  0.0000E+00  0.0000E+00  0.0000E+00  0.0000E+00
    -12.134  0.3176E-01  0.6287E-14  0.7792E-02  0.6915E-02  0.0000E+00  0.0000E+00  0.0000E+00  0.0000E+00  0.0000E+00
    -12.022  0.3276E-01  0.9599E-11  0.8517E-02  0.6952E-02  0.0000E+00  0.0000E+00  0.0000E+00  0.0000E+00  0.0000E+00
    -11.911  0.3801E-01  0.1713E-08  0.1051E-01  0.7406E-02  0.0000E+00  0.0000E+00  0.0000E+00  0.0000E+00  0.0000E+00
    -11.799  0.8264E-01  0.3254E-07  0.2403E-01  0.1213E-01  0.0000E+00  0.0000E+00  0.0000E+00  0.0000E+00  0.0000E+00
    -11.688  0.1402E+00  0.7624E-07  0.4128E-01  0.1811E-01  0.0000E+00  0.0000E+00  0.0000E+00  0.0000E+00  0.0000E+00
    -11.577  0.7656E-01  0.2372E-07  0.2321E-01  0.1061E-01  0.0000E+00  0.0000E+00  0.0000E+00  0.0000E+00  0.0000E+00
    -11.465  0.4821E-01  0.8899E-09  0.1574E-01  0.7051E-02  0.0000E+00  0.0000E+00  0.0000E+00  0.0000E+00  0.0000E+00
    -11.354  0.5881E-01  0.3487E-11  0.2050E-01  0.7347E-02  0.0000E+00  0.0000E+00  0.0000E+00  0.0000E+00  0.0000E+00
    -11.243  0.6434E-01  0.2593E-14  0.2331E-01  0.6738E-02  0.0000E+00  0.0000E+00  0.0000E+00  0.0000E+00  0.0000E+00
    -11.131  0.2146E-01  0.4429E-15  0.7877E-02  0.2075E-02  0.0000E+00  0.0000E+00  0.0000E+00  0.0000E+00  0.0000E+00
    -11.020  0.1171E-02  0.2602E-16  0.4319E-03  0.1096E-03  0.0000E+00  0.0000E+00  0.0000E+00  0.0000E+00  0.0000E+00
    -10.909  0.7727E-05  0.1851E-18  0.2856E-05  0.7122E-06  0.0000E+00  0.0000E+00  0.0000E+00  0.0000E+00  0.0000E+00
    -10.797  0.6178E-08  0.1421E-21  0.2024E-08  0.1132E-08  0.0000E+00  0.0000E+00  0.0000E+00  0.0000E+00  0.0000E+00
    -10.686  0.1906E-05  0.1980E-19  0.1707E-06  0.1330E-05  0.0000E+00  0.0000E+00  0.0000E+00  0.0000E+00  0.0000E+00
    -10.575  0.3912E-03  0.5377E-17  0.3523E-04  0.2732E-03  0.0000E+00  0.0000E+00  0.0000E+00  0.0000E+00  0.0000E+00
    -10.463  0.9432E-02  0.2068E-15  0.8583E-03  0.6600E-02  0.0000E+00  0.0000E+00  0.0000E+00  0.0000E+00  0.0000E+00
    -10.352  0.3581E-01  0.1020E-12  0.3332E-02  0.2518E-01  0.0000E+00  0.0000E+00  0.0000E+00  0.0000E+00  0.0000E+00
    -10.241  0.4371E-01  0.2712E-10  0.3930E-02  0.3116E-01  0.0000E+00  0.0000E+00  0.0000E+00  0.0000E+00  0.0000E+00
    -10.129  0.1655E+00  0.7873E-09  0.8389E-02  0.1185E+00  0.0000E+00  0.0000E+00  0.0000E+00  0.0000E+00  0.0000E+00
    -10.018  0.4612E+00  0.9470E-08  0.2172E-01  0.3308E+00  0.0000E+00  0.0000E+00  0.0000E+00  0.0000E+00  0.0000E+00
     -9.906  0.2683E+00  0.1328E-06  0.3205E-01  0.2175E+00  0.0000E+00  0.0000E+00  0.0000E+00  0.0000E+00  0.0000E+00
     -9.795  0.1494E+00  0.3061E-06  0.5311E-01  0.1986E+00  0.0000E+00  0.0000E+00  0.0000E+00  0.0000E+00  0.0000E+00
     -9.684  0.8281E-01  0.1721E-06  0.3690E-01  0.1635E+00  0.0000E+00  0.0000E+00  0.0000E+00  0.0000E+00  0.0000E+00
     -9.572  0.1189E+00  0.4421E-06  0.5959E-01  0.2332E+00  0.0000E+00  0.0000E+00  0.0000E+00  0.0000E+00  0.0000E+00
     -9.461  0.8208E-01  0.3185E-06  0.4343E-01  0.1616E+00  0.0000E+00  0.0000E+00  0.0000E+00  0.0000E+00  0.0000E+00
     -9.350  0.1223E-01  0.2935E-07  0.9061E-02  0.3144E-01  0.0000E+00  0.0000E+00  0.0000E+00  0.0000E+00  0.0000E+00
     -9.238  0.3823E-02  0.2971E-09  0.5332E-02  0.1613E-01  0.0000E+00  0.0000E+00  0.0000E+00  0.0000E+00  0.0000E+00
     -9.127  0.3325E-02  0.2560E-11  0.5947E-02  0.1753E-01  0.0000E+00  0.0000E+00  0.0000E+00  0.0000E+00  0.0000E+00
     -9.016  0.2915E-02  0.2469E-08  0.7008E-02  0.2089E-01  0.0000E+00  0.0000E+00  0.0000E+00  0.0000E+00  0.0000E+00
     -8.904  0.2486E-02  0.2620E-06  0.1055E-01  0.3396E-01  0.0000E+00  0.0000E+00  0.0000E+00  0.0000E+00  0.0000E+00
     -8.793  0.2242E-02  0.3041E-05  0.2799E-01  0.9958E-01  0.0000E+00  0.0000E+00  0.0000E+00  0.0000E+00  0.0000E+00
     -8.682  0.1381E-02  0.4468E-05  0.3015E-01  0.1099E+00  0.0000E+00  0.0000E+00  0.0000E+00  0.0000E+00  0.0000E+00
     -8.570  0.2032E-03  0.8607E-06  0.5276E-02  0.1932E-01  0.0000E+00  0.0000E+00  0.0000E+00  0.0000E+00  0.0000E+00
     -8.459  0.4093E-05  0.1921E-07  0.1134E-03  0.4157E-03  0.0000E+00  0.0000E+00  0.0000E+00  0.0000E+00  0.0000E+00
     -8.348  0.8861E-08  0.4334E-10  0.2534E-06  0.9286E-06  0.0000E+00  0.0000E+00  0.0000E+00  0.0000E+00  0.0000E+00
     -8.236  0.1846E-11  0.9125E-14  0.5377E-10  0.1970E-09  0.0000E+00  0.0000E+00  0.0000E+00  0.0000E+00  0.0000E+00
     -8.125  0.3511E-16  0.1996E-13  0.1036E-14  0.3794E-14  0.0000E+00  0.0000E+00  0.0000E+00  0.0000E+00  0.0000E+00
     -8.014  0.2263E-15  0.5626E-09  0.4434E-14  0.1287E-15  0.0000E+00  0.0000E+00  0.0000E+00  0.0000E+00  0.0000E+00
     -7.902  0.1176E-10  0.1468E-05  0.2309E-09  0.6722E-11  0.0000E+00  0.0000E+00  0.0000E+00  0.0000E+00  0.0000E+00
     -7.791  0.5523E-07  0.3800E-03  0.1086E-05  0.3174E-07  0.0000E+00  0.0000E+00  0.0000E+00  0.0000E+00  0.0000E+00
     -7.679  0.2447E-04  0.1124E-01  0.4820E-03  0.1419E-04  0.0000E+00  0.0000E+00  0.0000E+00  0.0000E+00  0.0000E+00
     -7.568  0.1116E-02  0.5034E-01  0.2202E-01  0.6585E-03  0.0000E+00  0.0000E+00  0.0000E+00  0.0000E+00  0.0000E+00
     -7.457  0.6149E-02  0.6775E-01  0.1214E+00  0.3809E-02  0.0000E+00  0.0000E+00  0.0000E+00  0.0000E+00  0.0000E+00
     -7.345  0.5254E-02  0.8724E-01  0.1032E+00  0.4040E-02  0.0000E+00  0.0000E+00  0.0000E+00  0.0000E+00  0.0000E+00
     -7.234  0.1723E-02  0.8418E-01  0.3315E-01  0.2692E-02  0.0000E+00  0.0000E+00  0.0000E+00  0.0000E+00  0.0000E+00
     -7.123  0.1274E-02  0.7860E-01  0.2282E-01  0.2848E-02  0.0000E+00  0.0000E+00  0.0000E+00  0.0000E+00  0.0000E+00
     -7.011  0.9264E-02  0.5802E-01  0.2546E-01  0.4761E-02  0.0000E+00  0.0000E+00  0.0000E+00  0.0000E+00  0.0000E+00
     -6.900  0.9025E-01  0.3233E-01  0.6469E-01  0.2189E-01  0.0000E+00  0.0000E+00  0.0000E+00  0.0000E+00  0.0000E+00
     -6.789  0.1428E+00  0.2504E-01  0.9337E-01  0.3346E-01  0.0000E+00  0.0000E+00  0.0000E+00  0.0000E+00  0.0000E+00
     -6.677  0.5087E-01  0.2200E-01  0.5758E-01  0.1460E-01  0.0000E+00  0.0000E+00  0.0000E+00  0.0000E+00  0.0000E+00
     -6.566  0.2497E-01  0.1999E-01  0.6431E-01  0.1047E-01  0.0000E+00  0.0000E+00  0.0000E+00  0.0000E+00  0.0000E+00
     -6.455  0.2604E-01  0.1853E-01  0.1005E+00  0.1250E-01  0.0000E+00  0.0000E+00  0.0000E+00  0.0000E+00  0.0000E+00
     -6.343  0.2259E-01  0.1741E-01  0.8109E-01  0.1218E-01  0.0000E+00  0.0000E+00  0.0000E+00  0.0000E+00  0.0000E+00
     -6.232  0.1874E-01  0.1692E-01  0.5763E-01  0.1223E-01  0.0000E+00  0.0000E+00  0.0000E+00  0.0000E+00  0.0000E+00
     -6.121  0.1812E-01  0.2799E-01  0.5679E-01  0.1445E-01  0.0000E+00  0.0000E+00  0.0000E+00  0.0000E+00  0.0000E+00
     -6.009  0.2025E-01  0.8127E-01  0.6922E-01  0.1958E-01  0.0000E+00  0.0000E+00  0.0000E+00  0.0000E+00  0.0000E+00
     -5.898  0.1821E-01  0.1205E+00  0.1001E+00  0.2050E-01  0.0000E+00  0.0000E+00  0.0000E+00  0.0000E+00  0.0000E+00
     -5.787  0.1245E-01  0.1297E+00  0.9970E-01  0.1296E-01  0.0000E+00  0.0000E+00  0.0000E+00  0.0000E+00  0.0000E+00
     -5.675  0.1158E-01  0.1345E+00  0.4496E-01  0.2694E-01  0.0000E+00  0.0000E+00  0.0000E+00  0.0000E+00  0.0000E+00
     -5.564  0.2171E-01  0.7268E-01  0.5680E-01  0.1548E+00  0.0000E+00  0.0000E+00  0.0000E+00  0.0000E+00  0.0000E+00
     -5.452  0.3297E-01  0.3520E-01  0.6288E-01  0.1632E+00  0.0000E+00  0.0000E+00  0.0000E+00  0.0000E+00  0.0000E+00
     -5.341  0.7886E-01  0.4177E-01  0.7383E-01  0.3092E-01  0.0000E+00  0.0000E+00  0.0000E+00  0.0000E+00  0.0000E+00
     -5.230  0.8485E-01  0.4501E-01  0.7447E-01  0.8205E-02  0.0000E+00  0.0000E+00  0.0000E+00  0.0000E+00  0.0000E+00
     -5.118  0.2502E-01  0.2875E-01  0.2801E-01  0.6062E-02  0.0000E+00  0.0000E+00  0.0000E+00  0.0000E+00  0.0000E+00
     -5.007  0.1367E-01  0.2209E-01  0.2229E-01  0.6409E-02  0.0000E+00  0.0000E+00  0.0000E+00  0.0000E+00  0.0000E+00
     -4.896  0.3186E-01  0.2940E-01  0.6540E-01  0.1626E-01  0.0000E+00  0.0000E+00  0.0000E+00  0.0000E+00  0.0000E+00
     -4.784  0.1423E+00  0.1815E-01  0.2615E+00  0.5422E-01  0.0000E+00  0.0000E+00  0.0000E+00  0.0000E+00  0.0000E+00
     -4.673  0.1591E+00  0.7854E-02  0.2447E+00  0.4462E-01  0.0000E+00  0.0000E+00  0.0000E+00  0.0000E+00  0.0000E+00
     -4.562  0.3788E-01  0.9836E-02  0.6650E-01  0.1108E-01  0.0000E+00  0.0000E+00  0.0000E+00  0.0000E+00  0.0000E+00
     -4.450  0.1355E-01  0.1757E-01  0.3556E-01  0.6370E-02  0.0000E+00  0.0000E+00  0.0000E+00  0.0000E+00  0.0000E+00
     -4.339  0.1464E-01  0.1384E-01  0.3363E-01  0.6669E-02  0.0000E+00  0.0000E+00  0.0000E+00  0.0000E+00  0.0000E+00
     -4.228  0.2151E-01  0.2064E-02  0.3452E-01  0.7540E-02  0.0000E+00  0.0000E+00  0.0000E+00  0.0000E+00  0.0000E+00
     -4.116  0.2219E-01  0.4045E-04  0.4141E-01  0.8207E-02  0.0000E+00  0.0000E+00  0.0000E+00  0.0000E+00  0.0000E+00
     -4.005  0.1377E-01  0.8495E-07  0.4035E-01  0.7042E-02  0.0000E+00  0.0000E+00  0.0000E+00  0.0000E+00  0.0000E+00
     -3.894  0.4298E-02  0.1716E-10  0.2315E-01  0.4215E-02  0.0000E+00  0.0000E+00  0.0000E+00  0.0000E+00  0.0000E+00
     -3.782  0.1598E-02  0.5571E-15  0.1898E-01  0.4020E-02  0.0000E+00  0.0000E+00  0.0000E+00  0.0000E+00  0.0000E+00
     -3.671  0.1163E-02  0.7093E-16  0.1827E-01  0.4237E-02  0.0000E+00  0.0000E+00  0.0000E+00  0.0000E+00  0.0000E+00
     -3.559  0.1001E-02  0.2338E-15  0.1942E-01  0.5631E-02  0.0000E+00  0.0000E+00  0.0000E+00  0.0000E+00  0.0000E+00
     -3.448  0.2475E-02  0.4470E-12  0.3216E-01  0.2088E-01  0.0000E+00  0.0000E+00  0.0000E+00  0.0000E+00  0.0000E+00
     -3.337  0.7857E-02  0.4643E-08  0.6270E-01  0.5811E-01  0.0000E+00  0.0000E+00  0.0000E+00  0.0000E+00  0.0000E+00
     -3.225  0.1150E-01  0.4566E-05  0.6487E-01  0.6607E-01  0.0000E+00  0.0000E+00  0.0000E+00  0.0000E+00  0.0000E+00
     -3.114  0.1201E-01  0.4644E-03  0.5296E-01  0.5804E-01  0.0000E+00  0.0000E+00  0.0000E+00  0.0000E+00  0.0000E+00
     -3.003  0.2621E-01  0.5859E-02  0.1460E+00  0.1462E+00  0.0000E+00  0.0000E+00  0.0000E+00  0.0000E+00  0.0000E+00
     -2.891  0.3035E-01  0.1286E-01  0.1651E+00  0.1680E+00  0.0000E+00  0.0000E+00  0.0000E+00  0.0000E+00  0.0000E+00
     -2.780  0.1739E-01  0.1006E-01  0.4336E-01  0.4862E-01  0.0000E+00  0.0000E+00  0.0000E+00  0.0000E+00  0.0000E+00
     -2.669  0.5767E-01  0.9323E-02  0.3868E-01  0.4280E-01  0.0000E+00  0.0000E+00  0.0000E+00  0.0000E+00  0.0000E+00
     -2.557  0.7420E-01  0.2451E-01  0.5296E-01  0.6173E-01  0.0000E+00  0.0000E+00  0.0000E+00  0.0000E+00  0.0000E+00
     -2.446  0.3937E-01  0.5426E-01  0.2595E-01  0.4806E-01  0.0000E+00  0.0000E+00  0.0000E+00  0.0000E+00  0.0000E+00
     -2.335  0.2144E-01  0.5324E-01  0.1550E-01  0.2861E-01  0.0000E+00  0.0000E+00  0.0000E+00  0.0000E+00  0.0000E+00
     -2.223  0.1403E-01  0.5429E-01  0.1335E-01  0.1539E-01  0.0000E+00  0.0000E+00  0.0000E+00  0.0000E+00  0.0000E+00
     -2.112  0.1216E-01  0.5441E-01  0.1545E-01  0.1130E-01  0.0000E+00  0.0000E+00  0.0000E+00  0.0000E+00  0.0000E+00
     -2.001  0.1303E-01  0.4332E-01  0.2573E-01  0.9709E-02  0.0000E+00  0.0000E+00  0.0000E+00  0.0000E+00  0.0000E+00
     -1.889  0.1266E-01  0.8294E-01  0.2534E-01  0.1140E-01  0.0000E+00  0.0000E+00  0.0000E+00  0.0000E+00  0.0000E+00
     -1.778  0.1193E-01  0.7471E-01  0.1500E-01  0.1170E-01  0.0000E+00  0.0000E+00  0.0000E+00  0.0000E+00  0.0000E+00
     -1.667  0.1121E-01  0.4225E-01  0.1065E-01  0.9825E-02  0.0000E+00  0.0000E+00  0.0000E+00  0.0000E+00  0.0000E+00
     -1.555  0.1333E-01  0.5400E-01  0.1331E-01  0.8654E-02  0.0000E+00  0.0000E+00  0.0000E+00  0.0000E+00  0.0000E+00
     -1.444  0.2848E-01  0.5419E-01  0.4382E-01  0.2543E-01  0.0000E+00  0.0000E+00  0.0000E+00  0.0000E+00  0.0000E+00
     -1.332  0.1039E+00  0.3228E-01  0.1587E+00  0.1005E+00  0.0000E+00  0.0000E+00  0.0000E+00  0.0000E+00  0.0000E+00
     -1.221  0.1390E+00  0.2418E-01  0.1997E+00  0.1199E+00  0.0000E+00  0.0000E+00  0.0000E+00  0.0000E+00  0.0000E+00
     -1.110  0.1010E+00  0.2416E-01  0.2379E+00  0.8095E-01  0.0000E+00  0.0000E+00  0.0000E+00  0.0000E+00  0.0000E+00
     -0.998  0.9124E-01  0.2669E-01  0.2359E+00  0.1118E+00  0.0000E+00  0.0000E+00  0.0000E+00  0.0000E+00  0.0000E+00
     -0.887  0.8035E-01  0.2379E-01  0.1005E+00  0.1496E+00  0.0000E+00  0.0000E+00  0.0000E+00  0.0000E+00  0.0000E+00
     -0.776  0.3715E-01  0.2058E-01  0.6660E-01  0.7365E-01  0.0000E+00  0.0000E+00  0.0000E+00  0.0000E+00  0.0000E+00
     -0.664  0.1292E-01  0.2063E-01  0.3075E-01  0.2131E-01  0.0000E+00  0.0000E+00  0.0000E+00  0.0000E+00  0.0000E+00
     -0.553  0.8246E-02  0.2339E-01  0.1006E-01  0.1042E-01  0.0000E+00  0.0000E+00  0.0000E+00  0.0000E+00  0.0000E+00
     -0.442  0.1227E-01  0.2236E-01  0.8442E-02  0.1761E-01  0.0000E+00  0.0000E+00  0.0000E+00  0.0000E+00  0.0000E+00
     -0.330  0.2684E-01  0.1901E-01  0.1135E-01  0.4513E-01  0.0000E+00  0.0000E+00  0.0000E+00  0.0000E+00  0.0000E+00
     -0.219  0.3964E-01  0.1933E-01  0.1301E-01  0.6097E-01  0.0000E+00  0.0000E+00  0.0000E+00  0.0000E+00  0.0000E+00
     -0.108  0.2997E-01  0.1948E-01  0.1205E-01  0.4282E-01  0.0000E+00  0.0000E+00  0.0000E+00  0.0000E+00  0.0000E+00
      0.004  0.1122E-01  0.2345E-01  0.1084E-01  0.1683E-01  0.0000E+00  0.0000E+00  0.0000E+00  0.0000E+00  0.0000E+00
      0.115  0.8387E-02  0.3000E-01  0.1318E-01  0.1221E-01  0.0000E+00  0.0000E+00  0.0000E+00  0.0000E+00  0.0000E+00
      0.226  0.7385E-02  0.4865E-01  0.1141E-01  0.1082E-01  0.0000E+00  0.0000E+00  0.0000E+00  0.0000E+00  0.0000E+00
      0.338  0.5217E-02  0.7984E-01  0.5966E-02  0.8736E-02  0.0000E+00  0.0000E+00  0.0000E+00  0.0000E+00  0.0000E+00
      0.449  0.4927E-02  0.1334E+00  0.6739E-02  0.8344E-02  0.0000E+00  0.0000E+00  0.0000E+00  0.0000E+00  0.0000E+00
      0.560  0.5429E-02  0.1294E+00  0.9524E-02  0.8573E-02  0.0000E+00  0.0000E+00  0.0000E+00  0.0000E+00  0.0000E+00
      0.672  0.8757E-02  0.1210E+00  0.2015E-01  0.1241E-01  0.0000E+00  0.0000E+00  0.0000E+00  0.0000E+00  0.0000E+00
      0.783  0.2275E-01  0.1016E+00  0.5885E-01  0.2889E-01  0.0000E+00  0.0000E+00  0.0000E+00  0.0000E+00  0.0000E+00
      0.895  0.3971E-01  0.1025E+00  0.9692E-01  0.4606E-01  0.0000E+00  0.0000E+00  0.0000E+00  0.0000E+00  0.0000E+00
      1.006  0.2640E-01  0.9732E-01  0.6274E-01  0.3031E-01  0.0000E+00  0.0000E+00  0.0000E+00  0.0000E+00  0.0000E+00
      1.117  0.1188E-01  0.4896E-01  0.2309E-01  0.1181E-01  0.0000E+00  0.0000E+00  0.0000E+00  0.0000E+00  0.0000E+00
      1.229  0.1137E-01  0.2774E-01  0.1972E-01  0.9349E-02  0.0000E+00  0.0000E+00  0.0000E+00  0.0000E+00  0.0000E+00
      1.340  0.1030E-01  0.2454E-01  0.2107E-01  0.8464E-02  0.0000E+00  0.0000E+00  0.0000E+00  0.0000E+00  0.0000E+00
      1.451  0.1045E-01  0.2293E-01  0.2325E-01  0.1086E-01  0.0000E+00  0.0000E+00  0.0000E+00  0.0000E+00  0.0000E+00
      1.563  0.8768E-02  0.2182E-01  0.4534E-01  0.2591E-01  0.0000E+00  0.0000E+00  0.0000E+00  0.0000E+00  0.0000E+00