   14   14    1    1
  0.1021318E+02  0.6201871E-09  0.5700971E-09  0.4044058E-09  0.5000000E-15
  1.000000000000000E-004
  CAR 
 BS                                      
     42    168     48
 
  0.0000000E+00  0.0000000E+00  0.0000000E+00  0.5952381E-02
      1        -14.289678   1.000000
      2        -11.285362   1.000000
      3        -10.066026   1.000000
      4         -9.849203   1.000000
      5         -7.348223   1.000000
      6         -6.501756   1.000000
      7         -5.868443   1.000000
      8         -4.424741   1.000000
      9         -4.244440   1.000000
     10         -3.425829   1.000000
     11         -2.669005   1.000000
     12         -2.606556   1.000000
     13         -2.516054   1.000000
     14         -1.625994   1.000000
     15         -1.376948   1.000000
     16         -0.185606   1.000000
     17          0.726534   1.000000
     18          1.677308   1.000000
     19          2.122307   0.999895
     20          2.438258   0.222814
     21          3.047747   0.000000
     22          3.259430   0.000000
     23          4.111663   0.000000
     24          4.271770   0.000000
     25          4.456626   0.000000
     26          5.773122   0.000000
     27          5.795687   0.000000
     28          6.184324   0.000000
     29          6.352923   0.000000
     30          7.003160   0.000000
     31          7.099352   0.000000
     32          7.182528   0.000000
     33          7.590358   0.000000
     34          8.488764   0.000000
     35         10.606762   0.000000
     36         10.779652   0.000000
     37         10.875835   0.000000
     38         11.300599   0.000000
     39         11.976285   0.000000
     40         12.188589   0.000000
     41         12.625806   0.000000
     42         12.692730   0.000000
     43         13.633124   0.000000
     44         14.018474   0.000000
     45         14.183554   0.000000
     46         14.611374   0.000000
     47         15.058070   0.000000
     48         15.326412   0.000000
 
  0.0000000E+00  0.0000000E+00  0.2173913E-01  0.5952381E-02
      1        -14.287386   1.000000
      2        -11.290652   1.000000
      3        -10.067159   1.000000
      4         -9.847638   1.000000
      5         -7.344811   1.000000
      6         -6.491460   1.000000
      7         -5.874725   1.000000
      8         -4.425708   1.000000
      9         -4.261899   1.000000
     10         -3.424760   1.000000
     11         -2.667534   1.000000
     12         -2.603738   1.000000
     13         -2.496634   1.000000
     14         -1.625686   1.000000
     15         -1.369473   1.000000
     16         -0.188274   1.000000
     17          0.702527   1.000000
     18          1.677856   1.000000
     19          2.122343   0.999894
     20          2.437843   0.224569
     21          3.033175   0.000000
     22          3.260570   0.000000
     23          4.098802   0.000000
     24          4.277290   0.000000
     25          4.477874   0.000000
     26          5.761351   0.000000
     27          5.792662   0.000000
     28          6.183925   0.000000
     29          6.340746   0.000000
     30          7.008808   0.000000
     31          7.104536   0.000000
     32          7.190674   0.000000
     33          7.592194   0.000000
     34          8.490166   0.000000
     35         10.604764   0.000000
     36         10.792048   0.000000
     37         10.878378   0.000000
     38         11.308196   0.000000
     39         11.982222   0.000000
     40         12.171479   0.000000
     41         12.655634   0.000000
     42         12.688126   0.000000
     43         13.642918   0.000000
     44         14.026283   0.000000
     45         14.180431   0.000000
     46         14.573784   0.000000
     47         15.089215   0.000000
     48         15.327610   0.000000
 
  0.0000000E+00  0.0000000E+00  0.4347826E-01  0.5952381E-02
      1        -14.280505   1.000000
      2        -11.306546   1.000000
      3        -10.070199   1.000000
      4         -9.842959   1.000000
      5         -7.334568   1.000000
      6         -6.461061   1.000000
      7         -5.893432   1.000000
      8         -4.428650   1.000000
      9         -4.311564   1.000000
     10         -3.421453   1.000000
     11         -2.663063   1.000000
     12         -2.595284   1.000000
     13         -2.441043   1.000000
     14         -1.624739   1.000000
     15         -1.347474   1.000000
     16         -0.196185   1.000000
     17          0.633694   1.000000
     18          1.679491   1.000000
     19          2.122566   0.999893
     20          2.434321   0.239770
     21          2.990567   0.000000
     22          3.263957   0.000000
     23          4.060594   0.000000
     24          4.293213   0.000000
     25          4.540818   0.000000
     26          5.726811   0.000000
     27          5.783488   0.000000
     28          6.182778   0.000000
     29          6.305395   0.000000
     30          7.025894   0.000000
     31          7.119207   0.000000
     32          7.214590   0.000000
     33          7.597566   0.000000
     34          8.494408   0.000000
     35         10.598962   0.000000
     36         10.828035   0.000000
     37         10.884921   0.000000
     38         11.331563   0.000000
     39         11.999493   0.000000
     40         12.133029   0.000000
     41         12.674796   0.000000
     42         12.732638   0.000000
     43         13.671749   0.000000
     44         14.049999   0.000000
     45         14.170650   0.000000
     46         14.482440   0.000000
     47         15.162355   0.000000
     48         15.331119   0.000000
 
  0.0000000E+00  0.0000000E+00  0.6521739E-01  0.5952381E-02
      1        -14.269052   1.000000
      2        -11.333137   1.000000
      3        -10.074315   1.000000
      4         -9.835234   1.000000
      5         -7.317528   1.000000
      6         -6.412064   1.000000
      7         -5.924046   1.000000
      8         -4.433805   1.000000
      9         -4.386522   1.000000
     10         -3.415689   1.000000
     11         -2.655475   1.000000
     12         -2.581247   1.000000
     13         -2.355997   1.000000
     14         -1.623079   1.000000
     15         -1.312250   1.000000
     16         -0.209211   1.000000
     17          0.527987   1.000000
     18          1.682343   1.000000
     19          2.123258   0.999889
     20          2.422406   0.295101
     21          2.922794   0.000000
     22          3.269524   0.000000
     23          3.997925   0.000000
     24          4.317901   0.000000
     25          4.642637   0.000000
     26          5.671596   0.000000
     27          5.767889   0.000000
     28          6.180811   0.000000
     29          6.249803   0.000000
     30          7.054794   0.000000
     31          7.141251   0.000000
     32          7.252657   0.000000
     33          7.605739   0.000000
     34          8.501525   0.000000
     35         10.589913   0.000000
     36         10.884097   0.000000
     37         10.892397   0.000000
     38         11.372349   0.000000
     39         12.026492   0.000000
     40         12.094124   0.000000
     41         12.653886   0.000000
     42         12.837197   0.000000
     43         13.717956   0.000000
     44         14.090457   0.000000
     45         14.151611   0.000000
     46         14.368124   0.000000
     47         15.251245   0.000000
     48         15.336832   0.000000
 
  0.0000000E+00  0.0000000E+00  0.8695652E-01  0.5952381E-02
      1        -14.253026   1.000000
      2        -11.370442   1.000000
      3        -10.078189   1.000000
      4         -9.824555   1.000000
      5         -7.293719   1.000000
      6         -6.346967   1.000000
      7         -5.965717   1.000000
      8         -4.478165   1.000000
      9         -4.441513   1.000000
     10         -3.407089   1.000000
     11         -2.644596   1.000000
     12         -2.561683   1.000000
     13         -2.249674   1.000000
     14         -1.620483   1.000000
     15         -1.265799   1.000000
     16         -0.226967   1.000000
     17          0.395322   1.000000
     18          1.686618   1.000000
     19          2.124862   0.999878
     20          2.397036   0.428671
     21          2.833775   0.000000
     22          3.277095   0.000000
     23          3.912549   0.000000
     24          4.349430   0.000000
     25          4.778540   0.000000
     26          5.598729   0.000000
     27          5.745541   0.000000
     28          6.177601   0.000000
     29          6.177953   0.000000
     30          7.096357   0.000000
     31          7.168360   0.000000
     32          7.302469   0.000000
     33          7.615860   0.000000
     34          8.511628   0.000000
     35         10.578578   0.000000
     36         10.896309   0.000000
     37         10.954527   0.000000
     38         11.433318   0.000000
     39         12.060828   0.000000
     40         12.068739   0.000000
     41         12.627096   0.000000
     42         12.957225   0.000000
     43         13.778858   0.000000
     44         14.109944   0.000000
     45         14.148909   0.000000
     46         14.259099   0.000000
     47         15.343878   0.000000
     48         15.345243   0.000000
 
  0.0000000E+00  0.0000000E+00  0.1086957E+00  0.5952381E-02
      1        -14.232451   1.000000
      2        -11.418364   1.000000
      3        -10.080444   1.000000
      4         -9.811080   1.000000
      5         -7.263188   1.000000
      6         -6.269488   1.000000
      7         -6.017316   1.000000
      8         -4.577762   1.000000
      9         -4.452271   1.000000
     10         -3.395248   1.000000
     11         -2.630283   1.000000
     12         -2.536707   1.000000
     13         -2.130154   1.000000
     14         -1.616394   1.000000
     15         -1.210684   1.000000
     16         -0.248878   1.000000
     17          0.245048   1.000000
     18          1.692687   1.000000
     19          2.127976   0.999856
     20          2.355299   0.659279
     21          2.727597   0.000001
     22          3.286233   0.000000
     23          3.806939   0.000000
     24          4.386098   0.000000
     25          4.941654   0.000000
     26          5.511781   0.000000
     27          5.716053   0.000000
     28          6.092237   0.000000
     29          6.174033   0.000000
     30          7.151816   0.000000
     31          7.198583   0.000000
     32          7.360912   0.000000
     33          7.627001   0.000000
     34          8.524871   0.000000
     35         10.566192   0.000000
     36         10.891883   0.000000
     37         11.032282   0.000000
     38         11.517643   0.000000
     39         12.064861   0.000000
     40         12.099507   0.000000
     41         12.596168   0.000000
     42         13.086018   0.000000
     43         13.850344   0.000000
     44         14.014829   0.000000
     45         14.194522   0.000000
     46         14.226733   0.000000
     47         15.331312   0.000000
     48         15.352281   0.000000
 
  0.0000000E+00  0.0000000E+00  0.1304348E+00  0.5952381E-02
      1        -14.207342   1.000000
      2        -11.476544   1.000000
      3        -10.079763   1.000000
      4         -9.794999   1.000000
      5         -7.225980   1.000000
      6         -6.184855   1.000000
      7         -6.077491   1.000000
      8         -4.676663   1.000000
      9         -4.466657   1.000000
     10         -3.379793   1.000000
     11         -2.612444   1.000000
     12         -2.506419   1.000000
     13         -2.005326   1.000000
     14         -1.609317   1.000000
     15         -1.149812   1.000000
     16         -0.274002   1.000000
     17          0.085113   1.000000
     18          1.701000   1.000000
     19          2.133198   0.999808
     20          2.296742   0.892255
     21          2.608129   0.000775
     22          3.295650   0.000000
     23          3.684793   0.000000
     24          4.426706   0.000000
     25          5.123906   0.000000
     26          5.414437   0.000000
     27          5.679040   0.000000
     28          5.996787   0.000000
     29          6.168831   0.000000
     30          7.222960   0.000000
     31          7.230733   0.000000
     32          7.424595   0.000000
     33          7.638429   0.000000
     34          8.541479   0.000000
     35         10.554392   0.000000
     36         10.875623   0.000000
     37         11.110669   0.000000
     38         11.627282   0.000000
     39         12.086328   0.000000
     40         12.139353   0.000000
     41         12.562868   0.000000
     42         13.219303   0.000000
     43         13.880302   0.000000
     44         13.925926   0.000000
     45         14.166303   0.000000
     46         14.325022   0.000000
     47         15.199819   0.000000
     48         15.362178   0.000000
 
  0.0000000E+00  0.0000000E+00  0.1521739E+00  0.5952381E-02
      1        -14.177722   1.000000
      2        -11.544388   1.000000
      3        -10.075184   1.000000
      4         -9.776570   1.000000
      5         -7.182170   1.000000
      6         -6.144780   1.000000
      7         -6.100586   1.000000
      8         -4.765407   1.000000
      9         -4.485420   1.000000
     10         -3.360444   1.000000
     11         -2.591088   1.000000
     12         -2.471038   1.000000
     13         -1.884922   1.000000
     14         -1.595077   1.000000
     15         -1.086379   1.000000
     16         -0.300946   1.000000
     17         -0.078291   1.000000
     18          1.712018   1.000000
     19          2.141089   0.999709
     20          2.222604   0.988905
     21          2.478782   0.090803
     22          3.300281   0.000000
     23          3.553724   0.000000
     24          4.470490   0.000000
     25          5.310223   0.000000
     26          5.316450   0.000000
     27          5.634147   0.000000
     28          5.893822   0.000000
     29          6.162063   0.000000
     30          7.263999   0.000000
     31          7.311911   0.000000
     32          7.489857   0.000000
     33          7.649508   0.000000
     34          8.561757   0.000000
     35         10.544993   0.000000
     36         10.846385   0.000000
     37         11.185011   0.000000
     38         11.761176   0.000000
     39         12.133188   0.000000
     40         12.177418   0.000000
     41         12.528693   0.000000
     42         13.353752   0.000000
     43         13.735266   0.000000
     44         13.994679   0.000000
     45         14.150933   0.000000
     46         14.443886   0.000000
     47         15.092737   0.000000
     48         15.370374   0.000000
 
  0.0000000E+00  0.0000000E+00  0.1739130E+00  0.5952381E-02
      1        -14.143627   1.000000
      2        -11.621016   1.000000
      3        -10.066032   1.000000
      4         -9.756103   1.000000
      5         -7.131852   1.000000
      6         -6.217580   1.000000
      7         -6.027197   1.000000
      8         -4.832466   1.000000
      9         -4.509339   1.000000
     10         -3.337042   1.000000
     11         -2.566303   1.000000
     12         -2.430719   1.000000
     13         -1.785333   1.000000
     14         -1.562443   1.000000
     15         -1.023723   1.000000
     16         -0.327575   1.000000
     17         -0.240244   1.000000
     18          1.726348   1.000000
     19          2.135113   0.999788
     20          2.152080   0.999489
     21          2.342608   0.722395
     22          3.274275   0.000000
     23          3.442443   0.000000
     24          4.517034   0.000000
     25          5.202381   0.000000
     26          5.510434   0.000000
     27          5.581174   0.000000
     28          5.785594   0.000000
     29          6.153643   0.000000
     30          7.297946   0.000000
     31          7.420989   0.000000
     32          7.553165   0.000000
     33          7.659867   0.000000
     34          8.586020   0.000000
     35         10.540281   0.000000
     36         10.805382   0.000000
     37         11.252729   0.000000
     38         11.915275   0.000000
     39         12.202728   0.000000
     40         12.211420   0.000000
     41         12.494988   0.000000
     42         13.486444   0.000000
     43         13.591209   0.000000
     44         14.039825   0.000000
     45         14.142516   0.000000
     46         14.581263   0.000000
     47         15.031115   0.000000
     48         15.379308   0.000000
 
  0.0000000E+00  0.0000000E+00  0.1956522E+00  0.5952381E-02
      1        -14.105084   1.000000
      2        -11.705334   1.000000
      3        -10.052014   1.000000
      4         -9.733944   1.000000
      5         -7.075136   1.000000
      6         -6.294203   1.000000
      7         -5.977896   1.000000
      8         -4.864234   1.000000
      9         -4.539274   1.000000
     10         -3.309527   1.000000
     11         -2.538259   1.000000
     12         -2.385720   1.000000
     13         -1.726788   1.000000
     14         -1.496506   1.000000
     15         -0.965202   1.000000
     16         -0.396991   1.000000
     17         -0.350671   1.000000
     18          1.744573   1.000000
     19          2.036851   1.000000
     20          2.166574   0.998963
     21          2.202239   0.994989
     22          3.163063   0.000000
     23          3.408620   0.000000
     24          4.566132   0.000000
     25          5.093867   0.000000
     26          5.520064   0.000000
     27          5.674067   0.000000
     28          5.697057   0.000000
     29          6.144234   0.000000
     30          7.332292   0.000000
     31          7.551920   0.000000
     32          7.611183   0.000000
     33          7.669263   0.000000
     34          8.614598   0.000000
     35         10.542900   0.000000
     36         10.755304   0.000000
     37         11.311732   0.000000
     38         12.083778   0.000000
     39         12.239951   0.000000
     40         12.290640   0.000000
     41         12.462888   0.000000
     42         13.455269   0.000000
     43         13.614521   0.000000
     44         14.043623   0.000000
     45         14.140234   0.000000
     46         14.729758   0.000000
     47         15.033794   0.000000
     48         15.403960   0.000000
 
  0.0000000E+00  0.0000000E+00  0.2173913E+00  0.5952381E-02
      1        -14.062125   1.000000
      2        -11.796165   1.000000
      3        -10.033127   1.000000
      4         -9.710556   1.000000
      5         -7.012123   1.000000
      6         -6.372997   1.000000
      7         -5.964470   1.000000
      8         -4.849056   1.000000
      9         -4.576053   1.000000
     10         -3.278038   1.000000
     11         -2.507229   1.000000
     12         -2.336328   1.000000
     13         -1.704739   1.000000
     14         -1.407862   1.000000
     15         -0.914102   1.000000
     16         -0.545568   1.000000
     17         -0.365677   1.000000
     18          1.767120   1.000000
     19          1.930444   1.000000
     20          2.060017   0.999998
     21          2.184639   0.997629
     22          3.002551   0.000000
     23          3.419424   0.000000
     24          4.617722   0.000000
     25          4.987266   0.000000
     26          5.450925   0.000000
     27          5.560948   0.000000
     28          5.865855   0.000000
     29          6.137820   0.000000
     30          7.366865   0.000000
     31          7.661043   0.000000
     32          7.677594   0.000000
     33          7.704796   0.000000
     34          8.647667   0.000000
     35         10.556015   0.000000
     36         10.699285   0.000000
     37         11.358870   0.000000
     38         12.260392   0.000000
     39         12.262558   0.000000
     40         12.392256   0.000000
     41         12.433293   0.000000
     42         13.334417   0.000000
     43         13.735010   0.000000
     44         14.001572   0.000000
     45         14.144291   0.000000
     46         14.866199   0.000000
     47         15.106156   0.000000
     48         15.384770   0.000000
 
  0.0000000E+00  0.0000000E+00  0.2391304E+00  0.5952381E-02
      1        -14.014803   1.000000
      2        -11.892329   1.000000
      3        -10.009629   1.000000
      4         -9.686441   1.000000
      5         -6.942977   1.000000
      6         -6.452237   1.000000
      7         -5.990033   1.000000
      8         -4.784137   1.000000
      9         -4.620468   1.000000
     10         -3.242830   1.000000
     11         -2.473543   1.000000
     12         -2.282921   1.000000
     13         -1.700918   1.000000
     14         -1.321759   1.000000
     15         -0.873504   1.000000
     16         -0.683839   1.000000
     17         -0.366595   1.000000
     18          1.794015   1.000000
     19          1.818439   1.000000
     20          1.918009   1.000000
     21          2.206121   0.994136
     22          2.828217   0.000000
     23          3.442922   0.000000
     24          4.671747   0.000000
     25          4.884830   0.000000
     26          5.374071   0.000000
     27          5.447763   0.000000
     28          5.990667   0.000000
     29          6.156447   0.000000
     30          7.401407   0.000000
     31          7.684790   0.000000
     32          7.700442   0.000000
     33          7.877086   0.000000
     34          8.685119   0.000000
     35         10.583476   0.000000
     36         10.640394   0.000000
     37         11.389519   0.000000
     38         12.279637   0.000000
     39         12.406700   0.000000
     40         12.438708   0.000000
     41         12.503276   0.000000
     42         13.236487   0.000000
     43         13.844769   0.000000
     44         13.926386   0.000000
     45         14.155153   0.000000
     46         14.932978   0.000000
     47         15.237221   0.000000
     48         15.409799   0.000000
 
  0.0000000E+00  0.0000000E+00  0.2608696E+00  0.5952381E-02
      1        -13.963161   1.000000
      2        -11.992629   1.000000
      3         -9.981885   1.000000
      4         -9.662200   1.000000
      5         -6.867867   1.000000
      6         -6.530246   1.000000
      7         -6.047505   1.000000
      8         -4.677057   1.000000
      9         -4.673158   1.000000
     10         -3.204277   1.000000
     11         -2.437608   1.000000
     12         -2.225908   1.000000
     13         -1.706441   1.000000
     14         -1.254080   1.000000
     15         -0.846144   1.000000
     16         -0.810223   1.000000
     17         -0.346900   1.000000
     18          1.703296   1.000000
     19          1.778137   1.000000
     20          1.824474   1.000000
     21          2.230699   0.985095
     22          2.650485   0.000084
     23          3.472628   0.000000
     24          4.728171   0.000000
     25          4.788542   0.000000
     26          5.290015   0.000000
     27          5.335845   0.000000
     28          6.024521   0.000000
     29          6.245650   0.000000
     30          7.435696   0.000000
     31          7.690900   0.000000
     32          7.727876   0.000000
     33          8.063097   0.000000
     34          8.726552   0.000000
     35         10.581385   0.000000
     36         10.629890   0.000000
     37         11.398312   0.000000
     38         12.292427   0.000000
     39         12.383293   0.000000
     40         12.611768   0.000000
     41         12.619995   0.000000
     42         13.170484   0.000000
     43         13.835155   0.000000
     44         13.940515   0.000000
     45         14.173349   0.000000
     46         14.899038   0.000000
     47         15.410537   0.000000
     48         15.423561   0.000000
 
  0.0000000E+00  0.0000000E+00  0.2826087E+00  0.5952381E-02
      1        -13.907256   1.000000
      2        -12.095995   1.000000
      3         -9.950463   1.000000
      4         -9.638499   1.000000
      5         -6.786984   1.000000
      6         -6.605375   1.000000
      7         -6.125927   1.000000
      8         -4.734549   1.000000
      9         -4.539524   1.000000
     10         -3.162970   1.000000
     11         -2.399900   1.000000
     12         -2.165791   1.000000
     13         -1.718359   1.000000
     14         -1.212264   1.000000
     15         -0.923839   1.000000
     16         -0.834188   1.000000
     17         -0.302189   1.000000
     18          1.587330   1.000000
     19          1.642184   1.000000
     20          1.855623   1.000000
     21          2.257703   0.963330
     22          2.476465   0.096279
     23          3.507008   0.000000
     24          4.700093   0.000000
     25          4.786940   0.000000
     26          5.199404   0.000000
     27          5.226437   0.000000
     28          6.008249   0.000000
     29          6.365323   0.000000
     30          7.469384   0.000000
     31          7.695955   0.000000
     32          7.742557   0.000000
     33          8.254275   0.000000
     34          8.771135   0.000000
     35         10.524757   0.000000
     36         10.700416   0.000000
     37         11.380764   0.000000
     38         12.302784   0.000000
     39         12.362733   0.000000
     40         12.739326   0.000000
     41         12.770862   0.000000
     42         13.145725   0.000000
     43         13.740660   0.000000
     44         14.019015   0.000000
     45         14.199331   0.000000
     46         14.811307   0.000000
     47         15.443011   0.000000
     48         15.611474   0.000000
 
  0.0000000E+00  0.0000000E+00  0.3043478E+00  0.5952381E-02
      1        -13.847165   1.000000
      2        -12.201464   1.000000
      3         -9.915969   1.000000
      4         -9.616121   1.000000
      5         -6.700571   1.000000
      6         -6.676011   1.000000
      7         -6.215828   1.000000
      8         -4.804817   1.000000
      9         -4.381814   1.000000
     10         -3.119693   1.000000
     11         -2.360968   1.000000
     12         -2.103126   1.000000
     13         -1.735734   1.000000
     14         -1.196645   1.000000
     15         -1.024437   1.000000
     16         -0.839035   1.000000
     17         -0.232760   1.000000
     18          1.472793   1.000000
     19          1.511824   1.000000
     20          1.878656   1.000000
     21          2.286213   0.917358
     22          2.317267   0.828524
     23          3.545718   0.000000
     24          4.620921   0.000000
     25          4.847970   0.000000
     26          5.103038   0.000000
     27          5.120607   0.000000
     28          5.976828   0.000000
     29          6.482604   0.000000
     30          7.502156   0.000000
     31          7.700049   0.000000
     32          7.744447   0.000000
     33          8.440343   0.000000
     34          8.817758   0.000000
     35         10.472718   0.000000
     36         10.800325   0.000000
     37         11.335559   0.000000
     38         12.313249   0.000000
     39         12.344252   0.000000
     40         12.858610   0.000000
     41         12.904702   0.000000
     42         13.171004   0.000000
     43         13.651406   0.000000
     44         14.077525   0.000000
     45         14.233509   0.000000
     46         14.703059   0.000000
     47         15.470847   0.000000
     48         15.834625   0.000000
 
  0.0000000E+00  0.0000000E+00  0.3260870E+00  0.5952381E-02
      1        -13.782949   1.000000
      2        -12.308166   1.000000
      3         -9.879054   1.000000
      4         -9.595845   1.000000
      5         -6.740524   1.000000
      6         -6.608889   1.000000
      7         -6.310483   1.000000
      8         -4.883824   1.000000
      9         -4.211555   1.000000
     10         -3.075426   1.000000
     11         -2.321432   1.000000
     12         -2.038580   1.000000
     13         -1.758266   1.000000
     14         -1.202042   1.000000
     15         -1.112353   1.000000
     16         -0.861098   1.000000
     17         -0.143271   1.000000
     18          1.361895   1.000000
     19          1.388726   1.000000
     20          1.867977   1.000000
     21          2.200006   0.995429
     22          2.315180   0.835930
     23          3.588828   0.000000
     24          4.552230   0.000000
     25          4.911125   0.000000
     26          5.001921   0.000000
     27          5.019310   0.000000
     28          5.937331   0.000000
     29          6.593002   0.000000
     30          7.533558   0.000000
     31          7.703243   0.000000
     32          7.733968   0.000000
     33          8.611162   0.000000
     34          8.865134   0.000000
     35         10.427451   0.000000
     36         10.933475   0.000000
     37         11.265444   0.000000
     38         12.326564   0.000000
     39         12.327287   0.000000
     40         12.975664   0.000000
     41         13.008602   0.000000
     42         13.244716   0.000000
     43         13.573142   0.000000
     44         14.114307   0.000000
     45         14.276356   0.000000
     46         14.586578   0.000000
     47         15.507922   0.000000
     48         16.078764   0.000000
 
  0.0000000E+00  0.0000000E+00  0.3478261E+00  0.5952381E-02
      1        -13.714688   1.000000
      2        -12.415324   1.000000
      3         -9.840500   1.000000
      4         -9.578534   1.000000
      5         -6.797400   1.000000
      6         -6.512248   1.000000
      7         -6.405391   1.000000
      8         -4.971126   1.000000